<event>
 6    0  0.8991567E+002  0.9070160E+02  0.7546771E-02  0.1301162E+00
         21   -1    0    0  503  501  0.00000000000E+00  0.00000000000E+00  0.15800266346E+03  0.15800266346E+03  0.00000000000E+00 0.  1.
         21   -1    0    0  504  502 -0.00000000000E+00 -0.00000000000E+00 -0.66497262309E+03  0.66497262309E+03  0.00000000000E+00 0. -1.
         21    1    1    2  503  505 -0.76847048496E+02 -0.72185680709E+02  0.84183039212E+02  0.13491858824E+03  0.00000000000E+00 0.  1.
         21    1    1    2  504  506  0.18538395813E+02  0.27006493973E+02 -0.53395643740E+03  0.53496027878E+03  0.00000000000E+00 0. -1.
         21    1    1    2  505  502  0.58117508421E+01  0.77512069246E+02 -0.17216541161E+02  0.79613482628E+02  0.00000000000E+00 0.  1.
         21    1    1    2  506  501  0.52496901840E+02 -0.32332882509E+02 -0.39980020278E+02  0.73482936901E+02  0.00000000000E+00 0.  1.
<scales pt_clust_3="14000.00000" pt_clust_4="32.75703" pt_clust_5="90.70160" pt_clust_6="63.96112"></scales>
<clustering>
<clus scale="   32.757">  2  4  1 -1</clus>
<clus scale="   63.961">  2  6  1 -1</clus>
<clus scale="   90.702">  2  5  1 -1</clus>
<clus scale="   90.702">  1  3  2 -1</clus>
</clustering>
</event>
<event>
 6    0  0.8991567E+002  0.1031861E+03  0.7546771E-02  0.1273735E+00
         21   -1    0    0  503  501  0.00000000000E+00  0.00000000000E+00  0.77027169487E+03  0.77027169487E+03  0.00000000000E+00 0. -1.
         21   -1    0    0  505  502 -0.00000000000E+00 -0.00000000000E+00 -0.63532552357E+02  0.63532552357E+02  0.00000000000E+00 0. -1.
         21    1    1    2  503  504 -0.36364161314E+02  0.12040834334E+03  0.44418439433E+03  0.46164953974E+03  0.00000000000E+00 0. -1.
         21    1    1    2  504  506  0.78330750774E+01 -0.11686449154E+03  0.14414096037E+03  0.18572905778E+03  0.00000000000E+00 0. -1.
         21    1    1    2  505  501  0.20867239050E+02 -0.37887237366E+02  0.13905735146E+03  0.14562908850E+03  0.00000000000E+00 0. -1.
         21    1    1    2  506  502  0.76638471874E+01  0.34343385563E+02 -0.20643563657E+02  0.40796561204E+02  0.00000000000E+00 0. -1.
<scales pt_clust_3="103.18610" pt_clust_4="14000.00000" pt_clust_5="40.67837" pt_clust_6="35.18810"></scales>
<clustering>
<clus scale="   35.188">  2  6  1 -1</clus>
<clus scale="   40.678">  1  5  2 -1</clus>
<clus scale="  103.186">  1  3  2 -1</clus>
<clus scale="   40.678">  1  3  2 -1</clus>
</clustering>
</event>
<event>
 6    0  0.8991567E+002  0.7163990E+02  0.7546771E-02  0.1354604E+00
         21   -1    0    0  505  501  0.00000000000E+00  0.00000000000E+00  0.18632455702E+03  0.18632455702E+03  0.00000000000E+00 0.  1.
         21   -1    0    0  504  502 -0.00000000000E+00 -0.00000000000E+00 -0.22176936943E+04  0.22176936943E+04  0.00000000000E+00 0.  1.
         21    1    1    2  503  501 -0.85584548903E+02 -0.99658489331E+01  0.50772777634E+02  0.10000954007E+03  0.00000000000E+00 0.  1.
         21    1    1    2  504  506 -0.28386675947E+02 -0.20954811948E+02 -0.13824773116E+04  0.13829274835E+04  0.00000000000E+00 0.  1.
         21    1    1    2  505  502  0.33885808905E+02 -0.37766234545E+02  0.10124727543E+03  0.11324993289E+03  0.00000000000E+00 0.  1.
         21    1    1    2  506  503  0.80085415945E+02  0.68686895426E+02 -0.80091187874E+03  0.80783129486E+03  0.00000000000E+00 0.  1.
<scales pt_clust_3="71.63990" pt_clust_4="35.28325" pt_clust_5="50.71636" pt_clust_6="14000.00000"></scales>
<clustering>
<clus scale="   35.283">  2  4  1 -1</clus>
<clus scale="   50.716">  1  5  2 -1</clus>
<clus scale="   71.640">  1  3  2 -1</clus>
<clus scale="   50.716">  1  3  2 -1</clus>
</clustering>
</event>
<event>
 6    0  0.8991567E+002  0.1220841E+03  0.7546771E-02  0.1239698E+00
         21   -1    0    0  505  501  0.00000000000E+00  0.00000000000E+00  0.78568218042E+03  0.78568218042E+03  0.00000000000E+00 0.  1.
         21   -1    0    0  504  502 -0.00000000000E+00 -0.00000000000E+00 -0.42522619687E+03  0.42522619687E+03  0.00000000000E+00 0.  1.
         21    1    1    2  503  501 -0.44343450760E+02  0.56911773901E+02  0.20161650179E+03  0.21413665130E+03  0.00000000000E+00 0.  1.
         21    1    1    2  504  503 -0.19454522313E+02 -0.24244835973E+02 -0.17910692653E+03  0.18178443729E+03  0.00000000000E+00 0.  1.
         21    1    1    2  505  506 -0.42588242914E+02  0.35465818674E+02  0.55826971015E+03  0.56101394991E+03  0.00000000000E+00 0.  1.
         21    1    1    2  506  502  0.10638621599E+03 -0.68132756602E+02 -0.22032330186E+03  0.25397333879E+03  0.00000000000E+00 0.  1.
<scales pt_clust_3="122.08411" pt_clust_4="31.08521" pt_clust_5="55.41897" pt_clust_6="14000.00000"></scales>
<clustering>
<clus scale="   31.085">  2  4  1 -1</clus>
<clus scale="   55.419">  1  5  2 -1</clus>
<clus scale="  122.084">  1  3  2 -1</clus>
<clus scale="   55.419">  1  3  2 -1</clus>
</clustering>
</event>
<event>
 6    0  0.8991567E+002  0.1957783E+03  0.7546771E-02  0.1153351E+00
         21   -1    0    0  505  501  0.00000000000E+00  0.00000000000E+00  0.15024337870E+04  0.15024337870E+04  0.00000000000E+00 0.  1.
         21   -1    0    0  506  502 -0.00000000000E+00 -0.00000000000E+00 -0.12902569441E+03  0.12902569441E+03  0.00000000000E+00 0.  1.
         21    1    1    2  503  502 -0.21323836988E+03 -0.19633391019E+02  0.99379133949E+02  0.23607686184E+03  0.00000000000E+00 0.  1.
         21    1    1    2  504  501 -0.23018063149E+02  0.23925027189E+02  0.40242830884E+03  0.40379547040E+03  0.00000000000E+00 0.  1.
         21    1    1    2  505  503  0.11815368931E+03 -0.18955355130E+03  0.61204694531E+03  0.65153074093E+03  0.00000000000E+00 0.  1.
         21    1    1    2  506  504  0.11810274372E+03  0.18526191513E+03  0.25955370447E+03  0.34005640823E+03  0.00000000000E+00 0.  1.
<scales pt_clust_3="195.77832" pt_clust_4="33.19997" pt_clust_5="204.73443" pt_clust_6="14000.00000"></scales>
<clustering>
<clus scale="   33.200">  1  4  2 -1</clus>
<clus scale="  204.734">  1  5  2 -1</clus>
<clus scale="  195.778">  2  3  1 -1</clus>
<clus scale="   33.200">  1  3  2 -1</clus>
</clustering>
</event>
<event>
 6    0  0.8991567E+002  0.7326911E+02  0.7546771E-02  0.1349316E+00
         21   -1    0    0  505  501  0.00000000000E+00  0.00000000000E+00  0.23095311577E+04  0.23095311577E+04  0.00000000000E+00 0. -1.
         21   -1    0    0  503  502 -0.00000000000E+00 -0.00000000000E+00 -0.55128020171E+02  0.55128020171E+02  0.00000000000E+00 0. -1.
         21    1    1    2  503  506 -0.71649846384E+02 -0.11142774467E+02 -0.85826397655E+01  0.73017282988E+02  0.00000000000E+00 0. -1.
         21    1    1    2  504  502  0.69408134456E+02  0.48477019565E+02  0.16891915642E+03  0.18894759051E+03  0.00000000000E+00 0. -1.
         21    1    1    2  505  504  0.63411022404E+02 -0.89509422233E+01  0.27420815719E+03  0.28158691482E+03  0.00000000000E+00 0. -1.
         21    1    1    2  506  501 -0.61169310476E+02 -0.28383302875E+02  0.18198584636E+04  0.18211073895E+04  0.00000000000E+00 0. -1.
<scales pt_clust_3="14000.00000" pt_clust_4="73.26911" pt_clust_5="64.03965" pt_clust_6="36.66278"></scales>
<clustering>
<clus scale="   64.040">  1  5  2 -1</clus>
<clus scale="   36.663">  1  6  2 -1</clus>
<clus scale="   73.269">  1  4  2 -1</clus>
<clus scale="   64.040">  1  3  2 -1</clus>
</clustering>
</event>
<event>
 6    0  0.8991567E+002  0.1781763E+03  0.7546771E-02  0.1169580E+00
         21   -1    0    0  505  501  0.00000000000E+00  0.00000000000E+00  0.22707269254E+03  0.22707269254E+03  0.00000000000E+00 0.  1.
         21   -1    0    0  506  502 -0.00000000000E+00 -0.00000000000E+00 -0.66021822661E+03  0.66021822661E+03  0.00000000000E+00 0. -1.
         21    1    1    2  503  504 -0.13276345962E+03  0.11126264745E+03 -0.31807927479E+02  0.17611716889E+03  0.00000000000E+00 0. -1.
         21    1    1    2  504  502  0.10277413678E+03 -0.20278526210E+03 -0.28062397832E+03  0.36115675671E+03  0.00000000000E+00 0.  1.
         21    1    1    2  505  503  0.30460607359E+02  0.11842675638E+02  0.10535987754E+03  0.11031229017E+03  0.00000000000E+00 0.  1.
         21    1    1    2  506  501 -0.47128451577E+00  0.79679939011E+02 -0.22607350581E+03  0.23970470338E+03  0.00000000000E+00 0. -1.
<scales pt_clust_3="178.17631" pt_clust_4="14000.00000" pt_clust_5="32.68176" pt_clust_6="80.36690"></scales>
<clustering>
<clus scale="   32.682">  1  5  2 -1</clus>
<clus scale="   80.367">  2  6  1 -1</clus>
<clus scale="  178.176">  1  3  2 -1</clus>
<clus scale="   32.682">  1  3  2 -1</clus>
</clustering>
</event>
<event>
 6    0  0.8991567E+002  0.1240282E+03  0.7546771E-02  0.1236596E+00
         21   -1    0    0  504  501  0.00000000000E+00  0.00000000000E+00  0.71439486712E+03  0.71439486712E+03  0.00000000000E+00 0. -1.
         21   -1    0    0  506  502 -0.00000000000E+00 -0.00000000000E+00 -0.43084287207E+03  0.43084287207E+03  0.00000000000E+00 0. -1.
         21    1    1    2  503  502 -0.87383563321E+01 -0.45386682481E+02 -0.53883391714E+02  0.70991053807E+02  0.00000000000E+00 0. -1.
         21    1    1    2  504  503  0.14286162075E+03  0.25353005258E+02 -0.25008069540E+03  0.28912380008E+03  0.00000000000E+00 0. -1.
         21    1    1    2  505  501 -0.30879366068E+02  0.37955115872E+02  0.65736853114E+03  0.65918700822E+03  0.00000000000E+00 0. -1.
         21    1    1    2  506  505 -0.10324389835E+03 -0.17921438650E+02 -0.69852448974E+02  0.12593587708E+03  0.00000000000E+00 0. -1.
<scales pt_clust_3="46.22023" pt_clust_4="124.02817" pt_clust_5="48.85660" pt_clust_6="14000.00000"></scales>
<clustering>
<clus scale="   46.220">  2  3  1 -1</clus>
<clus scale="   48.857">  1  5  2 -1</clus>
<clus scale="  124.028">  2  4  1 -1</clus>
<clus scale="   48.857">  1  3  2 -1</clus>
</clustering>
</event>
<event>
 6    0  0.8991567E+002  0.8476964E+02  0.7546771E-02  0.1316036E+00
         21   -1    0    0  506  501  0.00000000000E+00  0.00000000000E+00  0.39746390071E+03  0.39746390071E+03  0.00000000000E+00 0.  1.
         21   -1    0    0  503  502 -0.00000000000E+00 -0.00000000000E+00 -0.88345322977E+02  0.88345322977E+02  0.00000000000E+00 0.  1.
         21    1    1    2  503  504 -0.38930816513E+02 -0.30704619166E+02 -0.27859850094E+02  0.56873133902E+02  0.00000000000E+00 0.  1.
         21    1    1    2  504  505  0.33028161547E+02 -0.95373026448E+02  0.20072592350E+03  0.22467258398E+03  0.00000000000E+00 0.  1.
         21    1    1    2  505  501 -0.15441501401E+02  0.26552690466E+02  0.84838069826E+02  0.90227398435E+02  0.00000000000E+00 0.  1.
         21    1    1    2  506  502  0.21344156367E+02  0.99524955147E+02  0.51414434501E+02  0.11403610737E+03  0.00000000000E+00 0.  1.
<scales pt_clust_3="49.40044" pt_clust_4="14000.00000" pt_clust_5="30.71621" pt_clust_6="84.76964"></scales>
<clustering>
<clus scale="   30.716">  1  5  2 -1</clus>
<clus scale="   49.400">  2  3  1 -1</clus>
<clus scale="   84.770">  2  6  1 -1</clus>
<clus scale="   30.716">  1  3  2 -1</clus>
</clustering>
</event>
<event>
 6    0  0.8991567E+002  0.7306775E+02  0.7546771E-02  0.1349961E+00
         21   -1    0    0  504  501  0.00000000000E+00  0.00000000000E+00  0.12194149728E+04  0.12194149728E+04  0.00000000000E+00 0. -1.
         21   -1    0    0  506  502 -0.00000000000E+00 -0.00000000000E+00 -0.30394941587E+02  0.30394941587E+02  0.00000000000E+00 0. -1.
         21    1    1    2  503  502  0.41995733871E+02  0.22853494669E+02  0.35489807173E+02  0.59543683923E+02  0.00000000000E+00 0. -1.
         21    1    1    2  504  503 -0.67845373943E+02  0.37860388028E+02  0.67789530933E+03  0.68233309619E+03  0.00000000000E+00 0. -1.
         21    1    1    2  505  501  0.75343957698E+02  0.21456276754E+02  0.26791796847E+03  0.27913638530E+03  0.00000000000E+00 0. -1.
         21    1    1    2  506  505 -0.49494317626E+02 -0.82170159451E+02  0.20771694625E+03  0.22879674897E+03  0.00000000000E+00 0. -1.
<scales pt_clust_3="47.81134" pt_clust_4="73.06775" pt_clust_5="14000.00000" pt_clust_6="73.57828"></scales>
<clustering>
<clus scale="   47.811">  2  3  1 -1</clus>
<clus scale="   73.578">  2  6  1 -1</clus>
<clus scale="   73.068">  1  4  2 -1</clus>
<clus scale="   73.068">  1  3  2 -1</clus>
</clustering>
</event>
<event>
 6    0  0.8991567E+002  0.9159858E+02  0.7546771E-02  0.1299026E+00
         21   -1    0    0  503  501  0.00000000000E+00  0.00000000000E+00  0.91071627216E+02  0.91071627216E+02  0.00000000000E+00 0.  1.
         21   -1    0    0  505  502 -0.00000000000E+00 -0.00000000000E+00 -0.50468873184E+03  0.50468873184E+03  0.00000000000E+00 0.  1.
         21    1    1    2  503  506  0.25064926307E+02 -0.22440553624E+02 -0.16212746427E+02  0.37345443155E+02  0.00000000000E+00 0. -1.
         21    1    1    2  504  501  0.76369795804E+02  0.51415794452E+02 -0.38258610371E+00  0.92065607054E+02  0.00000000000E+00 0.  1.
         21    1    1    2  505  504 -0.10245552633E+03  0.26763132020E+01 -0.43380817165E+02  0.11129327395E+03  0.00000000000E+00 0.  1.
         21    1    1    2  506  502  0.10208042213E+01 -0.31651554030E+02 -0.35364095492E+03  0.35505603489E+03  0.00000000000E+00 0.  1.
<scales pt_clust_3="37.75973" pt_clust_4="91.59858" pt_clust_5="14000.00000" pt_clust_6="31.66801"></scales>
<clustering>
<clus scale="   31.668">  2  6  1 -1</clus>
<clus scale="   37.760">  2  3  1 -1</clus>
<clus scale="   91.599">  1  4  2 -1</clus>
<clus scale="   91.599">  1  3  2 -1</clus>
</clustering>
</event>
<event>
 6    0  0.8991567E+002  0.1131617E+03  0.7546771E-02  0.1254824E+00
         21   -1    0    0  506  501  0.00000000000E+00  0.00000000000E+00  0.22482547473E+03  0.22482547473E+03  0.00000000000E+00 0.  1.
         21   -1    0    0  505  502 -0.00000000000E+00 -0.00000000000E+00 -0.28962795938E+03  0.28962795938E+03  0.00000000000E+00 0.  1.
         21    1    1    2  503  501  0.37909711147E+02  0.10994150880E+03  0.17159911867E+03  0.20729336479E+03  0.00000000000E+00 0.  1.
         21    1    1    2  504  502  0.30629650339E+02  0.95046640184E+00 -0.34530335758E+02  0.46167336438E+02  0.00000000000E+00 0.  1.
         21    1    1    2  505  503 -0.75068080038E+02 -0.57323563581E+02 -0.17898002158E+03  0.20237355486E+03  0.00000000000E+00 0.  1.
         21    1    1    2  506  504  0.65287185518E+01 -0.53568411617E+02 -0.22891245991E+02  0.58619178023E+02  0.00000000000E+00 0.  1.
<scales pt_clust_3="113.16171" pt_clust_4="30.64439" pt_clust_5="14000.00000" pt_clust_6="54.64467"></scales>
<clustering>
<clus scale="   30.644">  2  4  1 -1</clus>
<clus scale="   54.645">  2  6  1 -1</clus>
<clus scale="  113.162">  1  3  2 -1</clus>
<clus scale="  113.162">  1  3  2 -1</clus>
</clustering>
</event>
<event>
 6    0  0.8991567E+002  0.9073353E+02  0.7546771E-02  0.1301085E+00
         21   -1    0    0  503  501  0.00000000000E+00  0.00000000000E+00  0.58629313229E+03  0.58629313229E+03  0.00000000000E+00 0.  1.
         21   -1    0    0  505  502 -0.00000000000E+00 -0.00000000000E+00 -0.75512980691E+02  0.75512980691E+02  0.00000000000E+00 0. -1.
         21    1    1    2  503  504  0.54048055351E+02 -0.79561019523E+01  0.30806781061E+03  0.31287420440E+03  0.00000000000E+00 0.  1.
         21    1    1    2  504  502  0.74855029646E+02 -0.10463103839E+02  0.16512185275E+03  0.18159839829E+03  0.00000000000E+00 0.  1.
         21    1    1    2  505  506 -0.94204585916E+02 -0.21412105345E+01 -0.20674945993E+02  0.96470421280E+02  0.00000000000E+00 0. -1.
         21    1    1    2  506  501 -0.34698499081E+02  0.20560416326E+02  0.58265434232E+02  0.70863089012E+02  0.00000000000E+00 0.  1.
<scales pt_clust_3="33.67262" pt_clust_4="14000.00000" pt_clust_5="90.73353" pt_clust_6="40.33257"></scales>
<clustering>
<clus scale="   40.333">  1  6  2 -1</clus>
<clus scale="   33.673">  1  3  2 -1</clus>
<clus scale="   90.734">  2  5  1 -1</clus>
<clus scale="   40.333">  1  3  2 -1</clus>
</clustering>
</event>
<event>
 6    0  0.8991567E+002  0.9096957E+02  0.7546771E-02  0.1300521E+00
         21   -1    0    0  505  501  0.00000000000E+00  0.00000000000E+00  0.15271398161E+04  0.15271398161E+04  0.00000000000E+00 0.  1.
         21   -1    0    0  504  502 -0.00000000000E+00 -0.00000000000E+00 -0.35068195421E+02  0.35068195421E+02  0.00000000000E+00 0.  1.
         21    1    1    2  503  501  0.45862559382E+02  0.76521804891E+01  0.20780109609E+03  0.21293948848E+03  0.00000000000E+00 0.  1.
         21    1    1    2  504  503  0.20208207652E+02  0.40011959476E+02  0.21010414731E+03  0.21483268205E+03  0.00000000000E+00 0.  1.
         21    1    1    2  505  506 -0.43891542717E+01 -0.89946555903E+02  0.10528227533E+04  0.10566671176E+04  0.00000000000E+00 0.  1.
         21    1    1    2  506  502 -0.61681612762E+02  0.42282415938E+02  0.21343623978E+02  0.77768723372E+02  0.00000000000E+00 0.  1.
<scales pt_clust_3="40.56689" pt_clust_4="40.56689" pt_clust_5="81.04593" pt_clust_6="74.78251"></scales>
<clustering>
<clus scale="   40.567">  3  4 -1 -1</clus>
<clus scale="   74.783">  2  6  1 -1</clus>
<clus scale="   81.046">  1  5  2 -1</clus>
<clus scale="   81.046">  1  3  2 -1</clus>
</clustering>
</event>
<event>
 6    0  0.8991567E+002  0.8889997E+02  0.7546771E-02  0.1305538E+00
         21   -1    0    0  506  501  0.00000000000E+00  0.00000000000E+00  0.52276964117E+03  0.52276964117E+03  0.00000000000E+00 0. -1.
         21   -1    0    0  504  502 -0.00000000000E+00 -0.00000000000E+00 -0.23416362652E+03  0.23416362652E+03  0.00000000000E+00 0. -1.
         21    1    1    2  503  502 -0.25027885421E+02 -0.38690963917E+02 -0.13428322893E+03  0.14196961403E+03  0.00000000000E+00 0. -1.
         21    1    1    2  504  505  0.94537246289E+02 -0.27677830851E+02 -0.48477249982E+02  0.10978796392E+03  0.00000000000E+00 0.  1.
         21    1    1    2  505  501 -0.38267558948E+02  0.69581360723E+02  0.80593881243E+02  0.11314303126E+03  0.00000000000E+00 0. -1.
         21    1    1    2  506  503 -0.31241801921E+02 -0.32125659544E+01  0.39077261232E+03  0.39203265847E+03  0.00000000000E+00 0. -1.
<scales pt_clust_3="46.66105" pt_clust_4="88.89997" pt_clust_5="14000.00000" pt_clust_6="31.40654"></scales>
<clustering>
<clus scale="   31.407">  1  6  2 -1</clus>
<clus scale="   46.661">  2  3  1 -1</clus>
<clus scale="   88.900">  2  4  1 -1</clus>
<clus scale="   31.407">  1  3  2 -1</clus>
</clustering>
</event>
<event>
 6    0  0.8991567E+002  0.1480864E+03  0.7546771E-02  0.1202844E+00
         21   -1    0    0  504  501  0.00000000000E+00  0.00000000000E+00  0.65709124556E+03  0.65709124556E+03  0.00000000000E+00 0.  1.
         21   -1    0    0  506  502 -0.00000000000E+00 -0.00000000000E+00 -0.10150496118E+04  0.10150496118E+04  0.00000000000E+00 0.  1.
         21    1    1    2  503  505  0.89783618221E+02 -0.88848393129E+02  0.21414383386E+03  0.24862163350E+03  0.00000000000E+00 0.  1.
         21    1    1    2  504  502 -0.20455687612E+03  0.20647108651E+02  0.48358847569E+02  0.21120699989E+03  0.00000000000E+00 0.  1.
         21    1    1    2  505  501  0.39491677864E+02  0.18890708924E+02  0.29208096367E+03  0.29534342864E+03  0.00000000000E+00 0.  1.
         21    1    1    2  506  503  0.75281580033E+02  0.49310575554E+02 -0.91254201131E+03  0.91696879530E+03  0.00000000000E+00 0.  1.
<scales pt_clust_3="148.08644" pt_clust_4="14000.00000" pt_clust_5="43.77729" pt_clust_6="90.25789"></scales>
<clustering>
<clus scale="   43.777">  1  5  2 -1</clus>
<clus scale="   90.258">  2  6  1 -1</clus>
<clus scale="  148.086">  1  3  2 -1</clus>
<clus scale="   43.777">  1  3  2 -1</clus>
</clustering>
</event>
<event>
 6    0  0.8991567E+002  0.1050999E+03  0.7546771E-02  0.1269923E+00
         21   -1    0    0  503  501  0.00000000000E+00  0.00000000000E+00  0.74959605123E+03  0.74959605123E+03  0.00000000000E+00 0.  1.
         21   -1    0    0  504  502 -0.00000000000E+00 -0.00000000000E+00 -0.12183385236E+03  0.12183385236E+03  0.00000000000E+00 0.  1.
         21    1    1    2  503  505  0.10970162789E+03 -0.16668033936E+02  0.21657543008E+03  0.24334581860E+03  0.00000000000E+00 0.  1.
         21    1    1    2  504  506 -0.42455833807E+02 -0.17315733747E+02 -0.63073137908E+02  0.77977901902E+02  0.00000000000E+00 0.  1.
         21    1    1    2  505  502  0.22191449567E+02 -0.21576956295E+02 -0.25048128372E+02  0.39817511371E+02  0.00000000000E+00 0.  1.
         21    1    1    2  506  501 -0.89437243648E+02  0.55560723979E+02  0.49930803507E+03  0.51028867172E+03  0.00000000000E+00 0.  1.
<scales pt_clust_3="105.09990" pt_clust_4="42.44437" pt_clust_5="30.95199" pt_clust_6="14000.00000"></scales>
<clustering>
<clus scale="   30.952">  2  5  1 -1</clus>
<clus scale="   42.444">  2  4  1 -1</clus>
<clus scale="  105.100">  2  3  1 -1</clus>
<clus scale="  105.100">  1  3  2 -1</clus>
</clustering>
</event>
<event>
 6    0  0.8991567E+002  0.7678726E+02  0.7546771E-02  0.1338424E+00
         21   -1    0    0  504  501  0.00000000000E+00  0.00000000000E+00  0.18674202740E+03  0.18674202740E+03  0.00000000000E+00 0. -1.
         21   -1    0    0  505  502 -0.00000000000E+00 -0.00000000000E+00 -0.76720929933E+03  0.76720929933E+03  0.00000000000E+00 0. -1.
         21    1    1    2  503  502  0.46897644175E+02 -0.32171327595E+02 -0.29554460976E+03  0.30096677509E+03  0.00000000000E+00 0.  1.
         21    1    1    2  504  506  0.12674750955E+03 -0.20932378325E+02  0.12005668764E+03  0.17583146444E+03  0.00000000000E+00 0. -1.
         21    1    1    2  505  501 -0.64272934012E+02  0.50197468382E+02 -0.30584320193E+02  0.87098774504E+02  0.00000000000E+00 0. -1.
         21    1    1    2  506  503 -0.10937221971E+03  0.29062375383E+01 -0.37439502961E+03  0.39005431270E+03  0.00000000000E+00 0. -1.
<scales pt_clust_3="56.87164" pt_clust_4="76.78726" pt_clust_5="74.43141" pt_clust_6="14000.00000"></scales>
<clustering>
<clus scale="   56.872">  2  3  1 -1</clus>
<clus scale="   74.431">  1  5  2 -1</clus>
<clus scale="   76.787">  1  4  2 -1</clus>
<clus scale="   74.431">  1  3  2 -1</clus>
</clustering>
</event>
<event>
 6    0  0.8991567E+002  0.1287149E+03  0.7546771E-02  0.1229375E+00
         21   -1    0    0  505  501  0.00000000000E+00  0.00000000000E+00  0.31178698557E+03  0.31178698557E+03  0.00000000000E+00 0.  1.
         21   -1    0    0  504  502 -0.00000000000E+00 -0.00000000000E+00 -0.93441527739E+03  0.93441527739E+03  0.00000000000E+00 0.  1.
         21    1    1    2  503  506 -0.11065559447E+03 -0.24731622799E+02 -0.32542293785E+03  0.34461050801E+03  0.00000000000E+00 0.  1.
         21    1    1    2  504  501  0.12293143710E+02 -0.34164764625E+02  0.24527689192E+03  0.24794980588E+03  0.00000000000E+00 0.  1.
         21    1    1    2  505  503  0.12322043056E+03  0.54282950183E+01 -0.16585607173E+02  0.12445008340E+03  0.00000000000E+00 0.  1.
         21    1    1    2  506  502 -0.24857979801E+02  0.53468092406E+02 -0.52589663872E+03  0.52919186566E+03  0.00000000000E+00 0.  1.
<scales pt_clust_3="128.71490" pt_clust_4="36.30912" pt_clust_5="14000.00000" pt_clust_6="58.04987"></scales>
<clustering>
<clus scale="   36.309">  1  4  2 -1</clus>
<clus scale="   58.050">  2  6  1 -1</clus>
<clus scale="  128.715">  2  3  1 -1</clus>
<clus scale="   36.309">  1  3  2 -1</clus>
</clustering>
</event>
<event>
 6    0  0.8991567E+002  0.9234652E+02  0.7546771E-02  0.1297267E+00
         21   -1    0    0  506  501  0.00000000000E+00  0.00000000000E+00  0.19434979616E+04  0.19434979616E+04  0.00000000000E+00 0.  1.
         21   -1    0    0  505  502 -0.00000000000E+00 -0.00000000000E+00 -0.43289946981E+02  0.43289946981E+02  0.00000000000E+00 0.  1.
         21    1    1    2  503  502  0.62875990190E+01  0.10776708360E+03  0.73142639993E+02  0.13039602752E+03  0.00000000000E+00 0.  1.
         21    1    1    2  504  503  0.67752133889E+02 -0.58664525651E+02  0.18699624257E+03  0.20736314270E+03  0.00000000000E+00 0.  1.
         21    1    1    2  505  501 -0.30193470335E+02 -0.52065125201E+01  0.56735614544E+02  0.64480100661E+02  0.00000000000E+00 0. -1.
         21    1    1    2  506  504 -0.43846262573E+02 -0.43896045425E+02  0.15833335175E+04  0.15845486377E+04  0.00000000000E+00 0.  1.
<scales pt_clust_3="92.34652" pt_clust_4="14000.00000" pt_clust_5="30.63908" pt_clust_6="62.42945"></scales>
<clustering>
<clus scale="   30.639">  2  5  1 -1</clus>
<clus scale="   62.429">  1  6  2 -1</clus>
<clus scale="   92.347">  2  3  1 -1</clus>
<clus scale="   62.429">  1  3  2 -1</clus>
</clustering>
</event>
<event>
 6    0  0.8991567E+002  0.1291622E+03  0.7546771E-02  0.1228704E+00
         21   -1    0    0  505  501  0.00000000000E+00  0.00000000000E+00  0.72645187787E+03  0.72645187787E+03  0.00000000000E+00 0.  1.
         21   -1    0    0  504  502 -0.00000000000E+00 -0.00000000000E+00 -0.33947936994E+03  0.33947936994E+03  0.00000000000E+00 0. -1.
         21    1    1    2  503  501  0.45988464448E+02 -0.27591353377E+01  0.33947014813E+03  0.34258215534E+03  0.00000000000E+00 0.  1.
         21    1    1    2  504  503  0.22362903908E+02  0.11794370574E+03  0.34937417820E+03  0.36942270312E+03  0.00000000000E+00 0.  1.
         21    1    1    2  505  506 -0.36897016760E+02 -0.99316277092E+02 -0.89615531873E+02  0.13876619291E+03  0.00000000000E+00 0. -1.
         21    1    1    2  506  502 -0.31454351597E+02 -0.15868293309E+02 -0.21225628651E+03  0.21516019644E+03  0.00000000000E+00 0. -1.
<scales pt_clust_3="45.69500" pt_clust_4="14000.00000" pt_clust_5="129.16224" pt_clust_6="35.23037"></scales>
<clustering>
<clus scale="   35.230">  2  6  1 -1</clus>
<clus scale="   45.695">  1  3  2 -1</clus>
<clus scale="  129.162">  2  5  1 -1</clus>
<clus scale="   45.695">  1  3  2 -1</clus>
</clustering>
</event>
<event>
 6    0  0.8991567E+002  0.9672211E+02  0.7546771E-02  0.1287344E+00
         21   -1    0    0  506  501  0.00000000000E+00  0.00000000000E+00  0.11764844804E+04  0.11764844804E+04  0.00000000000E+00 0. -1.
         21   -1    0    0  505  502 -0.00000000000E+00 -0.00000000000E+00 -0.33400173143E+03  0.33400173143E+03  0.00000000000E+00 0. -1.
         21    1    1    2  503  502  0.57327608784E+02 -0.30209550468E+02 -0.31478540468E+03  0.32138594037E+03  0.00000000000E+00 0. -1.
         21    1    1    2  504  501  0.18752508498E+02  0.35473711110E+02  0.38003502070E+03  0.38214742929E+03  0.00000000000E+00 0. -1.
         21    1    1    2  505  504 -0.95755387051E+02  0.82896815038E+02  0.45341743016E+03  0.47077419435E+03  0.00000000000E+00 0. -1.
         21    1    1    2  506  503  0.19675269769E+02 -0.88160975680E+02  0.32381570278E+03  0.33617864780E+03  0.00000000000E+00 0. -1.
<scales pt_clust_3="64.80068" pt_clust_4="40.12531" pt_clust_5="14000.00000" pt_clust_6="96.72211"></scales>
<clustering>
<clus scale="   40.125">  1  4  2 -1</clus>
<clus scale="   64.801">  2  3  1 -1</clus>
<clus scale="   96.722">  1  6  2 -1</clus>
<clus scale="   40.125">  1  3  2 -1</clus>
</clustering>
</event>
<event>
 6    0  0.8991567E+002  0.8344604E+02  0.7546771E-02  0.1319547E+00
         21   -1    0    0  502  501  0.00000000000E+00  0.00000000000E+00  0.18430578479E+03  0.18430578479E+03  0.00000000000E+00 0.  1.
         21   -1    0    0  504  502 -0.00000000000E+00 -0.00000000000E+00 -0.13061372788E+03  0.13061372788E+03  0.00000000000E+00 0. -1.
         21    1    1    2  503  501  0.58519256724E+02  0.16803605478E+02  0.41398472309E+02  0.73625390145E+02  0.00000000000E+00 0.  1.
         21    1    1    2  504  505 -0.26026924858E+02  0.16410436436E+02 -0.15215629692E+02  0.34325189417E+02  0.00000000000E+00 0.  1.
         21    1    1    2  505  506 -0.24254147907E+02 -0.95854567046E+02 -0.46833177821E+02  0.10940616189E+03  0.00000000000E+00 0. -1.
         21    1    1    2  506  503 -0.82381839587E+01  0.62640525133E+02  0.74342392113E+02  0.97562771224E+02  0.00000000000E+00 0.  1.
<scales pt_clust_3="57.87076" pt_clust_4="30.76854" pt_clust_5="83.44604" pt_clust_6="14000.00000"></scales>
<clustering>
<clus scale="   30.769">  2  4  1 -1</clus>
<clus scale="   57.871">  1  3  2 -1</clus>
<clus scale="   83.446">  2  5  1 -1</clus>
<clus scale="   57.871">  1  3  2 -1</clus>
</clustering>
</event>
<event>
 6    0  0.8991567E+002  0.1138361E+03  0.7546771E-02  0.1253627E+00
         21   -1    0    0  504  501  0.00000000000E+00  0.00000000000E+00  0.35957279153E+03  0.35957279153E+03  0.00000000000E+00 0. -1.
         21   -1    0    0  506  502 -0.00000000000E+00 -0.00000000000E+00 -0.15340052493E+04  0.15340052493E+04  0.00000000000E+00 0. -1.
         21    1    1    2  503  505 -0.47773409179E+02  0.11055572187E+03  0.82458907069E+02  0.14596005487E+03  0.00000000000E+00 0. -1.
         21    1    1    2  504  502 -0.59779911698E+00  0.53555133295E+02 -0.12350603287E+04  0.12362210665E+04  0.00000000000E+00 0. -1.
         21    1    1    2  505  501 -0.28058014463E+02 -0.32636535628E+02  0.22084951444E+03  0.22500423032E+03  0.00000000000E+00 0. -1.
         21    1    1    2  506  503  0.76429222759E+02 -0.13147431954E+03 -0.24268055061E+03  0.28639268921E+03  0.00000000000E+00 0. -1.
<scales pt_clust_3="14000.00000" pt_clust_4="53.42133" pt_clust_5="43.03947" pt_clust_6="113.83610"></scales>
<clustering>
<clus scale="   43.039">  1  5  2 -1</clus>
<clus scale="   53.421">  2  4  1 -1</clus>
<clus scale="  113.836">  2  6  1 -1</clus>
<clus scale="   43.039">  1  3  2 -1</clus>
</clustering>
</event>
<event>
 6    0  0.8991567E+002  0.7177724E+02  0.7546771E-02  0.1354152E+00
         21   -1    0    0  503  501  0.00000000000E+00  0.00000000000E+00  0.35051928297E+03  0.35051928297E+03  0.00000000000E+00 0. -1.
         21   -1    0    0  505  502 -0.00000000000E+00 -0.00000000000E+00 -0.72382551930E+03  0.72382551930E+03  0.00000000000E+00 0. -1.
         21    1    1    2  503  502 -0.10023670657E+03  0.38827554605E+01 -0.47185592576E+03  0.48240075437E+03  0.00000000000E+00 0. -1.
         21    1    1    2  504  506  0.10017819559E+03 -0.86279068927E+01  0.16810701475E+03  0.19588282226E+03  0.00000000000E+00 0. -1.
         21    1    1    2  505  504  0.30079003611E+02 -0.16926818580E+01 -0.23037621223E+03  0.23233770850E+03  0.00000000000E+00 0.  1.
         21    1    1    2  506  501 -0.30020492631E+02  0.64378332902E+01  0.16081888692E+03  0.16372351714E+03  0.00000000000E+00 0. -1.
<scales pt_clust_3="71.77724" pt_clust_4="14000.00000" pt_clust_5="30.12659" pt_clust_6="30.61525"></scales>
<clustering>
<clus scale="   30.127">  2  5  1 -1</clus>
<clus scale="   30.615">  1  6  2 -1</clus>
<clus scale="   71.777">  2  3  1 -1</clus>
<clus scale="   30.615">  1  3  2 -1</clus>
</clustering>
</event>
<event>
 6    0  0.8991567E+002  0.1544388E+03  0.7546771E-02  0.1195122E+00
         21   -1    0    0  506  501  0.00000000000E+00  0.00000000000E+00  0.60297410487E+02  0.60297410487E+02  0.00000000000E+00 0. -1.
         21   -1    0    0  503  502 -0.00000000000E+00 -0.00000000000E+00 -0.38421985741E+04  0.38421985741E+04  0.00000000000E+00 0. -1.
         21    1    1    2  503  501  0.89204548230E+01  0.28656973978E+02  0.30124451854E+02  0.42523867078E+02  0.00000000000E+00 0. -1.
         21    1    1    2  504  502  0.39060439074E+02  0.21863016992E+02 -0.16932388227E+04  0.16938303989E+04  0.00000000000E+00 0. -1.
         21    1    1    2  505  504  0.10468444532E+03 -0.89125111539E+02 -0.18464061272E+04  0.18515176761E+04  0.00000000000E+00 0. -1.
         21    1    1    2  506  505 -0.15266533921E+03  0.38605120569E+02 -0.27238066557E+03  0.31462404248E+03  0.00000000000E+00 0.  1.
<scales pt_clust_3="30.01327" pt_clust_4="45.03227" pt_clust_5="154.43881" pt_clust_6="14000.00000"></scales>
<clustering>
<clus scale="   30.013">  1  3  2 -1</clus>
<clus scale="   45.032">  2  4  1 -1</clus>
<clus scale="  154.439">  2  5  1 -1</clus>
<clus scale="   30.013">  1  3  2 -1</clus>
</clustering>
</event>
<event>
 6    0  0.8991567E+002  0.3186590E+03  0.7546771E-02  0.1076268E+00
         21   -1    0    0  503  501  0.00000000000E+00  0.00000000000E+00  0.28340199987E+03  0.28340199987E+03  0.00000000000E+00 0.  1.
         21   -1    0    0  506  502 -0.00000000000E+00 -0.00000000000E+00 -0.68742830324E+03  0.68742830324E+03  0.00000000000E+00 0.  1.
         21    1    1    2  503  505  0.11452386812E+03 -0.69932374180E+01 -0.22775899931E+02  0.11697590930E+03  0.00000000000E+00 0. -1.
         21    1    1    2  504  502 -0.21058633537E+02  0.21985666919E+02 -0.15462002012E+03  0.15758866145E+03  0.00000000000E+00 0.  1.
         21    1    1    2  505  504  0.14402844168E+03 -0.24632650372E+03  0.15435059824E+02  0.28576070325E+03  0.00000000000E+00 0.  1.
         21    1    1    2  506  501 -0.23749367626E+03  0.23133407422E+03 -0.24206544315E+03  0.41050502911E+03  0.00000000000E+00 0.  1.
<scales pt_clust_3="111.82964" pt_clust_4="30.44397" pt_clust_5="318.65896" pt_clust_6="14000.00000"></scales>
<clustering>
<clus scale="   30.444">  2  4  1 -1</clus>
<clus scale="  111.830">  1  3  2 -1</clus>
<clus scale="  318.659">  1  5  2 -1</clus>
<clus scale="  111.830">  1  3  2 -1</clus>
</clustering>
</event>
<event>
 6    0  0.8991567E+002  0.1184840E+03  0.7546771E-02  0.1245619E+00
         21   -1    0    0  506  501  0.00000000000E+00  0.00000000000E+00  0.34858893296E+03  0.34858893296E+03  0.00000000000E+00 0.  1.
         21   -1    0    0  504  502 -0.00000000000E+00 -0.00000000000E+00 -0.14934663878E+03  0.14934663878E+03  0.00000000000E+00 0.  1.
         21    1    1    2  503  501 -0.32955395270E+02 -0.24428048635E+01  0.54027879306E+02  0.63332749153E+02  0.00000000000E+00 0. -1.
         21    1    1    2  504  503 -0.55514405089E+02  0.17228004993E+02 -0.55792847932E+02  0.80569815742E+02  0.00000000000E+00 0.  1.
         21    1    1    2  505  502  0.10296620515E+03  0.94434922477E+02  0.18618762279E+02  0.14094911243E+03  0.00000000000E+00 0.  1.
         21    1    1    2  506  505 -0.14496404792E+02 -0.10922012261E+03  0.18238850053E+03  0.21308389442E+03  0.00000000000E+00 0.  1.
<scales pt_clust_3="33.04581" pt_clust_4="59.44248" pt_clust_5="14000.00000" pt_clust_6="118.48397"></scales>
<clustering>
<clus scale="   33.046">  1  3  2 -1</clus>
<clus scale="   59.442">  2  4  1 -1</clus>
<clus scale="  118.484">  1  6  2 -1</clus>
<clus scale="   33.046">  1  3  2 -1</clus>
</clustering>
</event>
<event>
 6    0  0.8991567E+002  0.1082143E+03  0.7546771E-02  0.1263913E+00
         21   -1    0    0  505  501  0.00000000000E+00  0.00000000000E+00  0.27873242494E+04  0.27873242494E+04  0.00000000000E+00 0.  1.
         21   -1    0    0  506  502 -0.00000000000E+00 -0.00000000000E+00 -0.86280257257E+03  0.86280257257E+03  0.00000000000E+00 0.  1.
         21    1    1    2  503  502 -0.69636974636E+02 -0.87608143349E+02 -0.28963967991E+03  0.31050867813E+03  0.00000000000E+00 0.  1.
         21    1    1    2  504  501  0.14081021758E+02  0.34925488814E+02  0.27187356419E+04  0.27189964243E+04  0.00000000000E+00 0.  1.
         21    1    1    2  505  503  0.84028599547E+02  0.24556015937E+02  0.23810426109E+02  0.90723425046E+02  0.00000000000E+00 0.  1.
         21    1    1    2  506  504 -0.28472646669E+02  0.28126638597E+02 -0.52838471126E+03  0.52989829449E+03  0.00000000000E+00 0.  1.
<scales pt_clust_3="14000.00000" pt_clust_4="37.65720" pt_clust_5="108.21430" pt_clust_6="40.18492"></scales>
<clustering>
<clus scale="   37.657">  1  4  2 -1</clus>
<clus scale="   40.185">  2  6  1 -1</clus>
<clus scale="  108.214">  1  5  2 -1</clus>
<clus scale="   37.657">  1  3  2 -1</clus>
</clustering>
</event>
<event>
 6    0  0.8991567E+002  0.1573047E+03  0.7546771E-02  0.1191774E+00
         21   -1    0    0  505  501  0.00000000000E+00  0.00000000000E+00  0.69429917069E+03  0.69429917069E+03  0.00000000000E+00 0.  1.
         21   -1    0    0  503  502 -0.00000000000E+00 -0.00000000000E+00 -0.49682525434E+03  0.49682525434E+03  0.00000000000E+00 0.  1.
         21    1    1    2  503  506 -0.43101819547E+02 -0.12264473277E+02 -0.14925678274E+03  0.15583892757E+03  0.00000000000E+00 0.  1.
         21    1    1    2  504  501  0.61527000052E+01  0.15884476982E+03  0.65981502290E+03  0.67869387876E+03  0.00000000000E+00 0.  1.
         21    1    1    2  505  502  0.77018943126E+00 -0.40406666661E+02 -0.25200032048E+02  0.47627025076E+02  0.00000000000E+00 0.  1.
         21    1    1    2  506  504  0.36178930110E+02 -0.10617362989E+03 -0.28788429177E+03  0.30896459363E+03  0.00000000000E+00 0.  1.
<scales pt_clust_3="49.93875" pt_clust_4="157.30475" pt_clust_5="40.41401" pt_clust_6="14000.00000"></scales>
<clustering>
<clus scale="   40.414">  2  5  1 -1</clus>
<clus scale="   49.939">  2  3  1 -1</clus>
<clus scale="  157.305">  1  4  2 -1</clus>
<clus scale="  157.305">  1  3  2 -1</clus>
</clustering>
</event>
<event>
 6    0  0.8991567E+002  0.1798426E+03  0.7546771E-02  0.1167955E+00
         21   -1    0    0  503  501  0.00000000000E+00  0.00000000000E+00  0.46587118742E+03  0.46587118742E+03  0.00000000000E+00 0. -1.
         21   -1    0    0  505  502 -0.00000000000E+00 -0.00000000000E+00 -0.55574493813E+03  0.55574493813E+03  0.00000000000E+00 0. -1.
         21    1    1    2  503  506  0.12598068872E+03  0.25834149681E+02  0.30262507050E+03  0.32881677347E+03  0.00000000000E+00 0. -1.
         21    1    1    2  504  501 -0.18304871335E+03 -0.57859219139E+02 -0.26739774587E+03  0.32917483985E+03  0.00000000000E+00 0. -1.
         21    1    1    2  505  504  0.31322729523E+02 -0.10727252459E+02 -0.23794509755E+03  0.24023750077E+03  0.00000000000E+00 0.  1.
         21    1    1    2  506  502  0.25745295103E+02  0.42752321917E+02  0.11284402220E+03  0.12338701145E+03  0.00000000000E+00 0. -1.
<scales pt_clust_3="39.98928" pt_clust_4="167.91231" pt_clust_5="33.10872" pt_clust_6="39.98928"></scales>
<clustering>
<clus scale="   33.109">  2  5  1 -1</clus>
<clus scale="   39.989">  3  6 -1 -1</clus>
<clus scale="  167.912">  2  4  1 -1</clus>
<clus scale="  179.843">  1  3  2 -1</clus>
</clustering>
</event>
<event>
 6    0  0.8991567E+002  0.6596915E+02  0.7546771E-02  0.1374363E+00
         21   -1    0    0  505  501  0.00000000000E+00  0.00000000000E+00  0.87332434130E+03  0.87332434130E+03  0.00000000000E+00 0.  1.
         21   -1    0    0  503  502 -0.00000000000E+00 -0.00000000000E+00 -0.66671110685E+03  0.66671110685E+03  0.00000000000E+00 0. -1.
         21    1    1    2  503  504 -0.97274161527E+02  0.23527249508E+02 -0.34042058205E+01  0.10013681934E+03  0.00000000000E+00 0. -1.
         21    1    1    2  504  506  0.78357319413E+02  0.17183784265E+02  0.97751690174E+02  0.12645372624E+03  0.00000000000E+00 0. -1.
         21    1    1    2  505  502  0.45991175938E+02 -0.25919234053E+02 -0.59909447331E+03  0.60141598158E+03  0.00000000000E+00 0. -1.
         21    1    1    2  506  501 -0.27074333825E+02 -0.14791799720E+02  0.71136022340E+03  0.71202892099E+03  0.00000000000E+00 0.  1.
<scales pt_clust_3="14000.00000" pt_clust_4="65.96915" pt_clust_5="52.67510" pt_clust_6="30.85153"></scales>
<clustering>
<clus scale="   30.852">  1  6  2 -1</clus>
<clus scale="   52.675">  2  5  1 -1</clus>
<clus scale="   65.969">  1  4  2 -1</clus>
<clus scale="   30.852">  1  3  2 -1</clus>
</clustering>
</event>
<event>
 6    0  0.8991567E+002  0.7793543E+02  0.7546771E-02  0.1335015E+00
         21   -1    0    0  504  501  0.00000000000E+00  0.00000000000E+00  0.98437294984E+03  0.98437294984E+03  0.00000000000E+00 0.  1.
         21   -1    0    0  505  502 -0.00000000000E+00 -0.00000000000E+00 -0.39602011796E+03  0.39602011796E+03  0.00000000000E+00 0.  1.
         21    1    1    2  503  501  0.10773650029E+03 -0.23394262917E+02  0.56790557020E+03  0.57850771965E+03  0.00000000000E+00 0.  1.
         21    1    1    2  504  506 -0.47023678060E+02  0.46491564758E+02  0.39693000169E+03  0.40240044500E+03  0.00000000000E+00 0.  1.
         21    1    1    2  505  503 -0.44518052581E+02 -0.67489283920E+02 -0.28851195334E+03  0.29962611313E+03  0.00000000000E+00 0.  1.
         21    1    1    2  506  502 -0.16194769652E+02  0.44391982080E+02 -0.87970786663E+02  0.99858790015E+02  0.00000000000E+00 0.  1.
<scales pt_clust_3="77.93543" pt_clust_4="14000.00000" pt_clust_5="64.98732" pt_clust_6="47.25377"></scales>
<clustering>
<clus scale="   47.254">  2  6  1 -1</clus>
<clus scale="   64.987">  2  5  1 -1</clus>
<clus scale="   77.935">  2  3  1 -1</clus>
<clus scale="   77.935">  1  3  2 -1</clus>
</clustering>
</event>
<event>
 6    0  0.8991567E+002  0.7848622E+02  0.7546771E-02  0.1333403E+00
         21   -1    0    0  506  501  0.00000000000E+00  0.00000000000E+00  0.25739155579E+03  0.25739155579E+03  0.00000000000E+00 0. -1.
         21   -1    0    0  505  502 -0.00000000000E+00 -0.00000000000E+00 -0.55019893267E+03  0.55019893267E+03  0.00000000000E+00 0. -1.
         21    1    1    2  503  501  0.45688382510E+02 -0.13278072722E+03  0.82099892764E+02  0.16266081953E+03  0.00000000000E+00 0. -1.
         21    1    1    2  504  502 -0.29761599704E+02 -0.11723584155E+02 -0.17914546310E+03  0.18197882347E+03  0.00000000000E+00 0.  1.
         21    1    1    2  505  503  0.16170505604E+02  0.84914542574E+02 -0.31456187494E+03  0.32622252828E+03  0.00000000000E+00 0. -1.
         21    1    1    2  506  504 -0.32097288410E+02  0.59589768800E+02  0.11880006840E+03  0.13672831719E+03  0.00000000000E+00 0. -1.
<scales pt_clust_3="14000.00000" pt_clust_4="31.98742" pt_clust_5="78.48622" pt_clust_6="67.78073"></scales>
<clustering>
<clus scale="   31.987">  2  4  1 -1</clus>
<clus scale="   67.781">  1  6  2 -1</clus>
<clus scale="   78.486">  2  5  1 -1</clus>
<clus scale="   67.781">  1  3  2 -1</clus>
</clustering>
</event>
<event>
 6    0  0.8991567E+002  0.1463553E+03  0.7546771E-02  0.1205024E+00
         21   -1    0    0  505  501  0.00000000000E+00  0.00000000000E+00  0.20657922305E+03  0.20657922305E+03  0.00000000000E+00 0. -1.
         21   -1    0    0  503  502 -0.00000000000E+00 -0.00000000000E+00 -0.10038873522E+04  0.10038873522E+04  0.00000000000E+00 0. -1.
         21    1    1    2  503  506 -0.99109232482E+02  0.57349230736E+02  0.70790647641E+02  0.13462128369E+03  0.00000000000E+00 0. -1.
         21    1    1    2  504  502  0.37842445609E+02 -0.29681660953E+02 -0.73907501694E+03  0.74063819261E+03  0.00000000000E+00 0. -1.
         21    1    1    2  505  504  0.13129426253E+03  0.96590025784E+01 -0.19275958158E+03  0.23342608251E+03  0.00000000000E+00 0. -1.
         21    1    1    2  506  501 -0.70027475657E+02 -0.37326572361E+02  0.63735821687E+02  0.10178101649E+03  0.00000000000E+00 0. -1.
<scales pt_clust_3="146.35531" pt_clust_4="48.09420" pt_clust_5="14000.00000" pt_clust_6="78.01872"></scales>
<clustering>
<clus scale="   48.094">  2  4  1 -1</clus>
<clus scale="   78.019">  1  6  2 -1</clus>
<clus scale="  146.355">  1  3  2 -1</clus>
<clus scale="   78.019">  1  3  2 -1</clus>
</clustering>
</event>
<event>
 6    0  0.8991567E+002  0.1738009E+03  0.7546771E-02  0.1173941E+00
         21   -1    0    0  503  501  0.00000000000E+00  0.00000000000E+00  0.63099869314E+03  0.63099869314E+03  0.00000000000E+00 0. -1.
         21   -1    0    0  506  502 -0.00000000000E+00 -0.00000000000E+00 -0.90963128382E+02  0.90963128382E+02  0.00000000000E+00 0.  1.
         21    1    1    2  503  502 -0.13504742615E+03 -0.75944190253E+02  0.35402314318E+03  0.38644238024E+03  0.00000000000E+00 0. -1.
         21    1    1    2  504  501  0.19237960206E+02 -0.46173793909E+02  0.14436273530E+03  0.15278323763E+03  0.00000000000E+00 0. -1.
         21    1    1    2  505  504  0.42996763939E+02  0.87035792078E+02  0.21176040406E+02  0.99359828397E+02  0.00000000000E+00 0.  1.
         21    1    1    2  506  505  0.72812702007E+02  0.35082192084E+02  0.20473645875E+02  0.83376375253E+02  0.00000000000E+00 0.  1.
<scales pt_clust_3="163.93160" pt_clust_4="50.02118" pt_clust_5="53.75850" pt_clust_6="53.75850"></scales>
<clustering>
<clus scale="   50.021">  1  4  2 -1</clus>
<clus scale="   53.759">  5  6 -1 -1</clus>
<clus scale="  163.932">  1  3  2 -1</clus>
<clus scale="   50.021">  1  3  2 -1</clus>
</clustering>
</event>
<event>
 6    0  0.8991567E+002  0.8125589E+02  0.7546771E-02  0.1325525E+00
         21   -1    0    0  503  501  0.00000000000E+00  0.00000000000E+00  0.54832128766E+02  0.54832128766E+02  0.00000000000E+00 0. -1.
         21   -1    0    0  506  502 -0.00000000000E+00 -0.00000000000E+00 -0.60763425568E+03  0.60763425568E+03  0.00000000000E+00 0. -1.
         21    1    1    2  503  505  0.40236566099E+02  0.16424813034E+02 -0.20499455151E+02  0.48051882337E+02  0.00000000000E+00 0. -1.
         21    1    1    2  504  501  0.53817350146E+01  0.39701329796E+02 -0.18349429477E+02  0.44066543107E+02  0.00000000000E+00 0. -1.
         21    1    1    2  505  502 -0.64038692733E+02 -0.12587229293E+03 -0.18051278589E+03  0.22919348630E+03  0.00000000000E+00 0. -1.
         21    1    1    2  506  504  0.18420391620E+02  0.69746150096E+02 -0.33344045640E+03  0.34115447270E+03  0.00000000000E+00 0. -1.
<scales pt_clust_3="51.30162" pt_clust_4="40.06443" pt_clust_5="81.25589" pt_clust_6="14000.00000"></scales>
<clustering>
<clus scale="   40.064">  1  4  2 -1</clus>
<clus scale="   51.302">  1  3  2 -1</clus>
<clus scale="   81.256">  1  5  2 -1</clus>
<clus scale="   40.064">  1  3  2 -1</clus>
</clustering>
</event>
<event>
 6    0  0.8991567E+002  0.7808863E+02  0.7546771E-02  0.1334565E+00
         21   -1    0    0  503  501  0.00000000000E+00  0.00000000000E+00  0.22897851564E+03  0.22897851564E+03  0.00000000000E+00 0. -1.
         21   -1    0    0  506  502 -0.00000000000E+00 -0.00000000000E+00 -0.28482021119E+03  0.28482021119E+03  0.00000000000E+00 0.  1.
         21    1    1    2  503  505 -0.16323158039E+01 -0.14168826873E+03  0.50866320324E+02  0.15055102953E+03  0.00000000000E+00 0. -1.
         21    1    1    2  504  501  0.54027196454E+02  0.15095542710E+02  0.66195675365E+02  0.86767971069E+02  0.00000000000E+00 0. -1.
         21    1    1    2  505  502 -0.39822939944E+02  0.63631645753E+02 -0.19470588956E+03  0.20867495373E+03  0.00000000000E+00 0.  1.
         21    1    1    2  506  504 -0.12571940706E+02  0.62961080265E+02  0.21802198328E+02  0.67804772496E+02  0.00000000000E+00 0. -1.
<scales pt_clust_3="14000.00000" pt_clust_4="56.09646" pt_clust_5="78.08863" pt_clust_6="67.47695"></scales>
<clustering>
<clus scale="   56.096">  1  4  2 -1</clus>
<clus scale="   67.477">  1  6  2 -1</clus>
<clus scale="   78.089">  2  5  1 -1</clus>
<clus scale="   56.096">  1  3  2 -1</clus>
</clustering>
</event>
<event>
 6    0  0.8991567E+002  0.8464507E+02  0.7546771E-02  0.1316363E+00
         21   -1    0    0  506  501  0.00000000000E+00  0.00000000000E+00  0.91683283483E+03  0.91683283483E+03  0.00000000000E+00 0.  1.
         21   -1    0    0  503  502 -0.00000000000E+00 -0.00000000000E+00 -0.93223389606E+02  0.93223389606E+02  0.00000000000E+00 0. -1.
         21    1    1    2  503  505  0.26006830905E+02  0.77452066152E+02 -0.47434793473E+02  0.94473474779E+02  0.00000000000E+00 0. -1.
         21    1    1    2  504  501  0.22267919219E+02  0.47651472863E+02  0.48803995673E+03  0.49086609423E+03  0.00000000000E+00 0.  1.
         21    1    1    2  505  504 -0.57358984902E+02 -0.35920547272E+01  0.16833980201E+03  0.17787986099E+03  0.00000000000E+00 0.  1.
         21    1    1    2  506  502  0.90842347778E+01 -0.12151148429E+03  0.21466447996E+03  0.24683679445E+03  0.00000000000E+00 0.  1.
<scales pt_clust_3="84.64507" pt_clust_4="52.59775" pt_clust_5="50.82787" pt_clust_6="14000.00000"></scales>
<clustering>
<clus scale="   52.598">  1  4  2 -1</clus>
<clus scale="   50.828">  1  5  2 -1</clus>
<clus scale="   84.645">  2  3  1 -1</clus>
<clus scale="   52.598">  1  3  2 -1</clus>
</clustering>
</event>
<event>
 6    0  0.8991567E+002  0.8611544E+02  0.7546771E-02  0.1312541E+00
         21   -1    0    0  503  501  0.00000000000E+00  0.00000000000E+00  0.23956166911E+03  0.23956166911E+03  0.00000000000E+00 0. -1.
         21   -1    0    0  505  502 -0.00000000000E+00 -0.00000000000E+00 -0.34484401522E+03  0.34484401522E+03  0.00000000000E+00 0.  1.
         21    1    1    2  503  504  0.50642490674E+02 -0.75839936219E+02 -0.48070934502E+02  0.10308817843E+03  0.00000000000E+00 0.  1.
         21    1    1    2  504  502 -0.79881150325E+01  0.37090736433E+02 -0.21344558097E+02  0.43533008985E+02  0.00000000000E+00 0.  1.
         21    1    1    2  505  506  0.37296341282E+02  0.41564674897E+01 -0.22576278184E+03  0.22886049672E+03  0.00000000000E+00 0.  1.
         21    1    1    2  506  501 -0.79950716924E+02  0.34592732297E+02  0.18989592833E+03  0.20892400020E+03  0.00000000000E+00 0. -1.
<scales pt_clust_3="14000.00000" pt_clust_4="38.30736" pt_clust_5="37.52723" pt_clust_6="86.11544"></scales>
<clustering>
<clus scale="   37.527">  2  5  1 -1</clus>
<clus scale="   38.307">  2  4  1 -1</clus>
<clus scale="   86.115">  1  6  2 -1</clus>
<clus scale="   86.115">  1  3  2 -1</clus>
</clustering>
</event>
<event>
 6    0  0.8991567E+002  0.1313771E+03  0.7546771E-02  0.1225426E+00
         21   -1    0    0  505  501  0.00000000000E+00  0.00000000000E+00  0.61720835923E+03  0.61720835923E+03  0.00000000000E+00 0. -1.
         21   -1    0    0  504  502 -0.00000000000E+00 -0.00000000000E+00 -0.45503603999E+03  0.45503603999E+03  0.00000000000E+00 0. -1.
         21    1    1    2  503  506 -0.14077949532E+03 -0.10490230690E+03  0.29704179697E+02  0.17806094065E+03  0.00000000000E+00 0. -1.
         21    1    1    2  504  501  0.62668280143E+02  0.82749675957E+02  0.42529635300E+03  0.43778055015E+03  0.00000000000E+00 0. -1.
         21    1    1    2  505  503 -0.18352659828E+02  0.43858757488E+02  0.67607623109E+02  0.82651082470E+02  0.00000000000E+00 0.  1.
         21    1    1    2  506  502  0.96463875004E+02 -0.21706126548E+02 -0.36043583657E+03  0.37375182594E+03  0.00000000000E+00 0. -1.
<scales pt_clust_3="14000.00000" pt_clust_4="131.37715" pt_clust_5="47.54378" pt_clust_6="98.53883"></scales>
<clustering>
<clus scale="   47.544">  1  5  2 -1</clus>
<clus scale="   98.539">  2  6  1 -1</clus>
<clus scale="  131.377">  1  4  2 -1</clus>
<clus scale="   47.544">  1  3  2 -1</clus>
</clustering>
</event>
<event>
 6    0  0.8991567E+002  0.1924227E+03  0.7546771E-02  0.1156294E+00
         21   -1    0    0  503  501  0.00000000000E+00  0.00000000000E+00  0.10338658372E+04  0.10338658372E+04  0.00000000000E+00 0. -1.
         21   -1    0    0  506  502 -0.00000000000E+00 -0.00000000000E+00 -0.11959003986E+04  0.11959003986E+04  0.00000000000E+00 0.  1.
         21    1    1    2  503  505 -0.16271804085E+03 -0.10533142597E+03 -0.47704385614E+02  0.19961858261E+03  0.00000000000E+00 0. -1.
         21    1    1    2  504  501 -0.22579674840E+02  0.47681237701E+02  0.94375554082E+03  0.94522900028E+03  0.00000000000E+00 0. -1.
         21    1    1    2  505  502  0.16454305278E+03  0.98651778768E+02 -0.79286293167E+03  0.81574396601E+03  0.00000000000E+00 0.  1.
         21    1    1    2  506  504  0.20754662910E+02 -0.41001590496E+02 -0.26522278492E+03  0.26917468696E+03  0.00000000000E+00 0. -1.
<scales pt_clust_3="192.42271" pt_clust_4="52.72095" pt_clust_5="14000.00000" pt_clust_6="45.95527"></scales>
<clustering>
<clus scale="   45.955">  2  6  1 -1</clus>
<clus scale="   52.721">  1  4  2 -1</clus>
<clus scale="  192.423">  1  3  2 -1</clus>
<clus scale="   52.721">  1  3  2 -1</clus>
</clustering>
</event>
<event>
 6    0  0.8991567E+002  0.1041786E+03  0.7546771E-02  0.1271747E+00
         21   -1    0    0  505  501  0.00000000000E+00  0.00000000000E+00  0.12752378194E+03  0.12752378194E+03  0.00000000000E+00 0.  1.
         21   -1    0    0  504  502 -0.00000000000E+00 -0.00000000000E+00 -0.43217979310E+03  0.43217979310E+03  0.00000000000E+00 0. -1.
         21    1    1    2  503  501  0.73552740000E+02  0.47812159896E+02 -0.11259568273E+03  0.14273680662E+03  0.00000000000E+00 0. -1.
         21    1    1    2  504  503 -0.97205306866E+02 -0.70906601692E+02 -0.23116603733E+03  0.26060382703E+03  0.00000000000E+00 0. -1.
         21    1    1    2  505  506 -0.42527582843E+02 -0.29200170232E+02  0.49355473297E+02  0.71394733618E+02  0.00000000000E+00 0.  1.
         21    1    1    2  506  502  0.66180149709E+02  0.52294612029E+02 -0.10249764402E+02  0.84968207779E+02  0.00000000000E+00 0. -1.
<scales pt_clust_3="104.17857" pt_clust_4="14000.00000" pt_clust_5="51.58726" pt_clust_6="55.74399"></scales>
<clustering>
<clus scale="   51.587">  1  5  2 -1</clus>
<clus scale="   55.744">  1  6  2 -1</clus>
<clus scale="  104.179">  1  3  2 -1</clus>
<clus scale="   51.587">  1  3  2 -1</clus>
</clustering>
</event>
<event>
 6    0  0.8991567E+002  0.8185546E+02  0.7546771E-02  0.1323867E+00
         21   -1    0    0  505  501  0.00000000000E+00  0.00000000000E+00  0.12456564591E+04  0.12456564591E+04  0.00000000000E+00 0. -1.
         21   -1    0    0  506  502 -0.00000000000E+00 -0.00000000000E+00 -0.10109835628E+03  0.10109835628E+03  0.00000000000E+00 0. -1.
         21    1    1    2  503  502 -0.33721609252E+02 -0.15675498264E+01 -0.71867402834E+02  0.79401056246E+02  0.00000000000E+00 0. -1.
         21    1    1    2  504  501  0.51922610124E+02  0.71475925396E+02  0.66375499634E+03  0.66960843821E+03  0.00000000000E+00 0. -1.
         21    1    1    2  505  503  0.33651329513E+02 -0.92630112200E+02  0.52602208203E+03  0.53517471955E+03  0.00000000000E+00 0. -1.
         21    1    1    2  506  504 -0.51852330385E+02  0.22721736631E+02  0.26648427333E+02  0.62570601414E+02  0.00000000000E+00 0. -1.
<scales pt_clust_3="33.75802" pt_clust_4="81.85546" pt_clust_5="14000.00000" pt_clust_6="78.66597"></scales>
<clustering>
<clus scale="   33.758">  2  3  1 -1</clus>
<clus scale="   78.666">  2  6  1 -1</clus>
<clus scale="   81.855">  1  4  2 -1</clus>
<clus scale="   81.855">  1  3  2 -1</clus>
</clustering>
</event>
<event>
 6    0  0.8991567E+002  0.3148998E+03  0.7546771E-02  0.1078021E+00
         21   -1    0    0  506  501  0.00000000000E+00  0.00000000000E+00  0.20834889552E+04  0.20834889552E+04  0.00000000000E+00 0.  1.
         21   -1    0    0  503  502 -0.00000000000E+00 -0.00000000000E+00 -0.33677062759E+03  0.33677062759E+03  0.00000000000E+00 0. -1.
         21    1    1    2  503  505  0.39384969480E+02 -0.23806918157E+02 -0.50939965976E+02  0.68650020442E+02  0.00000000000E+00 0. -1.
         21    1    1    2  504  501  0.16227559170E+02 -0.34699319501E+02  0.44319509971E+03  0.44484747145E+03  0.00000000000E+00 0.  1.
         21    1    1    2  505  504 -0.24450812831E+03 -0.21309817359E+03 -0.15641700314E+03  0.36008517779E+03  0.00000000000E+00 0. -1.
         21    1    1    2  506  502  0.18889559965E+03  0.27160441125E+03  0.15108801970E+04  0.15466769131E+04  0.00000000000E+00 0.  1.
<scales pt_clust_3="46.19324" pt_clust_4="38.30635" pt_clust_5="314.89976" pt_clust_6="14000.00000"></scales>
<clustering>
<clus scale="   38.306">  1  4  2 -1</clus>
<clus scale="   46.193">  2  3  1 -1</clus>
<clus scale="  314.900">  2  5  1 -1</clus>
<clus scale="   38.306">  1  3  2 -1</clus>
</clustering>
</event>
<event>
 6    0  0.8991567E+002  0.2112255E+03  0.7546771E-02  0.1140599E+00
         21   -1    0    0  503  501  0.00000000000E+00  0.00000000000E+00  0.26231230729E+04  0.26231230729E+04  0.00000000000E+00 0.  1.
         21   -1    0    0  504  502 -0.00000000000E+00 -0.00000000000E+00 -0.21733155952E+03  0.21733155952E+03  0.00000000000E+00 0. -1.
         21    1    1    2  503  502  0.14246528731E+03  0.95255237154E+02  0.61835588569E+03  0.64166495904E+03  0.00000000000E+00 0.  1.
         21    1    1    2  504  506  0.33519257393E+02  0.69481349333E+01 -0.19805238707E+03  0.20098896790E+03  0.00000000000E+00 0. -1.
         21    1    1    2  505  501 -0.11290075081E+03 -0.71576661969E+02  0.16293378319E+04  0.16348123955E+04  0.00000000000E+00 0.  1.
         21    1    1    2  506  505 -0.63083793894E+02 -0.30626710118E+02  0.35615018288E+03  0.36298830999E+03  0.00000000000E+00 0. -1.
<scales pt_clust_3="192.32078" pt_clust_4="34.23182" pt_clust_5="61.46816" pt_clust_6="61.46816"></scales>
<clustering>
<clus scale="   34.232">  2  4  1 -1</clus>
<clus scale="   61.468">  5  6 -1 -1</clus>
<clus scale="  192.321">  2  3  1 -1</clus>
<clus scale="  211.225">  1  3  2 -1</clus>
</clustering>
</event>
<event>
 6    0  0.8991567E+002  0.8191820E+02  0.7546771E-02  0.1323694E+00
         21   -1    0    0  505  501  0.00000000000E+00  0.00000000000E+00  0.46264533406E+02  0.46264533406E+02  0.00000000000E+00 0.  1.
         21   -1    0    0  506  502 -0.00000000000E+00 -0.00000000000E+00 -0.67983471842E+03  0.67983471842E+03  0.00000000000E+00 0.  1.
         21    1    1    2  503  504  0.43035955065E+02 -0.55094033511E+02 -0.15340082788E+03  0.16858012917E+03  0.00000000000E+00 0.  1.
         21    1    1    2  504  501 -0.72838860100E+02  0.48934762941E+02 -0.34055146820E+02  0.94126848399E+02  0.00000000000E+00 0.  1.
         21    1    1    2  505  502 -0.38422963929E+02  0.27113371978E+02 -0.10746292695E+03  0.11730191715E+03  0.00000000000E+00 0.  1.
         21    1    1    2  506  503  0.68225868964E+02 -0.20954101407E+02 -0.33865128336E+03  0.34609035711E+03  0.00000000000E+00 0.  1.
<scales pt_clust_3="81.91820" pt_clust_4="14000.00000" pt_clust_5="47.02615" pt_clust_6="45.27728"></scales>
<clustering>
<clus scale="   47.026">  2  5  1 -1</clus>
<clus scale="   45.277">  2  6  1 -1</clus>
<clus scale="   81.918">  2  3  1 -1</clus>
<clus scale="   81.918">  1  3  2 -1</clus>
</clustering>
</event>
<event>
 6    0  0.8991567E+002  0.8696874E+02  0.7546771E-02  0.1310363E+00
         21   -1    0    0  504  501  0.00000000000E+00  0.00000000000E+00  0.95403338451E+02  0.95403338451E+02  0.00000000000E+00 0.  1.
         21   -1    0    0  505  502 -0.00000000000E+00 -0.00000000000E+00 -0.20256302080E+04  0.20256302080E+04  0.00000000000E+00 0.  1.
         21    1    1    2  503  501 -0.13619786130E+02  0.63349223218E+02  0.71800362537E+02  0.96715638430E+02  0.00000000000E+00 0.  1.
         21    1    1    2  504  506  0.22879363314E+02  0.23839404774E+02 -0.32588925690E+02  0.46409272385E+02  0.00000000000E+00 0. -1.
         21    1    1    2  505  503 -0.55563970132E+02  0.11464760487E+02 -0.11303411213E+04  0.11317640417E+04  0.00000000000E+00 0.  1.
         21    1    1    2  506  502  0.46304392947E+02 -0.98653388479E+02 -0.83909718505E+03  0.84614459392E+03  0.00000000000E+00 0.  1.
<scales pt_clust_3="86.96874" pt_clust_4="33.04213" pt_clust_5="56.59346" pt_clust_6="14000.00000"></scales>
<clustering>
<clus scale="   33.042">  1  4  2 -1</clus>
<clus scale="   56.593">  2  5  1 -1</clus>
<clus scale="   86.969">  1  3  2 -1</clus>
<clus scale="   33.042">  1  3  2 -1</clus>
</clustering>
</event>
<event>
 6    0  0.8991567E+002  0.1164534E+03  0.7546771E-02  0.1249065E+00
         21   -1    0    0  506  501  0.00000000000E+00  0.00000000000E+00  0.77303757147E+03  0.77303757147E+03  0.00000000000E+00 0.  1.
         21   -1    0    0  503  502 -0.00000000000E+00 -0.00000000000E+00 -0.67760507279E+02  0.67760507279E+02  0.00000000000E+00 0. -1.
         21    1    1    2  503  501  0.39836039643E+02  0.16664733718E+02  0.34379340260E+02  0.55195674116E+02  0.00000000000E+00 0. -1.
         21    1    1    2  504  505 -0.62079854155E+02 -0.85042445486E+02  0.19180181690E+02  0.10702338621E+03  0.00000000000E+00 0. -1.
         21    1    1    2  505  502 -0.62298924083E+01 -0.47104573376E+02  0.68559337098E+02  0.83414837383E+02  0.00000000000E+00 0. -1.
         21    1    1    2  506  504  0.28473706920E+02  0.11548228514E+03  0.58315820514E+03  0.59516418104E+03  0.00000000000E+00 0.  1.
<scales pt_clust_3="43.18129" pt_clust_4="116.45339" pt_clust_5="44.95906" pt_clust_6="14000.00000"></scales>
<clustering>
<clus scale="   43.181">  2  3  1 -1</clus>
<clus scale="   44.959">  2  5  1 -1</clus>
<clus scale="  116.453">  2  4  1 -1</clus>
<clus scale="  116.453">  1  3  2 -1</clus>
</clustering>
</event>
<event>
 6    0  0.8991567E+002  0.9964889E+02  0.7546771E-02  0.1281036E+00
         21   -1    0    0  506  501  0.00000000000E+00  0.00000000000E+00  0.17258355207E+03  0.17258355207E+03  0.00000000000E+00 0. -1.
         21   -1    0    0  504  502 -0.00000000000E+00 -0.00000000000E+00 -0.22484834341E+04  0.22484834341E+04  0.00000000000E+00 0. -1.
         21    1    1    2  503  502 -0.13115493402E+03 -0.19416034648E+02 -0.17604035714E+04  0.17653892866E+04  0.00000000000E+00 0. -1.
         21    1    1    2  504  505  0.80161125784E+02  0.33609555751E+02 -0.31053071136E+03  0.32246663552E+03  0.00000000000E+00 0.  1.
         21    1    1    2  505  501  0.12774447351E+03 -0.69416530328E+02 -0.11699399978E+03  0.18661431129E+03  0.00000000000E+00 0.  1.
         21    1    1    2  506  503 -0.76750665268E+02  0.55223009225E+02  0.11202840055E+03  0.14659675269E+03  0.00000000000E+00 0. -1.
<scales pt_clust_3="59.09074" pt_clust_4="86.92185" pt_clust_5="99.64889" pt_clust_6="14000.00000"></scales>
<clustering>
<clus scale="   86.922">  2  4  1 -1</clus>
<clus scale="   59.091">  2  3  1 -1</clus>
<clus scale="   99.649">  2  5  1 -1</clus>
<clus scale="   99.649">  1  3  2 -1</clus>
</clustering>
</event>
<event>
 6    0  0.8991567E+002  0.2142938E+03  0.7546771E-02  0.1138210E+00
         21   -1    0    0  503  501  0.00000000000E+00  0.00000000000E+00  0.95141405099E+02  0.95141405099E+02  0.00000000000E+00 0.  1.
         21   -1    0    0  504  502 -0.00000000000E+00 -0.00000000000E+00 -0.92605502105E+03  0.92605502105E+03  0.00000000000E+00 0.  1.
         21    1    1    2  503  502  0.14968691225E+03 -0.16096270157E+03 -0.51179205580E+03  0.55699755060E+03  0.00000000000E+00 0.  1.
         21    1    1    2  504  506  0.66231267737E+01  0.49062353005E+02 -0.23255531568E+03  0.23776659804E+03  0.00000000000E+00 0. -1.
         21    1    1    2  505  501 -0.44737737347E+02  0.82443719081E+02 -0.36717307979E+02  0.10073029665E+03  0.00000000000E+00 0.  1.
         21    1    1    2  506  505 -0.11157230168E+03  0.29456629482E+02 -0.49848936491E+02  0.12570198086E+03  0.00000000000E+00 0.  1.
<scales pt_clust_3="197.73332" pt_clust_4="49.50738" pt_clust_5="75.74319" pt_clust_6="75.74319"></scales>
<clustering>
<clus scale="   49.507">  2  4  1 -1</clus>
<clus scale="   75.743">  5  6 -1 -1</clus>
<clus scale="  197.733">  2  3  1 -1</clus>
<clus scale="  214.294">  1  3  2 -1</clus>
</clustering>
</event>
<event>
 6    0  0.8991567E+002  0.3611059E+03  0.7546771E-02  0.1058147E+00
         21   -1    0    0  506  501  0.00000000000E+00  0.00000000000E+00  0.69677145317E+03  0.69677145317E+03  0.00000000000E+00 0.  1.
         21   -1    0    0  505  502 -0.00000000000E+00 -0.00000000000E+00 -0.11102763595E+04  0.11102763595E+04  0.00000000000E+00 0. -1.
         21    1    1    2  503  502  0.34443332516E+03  0.10775947956E+03  0.10951392427E+03  0.37714681561E+03  0.00000000000E+00 0.  1.
         21    1    1    2  504  503  0.84683755129E+02 -0.24469879553E+02  0.68695875932E+02  0.11175525383E+03  0.00000000000E+00 0.  1.
         21    1    1    2  505  501 -0.32950086863E+03 -0.13352610935E+02 -0.91505059754E+03  0.97265960680E+03  0.00000000000E+00 0. -1.
         21    1    1    2  506  504 -0.99616211655E+02 -0.69936989074E+02  0.32333589100E+03  0.34548613644E+03  0.00000000000E+00 0.  1.
<scales pt_clust_3="62.87968" pt_clust_4="62.87968" pt_clust_5="337.94907" pt_clust_6="121.71513"></scales>
<clustering>
<clus scale="   62.880">  3  4 -1 -1</clus>
<clus scale="  121.715">  1  6  2 -1</clus>
<clus scale="  337.949">  2  5  1 -1</clus>
<clus scale="  121.715">  1  3  2 -1</clus>
</clustering>
</event>
<event>
 6    0  0.8991567E+002  0.8292768E+02  0.7546771E-02  0.1320943E+00
         21   -1    0    0  504  501  0.00000000000E+00  0.00000000000E+00  0.10786527101E+03  0.10786527101E+03  0.00000000000E+00 0. -1.
         21   -1    0    0  506  502 -0.00000000000E+00 -0.00000000000E+00 -0.13803803631E+04  0.13803803631E+04  0.00000000000E+00 0. -1.
         21    1    1    2  503  501  0.40553891383E+02 -0.68395636805E+02  0.42638356262E+02  0.90225332723E+02  0.00000000000E+00 0. -1.
         21    1    1    2  504  505  0.20346604197E+02  0.24018385264E+02 -0.64882688690E+01  0.32139769226E+02  0.00000000000E+00 0. -1.
         21    1    1    2  505  502  0.40050812894E+02  0.30450866654E+01 -0.12317529395E+04  0.12324076615E+04  0.00000000000E+00 0. -1.
         21    1    1    2  506  503 -0.10095130847E+03  0.41332164876E+02 -0.76912239932E+02  0.13347287060E+03  0.00000000000E+00 0. -1.
<scales pt_clust_3="82.92768" pt_clust_4="31.47804" pt_clust_5="40.24263" pt_clust_6="14000.00000"></scales>
<clustering>
<clus scale="   31.478">  1  4  2 -1</clus>
<clus scale="   40.243">  2  5  1 -1</clus>
<clus scale="   82.928">  1  3  2 -1</clus>
<clus scale="   31.478">  1  3  2 -1</clus>
</clustering>
</event>
<event>
 6    0  0.8991567E+002  0.1493226E+03  0.7546771E-02  0.1201308E+00
         21   -1    0    0  502  501  0.00000000000E+00  0.00000000000E+00  0.12710114360E+04  0.12710114360E+04  0.00000000000E+00 0. -1.
         21   -1    0    0  503  502 -0.00000000000E+00 -0.00000000000E+00 -0.20715499408E+03  0.20715499408E+03  0.00000000000E+00 0. -1.
         21    1    1    2  503  505 -0.39300155727E+02  0.33755050667E+02 -0.63327857305E+02  0.81818843774E+02  0.00000000000E+00 0. -1.
         21    1    1    2  504  501  0.15270702837E+03  0.67630135172E+01  0.11907040594E+04  0.12004754607E+04  0.00000000000E+00 0. -1.
         21    1    1    2  505  506 -0.50857997100E+02  0.13511680179E+02  0.38038317673E+02  0.64930847690E+02  0.00000000000E+00 0. -1.
         21    1    1    2  506  504 -0.62548875543E+02 -0.54029744364E+02 -0.10155807776E+03  0.13094127793E+03  0.00000000000E+00 0. -1.
<scales pt_clust_3="51.80643" pt_clust_4="14000.00000" pt_clust_5="57.32732" pt_clust_6="149.32260"></scales>
<clustering>
<clus scale="   51.806">  2  3  1 -1</clus>
<clus scale="   57.327">  2  5  1 -1</clus>
<clus scale="  149.323">  2  6  1 -1</clus>
<clus scale="  149.323">  1  3  2 -1</clus>
</clustering>
</event>
<event>
 6    0  0.8991567E+002  0.1734658E+03  0.7546771E-02  0.1174281E+00
         21   -1    0    0  503  501  0.00000000000E+00  0.00000000000E+00  0.29777929225E+03  0.29777929225E+03  0.00000000000E+00 0. -1.
         21   -1    0    0  506  502 -0.00000000000E+00 -0.00000000000E+00 -0.41215865321E+03  0.41215865321E+03  0.00000000000E+00 0. -1.
         21    1    1    2  503  505  0.15701714205E+03  0.13555427572E+02  0.42032512624E+02  0.16310997711E+03  0.00000000000E+00 0. -1.
         21    1    1    2  504  501  0.20914115720E+02 -0.52301617946E+02  0.49400799972E+02  0.74921949480E+02  0.00000000000E+00 0. -1.
         21    1    1    2  505  502  0.12369335999E+02  0.54762067172E+02 -0.26585357059E+03  0.27171677436E+03  0.00000000000E+00 0. -1.
         21    1    1    2  506  504 -0.19030059377E+03 -0.16015876798E+02  0.60040897032E+02  0.20018924451E+03  0.00000000000E+00 0. -1.
<scales pt_clust_3="14000.00000" pt_clust_4="52.28809" pt_clust_5="56.14165" pt_clust_6="173.46578"></scales>
<clustering>
<clus scale="   56.142">  2  5  1 -1</clus>
<clus scale="   52.288">  1  4  2 -1</clus>
<clus scale="  173.466">  1  6  2 -1</clus>
<clus scale="   52.288">  1  3  2 -1</clus>
</clustering>
</event>
<event>
 6    0  0.8991567E+002  0.1334711E+03  0.7546771E-02  0.1222394E+00
         21   -1    0    0  506  501  0.00000000000E+00  0.00000000000E+00  0.22474231310E+03  0.22474231310E+03  0.00000000000E+00 0. -1.
         21   -1    0    0  503  502 -0.00000000000E+00 -0.00000000000E+00 -0.15298544604E+04  0.15298544604E+04  0.00000000000E+00 0. -1.
         21    1    1    2  503  505 -0.12396606662E+02 -0.87166917731E+02 -0.11407160310E+04  0.11441087408E+04  0.00000000000E+00 0. -1.
         21    1    1    2  504  502  0.86802083808E+02  0.75470528580E+02 -0.26367469291E+03  0.28767124659E+03  0.00000000000E+00 0. -1.
         21    1    1    2  505  501 -0.14929380289E+03  0.10158009868E+03  0.20414027410E+02  0.18172476041E+03  0.00000000000E+00 0. -1.
         21    1    1    2  506  504  0.74888325747E+02 -0.89883709530E+02  0.78864549249E+02  0.14109202564E+03  0.00000000000E+00 0. -1.
<scales pt_clust_3="88.04401" pt_clust_4="79.13296" pt_clust_5="133.47114" pt_clust_6="14000.00000"></scales>
<clustering>
<clus scale="   88.044">  2  3  1 -1</clus>
<clus scale="   79.133">  2  4  1 -1</clus>
<clus scale="  133.471">  2  5  1 -1</clus>
<clus scale="  133.471">  1  3  2 -1</clus>
</clustering>
</event>
<event>
 6    0  0.8991567E+002  0.1323903E+03  0.7546771E-02  0.1223951E+00
         21   -1    0    0  506  501  0.00000000000E+00  0.00000000000E+00  0.12661329102E+04  0.12661329102E+04  0.00000000000E+00 0.  1.
         21   -1    0    0  503  502 -0.00000000000E+00 -0.00000000000E+00 -0.19480833243E+03  0.19480833243E+03  0.00000000000E+00 0.  1.
         21    1    1    2  503  505  0.88387269223E+02  0.58450247852E+01 -0.14758699361E+03  0.17212900499E+03  0.00000000000E+00 0.  1.
         21    1    1    2  504  501  0.24373597844E+02  0.30624373298E+02  0.31241840648E+03  0.31486058060E+03  0.00000000000E+00 0.  1.
         21    1    1    2  505  504  0.34173691598E+02 -0.62313299727E+01 -0.16775110805E+02  0.38575575345E+02  0.00000000000E+00 0.  1.
         21    1    1    2  506  502 -0.14693455866E+03 -0.30238068110E+02  0.92326827575E+03  0.93537608174E+03  0.00000000000E+00 0.  1.
<scales pt_clust_3="30.42294" pt_clust_4="39.13981" pt_clust_5="30.42294" pt_clust_6="123.15442"></scales>
<clustering>
<clus scale="   30.423">  3  5 -1 -1</clus>
<clus scale="   39.140">  1  4  2 -1</clus>
<clus scale="  123.154">  1  6  2 -1</clus>
<clus scale="   39.140">  1  3  2 -1</clus>
</clustering>
</event>
<event>
 6    0  0.8991567E+002  0.7652793E+02  0.7546771E-02  0.1339204E+00
         21   -1    0    0  506  501  0.00000000000E+00  0.00000000000E+00  0.12679532606E+03  0.12679532606E+03  0.00000000000E+00 0. -1.
         21   -1    0    0  505  502 -0.00000000000E+00 -0.00000000000E+00 -0.56561601282E+03  0.56561601282E+03  0.00000000000E+00 0. -1.
         21    1    1    2  503  502 -0.17674254988E+02  0.59163702439E+02 -0.45616228960E+03  0.46032244941E+03  0.00000000000E+00 0. -1.
         21    1    1    2  504  503 -0.66481651053E+02  0.44552200552E+01 -0.32420980112E+02  0.74099789905E+02  0.00000000000E+00 0. -1.
         21    1    1    2  505  501  0.11539898755E+02 -0.58998732825E+02 -0.13450180469E+02  0.61602979578E+02  0.00000000000E+00 0. -1.
         21    1    1    2  506  504  0.72616007286E+02 -0.46201896689E+01  0.63212763419E+02  0.96386119985E+02  0.00000000000E+00 0. -1.
<scales pt_clust_3="60.53573" pt_clust_4="76.52793" pt_clust_5="60.11672" pt_clust_6="14000.00000"></scales>
<clustering>
<clus scale="   60.117">  1  5  2 -1</clus>
<clus scale="   60.536">  2  3  1 -1</clus>
<clus scale="   76.528">  2  4  1 -1</clus>
<clus scale="   60.117">  1  3  2 -1</clus>
</clustering>
</event>
<event>
 6    0  0.8991567E+002  0.7900710E+02  0.7546771E-02  0.1331893E+00
         21   -1    0    0  505  501  0.00000000000E+00  0.00000000000E+00  0.57207951104E+03  0.57207951104E+03  0.00000000000E+00 0. -1.
         21   -1    0    0  504  502 -0.00000000000E+00 -0.00000000000E+00 -0.13978743024E+03  0.13978743024E+03  0.00000000000E+00 0. -1.
         21    1    1    2  503  506  0.34704176216E+02 -0.17832607718E+02  0.17060327514E+03  0.17500816904E+03  0.00000000000E+00 0. -1.
         21    1    1    2  504  501  0.36763619609E+02  0.66392942173E+02 -0.98502932097E+02  0.12434795587E+03  0.00000000000E+00 0. -1.
         21    1    1    2  505  503  0.23033073355E+02  0.31463761534E+02  0.22826574879E+03  0.23157232742E+03  0.00000000000E+00 0. -1.
         21    1    1    2  506  502 -0.94500869180E+02 -0.80024095990E+02  0.13192598897E+03  0.18093848894E+03  0.00000000000E+00 0. -1.
<scales pt_clust_3="46.37755" pt_clust_4="79.00710" pt_clust_5="38.99347" pt_clust_6="14000.00000"></scales>
<clustering>
<clus scale="   38.993">  1  5  2 -1</clus>
<clus scale="   46.378">  1  3  2 -1</clus>
<clus scale="   79.007">  2  4  1 -1</clus>
<clus scale="   38.993">  1  3  2 -1</clus>
</clustering>
</event>
<event>
 6    0  0.8991567E+002  0.1581609E+03  0.7546771E-02  0.1190789E+00
         21   -1    0    0  503  501  0.00000000000E+00  0.00000000000E+00  0.14303429581E+03  0.14303429581E+03  0.00000000000E+00 0. -1.
         21   -1    0    0  506  502 -0.00000000000E+00 -0.00000000000E+00 -0.63294535731E+03  0.63294535731E+03  0.00000000000E+00 0. -1.
         21    1    1    2  503  502  0.10262911682E+03 -0.58058695493E+02 -0.43226171305E+03  0.44805550584E+03  0.00000000000E+00 0. -1.
         21    1    1    2  504  501  0.62374161784E+01  0.66912938853E+02  0.12732835778E+02  0.68398624646E+02  0.00000000000E+00 0. -1.
         21    1    1    2  505  504 -0.17228977366E+03 -0.18675677934E+02 -0.13597768306E+02  0.17383166098E+03  0.00000000000E+00 0. -1.
         21    1    1    2  506  505  0.63423240664E+02  0.98214345734E+01 -0.56784415925E+02  0.85693861655E+02  0.00000000000E+00 0. -1.
<scales pt_clust_3="14000.00000" pt_clust_4="68.04918" pt_clust_5="158.16095" pt_clust_6="64.17919"></scales>
<clustering>
<clus scale="   64.179">  2  6  1 -1</clus>
<clus scale="   68.049">  1  4  2 -1</clus>
<clus scale="  158.161">  1  5  2 -1</clus>
<clus scale="   68.049">  1  3  2 -1</clus>
</clustering>
</event>
<event>
 6    0  0.8991567E+002  0.7265202E+02  0.7546771E-02  0.1351300E+00
         21   -1    0    0  506  501  0.00000000000E+00  0.00000000000E+00  0.20041749707E+03  0.20041749707E+03  0.00000000000E+00 0.  1.
         21   -1    0    0  505  502 -0.00000000000E+00 -0.00000000000E+00 -0.26380392516E+03  0.26380392516E+03  0.00000000000E+00 0.  1.
         21    1    1    2  503  501  0.58388237490E+02  0.27029638168E+02  0.95967017998E+02  0.11553984663E+03  0.00000000000E+00 0.  1.
         21    1    1    2  504  503 -0.78400907292E+02 -0.62703749254E+02  0.52547325347E+02  0.11331232870E+03  0.00000000000E+00 0.  1.
         21    1    1    2  505  504 -0.23346245255E+02  0.51275557568E+02 -0.11358767077E+03  0.12679270059E+03  0.00000000000E+00 0.  1.
         21    1    1    2  506  502  0.43358915058E+02 -0.15601446482E+02 -0.98313100664E+02  0.10857654631E+03  0.00000000000E+00 0.  1.
<scales pt_clust_3="72.65202" pt_clust_4="14000.00000" pt_clust_5="40.62634" pt_clust_6="46.08037"></scales>
<clustering>
<clus scale="   46.080">  2  6  1 -1</clus>
<clus scale="   40.626">  2  5  1 -1</clus>
<clus scale="   72.652">  1  3  2 -1</clus>
<clus scale="   72.652">  1  3  2 -1</clus>
</clustering>
</event>
<event>
 6    0  0.8991567E+002  0.1036101E+03  0.7546771E-02  0.1272882E+00
         21   -1    0    0  505  501  0.00000000000E+00  0.00000000000E+00  0.15676065709E+04  0.15676065709E+04  0.00000000000E+00 0.  1.
         21   -1    0    0  503  502 -0.00000000000E+00 -0.00000000000E+00 -0.46340003859E+02  0.46340003859E+02  0.00000000000E+00 0. -1.
         21    1    1    2  503  504 -0.20433366144E+02 -0.34782002027E+02  0.17858368315E+02  0.44116113109E+02  0.00000000000E+00 0. -1.
         21    1    1    2  504  501  0.94118392970E+02 -0.90713098882E+02  0.59926269668E+03  0.61335382760E+03  0.00000000000E+00 0.  1.
         21    1    1    2  505  506 -0.41770310755E+02  0.12904691201E+02  0.79578932576E+03  0.79698929786E+03  0.00000000000E+00 0.  1.
         21    1    1    2  506  502 -0.31914716071E+02  0.11259040971E+03  0.10835617625E+03  0.15948733615E+03  0.00000000000E+00 0. -1.
<scales pt_clust_3="40.33993" pt_clust_4="103.61013" pt_clust_5="43.89125" pt_clust_6="14000.00000"></scales>
<clustering>
<clus scale="   40.340">  2  3  1 -1</clus>
<clus scale="   43.891">  1  5  2 -1</clus>
<clus scale="  103.610">  1  4  2 -1</clus>
<clus scale="   43.891">  1  3  2 -1</clus>
</clustering>
</event>
<event>
 6    0  0.8991567E+002  0.1101477E+03  0.7546771E-02  0.1260297E+00
         21   -1    0    0  504  501  0.00000000000E+00  0.00000000000E+00  0.18550940685E+03  0.18550940685E+03  0.00000000000E+00 0.  1.
         21   -1    0    0  505  502 -0.00000000000E+00 -0.00000000000E+00 -0.38935379778E+03  0.38935379778E+03  0.00000000000E+00 0.  1.
         21    1    1    2  503  501  0.32369370675E+02  0.11457039990E+01  0.99882205437E+02  0.10500258929E+03  0.00000000000E+00 0.  1.
         21    1    1    2  504  506 -0.52992114188E+02  0.21880471757E+01  0.34332087069E+02  0.63179458046E+02  0.00000000000E+00 0.  1.
         21    1    1    2  505  503  0.10121206642E+03  0.63184900795E+02 -0.15141399830E+03  0.19277555073E+03  0.00000000000E+00 0.  1.
         21    1    1    2  506  502 -0.80589322912E+02 -0.66518651970E+02 -0.18664468514E+03  0.21390560656E+03  0.00000000000E+00 0.  1.
<scales pt_clust_3="32.38964" pt_clust_4="34.11321" pt_clust_5="110.14772" pt_clust_6="14000.00000"></scales>
<clustering>
<clus scale="   32.390">  1  3  2 -1</clus>
<clus scale="   34.113">  1  4  2 -1</clus>
<clus scale="  110.148">  1  5  2 -1</clus>
<clus scale="   32.390">  1  3  2 -1</clus>
</clustering>
</event>
<event>
 6    0  0.8991567E+002  0.8008993E+02  0.7546771E-02  0.1328796E+00
         21   -1    0    0  503  501  0.00000000000E+00  0.00000000000E+00  0.29966179897E+03  0.29966179897E+03  0.00000000000E+00 0. -1.
         21   -1    0    0  504  502 -0.00000000000E+00 -0.00000000000E+00 -0.12909584575E+03  0.12909584575E+03  0.00000000000E+00 0. -1.
         21    1    1    2  503  505  0.39639333232E+02  0.31039923724E+02  0.10150833494E+03  0.11330796824E+03  0.00000000000E+00 0. -1.
         21    1    1    2  504  506 -0.31427112714E+02 -0.44872330332E+01 -0.55566229265E+02  0.63995347555E+02  0.00000000000E+00 0. -1.
         21    1    1    2  505  502 -0.94962802560E+02  0.10785875230E+02  0.12457005606E+03  0.15700945144E+03  0.00000000000E+00 0. -1.
         21    1    1    2  506  501  0.86750582042E+02 -0.37338565921E+02  0.53791479312E-01  0.94444877486E+02  0.00000000000E+00 0. -1.
<scales pt_clust_3="48.02372" pt_clust_4="31.74584" pt_clust_5="14000.00000" pt_clust_6="80.08993"></scales>
<clustering>
<clus scale="   31.746">  2  4  1 -1</clus>
<clus scale="   48.024">  1  3  2 -1</clus>
<clus scale="   80.090">  2  6  1 -1</clus>
<clus scale="   48.024">  1  3  2 -1</clus>
</clustering>
</event>
<event>
 6    0  0.8991567E+002  0.3183795E+03  0.7546771E-02  0.1076398E+00
         21   -1    0    0  504  501  0.00000000000E+00  0.00000000000E+00  0.12155666863E+04  0.12155666863E+04  0.00000000000E+00 0. -1.
         21   -1    0    0  503  502 -0.00000000000E+00 -0.00000000000E+00 -0.28241429733E+04  0.28241429733E+04  0.00000000000E+00 0. -1.
         21    1    1    2  503  501  0.76693667111E+02 -0.80205278803E+02 -0.19813036418E+02  0.11272693438E+03  0.00000000000E+00 0. -1.
         21    1    1    2  504  505  0.52909502931E+02  0.50383423765E+02  0.99723623289E+03  0.99990900040E+03  0.00000000000E+00 0. -1.
         21    1    1    2  505  506 -0.69362082920E+02 -0.28587868823E+03  0.26051362338E+02  0.29532422253E+03  0.00000000000E+00 0. -1.
         21    1    1    2  506  502 -0.60241087121E+02  0.31570054327E+03 -0.26120508458E+04  0.26317495022E+04  0.00000000000E+00 0. -1.
<scales pt_clust_3="112.10116" pt_clust_4="73.06097" pt_clust_5="14000.00000" pt_clust_6="318.37947"></scales>
<clustering>
<clus scale="   73.061">  1  4  2 -1</clus>
<clus scale="  112.101">  1  3  2 -1</clus>
<clus scale="  318.379">  2  6  1 -1</clus>
<clus scale="   73.061">  1  3  2 -1</clus>
</clustering>
</event>
<event>
 6    0  0.8991567E+002  0.7704506E+02  0.7546771E-02  0.1337653E+00
         21   -1    0    0  505  501  0.00000000000E+00  0.00000000000E+00  0.24529609048E+03  0.24529609048E+03  0.00000000000E+00 0. -1.
         21   -1    0    0  504  502 -0.00000000000E+00 -0.00000000000E+00 -0.19908296599E+03  0.19908296599E+03  0.00000000000E+00 0.  1.
         21    1    1    2  503  506 -0.52160822125E+02 -0.24295013079E+01  0.55007474835E+02  0.75845079795E+02  0.00000000000E+00 0. -1.
         21    1    1    2  504  503  0.60240964323E+02 -0.26084044567E+02 -0.14717497573E+03  0.16115155800E+03  0.00000000000E+00 0.  1.
         21    1    1    2  505  502  0.61631253346E+02 -0.53092257533E+01  0.18365286331E+02  0.64528156715E+02  0.00000000000E+00 0. -1.
         21    1    1    2  506  501 -0.69711395544E+02  0.33822771628E+02  0.12001533907E+03  0.14285426196E+03  0.00000000000E+00 0. -1.
<scales pt_clust_3="30.25242" pt_clust_4="67.66018" pt_clust_5="61.85951" pt_clust_6="30.25242"></scales>
<clustering>
<clus scale="   30.252">  3  6 -1 -1</clus>
<clus scale="   61.860">  1  5  2 -1</clus>
<clus scale="   67.660">  2  4  1 -1</clus>
<clus scale="   61.860">  1  3  2 -1</clus>
</clustering>
</event>
<event>
 6    0  0.8991567E+002  0.7796551E+02  0.7546771E-02  0.1334926E+00
         21   -1    0    0  505  501  0.00000000000E+00  0.00000000000E+00  0.40678188797E+03  0.40678188797E+03  0.00000000000E+00 0. -1.
         21   -1    0    0  506  502 -0.00000000000E+00 -0.00000000000E+00 -0.50352401970E+03  0.50352401970E+03  0.00000000000E+00 0. -1.
         21    1    1    2  503  501  0.15187762280E+02  0.61533409029E+02  0.29689736188E+03  0.30358700901E+03  0.00000000000E+00 0. -1.
         21    1    1    2  504  502 -0.31124311813E+01 -0.10031360835E+03  0.28892710535E+02  0.10443800060E+03  0.00000000000E+00 0.  1.
         21    1    1    2  505  504  0.44983846404E+02 -0.65823739680E+01  0.22913221911E+02  0.50910606190E+02  0.00000000000E+00 0.  1.
         21    1    1    2  506  503 -0.57059177502E+02  0.45362573287E+02 -0.44544542605E+03  0.45137029187E+03  0.00000000000E+00 0. -1.
<scales pt_clust_3="77.96551" pt_clust_4="14000.00000" pt_clust_5="45.46289" pt_clust_6="72.57924"></scales>
<clustering>
<clus scale="   45.463">  1  5  2 -1</clus>
<clus scale="   72.579">  2  6  1 -1</clus>
<clus scale="   77.966">  1  3  2 -1</clus>
<clus scale="   45.463">  1  3  2 -1</clus>
</clustering>
</event>
<event>
 6    0  0.8991567E+002  0.1300103E+03  0.7546771E-02  0.1227441E+00
         21   -1    0    0  504  501  0.00000000000E+00  0.00000000000E+00  0.40812547157E+03  0.40812547157E+03  0.00000000000E+00 0. -1.
         21   -1    0    0  506  502 -0.00000000000E+00 -0.00000000000E+00 -0.39802779843E+03  0.39802779843E+03  0.00000000000E+00 0. -1.
         21    1    1    2  503  505 -0.10678349860E+03 -0.13642539952E+02 -0.10554907929E+03  0.15076286880E+03  0.00000000000E+00 0. -1.
         21    1    1    2  504  503 -0.97006062538E+01  0.39023454762E+02  0.27991120527E+03  0.28278474962E+03  0.00000000000E+00 0. -1.
         21    1    1    2  505  502 -0.22251629085E+02  0.60385528048E+02 -0.19612823111E+03  0.20641664185E+03  0.00000000000E+00 0. -1.
         21    1    1    2  506  501  0.13873573393E+03 -0.85766442857E+02  0.31863778266E+02  0.16618900973E+03  0.00000000000E+00 0. -1.
<scales pt_clust_3="130.01026" pt_clust_4="40.21109" pt_clust_5="65.97697" pt_clust_6="14000.00000"></scales>
<clustering>
<clus scale="   40.211">  1  4  2 -1</clus>
<clus scale="   65.977">  2  5  1 -1</clus>
<clus scale="  130.010">  2  3  1 -1</clus>
<clus scale="   40.211">  1  3  2 -1</clus>
</clustering>
</event>
<event>
 6    0  0.8991567E+002  0.1036421E+03  0.7546771E-02  0.1272818E+00
         21   -1    0    0  505  501  0.00000000000E+00  0.00000000000E+00  0.10069304595E+04  0.10069304595E+04  0.00000000000E+00 0.  1.
         21   -1    0    0  506  502 -0.00000000000E+00 -0.00000000000E+00 -0.25784280342E+03  0.25784280342E+03  0.00000000000E+00 0. -1.
         21    1    1    2  503  501  0.60818595062E+02 -0.48360256549E+00  0.39167264730E+03  0.39636674687E+03  0.00000000000E+00 0.  1.
         21    1    1    2  504  502  0.71626132285E+02 -0.47845835445E+02 -0.15738604094E+03  0.17941541929E+03  0.00000000000E+00 0. -1.
         21    1    1    2  505  504  0.95762341795E+00  0.88134392408E+02  0.54031617901E+03  0.54745790840E+03  0.00000000000E+00 0.  1.
         21    1    1    2  506  503 -0.13340235077E+03 -0.39804954397E+02 -0.25515129303E+02  0.14153318836E+03  0.00000000000E+00 0.  1.
<scales pt_clust_3="60.82052" pt_clust_4="87.05242" pt_clust_5="103.64212" pt_clust_6="14000.00000"></scales>
<clustering>
<clus scale="   60.821">  1  3  2 -1</clus>
<clus scale="   87.052">  2  4  1 -1</clus>
<clus scale="  103.642">  1  5  2 -1</clus>
<clus scale="   60.821">  1  3  2 -1</clus>
</clustering>
</event>
<event>
 6    0  0.8991567E+002  0.1050449E+03  0.7546771E-02  0.1270031E+00
         21   -1    0    0  503  501  0.00000000000E+00  0.00000000000E+00  0.46746314593E+03  0.46746314593E+03  0.00000000000E+00 0.  1.
         21   -1    0    0  506  502 -0.00000000000E+00 -0.00000000000E+00 -0.79830666313E+03  0.79830666313E+03  0.00000000000E+00 0.  1.
         21    1    1    2  503  504  0.39428221014E+02 -0.14750346679E+02  0.19406071802E+03  0.19857421690E+03  0.00000000000E+00 0.  1.
         21    1    1    2  504  502  0.82950887333E+02  0.12575964251E+03 -0.61173160988E+03  0.63000944431E+03  0.00000000000E+00 0.  1.
         21    1    1    2  505  501 -0.10393553556E+03 -0.66031910416E+02  0.24365189088E+03  0.27300009648E+03  0.00000000000E+00 0.  1.
         21    1    1    2  506  505 -0.18443572790E+02 -0.44977385412E+02 -0.15682451623E+03  0.16418605138E+03  0.00000000000E+00 0. -1.
<scales pt_clust_3="42.09700" pt_clust_4="14000.00000" pt_clust_5="105.04486" pt_clust_6="48.59759"></scales>
<clustering>
<clus scale="   42.097">  1  3  2 -1</clus>
<clus scale="   48.598">  2  6  1 -1</clus>
<clus scale="  105.045">  1  5  2 -1</clus>
<clus scale="   42.097">  1  3  2 -1</clus>
</clustering>
</event>
<event>
 6    0  0.8991567E+002  0.8874316E+02  0.7546771E-02  0.1305924E+00
         21   -1    0    0  505  501  0.00000000000E+00  0.00000000000E+00  0.58568017259E+03  0.58568017259E+03  0.00000000000E+00 0.  1.
         21   -1    0    0  504  502 -0.00000000000E+00 -0.00000000000E+00 -0.90957577189E+03  0.90957577189E+03  0.00000000000E+00 0.  1.
         21    1    1    2  503  502 -0.32909408222E+02 -0.24490327875E+02 -0.50936060321E+03  0.51100981342E+03  0.00000000000E+00 0.  1.
         21    1    1    2  504  506  0.12977454735E+03  0.51197133036E+02 -0.18140116103E+02  0.14068277571E+03  0.00000000000E+00 0.  1.
         21    1    1    2  505  503 -0.35652302684E+02  0.35016245354E+02 -0.31438386525E+03  0.31833070674E+03  0.00000000000E+00 0.  1.
         21    1    1    2  506  501 -0.61212836442E+02 -0.61723050514E+02  0.51798898527E+03  0.52523264861E+03  0.00000000000E+00 0.  1.
<scales pt_clust_3="41.02201" pt_clust_4="14000.00000" pt_clust_5="63.66510" pt_clust_6="88.74316"></scales>
<clustering>
<clus scale="   41.022">  2  3  1 -1</clus>
<clus scale="   63.665">  2  5  1 -1</clus>
<clus scale="   88.743">  1  6  2 -1</clus>
<clus scale="   88.743">  1  3  2 -1</clus>
</clustering>
</event>
<event>
 6    0  0.8991567E+002  0.1174300E+03  0.7546771E-02  0.1247398E+00
         21   -1    0    0  503  501  0.00000000000E+00  0.00000000000E+00  0.52634956197E+03  0.52634956197E+03  0.00000000000E+00 0.  1.
         21   -1    0    0  506  502 -0.00000000000E+00 -0.00000000000E+00 -0.26804431540E+03  0.26804431540E+03  0.00000000000E+00 0. -1.
         21    1    1    2  503  505  0.16707889895E+03 -0.51425881403E+02  0.19005375675E+03  0.25822550263E+03  0.00000000000E+00 0. -1.
         21    1    1    2  504  501 -0.76237833453E+02 -0.19384700604E+02  0.27495042831E+03  0.28598201324E+03  0.00000000000E+00 0.  1.
         21    1    1    2  505  502 -0.29892567574E+02 -0.15758466508E+02 -0.65509165657E+02  0.73711231491E+02  0.00000000000E+00 0. -1.
         21    1    1    2  506  504 -0.60948497925E+02  0.86569048514E+02 -0.14118977283E+03  0.17647513001E+03  0.00000000000E+00 0. -1.
<scales pt_clust_3="117.43002" pt_clust_4="79.57721" pt_clust_5="33.79193" pt_clust_6="14000.00000"></scales>
<clustering>
<clus scale="   33.792">  2  5  1 -1</clus>
<clus scale="   79.577">  1  4  2 -1</clus>
<clus scale="  117.430">  1  3  2 -1</clus>
<clus scale="   79.577">  1  3  2 -1</clus>
</clustering>
</event>
<event>
 6    0  0.8991567E+002  0.1757550E+03  0.7546771E-02  0.1171976E+00
         21   -1    0    0  504  501  0.00000000000E+00  0.00000000000E+00  0.18534635160E+03  0.18534635160E+03  0.00000000000E+00 0.  1.
         21   -1    0    0  503  502 -0.00000000000E+00 -0.00000000000E+00 -0.91821506579E+03  0.91821506579E+03  0.00000000000E+00 0. -1.
         21    1    1    2  503  506 -0.94524127788E+02  0.65035045988E+01 -0.17238475005E+03  0.19670690979E+03  0.00000000000E+00 0. -1.
         21    1    1    2  504  505  0.11750300512E+03  0.11225372594E+03  0.53630274143E+02  0.17112586451E+03  0.00000000000E+00 0.  1.
         21    1    1    2  505  502 -0.54094645512E+02 -0.11907218189E+03 -0.66409625423E+03  0.67685171940E+03  0.00000000000E+00 0. -1.
         21    1    1    2  506  501  0.31115768179E+02  0.31495135422E+00  0.49982015963E+02  0.58876923693E+02  0.00000000000E+00 0.  1.
<scales pt_clust_3="91.86631" pt_clust_4="175.75503" pt_clust_5="14000.00000" pt_clust_6="31.11736"></scales>
<clustering>
<clus scale="   31.117">  1  6  2 -1</clus>
<clus scale="   91.866">  2  3  1 -1</clus>
<clus scale="  175.755">  1  4  2 -1</clus>
<clus scale="   31.117">  1  3  2 -1</clus>
</clustering>
</event>
<event>
 6    0  0.8991567E+002  0.1432062E+03  0.7546771E-02  0.1209079E+00
         21   -1    0    0  503  501  0.00000000000E+00  0.00000000000E+00  0.31067626207E+03  0.31067626207E+03  0.00000000000E+00 0. -1.
         21   -1    0    0  504  502 -0.00000000000E+00 -0.00000000000E+00 -0.27222211141E+03  0.27222211141E+03  0.00000000000E+00 0.  1.
         21    1    1    2  503  502 -0.56919095075E+02  0.13981337492E+03 -0.61972548363E+02  0.16318137131E+03  0.00000000000E+00 0.  1.
         21    1    1    2  504  505  0.40627387224E+02  0.15840849360E+02 -0.11787222926E+03  0.12567967032E+03  0.00000000000E+00 0.  1.
         21    1    1    2  505  506  0.77235318576E+01 -0.12570954566E+03  0.73285015412E+02  0.14571628701E+03  0.00000000000E+00 0. -1.
         21    1    1    2  506  501  0.85681759934E+01 -0.29944678619E+02  0.14501391287E+03  0.14832104484E+03  0.00000000000E+00 0. -1.
<scales pt_clust_3="14000.00000" pt_clust_4="43.54374" pt_clust_5="143.20616" pt_clust_6="31.14639"></scales>
<clustering>
<clus scale="   31.146">  1  6  2 -1</clus>
<clus scale="   43.544">  2  4  1 -1</clus>
<clus scale="  143.206">  1  5  2 -1</clus>
<clus scale="   31.146">  1  3  2 -1</clus>
</clustering>
</event>
<event>
 6    0  0.8991567E+002  0.1145073E+03  0.7546771E-02  0.1252444E+00
         21   -1    0    0  502  501  0.00000000000E+00  0.00000000000E+00  0.65727167121E+02  0.65727167121E+02  0.00000000000E+00 0. -1.
         21   -1    0    0  504  502 -0.00000000000E+00 -0.00000000000E+00 -0.96052009490E+03  0.96052009490E+03  0.00000000000E+00 0.  1.
         21    1    1    2  503  505 -0.12246370705E+03 -0.68329716965E+02 -0.46375653096E+03  0.48449605754E+03  0.00000000000E+00 0.  1.
         21    1    1    2  504  503  0.42689831699E+02 -0.23663856651E+01 -0.42825488548E+03  0.43038386174E+03  0.00000000000E+00 0.  1.
         21    1    1    2  505  506  0.44656116912E+02  0.33579712215E+02  0.13973498916E+02  0.57593615289E+02  0.00000000000E+00 0. -1.
         21    1    1    2  506  501  0.35117758436E+02  0.37116390415E+02 -0.16755010253E+02  0.53773727447E+02  0.00000000000E+00 0. -1.
<scales pt_clust_3="109.90347" pt_clust_4="42.75537" pt_clust_5="30.73803" pt_clust_6="30.73803"></scales>
<clustering>
<clus scale="   30.738">  5  6 -1 -1</clus>
<clus scale="   42.755">  2  4  1 -1</clus>
<clus scale="  109.903">  2  3  1 -1</clus>
<clus scale="  114.507">  1  3  2 -1</clus>
</clustering>
</event>
<event>
 6    0  0.8991567E+002  0.1200961E+03  0.7546771E-02  0.1242939E+00
         21   -1    0    0  506  501  0.00000000000E+00  0.00000000000E+00  0.19268674677E+03  0.19268674677E+03  0.00000000000E+00 0.  1.
         21   -1    0    0  504  502 -0.00000000000E+00 -0.00000000000E+00 -0.58417026474E+03  0.58417026474E+03  0.00000000000E+00 0.  1.
         21    1    1    2  503  502  0.31490064518E+02  0.42781582896E+02  0.97783564517E+02  0.11128123601E+03  0.00000000000E+00 0.  1.
         21    1    1    2  504  505 -0.10092426502E+03  0.15840185157E+01 -0.29768235457E+03  0.31432944597E+03  0.00000000000E+00 0.  1.
         21    1    1    2  505  501  0.56352094939E+02 -0.10650599803E+03 -0.24188501060E+03  0.27023590541E+03  0.00000000000E+00 0.  1.
         21    1    1    2  506  503  0.13082105567E+02  0.62140396617E+02  0.50300282681E+02  0.81010424117E+02  0.00000000000E+00 0.  1.
<scales pt_clust_3="41.43082" pt_clust_4="100.93669" pt_clust_5="111.22557" pt_clust_6="41.43082"></scales>
<clustering>
<clus scale="   41.431">  3  6 -1 -1</clus>
<clus scale="  100.937">  2  4  1 -1</clus>
<clus scale="  111.226">  2  5  1 -1</clus>
<clus scale="  120.096">  1  3  2 -1</clus>
</clustering>
</event>
<event>
 6    0  0.8991567E+002  0.6447094E+02  0.7546771E-02  0.1379973E+00
         21   -1    0    0  503  501  0.00000000000E+00  0.00000000000E+00  0.31394297471E+02  0.31394297471E+02  0.00000000000E+00 0.  1.
         21   -1    0    0  506  502 -0.00000000000E+00 -0.00000000000E+00 -0.11597847717E+04  0.11597847717E+04  0.00000000000E+00 0.  1.
         21    1    1    2  503  502 -0.62509357304E+02  0.87702401815E+01 -0.70068235153E+02  0.94307446370E+02  0.00000000000E+00 0.  1.
         21    1    1    2  504  501  0.65617266219E+02  0.23805224203E+02 -0.69188722516E+02  0.98282214305E+02  0.00000000000E+00 0.  1.
         21    1    1    2  505  504  0.57509634520E+02 -0.38200934132E+02 -0.36331149507E+03  0.36981334735E+03  0.00000000000E+00 0.  1.
         21    1    1    2  506  505 -0.60617543436E+02  0.56254697480E+01 -0.62582202146E+03  0.62877606111E+03  0.00000000000E+00 0.  1.
<scales pt_clust_3="64.47094" pt_clust_4="14000.00000" pt_clust_5="37.78180" pt_clust_6="60.87801"></scales>
<clustering>
<clus scale="   60.878">  2  6  1 -1</clus>
<clus scale="   37.782">  2  5  1 -1</clus>
<clus scale="   64.471">  1  3  2 -1</clus>
<clus scale="   64.471">  1  3  2 -1</clus>
</clustering>
</event>
<event>
 6    0  0.8991567E+002  0.2051349E+03  0.7546771E-02  0.1145478E+00
         21   -1    0    0  506  501  0.00000000000E+00  0.00000000000E+00  0.36722229218E+03  0.36722229218E+03  0.00000000000E+00 0.  1.
         21   -1    0    0  505  502 -0.00000000000E+00 -0.00000000000E+00 -0.29717496641E+04  0.29717496641E+04  0.00000000000E+00 0.  1.
         21    1    1    2  503  504 -0.14746792180E+03 -0.10929804298E+03 -0.47685984292E+02  0.18964915833E+03  0.00000000000E+00 0.  1.
         21    1    1    2  504  502 -0.20639539781E+02 -0.25125763941E+02 -0.12345838034E+04  0.12350119280E+04  0.00000000000E+00 0.  1.
         21    1    1    2  505  501 -0.41386497176E+02  0.81907928926E+02 -0.15773792040E+04  0.15800464879E+04  0.00000000000E+00 0.  1.
         21    1    1    2  506  503  0.20949395876E+03  0.52515877991E+02  0.25512161977E+03  0.33426438200E+03  0.00000000000E+00 0.  1.
<scales pt_clust_3="14000.00000" pt_clust_4="32.51607" pt_clust_5="84.30251" pt_clust_6="205.13491"></scales>
<clustering>
<clus scale="   32.516">  2  4  1 -1</clus>
<clus scale="   84.303">  2  5  1 -1</clus>
<clus scale="  205.135">  1  6  2 -1</clus>
<clus scale="  205.135">  1  3  2 -1</clus>
</clustering>
</event>
<event>
 6    0  0.8991567E+002  0.1466337E+03  0.7546771E-02  0.1204672E+00
         21   -1    0    0  505  501  0.00000000000E+00  0.00000000000E+00  0.16248955830E+04  0.16248955830E+04  0.00000000000E+00 0. -1.
         21   -1    0    0  503  502 -0.00000000000E+00 -0.00000000000E+00 -0.65745551376E+03  0.65745551376E+03  0.00000000000E+00 0.  1.
         21    1    1    2  503  501 -0.11904344540E+03  0.54742765417E+02 -0.26556703855E+03  0.29613166703E+03  0.00000000000E+00 0.  1.
         21    1    1    2  504  502  0.60710899594E+02 -0.36888654821E+02 -0.34676453446E+03  0.35396642291E+03  0.00000000000E+00 0.  1.
         21    1    1    2  505  506 -0.13592978841E+03  0.19564478965E+02  0.11611045771E+04  0.11691978084E+04  0.00000000000E+00 0. -1.
         21    1    1    2  506  504  0.19426233422E+03 -0.37418589560E+02  0.41866706520E+03  0.46305519847E+03  0.00000000000E+00 0. -1.
<scales pt_clust_3="66.90355" pt_clust_4="71.03933" pt_clust_5="146.63369" pt_clust_6="14000.00000"></scales>
<clustering>
<clus scale="   71.039">  2  4  1 -1</clus>
<clus scale="   66.904">  2  3  1 -1</clus>
<clus scale="  146.634">  1  5  2 -1</clus>
<clus scale="  146.634">  1  3  2 -1</clus>
</clustering>
</event>
<event>
 6    0  0.8991567E+002  0.6814000E+02  0.7546771E-02  0.1366535E+00
         21   -1    0    0  506  501  0.00000000000E+00  0.00000000000E+00  0.49602581149E+03  0.49602581149E+03  0.00000000000E+00 0.  1.
         21   -1    0    0  504  502 -0.00000000000E+00 -0.00000000000E+00 -0.81005211772E+03  0.81005211772E+03  0.00000000000E+00 0. -1.
         21    1    1    2  503  501 -0.47647468397E+02 -0.36760271479E+02  0.46976848586E+03  0.47360746310E+03  0.00000000000E+00 0.  1.
         21    1    1    2  504  505 -0.40435288069E+02  0.28634179816E+02 -0.51974682129E+03  0.52210313830E+03  0.00000000000E+00 0. -1.
         21    1    1    2  505  503  0.54575658311E+02 -0.56508448108E+02 -0.78548507936E+02  0.11109264281E+03  0.00000000000E+00 0.  1.
         21    1    1    2  506  502  0.33507098155E+02  0.64634539772E+02 -0.18549946286E+03  0.19927468499E+03  0.00000000000E+00 0.  1.
<scales pt_clust_3="60.27696" pt_clust_4="49.54724" pt_clust_5="68.14000" pt_clust_6="14000.00000"></scales>
<clustering>
<clus scale="   49.547">  2  4  1 -1</clus>
<clus scale="   60.277">  1  3  2 -1</clus>
<clus scale="   68.140">  1  5  2 -1</clus>
<clus scale="   60.277">  1  3  2 -1</clus>
</clustering>
</event>
<event>
 6    0  0.8991567E+002  0.1107166E+03  0.7546771E-02  0.1259249E+00
         21   -1    0    0  506  501  0.00000000000E+00  0.00000000000E+00  0.26692510998E+03  0.26692510998E+03  0.00000000000E+00 0.  1.
         21   -1    0    0  504  502 -0.00000000000E+00 -0.00000000000E+00 -0.28478003171E+03  0.28478003171E+03  0.00000000000E+00 0.  1.
         21    1    1    2  503  502  0.33398292378E+02  0.37908532910E+02 -0.11422275838E+03  0.12489732317E+03  0.00000000000E+00 0.  1.
         21    1    1    2  504  505 -0.93602895303E+02  0.11401406731E+02 -0.56644806124E+02  0.11000058248E+03  0.00000000000E+00 0. -1.
         21    1    1    2  505  501  0.48563957732E+02 -0.96726108674E+02  0.21332415491E+03  0.23921035336E+03  0.00000000000E+00 0.  1.
         21    1    1    2  506  503  0.11640645192E+02  0.47416169033E+02 -0.60311512127E+02  0.77596882678E+02  0.00000000000E+00 0. -1.
<scales pt_clust_3="34.51727" pt_clust_4="94.29472" pt_clust_5="105.00139" pt_clust_6="34.51727"></scales>
<clustering>
<clus scale="   34.517">  3  6 -1 -1</clus>
<clus scale="   94.295">  2  4  1 -1</clus>
<clus scale="  105.001">  1  5  2 -1</clus>
<clus scale="  105.001">  1  3  2 -1</clus>
</clustering>
</event>
<event>
 6    0  0.8991567E+002  0.1018804E+03  0.7546771E-02  0.1276391E+00
         21   -1    0    0  506  501  0.00000000000E+00  0.00000000000E+00  0.67408135999E+03  0.67408135999E+03  0.00000000000E+00 0. -1.
         21   -1    0    0  503  502 -0.00000000000E+00 -0.00000000000E+00 -0.23741271726E+03  0.23741271726E+03  0.00000000000E+00 0.  1.
         21    1    1    2  503  501 -0.55353052862E+02 -0.79974533845E+01 -0.21672800331E+02  0.59980246715E+02  0.00000000000E+00 0. -1.
         21    1    1    2  504  502 -0.59641328306E+00 -0.33896602761E+02 -0.17611043153E+03  0.17934385822E+03  0.00000000000E+00 0.  1.
         21    1    1    2  505  504 -0.57359755518E+02  0.69071659118E+02  0.15850765888E+03  0.18216946388E+03  0.00000000000E+00 0. -1.
         21    1    1    2  506  505  0.11330922166E+03 -0.27177602973E+02  0.47594421570E+03  0.49000050845E+03  0.00000000000E+00 0. -1.
<scales pt_clust_3="63.88826" pt_clust_4="33.90185" pt_clust_5="101.88036" pt_clust_6="14000.00000"></scales>
<clustering>
<clus scale="   33.902">  2  4  1 -1</clus>
<clus scale="   63.888">  2  3  1 -1</clus>
<clus scale="  101.880">  2  5  1 -1</clus>
<clus scale="  101.880">  1  3  2 -1</clus>
</clustering>
</event>
<event>
 6    0  0.8991567E+002  0.1625989E+03  0.7546771E-02  0.1185794E+00
         21   -1    0    0  503  501  0.00000000000E+00  0.00000000000E+00  0.14737786326E+04  0.14737786326E+04  0.00000000000E+00 0. -1.
         21   -1    0    0  504  502 -0.00000000000E+00 -0.00000000000E+00 -0.25506461760E+02  0.25506461760E+02  0.00000000000E+00 0.  1.
         21    1    1    2  503  502  0.14845493694E+03  0.54621270298E+02  0.56855486027E+03  0.59014996450E+03  0.00000000000E+00 0.  1.
         21    1    1    2  504  506  0.30803891328E+01 -0.37919229721E+02  0.44855268773E+02  0.58816255546E+02  0.00000000000E+00 0.  1.
         21    1    1    2  505  501 -0.62059671765E+02 -0.12799493653E+02  0.48732351671E+03  0.49142592507E+03  0.00000000000E+00 0. -1.
         21    1    1    2  506  505 -0.89475654311E+02 -0.39025469241E+01  0.34753852505E+03  0.35889294919E+03  0.00000000000E+00 0. -1.
<scales pt_clust_3="153.72945" pt_clust_4="38.04414" pt_clust_5="44.70186" pt_clust_6="44.70186"></scales>
<clustering>
<clus scale="   38.044">  2  4  1 -1</clus>
<clus scale="   44.702">  5  6 -1 -1</clus>
<clus scale="  153.729">  2  3  1 -1</clus>
<clus scale="  162.599">  1  3  2 -1</clus>
</clustering>
</event>
<event>
 6    0  0.8991567E+002  0.1016727E+03  0.7546771E-02  0.1276817E+00
         21   -1    0    0  505  501  0.00000000000E+00  0.00000000000E+00  0.45844875831E+03  0.45844875831E+03  0.00000000000E+00 0.  1.
         21   -1    0    0  506  502 -0.00000000000E+00 -0.00000000000E+00 -0.94960931784E+02  0.94960931784E+02  0.00000000000E+00 0. -1.
         21    1    1    2  503  504  0.43877580411E+02 -0.61229276421E+02  0.86514884189E+02  0.11471308356E+03  0.00000000000E+00 0.  1.
         21    1    1    2  504  502  0.42753919454E+02  0.72558346922E+01 -0.10095434688E+02  0.44524853366E+02  0.00000000000E+00 0.  1.
         21    1    1    2  505  503  0.65105767514E+02  0.26032157114E+02  0.21061484765E+03  0.22197983741E+03  0.00000000000E+00 0.  1.
         21    1    1    2  506  501 -0.15173726738E+03  0.27941284615E+02  0.76453529376E+02  0.17219191576E+03  0.00000000000E+00 0. -1.
<scales pt_clust_3="101.67269" pt_clust_4="43.36525" pt_clust_5="73.68211" pt_clust_6="14000.00000"></scales>
<clustering>
<clus scale="   43.365">  2  4  1 -1</clus>
<clus scale="   73.682">  1  5  2 -1</clus>
<clus scale="  101.673">  1  3  2 -1</clus>
<clus scale="   73.682">  1  3  2 -1</clus>
</clustering>
</event>
<event>
 6    0  0.8991567E+002  0.1696518E+03  0.7546771E-02  0.1178211E+00
         21   -1    0    0  502  501  0.00000000000E+00  0.00000000000E+00  0.29728791428E+03  0.29728791428E+03  0.00000000000E+00 0.  1.
         21   -1    0    0  504  502 -0.00000000000E+00 -0.00000000000E+00 -0.44894982998E+03  0.44894982998E+03  0.00000000000E+00 0.  1.
         21    1    1    2  503  505  0.43755573927E+02  0.51434175379E+02  0.11936432006E+03  0.13714177172E+03  0.00000000000E+00 0.  1.
         21    1    1    2  504  506 -0.15648508555E+03 -0.51235728650E+02 -0.38641650463E+03  0.42003618527E+03  0.00000000000E+00 0.  1.
         21    1    1    2  505  501  0.76857724334E+02 -0.44823728980E+02  0.89574874232E+02  0.12625345367E+03  0.00000000000E+00 0.  1.
         21    1    1    2  506  503  0.35871787292E+02  0.44625282250E+02  0.25815394631E+02  0.62806333593E+02  0.00000000000E+00 0.  1.
<scales pt_clust_3="53.16922" pt_clust_4="159.52301" pt_clust_5="88.97346" pt_clust_6="53.16922"></scales>
<clustering>
<clus scale="   53.169">  3  6 -1 -1</clus>
<clus scale="   88.973">  1  5  2 -1</clus>
<clus scale="  159.523">  2  4  1 -1</clus>
<clus scale="   88.973">  1  3  2 -1</clus>
</clustering>
</event>
<event>
 6    0  0.8991567E+002  0.1280184E+03  0.7546771E-02  0.1230426E+00
         21   -1    0    0  506  501  0.00000000000E+00  0.00000000000E+00  0.20673981311E+04  0.20673981311E+04  0.00000000000E+00 0.  1.
         21   -1    0    0  505  502 -0.00000000000E+00 -0.00000000000E+00 -0.53767357230E+02  0.53767357230E+02  0.00000000000E+00 0.  1.
         21    1    1    2  503  501 -0.90519968392E+01  0.35217003646E+02  0.13317159137E+03  0.13804654556E+03  0.00000000000E+00 0.  1.
         21    1    1    2  504  502 -0.14998781883E+03 -0.83216749624E+02  0.23210789347E+03  0.28860950682E+03  0.00000000000E+00 0.  1.
         21    1    1    2  505  503  0.85262449904E+02  0.64529134578E+02  0.10688112576E+03  0.15118620842E+03  0.00000000000E+00 0.  1.
         21    1    1    2  506  504  0.73777365768E+02 -0.16529388601E+02  0.15414701632E+04  0.15433232275E+04  0.00000000000E+00 0.  1.
<scales pt_clust_3="36.36174" pt_clust_4="14000.00000" pt_clust_5="128.01840" pt_clust_6="67.55149"></scales>
<clustering>
<clus scale="   36.362">  1  3  2 -1</clus>
<clus scale="   67.551">  1  6  2 -1</clus>
<clus scale="  128.018">  2  5  1 -1</clus>
<clus scale="   36.362">  1  3  2 -1</clus>
</clustering>
</event>
<event>
 6    0  0.8991567E+002  0.9855721E+02  0.7546771E-02  0.1283360E+00
         21   -1    0    0  506  501  0.00000000000E+00  0.00000000000E+00  0.41462159864E+03  0.41462159864E+03  0.00000000000E+00 0. -1.
         21   -1    0    0  504  502 -0.00000000000E+00 -0.00000000000E+00 -0.12188998675E+03  0.12188998675E+03  0.00000000000E+00 0. -1.
         21    1    1    2  503  505 -0.16954336398E+02  0.54492120718E+02  0.16143116148E+02  0.59308017519E+02  0.00000000000E+00 0. -1.
         21    1    1    2  504  501 -0.54343225136E+02  0.15812900513E+02 -0.61630635611E+02  0.83675379812E+02  0.00000000000E+00 0. -1.
         21    1    1    2  505  502 -0.22699598919E+02 -0.28211603650E+02 -0.37337538344E+01  0.36402023148E+02  0.00000000000E+00 0.  1.
         21    1    1    2  506  503  0.93997160453E+02 -0.42093417582E+02  0.34195288519E+03  0.35712616491E+03  0.00000000000E+00 0. -1.
<scales pt_clust_3="53.17138" pt_clust_4="98.55721" pt_clust_5="36.21003" pt_clust_6="14000.00000"></scales>
<clustering>
<clus scale="   36.210">  2  5  1 -1</clus>
<clus scale="   53.171">  2  3  1 -1</clus>
<clus scale="   98.557">  2  4  1 -1</clus>
<clus scale="   98.557">  1  3  2 -1</clus>
</clustering>
</event>
<event>
 6    0  0.8991567E+002  0.1073372E+03  0.7546771E-02  0.1265582E+00
         21   -1    0    0  504  501  0.00000000000E+00  0.00000000000E+00  0.27646926420E+03  0.27646926420E+03  0.00000000000E+00 0. -1.
         21   -1    0    0  503  502 -0.00000000000E+00 -0.00000000000E+00 -0.75260682492E+03  0.75260682492E+03  0.00000000000E+00 0.  1.
         21    1    1    2  503  506  0.65361865670E+02  0.10798303725E+03 -0.38282537851E+03  0.40309773040E+03  0.00000000000E+00 0.  1.
         21    1    1    2  504  505 -0.11488351023E+02 -0.54969148839E+02  0.14670235254E+03  0.15708332112E+03  0.00000000000E+00 0. -1.
         21    1    1    2  505  502  0.14683020980E+02 -0.31953720568E+02 -0.34222834870E+03  0.34403033880E+03  0.00000000000E+00 0.  1.
         21    1    1    2  506  501 -0.68556535627E+02 -0.21060167846E+02  0.10221381394E+03  0.12486469880E+03  0.00000000000E+00 0. -1.
<scales pt_clust_3="107.33719" pt_clust_4="56.51585" pt_clust_5="35.16577" pt_clust_6="14000.00000"></scales>
<clustering>
<clus scale="   35.166">  2  5  1 -1</clus>
<clus scale="   56.516">  1  4  2 -1</clus>
<clus scale="  107.337">  2  3  1 -1</clus>
<clus scale="   56.516">  1  3  2 -1</clus>
</clustering>
</event>
<event>
 6    0  0.8991567E+002  0.1315666E+03  0.7546771E-02  0.1225150E+00
         21   -1    0    0  504  501  0.00000000000E+00  0.00000000000E+00  0.10022917935E+04  0.10022917935E+04  0.00000000000E+00 0.  1.
         21   -1    0    0  506  502 -0.00000000000E+00 -0.00000000000E+00 -0.14886409611E+03  0.14886409611E+03  0.00000000000E+00 0.  1.
         21    1    1    2  503  505  0.44653005708E+02 -0.81516697996E+02  0.45295549666E+03  0.46239327950E+03  0.00000000000E+00 0.  1.
         21    1    1    2  504  503  0.38287659499E+02 -0.25803155580E+00  0.39862725051E+03  0.40046185373E+03  0.00000000000E+00 0.  1.
         21    1    1    2  505  502  0.36015907269E+02  0.14645105375E+03 -0.16281168453E+02  0.15169091327E+03  0.00000000000E+00 0.  1.
         21    1    1    2  506  501 -0.11895657248E+03 -0.64676324202E+02  0.18126118643E+02  0.13660984307E+03  0.00000000000E+00 0.  1.
<scales pt_clust_3="110.05627" pt_clust_4="38.28853" pt_clust_5="14000.00000" pt_clust_6="131.56662"></scales>
<clustering>
<clus scale="   38.289">  1  4  2 -1</clus>
<clus scale="  110.056">  1  3  2 -1</clus>
<clus scale="  131.567">  1  6  2 -1</clus>
<clus scale="   38.289">  1  3  2 -1</clus>
</clustering>
</event>
<event>
 6    0  0.8991567E+002  0.1915159E+03  0.7546771E-02  0.1157101E+00
         21   -1    0    0  503  501  0.00000000000E+00  0.00000000000E+00  0.16570614306E+04  0.16570614306E+04  0.00000000000E+00 0. -1.
         21   -1    0    0  505  502 -0.00000000000E+00 -0.00000000000E+00 -0.38454543980E+02  0.38454543980E+02  0.00000000000E+00 0. -1.
         21    1    1    2  503  502  0.71009463592E+02 -0.18868421036E+03  0.43682722460E+03  0.48110508136E+03  0.00000000000E+00 0. -1.
         21    1    1    2  504  506 -0.32925596900E-01  0.32636331277E+02  0.76150141849E+02  0.82849111685E+02  0.00000000000E+00 0.  1.
         21    1    1    2  505  504 -0.82207646552E+02  0.12800972447E+02  0.23818807283E+03  0.25230045598E+03  0.00000000000E+00 0. -1.
         21    1    1    2  506  501  0.11231108558E+02  0.14324690664E+03  0.86744144738E+03  0.87926132560E+03  0.00000000000E+00 0. -1.
<scales pt_clust_3="180.13124" pt_clust_4="31.00053" pt_clust_5="83.19833" pt_clust_6="31.00053"></scales>
<clustering>
<clus scale="   31.001">  4  6 -1 -1</clus>
<clus scale="   83.198">  2  5  1 -1</clus>
<clus scale="  180.131">  2  3  1 -1</clus>
<clus scale="  191.516">  1  3  2 -1</clus>
</clustering>
</event>
<event>
 6    0  0.8991567E+002  0.1728095E+03  0.7546771E-02  0.1174949E+00
         21   -1    0    0  506  501  0.00000000000E+00  0.00000000000E+00  0.11790532192E+04  0.11790532192E+04  0.00000000000E+00 0. -1.
         21   -1    0    0  503  502 -0.00000000000E+00 -0.00000000000E+00 -0.31382827477E+03  0.31382827477E+03  0.00000000000E+00 0. -1.
         21    1    1    2  503  501  0.18401560705E+02  0.16175021996E+03  0.11292803473E+04  0.11409539227E+04  0.00000000000E+00 0. -1.
         21    1    1    2  504  505  0.32801666918E+02 -0.47931119538E+02 -0.43048777620E+02  0.72294804982E+02  0.00000000000E+00 0. -1.
         21    1    1    2  505  502 -0.25551729382E+02 -0.43299163166E+02 -0.19315411661E+03  0.19959013294E+03  0.00000000000E+00 0. -1.
         21    1    1    2  506  504 -0.25651498241E+02 -0.70519937257E+02 -0.27852508600E+02  0.80042633316E+02  0.00000000000E+00 0. -1.
<scales pt_clust_3="160.51540" pt_clust_4="54.95318" pt_clust_5="50.27632" pt_clust_6="54.95318"></scales>
<clustering>
<clus scale="   50.276">  2  5  1 -1</clus>
<clus scale="   54.953">  4  6 -1 -1</clus>
<clus scale="  160.515">  1  3  2 -1</clus>
<clus scale="  160.515">  1  3  2 -1</clus>
</clustering>
</event>
<event>
 6    0  0.8991567E+002  0.7337066E+02  0.7546771E-02  0.1348992E+00
         21   -1    0    0  504  501  0.00000000000E+00  0.00000000000E+00  0.13309546223E+03  0.13309546223E+03  0.00000000000E+00 0.  1.
         21   -1    0    0  503  502 -0.00000000000E+00 -0.00000000000E+00 -0.13280295777E+03  0.13280295777E+03  0.00000000000E+00 0.  1.
         21    1    1    2  503  505 -0.70734376641E+01 -0.58407862078E+02 -0.22156214018E+02  0.62868193011E+02  0.00000000000E+00 0.  1.
         21    1    1    2  504  502  0.92962082455E+02  0.28984405732E+02  0.41575565320E+01  0.97464505470E+02  0.00000000000E+00 0.  1.
         21    1    1    2  505  506 -0.57186198237E+02  0.38911182886E+02 -0.19305750058E+01  0.69195870847E+02  0.00000000000E+00 0.  1.
         21    1    1    2  506  501 -0.28702446554E+02 -0.94877265402E+01  0.20221736946E+02  0.36369850676E+02  0.00000000000E+00 0.  1.
<scales pt_clust_3="61.56408" pt_clust_4="14000.00000" pt_clust_5="73.37066" pt_clust_6="30.22991"></scales>
<clustering>
<clus scale="   30.230">  1  6  2 -1</clus>
<clus scale="   61.564">  2  3  1 -1</clus>
<clus scale="   73.371">  2  5  1 -1</clus>
<clus scale="   30.230">  1  3  2 -1</clus>
</clustering>
</event>
<event>
 6    0  0.8991567E+002  0.9370902E+02  0.7546771E-02  0.1294110E+00
         21   -1    0    0  504  501  0.00000000000E+00  0.00000000000E+00  0.60747625774E+02  0.60747625774E+02  0.00000000000E+00 0.  1.
         21   -1    0    0  503  502 -0.00000000000E+00 -0.00000000000E+00 -0.14947483817E+04  0.14947483817E+04  0.00000000000E+00 0. -1.
         21    1    1    2  503  506 -0.50125391127E+02 -0.79768636158E+02 -0.14302374102E+03  0.17126406700E+03  0.00000000000E+00 0.  1.
         21    1    1    2  504  505  0.38894214515E+02  0.76164580835E+02 -0.25937361575E+03  0.27310890840E+03  0.00000000000E+00 0. -1.
         21    1    1    2  505  502  0.45531728898E+02  0.34176403048E+01 -0.10633830720E+04  0.10643628969E+04  0.00000000000E+00 0. -1.
         21    1    1    2  506  501 -0.34300552286E+02  0.18641501763E+00  0.31779672800E+02  0.46760135168E+02  0.00000000000E+00 0.  1.
<scales pt_clust_3="14000.00000" pt_clust_4="93.70902" pt_clust_5="44.87997" pt_clust_6="34.30106"></scales>
<clustering>
<clus scale="   34.301">  1  6  2 -1</clus>
<clus scale="   44.880">  2  5  1 -1</clus>
<clus scale="   93.709">  2  4  1 -1</clus>
<clus scale="   34.301">  1  3  2 -1</clus>
</clustering>
</event>
<event>
 6    0  0.8991567E+002  0.1009717E+03  0.7546771E-02  0.1278266E+00
         21   -1    0    0  506  501  0.00000000000E+00  0.00000000000E+00  0.87731613444E+03  0.87731613444E+03  0.00000000000E+00 0. -1.
         21   -1    0    0  504  502 -0.00000000000E+00 -0.00000000000E+00 -0.10576008134E+03  0.10576008134E+03  0.00000000000E+00 0. -1.
         21    1    1    2  503  502 -0.30809014169E+02 -0.30614896867E+02  0.34268644882E+02  0.55324563137E+02  0.00000000000E+00 0. -1.
         21    1    1    2  504  505  0.81722250032E+02  0.11661832545E+03 -0.31663435650E+02  0.14587985858E+03  0.00000000000E+00 0. -1.
         21    1    1    2  505  501 -0.63135923744E+02 -0.57445581539E+02  0.71113307655E+03  0.71623766466E+03  0.00000000000E+00 0. -1.
         21    1    1    2  506  503  0.12222687881E+02 -0.28557847045E+02  0.57817767310E+02  0.65634129411E+02  0.00000000000E+00 0.  1.
<scales pt_clust_3="44.09143" pt_clust_4="100.97173" pt_clust_5="14000.00000" pt_clust_6="31.06356"></scales>
<clustering>
<clus scale="   31.064">  1  6  2 -1</clus>
<clus scale="   44.091">  2  3  1 -1</clus>
<clus scale="  100.972">  2  4  1 -1</clus>
<clus scale="   31.064">  1  3  2 -1</clus>
</clustering>
</event>
<event>
 6    0  0.8991567E+002  0.3607748E+03  0.7546771E-02  0.1058277E+00
         21   -1    0    0  505  501  0.00000000000E+00  0.00000000000E+00  0.41858615803E+03  0.41858615803E+03  0.00000000000E+00 0. -1.
         21   -1    0    0  504  502 -0.00000000000E+00 -0.00000000000E+00 -0.44149963533E+03  0.44149963533E+03  0.00000000000E+00 0. -1.
         21    1    1    2  503  506  0.32925052091E+03 -0.11597986176E+03 -0.40085058469E+02  0.35137450928E+03  0.00000000000E+00 0. -1.
         21    1    1    2  504  501 -0.36420814379E+03  0.78212466567E+02  0.98419262357E+01  0.37264141670E+03  0.00000000000E+00 0. -1.
         21    1    1    2  505  503 -0.51874565240E+01  0.32367278093E+02  0.60749328779E+02  0.69029206453E+02  0.00000000000E+00 0. -1.
         21    1    1    2  506  502  0.40145079395E+02  0.54001170993E+01 -0.53419673849E+02  0.67040660934E+02  0.00000000000E+00 0. -1.
<scales pt_clust_3="360.77481" pt_clust_4="14000.00000" pt_clust_5="32.78034" pt_clust_6="40.49566"></scales>
<clustering>
<clus scale="   32.780">  1  5  2 -1</clus>
<clus scale="   40.496">  2  6  1 -1</clus>
<clus scale="  360.775">  2  3  1 -1</clus>
<clus scale="   32.780">  1  3  2 -1</clus>
</clustering>
</event>
<event>
 6    0  0.8991567E+002  0.1112632E+03  0.7546771E-02  0.1258248E+00
         21   -1    0    0  503  501  0.00000000000E+00  0.00000000000E+00  0.27722794869E+03  0.27722794869E+03  0.00000000000E+00 0.  1.
         21   -1    0    0  505  502 -0.00000000000E+00 -0.00000000000E+00 -0.29270824963E+03  0.29270824963E+03  0.00000000000E+00 0.  1.
         21    1    1    2  503  506  0.11711671834E+02 -0.12088529690E+03  0.21334993332E+03  0.24549666456E+03  0.00000000000E+00 0.  1.
         21    1    1    2  504  501  0.97762661278E+01  0.80439855366E+02 -0.17469389742E+02  0.82893457454E+02  0.00000000000E+00 0.  1.
         21    1    1    2  505  504  0.24459957493E+02 -0.26272627940E+02 -0.62961159356E+02  0.72475154963E+02  0.00000000000E+00 0.  1.
         21    1    1    2  506  502 -0.45947895454E+02  0.66718069479E+02 -0.14839968515E+03  0.16907092134E+03  0.00000000000E+00 0.  1.
<scales pt_clust_3="111.26321" pt_clust_4="14000.00000" pt_clust_5="35.89625" pt_clust_6="56.07752"></scales>
<clustering>
<clus scale="   35.896">  2  5  1 -1</clus>
<clus scale="   56.078">  2  6  1 -1</clus>
<clus scale="  111.263">  1  3  2 -1</clus>
<clus scale="  111.263">  1  3  2 -1</clus>
</clustering>
</event>
<event>
 6    0  0.8991567E+002  0.6488888E+02  0.7546771E-02  0.1378390E+00
         21   -1    0    0  506  501  0.00000000000E+00  0.00000000000E+00  0.21254149240E+03  0.21254149240E+03  0.00000000000E+00 0. -1.
         21   -1    0    0  503  502 -0.00000000000E+00 -0.00000000000E+00 -0.17100590022E+03  0.17100590022E+03  0.00000000000E+00 0. -1.
         21    1    1    2  503  505  0.47898683510E+02 -0.15651179722E+02 -0.20283186059E+02  0.54319894564E+02  0.00000000000E+00 0. -1.
         21    1    1    2  504  502 -0.38492691550E+02 -0.44812247353E+02 -0.89107872259E+02  0.10691135447E+03  0.00000000000E+00 0. -1.
         21    1    1    2  505  501 -0.40349715780E+02  0.91797666424E+02  0.49678974820E+02  0.11190581604E+03  0.00000000000E+00 0. -1.
         21    1    1    2  506  504  0.30943723820E+02 -0.31334239349E+02  0.10124767568E+03  0.11041032755E+03  0.00000000000E+00 0. -1.
<scales pt_clust_3="56.72510" pt_clust_4="14000.00000" pt_clust_5="64.88888" pt_clust_6="44.03804"></scales>
<clustering>
<clus scale="   44.038">  1  6  2 -1</clus>
<clus scale="   56.725">  2  3  1 -1</clus>
<clus scale="   64.889">  1  5  2 -1</clus>
<clus scale="   44.038">  1  3  2 -1</clus>
</clustering>
</event>
<event>
 6    0  0.8991567E+002  0.9762175E+02  0.7546771E-02  0.1285378E+00
         21   -1    0    0  506  501  0.00000000000E+00  0.00000000000E+00  0.66327058623E+02  0.66327058623E+02  0.00000000000E+00 0.  1.
         21   -1    0    0  504  502 -0.00000000000E+00 -0.00000000000E+00 -0.76465490742E+03  0.76465490742E+03  0.00000000000E+00 0.  1.
         21    1    1    2  503  501 -0.17038505936E+02 -0.38037159159E+02 -0.11443732883E+02  0.43221466700E+02  0.00000000000E+00 0.  1.
         21    1    1    2  504  503 -0.62829738968E+02  0.11048151953E+03 -0.42287704744E+03  0.44156396989E+03  0.00000000000E+00 0.  1.
         21    1    1    2  505  502 -0.12182664654E+01 -0.38546916468E+02 -0.25494323908E+03  0.25784375908E+03  0.00000000000E+00 0.  1.
         21    1    1    2  506  505  0.81086511370E+02 -0.33897443903E+02 -0.90638293938E+01  0.88352770373E+02  0.00000000000E+00 0.  1.
<scales pt_clust_3="43.60466" pt_clust_4="14000.00000" pt_clust_5="38.56616" pt_clust_6="97.62175"></scales>
<clustering>
<clus scale="   38.566">  2  5  1 -1</clus>
<clus scale="   43.605">  1  3  2 -1</clus>
<clus scale="   97.622">  1  6  2 -1</clus>
<clus scale="   43.605">  1  3  2 -1</clus>
</clustering>
</event>
<event>
 6    0  0.8991567E+002  0.3232808E+03  0.7546771E-02  0.1074149E+00
         21   -1    0    0  502  501  0.00000000000E+00  0.00000000000E+00  0.44106318737E+03  0.44106318737E+03  0.00000000000E+00 0.  1.
         21   -1    0    0  504  502 -0.00000000000E+00 -0.00000000000E+00 -0.25724926287E+03  0.25724926287E+03  0.00000000000E+00 0.  1.
         21    1    1    2  503  501 -0.30235258179E+02  0.22179337032E+02  0.16731173692E+02  0.41061246954E+02  0.00000000000E+00 0.  1.
         21    1    1    2  504  505  0.19661952863E+02  0.29608697888E+03  0.44896624351E+02  0.30011630800E+03  0.00000000000E+00 0.  1.
         21    1    1    2  505  506  0.14348757351E+02 -0.26747288545E+03  0.56049840168E+02  0.27365894079E+03  0.00000000000E+00 0.  1.
         21    1    1    2  506  503 -0.37754520352E+01 -0.50793430458E+02  0.66136286284E+02  0.83475954498E+02  0.00000000000E+00 0.  1.
<scales pt_clust_3="37.49792" pt_clust_4="305.45021" pt_clust_5="45.46146" pt_clust_6="45.46146"></scales>
<clustering>
<clus scale="   37.498">  1  3  2 -1</clus>
<clus scale="   45.461">  5  6 -1 -1</clus>
<clus scale="  305.450">  2  4  1 -1</clus>
<clus scale="   37.498">  1  3  2 -1</clus>
</clustering>
</event>
<event>
 6    0  0.8991567E+002  0.1047254E+03  0.7546771E-02  0.1270662E+00
         21   -1    0    0  505  501  0.00000000000E+00  0.00000000000E+00  0.41292510687E+03  0.41292510687E+03  0.00000000000E+00 0.  1.
         21   -1    0    0  503  502 -0.00000000000E+00 -0.00000000000E+00 -0.56907390727E+03  0.56907390727E+03  0.00000000000E+00 0.  1.
         21    1    1    2  503  506 -0.68151042499E+02  0.33868980098E+02 -0.49790739352E+03  0.50368983008E+03  0.00000000000E+00 0.  1.
         21    1    1    2  504  501 -0.76859336102E+02 -0.30509037927E+02  0.18572591776E+03  0.20330340743E+03  0.00000000000E+00 0.  1.
         21    1    1    2  505  502 -0.30109325315E+02 -0.53234949791E+01 -0.11480041256E+02  0.32660410545E+02  0.00000000000E+00 0. -1.
         21    1    1    2  506  504  0.17511970392E+03  0.19635528082E+01  0.16751271660E+03  0.24234536609E+03  0.00000000000E+00 0.  1.
<scales pt_clust_3="104.72538" pt_clust_4="83.17442" pt_clust_5="30.57632" pt_clust_6="14000.00000"></scales>
<clustering>
<clus scale="   30.576">  2  5  1 -1</clus>
<clus scale="   83.174">  1  4  2 -1</clus>
<clus scale="  104.725">  2  3  1 -1</clus>
<clus scale="   83.174">  1  3  2 -1</clus>
</clustering>
</event>
<event>
 6    0  0.8991567E+002  0.1510185E+03  0.7546771E-02  0.1199227E+00
         21   -1    0    0  506  501  0.00000000000E+00  0.00000000000E+00  0.80940920999E+03  0.80940920999E+03  0.00000000000E+00 0.  1.
         21   -1    0    0  505  502 -0.00000000000E+00 -0.00000000000E+00 -0.34347933307E+03  0.34347933307E+03  0.00000000000E+00 0. -1.
         21    1    1    2  503  501 -0.25811731940E+02  0.47680298254E+02  0.58816468779E+03  0.59065840916E+03  0.00000000000E+00 0.  1.
         21    1    1    2  504  502  0.16383973274E+02 -0.30971330155E+02 -0.22174136647E+03  0.22449251987E+03  0.00000000000E+00 0. -1.
         21    1    1    2  505  503  0.14700496209E+03 -0.46315740127E+01 -0.28060104491E+02  0.14973069097E+03  0.00000000000E+00 0. -1.
         21    1    1    2  506  504 -0.13757720342E+03 -0.12077394087E+02  0.12756666010E+03  0.18800692306E+03  0.00000000000E+00 0.  1.
<scales pt_clust_3="53.85565" pt_clust_4="35.03795" pt_clust_5="151.01854" pt_clust_6="14000.00000"></scales>
<clustering>
<clus scale="   35.038">  2  4  1 -1</clus>
<clus scale="   53.856">  1  3  2 -1</clus>
<clus scale="  151.019">  2  5  1 -1</clus>
<clus scale="   53.856">  1  3  2 -1</clus>
</clustering>
</event>
<event>
 6    0  0.8991567E+002  0.9495330E+02  0.7546771E-02  0.1291281E+00
         21   -1    0    0  503  501  0.00000000000E+00  0.00000000000E+00  0.29217216584E+03  0.29217216584E+03  0.00000000000E+00 0. -1.
         21   -1    0    0  506  502 -0.00000000000E+00 -0.00000000000E+00 -0.24603748082E+03  0.24603748082E+03  0.00000000000E+00 0. -1.
         21    1    1    2  503  504 -0.12801622491E+03  0.27395442167E+02  0.71018738486E+02  0.14893732006E+03  0.00000000000E+00 0. -1.
         21    1    1    2  504  502 -0.55382249525E+02  0.54836766796E+02 -0.50854208176E+02  0.93061350970E+02  0.00000000000E+00 0.  1.
         21    1    1    2  505  501  0.62837836847E+02 -0.63273597330E+02  0.11472609142E+03  0.14530732229E+03  0.00000000000E+00 0. -1.
         21    1    1    2  506  505  0.12056063759E+03 -0.18958611633E+02 -0.88755936702E+02  0.15090365334E+03  0.00000000000E+00 0. -1.
<scales pt_clust_3="94.95330" pt_clust_4="77.93757" pt_clust_5="82.32925" pt_clust_6="14000.00000"></scales>
<clustering>
<clus scale="   77.938">  2  4  1 -1</clus>
<clus scale="   82.329">  1  5  2 -1</clus>
<clus scale="   94.953">  1  3  2 -1</clus>
<clus scale="   82.329">  1  3  2 -1</clus>
</clustering>
</event>
<event>
 6    0  0.8991567E+002  0.3086281E+03  0.7546771E-02  0.1081005E+00
         21   -1    0    0  504  501  0.00000000000E+00  0.00000000000E+00  0.10259928870E+04  0.10259928870E+04  0.00000000000E+00 0. -1.
         21   -1    0    0  503  502 -0.00000000000E+00 -0.00000000000E+00 -0.38113718129E+03  0.38113718129E+03  0.00000000000E+00 0. -1.
         21    1    1    2  503  505 -0.58034503635E+02 -0.59036697794E+02 -0.22553162710E+03  0.24024539563E+03  0.00000000000E+00 0. -1.
         21    1    1    2  504  502  0.29133337860E+03  0.16224532195E+03  0.39763994450E+03  0.51895684545E+03  0.00000000000E+00 0. -1.
         21    1    1    2  505  506 -0.47745330614E+02  0.13033224193E+03  0.10288540492E+03  0.17277591391E+03  0.00000000000E+00 0. -1.
         21    1    1    2  506  501 -0.18555354435E+03 -0.23354086609E+03  0.36986198341E+03  0.47515191332E+03  0.00000000000E+00 0. -1.
<scales pt_clust_3="82.78487" pt_clust_4="308.62808" pt_clust_5="131.62737" pt_clust_6="14000.00000"></scales>
<clustering>
<clus scale="   82.785">  2  3  1 -1</clus>
<clus scale="  131.627">  2  5  1 -1</clus>
<clus scale="  308.628">  2  4  1 -1</clus>
<clus scale="  308.628">  1  3  2 -1</clus>
</clustering>
</event>
<event>
 6    0  0.8991567E+002  0.1034335E+03  0.7546771E-02  0.1273237E+00
         21   -1    0    0  505  501  0.00000000000E+00  0.00000000000E+00  0.60475017481E+03  0.60475017481E+03  0.00000000000E+00 0. -1.
         21   -1    0    0  506  502 -0.00000000000E+00 -0.00000000000E+00 -0.11305652704E+03  0.11305652704E+03  0.00000000000E+00 0. -1.
         21    1    1    2  503  502  0.57851121945E+02  0.43877004777E+02  0.62768121435E+02  0.95978023145E+02  0.00000000000E+00 0. -1.
         21    1    1    2  504  501 -0.11090674104E+03 -0.10669969015E+03  0.12150708982E+03  0.19608442560E+03  0.00000000000E+00 0. -1.
         21    1    1    2  505  503  0.74213549100E+02  0.19228917275E+02  0.35178660039E+03  0.36004335064E+03  0.00000000000E+00 0. -1.
         21    1    1    2  506  504 -0.21157930008E+02  0.43593768099E+02 -0.44368163873E+02  0.65700902465E+02  0.00000000000E+00 0. -1.
<scales pt_clust_3="14000.00000" pt_clust_4="103.43351" pt_clust_5="76.06005" pt_clust_6="48.45694"></scales>
<clustering>
<clus scale="   48.457">  2  6  1 -1</clus>
<clus scale="   76.060">  1  5  2 -1</clus>
<clus scale="  103.434">  1  4  2 -1</clus>
<clus scale="   76.060">  1  3  2 -1</clus>
</clustering>
</event>
<event>
 6    0  0.8991567E+002  0.8712807E+02  0.7546771E-02  0.1309959E+00
         21   -1    0    0  504  501  0.00000000000E+00  0.00000000000E+00  0.37450899387E+03  0.37450899387E+03  0.00000000000E+00 0.  1.
         21   -1    0    0  505  502 -0.00000000000E+00 -0.00000000000E+00 -0.69129162039E+03  0.69129162039E+03  0.00000000000E+00 0.  1.
         21    1    1    2  503  506 -0.86033997646E+02 -0.48734361804E+02 -0.11365314079E+02  0.99529177308E+02  0.00000000000E+00 0.  1.
         21    1    1    2  504  502 -0.11141393542E+02  0.57008743219E+02  0.14732396484E+03  0.15836185800E+03  0.00000000000E+00 0.  1.
         21    1    1    2  505  503  0.28234120290E+02 -0.24374157118E+02 -0.62268916037E+03  0.62380530258E+03  0.00000000000E+00 0.  1.
         21    1    1    2  506  501  0.68941270899E+02  0.16099775703E+02  0.16994788309E+03  0.18410427637E+03  0.00000000000E+00 0.  1.
<scales pt_clust_3="87.12807" pt_clust_4="55.73909" pt_clust_5="37.29967" pt_clust_6="14000.00000"></scales>
<clustering>
<clus scale="   37.300">  2  5  1 -1</clus>
<clus scale="   55.739">  1  4  2 -1</clus>
<clus scale="   87.128">  2  3  1 -1</clus>
<clus scale="   55.739">  1  3  2 -1</clus>
</clustering>
</event>
<event>
 6    0  0.8991567E+002  0.1815926E+03  0.7546771E-02  0.1166271E+00
         21   -1    0    0  506  501  0.00000000000E+00  0.00000000000E+00  0.73349050401E+03  0.73349050401E+03  0.00000000000E+00 0.  1.
         21   -1    0    0  504  502 -0.00000000000E+00 -0.00000000000E+00 -0.74750972107E+02  0.74750972107E+02  0.00000000000E+00 0.  1.
         21    1    1    2  503  501 -0.29548225644E+02  0.76363037411E+02  0.13231599144E+03  0.15560184032E+03  0.00000000000E+00 0.  1.
         21    1    1    2  504  505  0.69338731323E+02 -0.98299120121E+01  0.83736352815E+02  0.10916163985E+03  0.00000000000E+00 0.  1.
         21    1    1    2  505  503  0.99421105076E+02  0.47071459527E+02  0.71807394804E+02  0.13136430408E+03  0.00000000000E+00 0.  1.
         21    1    1    2  506  502 -0.13921161076E+03 -0.11360458493E+03  0.37087979284E+03  0.41211369187E+03  0.00000000000E+00 0.  1.
<scales pt_clust_3="81.88047" pt_clust_4="49.13455" pt_clust_5="49.13455" pt_clust_6="170.83273"></scales>
<clustering>
<clus scale="   49.135">  4  5 -1 -1</clus>
<clus scale="   81.880">  1  3  2 -1</clus>
<clus scale="  170.833">  1  6  2 -1</clus>
<clus scale="   81.880">  1  3  2 -1</clus>
</clustering>
</event>
<event>
 6    0  0.8991567E+002  0.1903133E+03  0.7546771E-02  0.1158179E+00
         21   -1    0    0  503  501  0.00000000000E+00  0.00000000000E+00  0.10411904118E+04  0.10411904118E+04  0.00000000000E+00 0.  1.
         21   -1    0    0  506  502 -0.00000000000E+00 -0.00000000000E+00 -0.11240564290E+03  0.11240564290E+03  0.00000000000E+00 0.  1.
         21    1    1    2  503  504 -0.73306177122E+02  0.11283506853E+02  0.46052065461E+03  0.46645512801E+03  0.00000000000E+00 0.  1.
         21    1    1    2  504  505  0.20577241327E+03  0.53461176068E+02  0.24014218133E+03  0.32073143074E+03  0.00000000000E+00 0.  1.
         21    1    1    2  505  502  0.33843455353E+02 -0.29595471236E+02 -0.32343857198E+02  0.55384081525E+02  0.00000000000E+00 0.  1.
         21    1    1    2  506  501 -0.16630969151E+03 -0.35149211686E+02  0.26046579014E+03  0.31102541440E+03  0.00000000000E+00 0.  1.
<scales pt_clust_3="72.53402" pt_clust_4="14000.00000" pt_clust_5="44.95855" pt_clust_6="190.31334"></scales>
<clustering>
<clus scale="   44.959">  2  5  1 -1</clus>
<clus scale="   72.534">  1  3  2 -1</clus>
<clus scale="  190.313">  2  6  1 -1</clus>
<clus scale="   72.534">  1  3  2 -1</clus>
</clustering>
</event>
<event>
 6    0  0.8991567E+002  0.8158735E+02  0.7546771E-02  0.1324606E+00
         21   -1    0    0  504  501  0.00000000000E+00  0.00000000000E+00  0.89899294583E+02  0.89899294583E+02  0.00000000000E+00 0. -1.
         21   -1    0    0  503  502 -0.00000000000E+00 -0.00000000000E+00 -0.20474140450E+04  0.20474140450E+04  0.00000000000E+00 0. -1.
         21    1    1    2  503  501 -0.12449110654E+02  0.10941800099E+03 -0.17080188588E+02  0.11144062158E+03  0.00000000000E+00 0. -1.
         21    1    1    2  504  506  0.63540055592E+02 -0.43605359731E+02  0.23717397211E+01  0.77099878153E+02  0.00000000000E+00 0. -1.
         21    1    1    2  505  502 -0.34489836990E+02  0.95844824383E+01 -0.14047476708E+04  0.14052036969E+04  0.00000000000E+00 0. -1.
         21    1    1    2  506  505 -0.16601107948E+02 -0.75397123693E+02 -0.53805863075E+03  0.54356914295E+03  0.00000000000E+00 0. -1.
<scales pt_clust_3="81.58735" pt_clust_4="75.09710" pt_clust_5="35.79680" pt_clust_6="14000.00000"></scales>
<clustering>
<clus scale="   35.797">  2  5  1 -1</clus>
<clus scale="   75.097">  1  4  2 -1</clus>
<clus scale="   81.587">  1  3  2 -1</clus>
<clus scale="   75.097">  1  3  2 -1</clus>
</clustering>
</event>
<event>
 6    0  0.8991567E+002  0.1344381E+03  0.7546771E-02  0.1221015E+00
         21   -1    0    0  505  501  0.00000000000E+00  0.00000000000E+00  0.10089359253E+03  0.10089359253E+03  0.00000000000E+00 0. -1.
         21   -1    0    0  503  502 -0.00000000000E+00 -0.00000000000E+00 -0.67499531681E+03  0.67499531681E+03  0.00000000000E+00 0. -1.
         21    1    1    2  503  506  0.19086296930E+02 -0.27468428575E+02 -0.22670307650E+03  0.22915733938E+03  0.00000000000E+00 0. -1.
         21    1    1    2  504  502 -0.67449082396E+00  0.49794588814E+02 -0.24148484942E+03  0.24656619499E+03  0.00000000000E+00 0. -1.
         21    1    1    2  505  504 -0.20993034288E+02  0.12554375513E+03 -0.19202150745E+02  0.12872709324E+03  0.00000000000E+00 0. -1.
         21    1    1    2  506  501  0.25812281822E+01 -0.14786991537E+03 -0.86711647618E+02  0.17143828173E+03  0.00000000000E+00 0. -1.
<scales pt_clust_3="33.44849" pt_clust_4="36.13951" pt_clust_5="14000.00000" pt_clust_6="134.43807"></scales>
<clustering>
<clus scale="   33.448">  2  3  1 -1</clus>
<clus scale="   36.140">  2  4  1 -1</clus>
<clus scale="  134.438">  2  6  1 -1</clus>
<clus scale="  134.438">  1  3  2 -1</clus>
</clustering>
</event>
<event>
 6    0  0.8991567E+002  0.1693595E+03  0.7546771E-02  0.1178517E+00
         21   -1    0    0  503  501  0.00000000000E+00  0.00000000000E+00  0.77477522116E+03  0.77477522116E+03  0.00000000000E+00 0. -1.
         21   -1    0    0  506  502 -0.00000000000E+00 -0.00000000000E+00 -0.23327827911E+03  0.23327827911E+03  0.00000000000E+00 0.  1.
         21    1    1    2  503  504  0.71916220887E+02 -0.38348796868E+02  0.39391170491E+03  0.40225489967E+03  0.00000000000E+00 0. -1.
         21    1    1    2  504  505 -0.30153267157E+02  0.15639531462E+03 -0.12022583716E+03  0.19955692390E+03  0.00000000000E+00 0.  1.
         21    1    1    2  505  502 -0.53928674374E+02  0.59418047599E+01 -0.44390262799E+02  0.70100659019E+02  0.00000000000E+00 0. -1.
         21    1    1    2  506  501  0.12165720644E+02 -0.12398832251E+03  0.31220133711E+03  0.33614101768E+03  0.00000000000E+00 0. -1.
<scales pt_clust_3="80.30946" pt_clust_4="14000.00000" pt_clust_5="54.25502" pt_clust_6="169.35947"></scales>
<clustering>
<clus scale="   54.255">  2  5  1 -1</clus>
<clus scale="   80.309">  1  3  2 -1</clus>
<clus scale="  169.359">  1  6  2 -1</clus>
<clus scale="   80.309">  1  3  2 -1</clus>
</clustering>
</event>
<event>
 6    0  0.8991567E+002  0.1015579E+03  0.7546771E-02  0.1277054E+00
         21   -1    0    0  504  501  0.00000000000E+00  0.00000000000E+00  0.98776931135E+03  0.98776931135E+03  0.00000000000E+00 0. -1.
         21   -1    0    0  506  502 -0.00000000000E+00 -0.00000000000E+00 -0.14473817379E+03  0.14473817379E+03  0.00000000000E+00 0. -1.
         21    1    1    2  503  502 -0.64247890634E+02 -0.49798441425E+02  0.20363256709E+02  0.83799394050E+02  0.00000000000E+00 0. -1.
         21    1    1    2  504  503  0.10345119336E+03 -0.40970571450E+01  0.74153821008E+03  0.74873082766E+03  0.00000000000E+00 0. -1.
         21    1    1    2  505  501 -0.91804696938E+02  0.35949373838E+02  0.16920408084E+03  0.19583278794E+03  0.00000000000E+00 0. -1.
         21    1    1    2  506  505  0.52601394214E+02  0.17946124732E+02 -0.88074410064E+02  0.10414447549E+03  0.00000000000E+00 0. -1.
<scales pt_clust_3="48.45004" pt_clust_4="101.55789" pt_clust_5="14000.00000" pt_clust_6="55.57850"></scales>
<clustering>
<clus scale="   55.579">  2  6  1 -1</clus>
<clus scale="   48.450">  2  3  1 -1</clus>
<clus scale="  101.558">  1  4  2 -1</clus>
<clus scale="  101.558">  1  3  2 -1</clus>
</clustering>
</event>
<event>
 6    0  0.8991567E+002  0.1021305E+03  0.7546771E-02  0.1275878E+00
         21   -1    0    0  505  501  0.00000000000E+00  0.00000000000E+00  0.12073120761E+04  0.12073120761E+04  0.00000000000E+00 0.  1.
         21   -1    0    0  504  502 -0.00000000000E+00 -0.00000000000E+00 -0.31533785087E+03  0.31533785087E+03  0.00000000000E+00 0. -1.
         21    1    1    2  503  501  0.64684894260E+02  0.18796608609E+01 -0.32106557698E+02  0.72239184088E+02  0.00000000000E+00 0. -1.
         21    1    1    2  504  503 -0.29479119566E+02 -0.14491924885E+02 -0.16740472931E+03  0.17059712123E+03  0.00000000000E+00 0. -1.
         21    1    1    2  505  506 -0.49433808786E+02  0.90134781938E+02  0.11664904000E+04  0.11710114575E+04  0.00000000000E+00 0.  1.
         21    1    1    2  506  502  0.14228034092E+02 -0.77522517914E+02 -0.75004887738E+02  0.10880216414E+03  0.00000000000E+00 0. -1.
<scales pt_clust_3="54.27446" pt_clust_4="32.84866" pt_clust_5="14000.00000" pt_clust_6="102.13054"></scales>
<clustering>
<clus scale="   32.849">  2  4  1 -1</clus>
<clus scale="   54.274">  2  3  1 -1</clus>
<clus scale="  102.131">  2  6  1 -1</clus>
<clus scale="  102.131">  1  3  2 -1</clus>
</clustering>
</event>
<event>
 6    0  0.8991567E+002  0.1050185E+03  0.7546771E-02  0.1270083E+00
         21   -1    0    0  503  501  0.00000000000E+00  0.00000000000E+00  0.18183584249E+04  0.18183584249E+04  0.00000000000E+00 0.  1.
         21   -1    0    0  506  502 -0.00000000000E+00 -0.00000000000E+00 -0.15770888045E+03  0.15770888045E+03  0.00000000000E+00 0.  1.
         21    1    1    2  503  502  0.13415080765E+03  0.67751844727E+01 -0.92425445602E+02  0.16304847534E+03  0.00000000000E+00 0.  1.
         21    1    1    2  504  505 -0.89962043760E+02 -0.39295619106E+02  0.22220206621E+03  0.24292194883E+03  0.00000000000E+00 0. -1.
         21    1    1    2  505  501 -0.14623578615E+02  0.43855915573E+02  0.15371264685E+04  0.15378215015E+04  0.00000000000E+00 0.  1.
         21    1    1    2  506  504 -0.29565185273E+02 -0.11335480939E+02 -0.62535446855E+01  0.32275379618E+02  0.00000000000E+00 0. -1.
<scales pt_clust_3="14000.00000" pt_clust_4="105.01850" pt_clust_5="46.22631" pt_clust_6="31.66375"></scales>
<clustering>
<clus scale="   31.664">  2  6  1 -1</clus>
<clus scale="   46.226">  1  5  2 -1</clus>
<clus scale="  105.018">  1  4  2 -1</clus>
<clus scale="   46.226">  1  3  2 -1</clus>
</clustering>
</event>
<event>
 6    0  0.8991567E+002  0.2046717E+03  0.7546771E-02  0.1145856E+00
         21   -1    0    0  503  501  0.00000000000E+00  0.00000000000E+00  0.25959008337E+03  0.25959008337E+03  0.00000000000E+00 0.  1.
         21   -1    0    0  505  502 -0.00000000000E+00 -0.00000000000E+00 -0.11448943186E+04  0.11448943186E+04  0.00000000000E+00 0. -1.
         21    1    1    2  503  504  0.60299084535E+02  0.22923548533E+02  0.80579752478E+02  0.10322095321E+03  0.00000000000E+00 0.  1.
         21    1    1    2  504  506  0.44863411803E+02  0.12895389747E+03  0.11731916377E+03  0.18001560926E+03  0.00000000000E+00 0.  1.
         21    1    1    2  505  501  0.37518965580E+02  0.36427437668E+02 -0.16197392615E+03  0.17020629761E+03  0.00000000000E+00 0. -1.
         21    1    1    2  506  502 -0.14268146192E+03 -0.18830488367E+03 -0.92122922533E+03  0.95104154188E+03  0.00000000000E+00 0. -1.
<scales pt_clust_3="57.16683" pt_clust_4="57.16683" pt_clust_5="52.29370" pt_clust_6="186.96914"></scales>
<clustering>
<clus scale="   52.294">  2  5  1 -1</clus>
<clus scale="   57.167">  3  4 -1 -1</clus>
<clus scale="  186.969">  2  6  1 -1</clus>
<clus scale="  204.672">  1  3  2 -1</clus>
</clustering>
</event>
<event>
 6    0  0.8991567E+002  0.1194576E+03  0.7546771E-02  0.1243994E+00
         21   -1    0    0  504  501  0.00000000000E+00  0.00000000000E+00  0.13885703594E+02  0.13885703594E+02  0.00000000000E+00 0.  1.
         21   -1    0    0  505  502 -0.00000000000E+00 -0.00000000000E+00 -0.16957509887E+04  0.16957509887E+04  0.00000000000E+00 0.  1.
         21    1    1    2  503  502  0.77342271806E+01  0.41425882212E+02 -0.60382642346E+03  0.60529519382E+03  0.00000000000E+00 0.  1.
         21    1    1    2  504  506  0.29990583328E+02  0.32736110639E+02 -0.15754816557E+03  0.16368418526E+03  0.00000000000E+00 0.  1.
         21    1    1    2  505  501 -0.10487659543E+03 -0.55144250216E+02 -0.67990740385E+03  0.69015510316E+03  0.00000000000E+00 0.  1.
         21    1    1    2  506  503  0.67151784917E+02 -0.19017742634E+02 -0.24058329226E+03  0.25050221011E+03  0.00000000000E+00 0.  1.
<scales pt_clust_3="42.14169" pt_clust_4="49.44075" pt_clust_5="104.17891" pt_clust_6="49.44075"></scales>
<clustering>
<clus scale="   42.142">  2  3  1 -1</clus>
<clus scale="   49.441">  4  6 -1 -1</clus>
<clus scale="  104.179">  2  5  1 -1</clus>
<clus scale="  119.458">  1  3  2 -1</clus>
</clustering>
</event>
<event>
 6    0  0.8991567E+002  0.8645482E+02  0.7546771E-02  0.1311671E+00
         21   -1    0    0  504  501  0.00000000000E+00  0.00000000000E+00  0.83261737443E+02  0.83261737443E+02  0.00000000000E+00 0.  1.
         21   -1    0    0  505  502 -0.00000000000E+00 -0.00000000000E+00 -0.89267139483E+03  0.89267139483E+03  0.00000000000E+00 0.  1.
         21    1    1    2  503  502  0.56360000452E+02 -0.50051197779E+02 -0.19845260369E+03  0.21228520429E+03  0.00000000000E+00 0.  1.
         21    1    1    2  504  503 -0.22591341624E+02 -0.58004827278E+02  0.54689135673E+02  0.82860305723E+02  0.00000000000E+00 0.  1.
         21    1    1    2  505  506  0.26071255777E+02  0.32302388743E+02 -0.28902798819E+03  0.29199372023E+03  0.00000000000E+00 0.  1.
         21    1    1    2  506  501 -0.59839914604E+02  0.75753636313E+02 -0.37661820119E+03  0.38879390204E+03  0.00000000000E+00 0.  1.
<scales pt_clust_3="86.45482" pt_clust_4="61.32421" pt_clust_5="41.51090" pt_clust_6="14000.00000"></scales>
<clustering>
<clus scale="   41.511">  2  5  1 -1</clus>
<clus scale="   61.324">  1  4  2 -1</clus>
<clus scale="   86.455">  1  3  2 -1</clus>
<clus scale="   61.324">  1  3  2 -1</clus>
</clustering>
</event>
<event>
 6    0  0.8991567E+002  0.8893559E+02  0.7546771E-02  0.1305450E+00
         21   -1    0    0  506  501  0.00000000000E+00  0.00000000000E+00  0.84851431778E+03  0.84851431778E+03  0.00000000000E+00 0.  1.
         21   -1    0    0  503  502 -0.00000000000E+00 -0.00000000000E+00 -0.24732835992E+03  0.24732835992E+03  0.00000000000E+00 0.  1.
         21    1    1    2  503  505  0.39637198038E+02 -0.31879682981E+02 -0.80512233547E+02  0.95234664938E+02  0.00000000000E+00 0.  1.
         21    1    1    2  504  502 -0.11760650941E+03 -0.10343417228E+02 -0.12462058297E+03  0.17166411109E+03  0.00000000000E+00 0.  1.
         21    1    1    2  505  501  0.50118153434E+02  0.12045902693E+02  0.77646454898E+03  0.77817358533E+03  0.00000000000E+00 0.  1.
         21    1    1    2  506  504  0.27851157937E+02  0.30177197516E+02  0.29854225397E+02  0.50770316351E+02  0.00000000000E+00 0.  1.
<scales pt_clust_3="50.89348" pt_clust_4="88.93559" pt_clust_5="14000.00000" pt_clust_6="41.06520"></scales>
<clustering>
<clus scale="   41.065">  1  6  2 -1</clus>
<clus scale="   50.893">  2  3  1 -1</clus>
<clus scale="   88.936">  2  4  1 -1</clus>
<clus scale="   41.065">  1  3  2 -1</clus>
</clustering>
</event>
<event>
 6    0  0.8991567E+002  0.1172940E+03  0.7546771E-02  0.1247629E+00
         21   -1    0    0  506  501  0.00000000000E+00  0.00000000000E+00  0.29084191132E+03  0.29084191132E+03  0.00000000000E+00 0.  1.
         21   -1    0    0  504  502 -0.00000000000E+00 -0.00000000000E+00 -0.90093968503E+03  0.90093968503E+03  0.00000000000E+00 0. -1.
         21    1    1    2  503  502 -0.28913787745E+02 -0.33384357044E+02 -0.31003126740E+03  0.31316115529E+03  0.00000000000E+00 0. -1.
         21    1    1    2  504  501 -0.36118255551E+02 -0.20772759613E+01 -0.31566010347E+02  0.48013086432E+02  0.00000000000E+00 0.  1.
         21    1    1    2  505  503 -0.43642114633E+02  0.82297153911E+02 -0.53287543901E+03  0.54095627292E+03  0.00000000000E+00 0. -1.
         21    1    1    2  506  505  0.10867415793E+03 -0.46835520905E+02  0.26437494305E+03  0.28965108171E+03  0.00000000000E+00 0.  1.
<scales pt_clust_3="54.10928" pt_clust_4="36.17794" pt_clust_5="117.29398" pt_clust_6="14000.00000"></scales>
<clustering>
<clus scale="   36.178">  2  4  1 -1</clus>
<clus scale="   54.109">  2  3  1 -1</clus>
<clus scale="  117.294">  2  5  1 -1</clus>
<clus scale="  117.294">  1  3  2 -1</clus>
</clustering>
</event>
<event>
 6    0  0.8991567E+002  0.7525269E+02  0.7546771E-02  0.1343090E+00
         21   -1    0    0  505  501  0.00000000000E+00  0.00000000000E+00  0.26994764192E+03  0.26994764192E+03  0.00000000000E+00 0.  1.
         21   -1    0    0  506  502 -0.00000000000E+00 -0.00000000000E+00 -0.12715890985E+04  0.12715890985E+04  0.00000000000E+00 0.  1.
         21    1    1    2  503  502 -0.31843425260E+02  0.16345422216E+02 -0.14615602919E+03  0.15047511897E+03  0.00000000000E+00 0.  1.
         21    1    1    2  504  501 -0.45422649678E+02  0.50291527612E+02  0.22686467686E+03  0.23677000752E+03  0.00000000000E+00 0.  1.
         21    1    1    2  505  503  0.10551225575E+03 -0.41495484377E+01 -0.45173951864E+02  0.11485095033E+03  0.00000000000E+00 0.  1.
         21    1    1    2  506  504 -0.28246180809E+02 -0.62487401390E+02 -0.10371761523E+04  0.10394406636E+04  0.00000000000E+00 0.  1.
<scales pt_clust_3="35.79353" pt_clust_4="67.91527" pt_clust_5="75.25269" pt_clust_6="14000.00000"></scales>
<clustering>
<clus scale="   35.794">  2  3  1 -1</clus>
<clus scale="   67.915">  1  4  2 -1</clus>
<clus scale="   75.253">  1  5  2 -1</clus>
<clus scale="   67.915">  1  3  2 -1</clus>
</clustering>
</event>
<event>
 6    0  0.8991567E+002  0.1389709E+03  0.7546771E-02  0.1214720E+00
         21   -1    0    0  505  501  0.00000000000E+00  0.00000000000E+00  0.10000708123E+03  0.10000708123E+03  0.00000000000E+00 0.  1.
         21   -1    0    0  504  502 -0.00000000000E+00 -0.00000000000E+00 -0.86336154462E+03  0.86336154462E+03  0.00000000000E+00 0. -1.
         21    1    1    2  503  506  0.16368988906E+03  0.84358038154E+02 -0.22194648366E+03  0.28839365456E+03  0.00000000000E+00 0. -1.
         21    1    1    2  504  501 -0.40373148645E+02 -0.28709471327E+02 -0.90583964552E+02  0.10324572393E+03  0.00000000000E+00 0.  1.
         21    1    1    2  505  503 -0.16250214290E+02 -0.85023632371E+02  0.19287859435E+02  0.88685450034E+02  0.00000000000E+00 0.  1.
         21    1    1    2  506  502 -0.10706652612E+03  0.29375065544E+02 -0.47011187460E+03  0.48304379733E+03  0.00000000000E+00 0. -1.
<scales pt_clust_3="138.97093" pt_clust_4="49.54013" pt_clust_5="88.19603" pt_clust_6="14000.00000"></scales>
<clustering>
<clus scale="   49.540">  2  4  1 -1</clus>
<clus scale="   88.196">  1  5  2 -1</clus>
<clus scale="  138.971">  1  3  2 -1</clus>
<clus scale="   88.196">  1  3  2 -1</clus>
</clustering>
</event>
<event>
 6    0  0.8991567E+002  0.8866499E+02  0.7546771E-02  0.1306117E+00
         21   -1    0    0  506  501  0.00000000000E+00  0.00000000000E+00  0.13210627036E+03  0.13210627036E+03  0.00000000000E+00 0. -1.
         21   -1    0    0  504  502 -0.00000000000E+00 -0.00000000000E+00 -0.38520601348E+03  0.38520601348E+03  0.00000000000E+00 0.  1.
         21    1    1    2  503  501  0.21731728920E+02  0.35253099061E+02  0.34855250820E+02  0.54128897504E+02  0.00000000000E+00 0. -1.
         21    1    1    2  504  503  0.18020775805E+02 -0.12053126266E+03 -0.30074457965E+03  0.32449936183E+03  0.00000000000E+00 0.  1.
         21    1    1    2  505  502 -0.19126961570E+02  0.50222920307E+02 -0.43567330880E+02  0.69183052138E+02  0.00000000000E+00 0. -1.
         21    1    1    2  506  505 -0.20625543156E+02  0.35055243287E+02  0.56356916596E+02  0.69500972372E+02  0.00000000000E+00 0. -1.
<scales pt_clust_3="58.41598" pt_clust_4="14000.00000" pt_clust_5="88.66499" pt_clust_6="40.67288"></scales>
<clustering>
<clus scale="   40.673">  1  6  2 -1</clus>
<clus scale="   58.416">  1  3  2 -1</clus>
<clus scale="   88.665">  1  5  2 -1</clus>
<clus scale="   40.673">  1  3  2 -1</clus>
</clustering>
</event>
<event>
 6    0  0.8991567E+002  0.2115379E+03  0.7546771E-02  0.1140354E+00
         21   -1    0    0  503  501  0.00000000000E+00  0.00000000000E+00  0.11837553502E+04  0.11837553502E+04  0.00000000000E+00 0. -1.
         21   -1    0    0  505  502 -0.00000000000E+00 -0.00000000000E+00 -0.12620073452E+03  0.12620073452E+03  0.00000000000E+00 0. -1.
         21    1    1    2  503  504  0.75105484321E+02 -0.16752083305E+02  0.29903242536E+03  0.30877476822E+03  0.00000000000E+00 0. -1.
         21    1    1    2  504  506  0.67821502305E+02 -0.18397564585E+03  0.69090797376E+03  0.71819260832E+03  0.00000000000E+00 0. -1.
         21    1    1    2  505  501 -0.10991756076E+02  0.30632783419E+02  0.59203369861E+02  0.67559049168E+02  0.00000000000E+00 0.  1.
         21    1    1    2  506  502 -0.13193523055E+03  0.17009494573E+03  0.84108466591E+01  0.21542965897E+03  0.00000000000E+00 0. -1.
<scales pt_clust_3="72.61643" pt_clust_4="211.53794" pt_clust_5="32.54514" pt_clust_6="14000.00000"></scales>
<clustering>
<clus scale="   32.545">  1  5  2 -1</clus>
<clus scale="   72.616">  1  3  2 -1</clus>
<clus scale="  211.538">  1  4  2 -1</clus>
<clus scale="   32.545">  1  3  2 -1</clus>
</clustering>
</event>
<event>
 6    0  0.8991567E+002  0.9959288E+02  0.7546771E-02  0.1281154E+00
         21   -1    0    0  506  501  0.00000000000E+00  0.00000000000E+00  0.20723894034E+03  0.20723894034E+03  0.00000000000E+00 0. -1.
         21   -1    0    0  503  502 -0.00000000000E+00 -0.00000000000E+00 -0.26314565500E+03  0.26314565500E+03  0.00000000000E+00 0.  1.
         21    1    1    2  503  504 -0.38751377197E+02  0.35342732016E+02 -0.11561224040E+03  0.12695262136E+03  0.00000000000E+00 0.  1.
         21    1    1    2  504  501 -0.63796826261E+02 -0.71800814995E+02  0.12863123827E+03  0.16053469262E+03  0.00000000000E+00 0. -1.
         21    1    1    2  505  502 -0.29880252795E+02 -0.28663653638E+01 -0.21171015023E+02  0.36732239717E+02  0.00000000000E+00 0.  1.
         21    1    1    2  506  505  0.13242845625E+03  0.39324448344E+02 -0.47754697508E+02  0.14616504164E+03  0.00000000000E+00 0.  1.
<scales pt_clust_3="63.92802" pt_clust_4="99.59288" pt_clust_5="30.01742" pt_clust_6="14000.00000"></scales>
<clustering>
<clus scale="   30.017">  2  5  1 -1</clus>
<clus scale="   63.928">  2  3  1 -1</clus>
<clus scale="   99.593">  1  4  2 -1</clus>
<clus scale="   99.593">  1  3  2 -1</clus>
</clustering>
</event>
<event>
 6    0  0.8991567E+002  0.1686273E+03  0.7546771E-02  0.1179287E+00
         21   -1    0    0  504  501  0.00000000000E+00  0.00000000000E+00  0.37324515283E+02  0.37324515283E+02  0.00000000000E+00 0.  1.
         21   -1    0    0  503  502 -0.00000000000E+00 -0.00000000000E+00 -0.14461302334E+04  0.14461302334E+04  0.00000000000E+00 0.  1.
         21    1    1    2  503  506 -0.29594291023E+02 -0.45586336371E+02 -0.41378218157E+03  0.41733635105E+03  0.00000000000E+00 0.  1.
         21    1    1    2  504  502 -0.71796815308E+01  0.56415671767E+02 -0.12821689503E+03  0.14026349496E+03  0.00000000000E+00 0.  1.
         21    1    1    2  505  501  0.13973960875E+03  0.47959399825E+02 -0.20034400093E+03  0.24892766217E+03  0.00000000000E+00 0.  1.
         21    1    1    2  506  505 -0.10296563620E+03 -0.58788735220E+02 -0.66646264056E+03  0.67692724047E+03  0.00000000000E+00 0.  1.
<scales pt_clust_3="30.41173" pt_clust_4="56.87069" pt_clust_5="162.53466" pt_clust_6="30.41173"></scales>
<clustering>
<clus scale="   30.412">  3  6 -1 -1</clus>
<clus scale="   56.871">  1  4  2 -1</clus>
<clus scale="  162.535">  1  5  2 -1</clus>
<clus scale="   56.871">  1  3  2 -1</clus>
</clustering>
</event>
<event>
 6    0  0.8991567E+002  0.9279307E+02  0.7546771E-02  0.1296225E+00
         21   -1    0    0  503  501  0.00000000000E+00  0.00000000000E+00  0.37387831874E+02  0.37387831874E+02  0.00000000000E+00 0.  1.
         21   -1    0    0  506  502 -0.00000000000E+00 -0.00000000000E+00 -0.10437298677E+04  0.10437298677E+04  0.00000000000E+00 0. -1.
         21    1    1    2  503  505  0.30396918954E+02 -0.20161892148E+02 -0.62825766445E+01  0.37012772744E+02  0.00000000000E+00 0.  1.
         21    1    1    2  504  502  0.70144448935E+01  0.97069639933E+02 -0.77557531509E+03  0.78165771717E+03  0.00000000000E+00 0. -1.
         21    1    1    2  505  504  0.10781206245E+02 -0.70761851749E+02 -0.68507591761E+02  0.99079585183E+02  0.00000000000E+00 0.  1.
         21    1    1    2  506  501 -0.48192570093E+02 -0.61458960356E+01 -0.15597655230E+03  0.16336762445E+03  0.00000000000E+00 0. -1.
<scales pt_clust_3="36.47567" pt_clust_4="92.79307" pt_clust_5="14000.00000" pt_clust_6="44.13285"></scales>
<clustering>
<clus scale="   36.476">  1  3  2 -1</clus>
<clus scale="   44.133">  1  6  2 -1</clus>
<clus scale="   92.793">  2  4  1 -1</clus>
<clus scale="   36.476">  1  3  2 -1</clus>
</clustering>
</event>
<event>
 6    0  0.8991567E+002  0.1163085E+03  0.7546771E-02  0.1249314E+00
         21   -1    0    0  503  501  0.00000000000E+00  0.00000000000E+00  0.12239281929E+02  0.12239281929E+02  0.00000000000E+00 0.  1.
         21   -1    0    0  504  502 -0.00000000000E+00 -0.00000000000E+00 -0.14325612430E+04  0.14325612430E+04  0.00000000000E+00 0.  1.
         21    1    1    2  503  505 -0.32349419531E+02 -0.11411999317E+02 -0.17126017024E+03  0.17466185784E+03  0.00000000000E+00 0. -1.
         21    1    1    2  504  506 -0.45670348798E+02  0.30412239434E+02 -0.47914064206E+03  0.48227216377E+03  0.00000000000E+00 0. -1.
         21    1    1    2  505  502  0.10771216349E+03 -0.53839814617E+02 -0.59434430214E+03  0.60642046905E+03  0.00000000000E+00 0.  1.
         21    1    1    2  506  501 -0.29692395163E+02  0.34839574500E+02 -0.17557684667E+03  0.18144603432E+03  0.00000000000E+00 0.  1.
<scales pt_clust_3="34.30333" pt_clust_4="40.75944" pt_clust_5="107.69468" pt_clust_6="40.75944"></scales>
<clustering>
<clus scale="   34.303">  1  3  2 -1</clus>
<clus scale="   40.759">  4  6 -1 -1</clus>
<clus scale="  107.695">  1  5  2 -1</clus>
<clus scale="   34.303">  1  3  2 -1</clus>
</clustering>
</event>
<event>
 6    0  0.8991567E+002  0.1012632E+03  0.7546771E-02  0.1277662E+00
         21   -1    0    0  506  501  0.00000000000E+00  0.00000000000E+00  0.78685466760E+03  0.78685466760E+03  0.00000000000E+00 0. -1.
         21   -1    0    0  504  502 -0.00000000000E+00 -0.00000000000E+00 -0.17259139342E+03  0.17259139342E+03  0.00000000000E+00 0.  1.
         21    1    1    2  503  501  0.90933541760E+02 -0.25393442236E+02 -0.30109859367E+02  0.99097626393E+02  0.00000000000E+00 0.  1.
         21    1    1    2  504  503 -0.70376086344E+01 -0.36589802514E+02 -0.71317699349E+02  0.80464624673E+02  0.00000000000E+00 0.  1.
         21    1    1    2  505  502 -0.52890983672E+02  0.11652847555E+03  0.10377318229E+03  0.16475805028E+03  0.00000000000E+00 0.  1.
         21    1    1    2  506  505 -0.31004949453E+02 -0.54545230803E+02  0.61191765060E+03  0.61512575967E+03  0.00000000000E+00 0. -1.
<scales pt_clust_3="14000.00000" pt_clust_4="37.26046" pt_clust_5="101.26316" pt_clust_6="63.32711"></scales>
<clustering>
<clus scale="   37.260">  2  4  1 -1</clus>
<clus scale="   63.327">  1  6  2 -1</clus>
<clus scale="  101.263">  1  5  2 -1</clus>
<clus scale="   63.327">  1  3  2 -1</clus>
</clustering>
</event>
<event>
 6    0  0.8991567E+002  0.8838203E+02  0.7546771E-02  0.1306818E+00
         21   -1    0    0  504  501  0.00000000000E+00  0.00000000000E+00  0.27781618120E+03  0.27781618120E+03  0.00000000000E+00 0. -1.
         21   -1    0    0  503  502 -0.00000000000E+00 -0.00000000000E+00 -0.10597430404E+03  0.10597430404E+03  0.00000000000E+00 0. -1.
         21    1    1    2  503  506  0.39486794955E+02 -0.91482266242E+02 -0.41350415067E+02  0.10787988153E+03  0.00000000000E+00 0. -1.
         21    1    1    2  504  505 -0.33698284892E+02 -0.48060683359E+01  0.85123708828E+02  0.91677251824E+02  0.00000000000E+00 0. -1.
         21    1    1    2  505  502 -0.39930890039E+02  0.57430262205E+02  0.36095124716E+02  0.78711936989E+02  0.00000000000E+00 0.  1.
         21    1    1    2  506  501  0.34142379976E+02  0.38858072372E+02  0.91973458690E+02  0.10552141490E+03  0.00000000000E+00 0. -1.
<scales pt_clust_3="14000.00000" pt_clust_4="34.03928" pt_clust_5="88.38203" pt_clust_6="39.95277"></scales>
<clustering>
<clus scale="   34.039">  1  4  2 -1</clus>
<clus scale="   39.953">  1  6  2 -1</clus>
<clus scale="   88.382">  1  5  2 -1</clus>
<clus scale="   34.039">  1  3  2 -1</clus>
</clustering>
</event>
<event>
 6    0  0.8991567E+002  0.1079637E+03  0.7546771E-02  0.1264388E+00
         21   -1    0    0  505  501  0.00000000000E+00  0.00000000000E+00  0.30717902914E+03  0.30717902914E+03  0.00000000000E+00 0. -1.
         21   -1    0    0  506  502 -0.00000000000E+00 -0.00000000000E+00 -0.16068040126E+03  0.16068040126E+03  0.00000000000E+00 0.  1.
         21    1    1    2  503  501  0.74651338236E+02 -0.68476381312E+02 -0.75922787138E+02  0.12659426016E+03  0.00000000000E+00 0.  1.
         21    1    1    2  504  502 -0.35029609936E+02  0.20664078621E+02 -0.15058044561E+02  0.43368449632E+02  0.00000000000E+00 0.  1.
         21    1    1    2  505  504 -0.77003920490E+02  0.76860917014E+02  0.22343365638E+03  0.24851519700E+03  0.00000000000E+00 0. -1.
         21    1    1    2  506  503  0.37382192190E+02 -0.29048614323E+02  0.14045803196E+02  0.49381523614E+02  0.00000000000E+00 0. -1.
<scales pt_clust_3="14000.00000" pt_clust_4="40.67035" pt_clust_5="107.96370" pt_clust_6="41.92640"></scales>
<clustering>
<clus scale="   40.670">  2  4  1 -1</clus>
<clus scale="   41.926">  2  6  1 -1</clus>
<clus scale="  107.964">  1  5  2 -1</clus>
<clus scale="  107.964">  1  3  2 -1</clus>
</clustering>
</event>
<event>
 6    0  0.8991567E+002  0.1991375E+03  0.7546771E-02  0.1150469E+00
         21   -1    0    0  506  501  0.00000000000E+00  0.00000000000E+00  0.13564743439E+04  0.13564743439E+04  0.00000000000E+00 0. -1.
         21   -1    0    0  503  502 -0.00000000000E+00 -0.00000000000E+00 -0.10686737842E+03  0.10686737842E+03  0.00000000000E+00 0.  1.
         21    1    1    2  503  504 -0.16216813609E+03  0.80332999214E+02  0.20520256383E+03  0.27360553234E+03  0.00000000000E+00 0. -1.
         21    1    1    2  504  501 -0.38435077596E+02 -0.51545826151E+02  0.25699543142E+03  0.26491674004E+03  0.00000000000E+00 0. -1.
         21    1    1    2  505  502  0.19333370470E+03 -0.86513775366E+02  0.98731896255E+02  0.23368898571E+03  0.00000000000E+00 0.  1.
         21    1    1    2  506  505  0.72695089818E+01  0.57726602303E+02  0.68867707397E+03  0.69113046423E+03  0.00000000000E+00 0. -1.
<scales pt_clust_3="14000.00000" pt_clust_4="45.87462" pt_clust_5="199.13754" pt_clust_6="58.18253"></scales>
<clustering>
<clus scale="   58.183">  1  6  2 -1</clus>
<clus scale="   45.875">  1  4  2 -1</clus>
<clus scale="  199.138">  2  5  1 -1</clus>
<clus scale="   58.183">  1  3  2 -1</clus>
</clustering>
</event>
<event>
 6    0  0.8991567E+002  0.1160360E+03  0.7546771E-02  0.1249784E+00
         21   -1    0    0  506  501  0.00000000000E+00  0.00000000000E+00  0.26447735535E+03  0.26447735535E+03  0.00000000000E+00 0. -1.
         21   -1    0    0  501  502 -0.00000000000E+00 -0.00000000000E+00 -0.12922073225E+03  0.12922073225E+03  0.00000000000E+00 0. -1.
         21    1    1    2  503  502  0.25830699196E+02 -0.20576881294E+02 -0.42278082966E+02  0.53647640806E+02  0.00000000000E+00 0. -1.
         21    1    1    2  504  505 -0.34899650618E+02 -0.20122088022E+02  0.67193189320E+02  0.78344168453E+02  0.00000000000E+00 0. -1.
         21    1    1    2  505  503  0.27364108942E+02  0.11309055048E+03 -0.13460814434E+02  0.11713010113E+03  0.00000000000E+00 0. -1.
         21    1    1    2  506  504 -0.18295157520E+02 -0.72391581162E+02  0.12380233118E+03  0.14457617721E+03  0.00000000000E+00 0. -1.
<scales pt_clust_3="33.02473" pt_clust_4="31.38509" pt_clust_5="107.88243" pt_clust_6="31.38509"></scales>
<clustering>
<clus scale="   31.385">  4  6 -1 -1</clus>
<clus scale="   33.025">  2  3  1 -1</clus>
<clus scale="  107.882">  2  5  1 -1</clus>
<clus scale="  116.036">  1  3  2 -1</clus>
</clustering>
</event>
<event>
 6    0  0.8991567E+002  0.1724340E+03  0.7546771E-02  0.1175333E+00
         21   -1    0    0  505  501  0.00000000000E+00  0.00000000000E+00  0.65180399650E+02  0.65180399650E+02  0.00000000000E+00 0.  1.
         21   -1    0    0  504  502 -0.00000000000E+00 -0.00000000000E+00 -0.20221184717E+04  0.20221184717E+04  0.00000000000E+00 0. -1.
         21    1    1    2  503  501 -0.67677434834E+02  0.77383412925E+02 -0.52224693545E+02  0.11530761639E+03  0.00000000000E+00 0.  1.
         21    1    1    2  504  506  0.35167545262E+02  0.34339649114E+02 -0.15508605755E+03  0.16268882256E+03  0.00000000000E+00 0.  1.
         21    1    1    2  505  502  0.19526152571E+02 -0.17807028782E+03 -0.17295163873E+04  0.17387688840E+04  0.00000000000E+00 0. -1.
         21    1    1    2  506  503  0.12983737001E+02  0.66347225777E+02 -0.20110933640E+02  0.70533548377E+02  0.00000000000E+00 0.  1.
<scales pt_clust_3="61.38082" pt_clust_4="49.15249" pt_clust_5="155.17370" pt_clust_6="61.38082"></scales>
<clustering>
<clus scale="   49.152">  2  4  1 -1</clus>
<clus scale="   61.381">  3  6 -1 -1</clus>
<clus scale="  155.174">  2  5  1 -1</clus>
<clus scale="  172.434">  1  3  2 -1</clus>
</clustering>
</event>
<event>
 6    0  0.8991567E+002  0.8736673E+02  0.7546771E-02  0.1309357E+00
         21   -1    0    0  505  501  0.00000000000E+00  0.00000000000E+00  0.44466132203E+03  0.44466132203E+03  0.00000000000E+00 0. -1.
         21   -1    0    0  501  502 -0.00000000000E+00 -0.00000000000E+00 -0.11079381609E+03  0.11079381609E+03  0.00000000000E+00 0.  1.
         21    1    1    2  503  504 -0.24370635852E+02 -0.51632223858E+02  0.14133845406E+03  0.15243481567E+03  0.00000000000E+00 0. -1.
         21    1    1    2  504  506  0.86682602220E+02 -0.23333227577E+02  0.63629213264E+02  0.11003176731E+03  0.00000000000E+00 0.  1.
         21    1    1    2  505  503  0.14949869303E+02  0.34609336729E+02  0.18534621746E+03  0.18914154781E+03  0.00000000000E+00 0.  1.
         21    1    1    2  506  502 -0.77261835671E+02  0.40356114706E+02 -0.56446378850E+02  0.10384700733E+03  0.00000000000E+00 0.  1.
<scales pt_clust_3="35.60151" pt_clust_4="14000.00000" pt_clust_5="37.70020" pt_clust_6="87.36673"></scales>
<clustering>
<clus scale="   37.700">  1  5  2 -1</clus>
<clus scale="   35.602">  1  3  2 -1</clus>
<clus scale="   87.367">  2  6  1 -1</clus>
<clus scale="   37.700">  1  3  2 -1</clus>
</clustering>
</event>
<event>
 6    0  0.8991567E+002  0.9165473E+02  0.7546771E-02  0.1298893E+00
         21   -1    0    0  504  501  0.00000000000E+00  0.00000000000E+00  0.15933867977E+03  0.15933867977E+03  0.00000000000E+00 0. -1.
         21   -1    0    0  506  502 -0.00000000000E+00 -0.00000000000E+00 -0.12526635925E+03  0.12526635925E+03  0.00000000000E+00 0. -1.
         21    1    1    2  503  505 -0.58761867506E+02  0.55428644725E+02  0.10914523334E+02  0.81513302892E+02  0.00000000000E+00 0. -1.
         21    1    1    2  504  503  0.60511431577E+02 -0.25334331521E+02  0.60420867206E+02  0.89186001699E+02  0.00000000000E+00 0. -1.
         21    1    1    2  505  502 -0.49856355215E+02  0.14263181947E+01 -0.13459776738E+02  0.51660972975E+02  0.00000000000E+00 0. -1.
         21    1    1    2  506  501  0.48106791144E+02 -0.31520631398E+02 -0.23803293275E+02  0.62244761456E+02  0.00000000000E+00 0. -1.
<scales pt_clust_3="40.81884" pt_clust_4="75.51215" pt_clust_5="40.81884" pt_clust_6="57.51359"></scales>
<clustering>
<clus scale="   40.819">  3  5 -1 -1</clus>
<clus scale="   57.514">  2  6  1 -1</clus>
<clus scale="   75.512">  1  4  2 -1</clus>
<clus scale="   75.512">  1  3  2 -1</clus>
</clustering>
</event>
<event>
 6    0  0.8991567E+002  0.8561691E+02  0.7546771E-02  0.1313827E+00
         21   -1    0    0  506  501  0.00000000000E+00  0.00000000000E+00  0.28695264666E+04  0.28695264666E+04  0.00000000000E+00 0.  1.
         21   -1    0    0  503  502 -0.00000000000E+00 -0.00000000000E+00 -0.76443222233E+02  0.76443222233E+02  0.00000000000E+00 0. -1.
         21    1    1    2  503  504  0.25976728867E+02 -0.42161853093E+02 -0.47751384296E+02  0.68793945962E+02  0.00000000000E+00 0. -1.
         21    1    1    2  504  505 -0.61983453442E+02 -0.23011199544E+02  0.61497352220E+03  0.61851749919E+03  0.00000000000E+00 0.  1.
         21    1    1    2  505  501 -0.77198442624E+01 -0.35482273803E+02  0.20566811747E+04  0.20570017117E+04  0.00000000000E+00 0.  1.
         21    1    1    2  506  502  0.43726568837E+02  0.10065532644E+03  0.16917993183E+03  0.20165653199E+03  0.00000000000E+00 0.  1.
<scales pt_clust_3="49.86157" pt_clust_4="85.61691" pt_clust_5="36.31236" pt_clust_6="14000.00000"></scales>
<clustering>
<clus scale="   36.312">  1  5  2 -1</clus>
<clus scale="   49.862">  2  3  1 -1</clus>
<clus scale="   85.617">  1  4  2 -1</clus>
<clus scale="   36.312">  1  3  2 -1</clus>
</clustering>
</event>
<event>
 6    0  0.8991567E+002  0.9414729E+02  0.7546771E-02  0.1293108E+00
         21   -1    0    0  502  501  0.00000000000E+00  0.00000000000E+00  0.15455881816E+03  0.15455881816E+03  0.00000000000E+00 0.  1.
         21   -1    0    0  506  502 -0.00000000000E+00 -0.00000000000E+00 -0.60354470202E+03  0.60354470202E+03  0.00000000000E+00 0. -1.
         21    1    1    2  503  504  0.56457104500E+02  0.39553386435E+02 -0.17869848969E+03  0.19153335282E+03  0.00000000000E+00 0. -1.
         21    1    1    2  504  505 -0.36724132995E+02 -0.88113369762E+02  0.10042303587E+03  0.13855473290E+03  0.00000000000E+00 0.  1.
         21    1    1    2  505  501 -0.53522104618E+02  0.34981244787E+02 -0.91094989301E+01  0.64585494814E+02  0.00000000000E+00 0. -1.
         21    1    1    2  506  503  0.33789133113E+02  0.13578738540E+02 -0.36160093111E+03  0.36342993965E+03  0.00000000000E+00 0. -1.
<scales pt_clust_3="94.14729" pt_clust_4="14000.00000" pt_clust_5="60.92279" pt_clust_6="36.41549"></scales>
<clustering>
<clus scale="   36.415">  2  6  1 -1</clus>
<clus scale="   60.923">  1  5  2 -1</clus>
<clus scale="   94.147">  2  3  1 -1</clus>
<clus scale="   60.923">  1  3  2 -1</clus>
</clustering>
</event>
<event>
 6    0  0.8991567E+002  0.1045820E+03  0.7546771E-02  0.1270945E+00
         21   -1    0    0  505  501  0.00000000000E+00  0.00000000000E+00  0.50143827747E+03  0.50143827747E+03  0.00000000000E+00 0. -1.
         21   -1    0    0  503  502 -0.00000000000E+00 -0.00000000000E+00 -0.27506234116E+03  0.27506234116E+03  0.00000000000E+00 0. -1.
         21    1    1    2  503  506 -0.49013426974E+02  0.16791607076E+02 -0.96976107254E+02  0.10994834910E+03  0.00000000000E+00 0. -1.
         21    1    1    2  504  501 -0.29193559357E+02 -0.85969989067E+01  0.35049689020E+03  0.35181563686E+03  0.00000000000E+00 0. -1.
         21    1    1    2  505  502 -0.60845293077E+02 -0.50078801854E+02  0.96090817354E+02  0.12427180398E+03  0.00000000000E+00 0. -1.
         21    1    1    2  506  504  0.13905227941E+03  0.41884193684E+02 -0.12323566399E+03  0.19046482869E+03  0.00000000000E+00 0. -1.
<scales pt_clust_3="52.88715" pt_clust_4="30.43308" pt_clust_5="104.58200" pt_clust_6="14000.00000"></scales>
<clustering>
<clus scale="   30.433">  1  4  2 -1</clus>
<clus scale="   52.887">  2  3  1 -1</clus>
<clus scale="  104.582">  1  5  2 -1</clus>
<clus scale="   30.433">  1  3  2 -1</clus>
</clustering>
</event>
<event>
 6    0  0.3057667E+003  0.2333521E+03  0.7546771E-02  0.1124302E+00
         21   -1    0    0  502  501  0.00000000000E+00  0.00000000000E+00  0.12620901300E+04  0.12620901300E+04  0.00000000000E+00 0.  1.
         21   -1    0    0  503  502 -0.00000000000E+00 -0.00000000000E+00 -0.11941735600E+04  0.11941735600E+04  0.00000000000E+00 0. -1.
         21    1    1    2  503  504  0.35266685978E+02  0.16212056314E+02 -0.66203253887E+03  0.66316939950E+03  0.00000000000E+00 0. -1.
         21    1    1    2  504  505 -0.11165770693E+03  0.20071606394E+03 -0.49521776805E+03  0.54588920087E+03  0.00000000000E+00 0. -1.
         21    1    1    2  505  506  0.48955515187E+02 -0.12058637742E+03  0.58963154195E+03  0.60382370950E+03  0.00000000000E+00 0.  1.
         21    1    1    2  506  501  0.27435505764E+02 -0.96341742834E+02  0.63553533493E+03  0.64338138016E+03  0.00000000000E+00 0.  1.
<scales pt_clust_3="38.81456" pt_clust_4="229.91288" pt_clust_5="35.01895" pt_clust_6="35.01895"></scales>
<clustering>
<clus scale="   35.019">  5  6 -1 -1</clus>
<clus scale="   38.815">  2  3  1 -1</clus>
<clus scale="  229.913">  2  4  1 -1</clus>
<clus scale="  233.352">  1  3  2 -1</clus>
</clustering>
</event>
<event>
 6    0  0.8991567E+002  0.1760482E+03  0.7546771E-02  0.1171683E+00
         21   -1    0    0  505  501  0.00000000000E+00  0.00000000000E+00  0.19209835007E+03  0.19209835007E+03  0.00000000000E+00 0.  1.
         21   -1    0    0  504  502 -0.00000000000E+00 -0.00000000000E+00 -0.47068108991E+03  0.47068108991E+03  0.00000000000E+00 0.  1.
         21    1    1    2  503  502 -0.11021713658E+03 -0.32797008852E+02 -0.47750631899E+01  0.11509240729E+03  0.00000000000E+00 0.  1.
         21    1    1    2  504  501  0.74752069645E+02 -0.38353198826E+02 -0.29522656094E+03  0.30694879388E+03  0.00000000000E+00 0.  1.
         21    1    1    2  505  506  0.75216193268E+02  0.13844682276E+03  0.35017924245E+02  0.16140400702E+03  0.00000000000E+00 0.  1.
         21    1    1    2  506  503 -0.39751126329E+02 -0.67296615087E+02 -0.13599039952E+02  0.79334231793E+02  0.00000000000E+00 0.  1.
<scales pt_clust_3="58.03277" pt_clust_4="84.01690" pt_clust_5="161.36321" pt_clust_6="58.03277"></scales>
<clustering>
<clus scale="   58.033">  3  6 -1 -1</clus>
<clus scale="   84.017">  2  4  1 -1</clus>
<clus scale="  161.363">  1  5  2 -1</clus>
<clus scale="  161.363">  1  3  2 -1</clus>
</clustering>
</event>
<event>
 6    0  0.8991567E+002  0.1016186E+03  0.7546771E-02  0.1276929E+00
         21   -1    0    0  503  501  0.00000000000E+00  0.00000000000E+00  0.16177614689E+03  0.16177614689E+03  0.00000000000E+00 0. -1.
         21   -1    0    0  506  502 -0.00000000000E+00 -0.00000000000E+00 -0.23519907934E+03  0.23519907934E+03  0.00000000000E+00 0. -1.
         21    1    1    2  503  502  0.47766539211E+02  0.40264538478E+02  0.66693478756E+02  0.91383233887E+02  0.00000000000E+00 0. -1.
         21    1    1    2  504  505 -0.11627608101E+03 -0.10075808485E+03 -0.64644793492E+02  0.16688699172E+03  0.00000000000E+00 0. -1.
         21    1    1    2  505  501  0.14720265387E+02  0.44530913107E+02 -0.29236636987E+01  0.46991874240E+02  0.00000000000E+00 0. -1.
         21    1    1    2  506  504  0.53789276417E+02  0.15962633266E+02 -0.72547954015E+02  0.91713126377E+02  0.00000000000E+00 0. -1.
<scales pt_clust_3="101.61862" pt_clust_4="14000.00000" pt_clust_5="46.90084" pt_clust_6="58.00444"></scales>
<clustering>
<clus scale="   46.901">  1  5  2 -1</clus>
<clus scale="   58.004">  2  6  1 -1</clus>
<clus scale="  101.619">  1  3  2 -1</clus>
<clus scale="   46.901">  1  3  2 -1</clus>
</clustering>
</event>
<event>
 6    0  0.8991567E+002  0.7251534E+02  0.7546771E-02  0.1351743E+00
         21   -1    0    0  505  501  0.00000000000E+00  0.00000000000E+00  0.51837262151E+03  0.51837262151E+03  0.00000000000E+00 0. -1.
         21   -1    0    0  506  502 -0.00000000000E+00 -0.00000000000E+00 -0.28972173685E+03  0.28972173685E+03  0.00000000000E+00 0. -1.
         21    1    1    2  503  501  0.31107893916E+02  0.13119302192E+02  0.31490586596E+03  0.31671046963E+03  0.00000000000E+00 0. -1.
         21    1    1    2  504  503 -0.63332412375E+02 -0.47825987764E+02  0.82734379253E+02  0.11464421954E+03  0.00000000000E+00 0. -1.
         21    1    1    2  505  502  0.85333606569E+01  0.10204837663E+03  0.72141129967E+02  0.12526384974E+03  0.00000000000E+00 0. -1.
         21    1    1    2  506  504  0.23691157802E+02 -0.67341691063E+02 -0.24113049052E+03  0.25147581946E+03  0.00000000000E+00 0. -1.
<scales pt_clust_3="33.76118" pt_clust_4="63.54360" pt_clust_5="72.51534" pt_clust_6="14000.00000"></scales>
<clustering>
<clus scale="   33.761">  1  3  2 -1</clus>
<clus scale="   63.544">  1  4  2 -1</clus>
<clus scale="   72.515">  1  5  2 -1</clus>
<clus scale="   33.761">  1  3  2 -1</clus>
</clustering>
</event>
<event>
 6    0  0.8991567E+002  0.1087606E+03  0.7546771E-02  0.1262882E+00
         21   -1    0    0  506  501  0.00000000000E+00  0.00000000000E+00  0.19088499843E+04  0.19088499843E+04  0.00000000000E+00 0.  1.
         21   -1    0    0  505  502 -0.00000000000E+00 -0.00000000000E+00 -0.29837094616E+03  0.29837094616E+03  0.00000000000E+00 0.  1.
         21    1    1    2  503  504  0.23053364230E+01 -0.77686174372E+02  0.44065209684E+03  0.44745360287E+03  0.00000000000E+00 0.  1.
         21    1    1    2  504  501  0.62565304280E+01 -0.32528318312E+02  0.14333713106E+04  0.14337540060E+04  0.00000000000E+00 0.  1.
         21    1    1    2  505  503 -0.58341458274E+02  0.11814091301E+03 -0.23123639325E+03  0.26614144857E+03  0.00000000000E+00 0.  1.
         21    1    1    2  506  502  0.49779591423E+02 -0.79264203244E+01 -0.32307976056E+02  0.59871873014E+02  0.00000000000E+00 0.  1.
<scales pt_clust_3="108.76056" pt_clust_4="33.12455" pt_clust_5="14000.00000" pt_clust_6="50.74223"></scales>
<clustering>
<clus scale="   33.125">  1  4  2 -1</clus>
<clus scale="   50.742">  2  6  1 -1</clus>
<clus scale="  108.761">  1  3  2 -1</clus>
<clus scale="   33.125">  1  3  2 -1</clus>
</clustering>
</event>
<event>
 6    0  0.8991567E+002  0.5917721E+02  0.7546771E-02  0.1401317E+00
         21   -1    0    0  504  501  0.00000000000E+00  0.00000000000E+00  0.98703652597E+02  0.98703652597E+02  0.00000000000E+00 0. -1.
         21   -1    0    0  505  502 -0.00000000000E+00 -0.00000000000E+00 -0.44454533842E+03  0.44454533842E+03  0.00000000000E+00 0. -1.
         21    1    1    2  503  502 -0.39274115198E+02  0.14477843519E+02 -0.14154923272E+03  0.14760843256E+03  0.00000000000E+00 0. -1.
         21    1    1    2  504  503 -0.46074451207E+02 -0.18590917350E+02  0.13460893214E+02  0.51474973609E+02  0.00000000000E+00 0. -1.
         21    1    1    2  505  506  0.71976789047E+02 -0.60252140312E+02 -0.25280234887E+03  0.26966647209E+03  0.00000000000E+00 0. -1.
         21    1    1    2  506  501  0.13371777358E+02  0.64365214142E+02  0.35049002560E+02  0.74499112758E+02  0.00000000000E+00 0. -1.
<scales pt_clust_3="41.85766" pt_clust_4="51.67901" pt_clust_5="59.17721" pt_clust_6="14000.00000"></scales>
<clustering>
<clus scale="   41.858">  2  3  1 -1</clus>
<clus scale="   51.679">  1  4  2 -1</clus>
<clus scale="   59.177">  2  5  1 -1</clus>
<clus scale="   51.679">  1  3  2 -1</clus>
</clustering>
</event>
<event>
 6    0  0.8991567E+002  0.1018026E+03  0.7546771E-02  0.1276550E+00
         21   -1    0    0  504  501  0.00000000000E+00  0.00000000000E+00  0.11427092960E+04  0.11427092960E+04  0.00000000000E+00 0.  1.
         21   -1    0    0  503  502 -0.00000000000E+00 -0.00000000000E+00 -0.76407718423E+02  0.76407718423E+02  0.00000000000E+00 0.  1.
         21    1    1    2  503  501  0.19146251235E+02  0.34808164610E+02 -0.17169793489E+02  0.43278043721E+02  0.00000000000E+00 0.  1.
         21    1    1    2  504  506 -0.98495563426E+02 -0.26140444698E+02  0.99557881216E+03  0.10007806304E+04  0.00000000000E+00 0.  1.
         21    1    1    2  505  502 -0.14366520178E+02 -0.47701649469E+02  0.26696685946E+02  0.56520414937E+02  0.00000000000E+00 0.  1.
         21    1    1    2  506  505  0.93715832369E+02  0.39033929557E+02  0.61195872951E+02  0.11853792541E+03  0.00000000000E+00 0.  1.
<scales pt_clust_3="39.72641" pt_clust_4="101.80256" pt_clust_5="37.37004" pt_clust_6="14000.00000"></scales>
<clustering>
<clus scale="   39.726">  2  3  1 -1</clus>
<clus scale="   37.370">  2  5  1 -1</clus>
<clus scale="  101.803">  1  4  2 -1</clus>
<clus scale="  101.803">  1  3  2 -1</clus>
</clustering>
</event>
<event>
 6    0  0.8991567E+002  0.1184157E+03  0.7546771E-02  0.1245734E+00
         21   -1    0    0  504  501  0.00000000000E+00  0.00000000000E+00  0.60520662119E+03  0.60520662119E+03  0.00000000000E+00 0.  1.
         21   -1    0    0  506  502 -0.00000000000E+00 -0.00000000000E+00 -0.25193071477E+03  0.25193071477E+03  0.00000000000E+00 0. -1.
         21    1    1    2  503  502 -0.27174371017E+02 -0.27362495853E+02 -0.13617934239E+03  0.14153432769E+03  0.00000000000E+00 0. -1.
         21    1    1    2  504  503  0.35413454769E+01 -0.42802986323E+02  0.38997040684E+02  0.58012118976E+02  0.00000000000E+00 0. -1.
         21    1    1    2  505  501  0.40534226689E+02 -0.68678434538E+02  0.50217447705E+03  0.50846726179E+03  0.00000000000E+00 0.  1.
         21    1    1    2  506  505 -0.16901201150E+02  0.13884391671E+03 -0.51716268931E+02  0.14912362751E+03  0.00000000000E+00 0. -1.
<scales pt_clust_3="38.56362" pt_clust_4="45.12119" pt_clust_5="118.41573" pt_clust_6="14000.00000"></scales>
<clustering>
<clus scale="   38.564">  2  3  1 -1</clus>
<clus scale="   45.121">  1  4  2 -1</clus>
<clus scale="  118.416">  1  5  2 -1</clus>
<clus scale="   45.121">  1  3  2 -1</clus>
</clustering>
</event>
<event>
 6    0  0.8991567E+002  0.2437024E+03  0.7546771E-02  0.1117351E+00
         21   -1    0    0  502  501  0.00000000000E+00  0.00000000000E+00  0.14436365842E+03  0.14436365842E+03  0.00000000000E+00 0.  1.
         21   -1    0    0  503  502 -0.00000000000E+00 -0.00000000000E+00 -0.19375993733E+04  0.19375993733E+04  0.00000000000E+00 0.  1.
         21    1    1    2  503  506 -0.61377912817E+01  0.34544650615E+02 -0.20178474489E+03  0.20481232540E+03  0.00000000000E+00 0. -1.
         21    1    1    2  504  501  0.24863865130E+03  0.32398112867E+02  0.91175265575E+00  0.25074219416E+03  0.00000000000E+00 0.  1.
         21    1    1    2  505  504 -0.19229450334E+03 -0.92394789970E+02 -0.68851887962E+03  0.72081358257E+03  0.00000000000E+00 0.  1.
         21    1    1    2  506  505 -0.50206356685E+02  0.25452026488E+02 -0.90384384299E+03  0.90559492954E+03  0.00000000000E+00 0.  1.
<scales pt_clust_3="35.08569" pt_clust_4="243.70236" pt_clust_5="14000.00000" pt_clust_6="68.86443"></scales>
<clustering>
<clus scale="   35.086">  2  3  1 -1</clus>
<clus scale="   68.864">  2  6  1 -1</clus>
<clus scale="  243.702">  1  4  2 -1</clus>
<clus scale="  243.702">  1  3  2 -1</clus>
</clustering>
</event>
<event>
 6    0  0.8991567E+002  0.1144793E+03  0.7546771E-02  0.1252493E+00
         21   -1    0    0  503  501  0.00000000000E+00  0.00000000000E+00  0.91192063376E+03  0.91192063376E+03  0.00000000000E+00 0. -1.
         21   -1    0    0  506  502 -0.00000000000E+00 -0.00000000000E+00 -0.16718989444E+03  0.16718989444E+03  0.00000000000E+00 0. -1.
         21    1    1    2  503  504  0.15727226151E+03 -0.57464338103E+02  0.57708568736E+03  0.60088651587E+03  0.00000000000E+00 0. -1.
         21    1    1    2  504  505 -0.47838052059E+02 -0.10539815443E+02 -0.32865975410E+02  0.58989314914E+02  0.00000000000E+00 0. -1.
         21    1    1    2  505  502 -0.57361781417E+02  0.96366450418E+01 -0.96183100046E+02  0.11240296984E+03  0.00000000000E+00 0. -1.
         21    1    1    2  506  501 -0.52072428034E+02  0.58367508505E+02  0.29669412741E+03  0.30683172758E+03  0.00000000000E+00 0. -1.
<scales pt_clust_3="107.01256" pt_clust_4="37.32034" pt_clust_5="37.32034" pt_clust_6="78.21959"></scales>
<clustering>
<clus scale="   37.320">  4  5 -1 -1</clus>
<clus scale="   78.220">  1  6  2 -1</clus>
<clus scale="  107.013">  1  3  2 -1</clus>
<clus scale="   78.220">  1  3  2 -1</clus>
</clustering>
</event>
<event>
 6    0  0.8991567E+002  0.1011408E+03  0.7546771E-02  0.1277915E+00
         21   -1    0    0  505  501  0.00000000000E+00  0.00000000000E+00  0.16860590158E+04  0.16860590158E+04  0.00000000000E+00 0. -1.
         21   -1    0    0  506  502 -0.00000000000E+00 -0.00000000000E+00 -0.29746684357E+03  0.29746684357E+03  0.00000000000E+00 0.  1.
         21    1    1    2  503  504 -0.62636657719E+02 -0.15195118526E+03  0.44195842557E+03  0.47152917569E+03  0.00000000000E+00 0. -1.
         21    1    1    2  504  502  0.55583670776E+02  0.83091202636E+02 -0.27142480051E+03  0.28924922600E+03  0.00000000000E+00 0.  1.
         21    1    1    2  505  503  0.14807009558E+02  0.39131387590E+02  0.10987605844E+04  0.10995568812E+04  0.00000000000E+00 0. -1.
         21    1    1    2  506  501 -0.77540226156E+01  0.29728595032E+02  0.11929796272E+03  0.12319057650E+03  0.00000000000E+00 0.  1.
<scales pt_clust_3="14000.00000" pt_clust_4="101.14083" pt_clust_5="60.73897" pt_clust_6="30.72319"></scales>
<clustering>
<clus scale="   30.723">  1  6  2 -1</clus>
<clus scale="   60.739">  1  5  2 -1</clus>
<clus scale="  101.141">  2  4  1 -1</clus>
<clus scale="   30.723">  1  3  2 -1</clus>
</clustering>
</event>
<event>
 6    0  0.8991567E+002  0.6585059E+02  0.7546771E-02  0.1374800E+00
         21   -1    0    0  504  501  0.00000000000E+00  0.00000000000E+00  0.31219246161E+03  0.31219246161E+03  0.00000000000E+00 0. -1.
         21   -1    0    0  506  502 -0.00000000000E+00 -0.00000000000E+00 -0.99598456567E+02  0.99598456567E+02  0.00000000000E+00 0. -1.
         21    1    1    2  503  502  0.22952789937E+00  0.99603148016E+02  0.81444512108E+01  0.99935838733E+02  0.00000000000E+00 0. -1.
         21    1    1    2  504  505  0.38048151981E+02  0.16806837878E+02  0.16212938701E+03  0.16738001614E+03  0.00000000000E+00 0. -1.
         21    1    1    2  505  503 -0.17522727059E+02 -0.63189734994E+02  0.55433241469E+02  0.85865201519E+02  0.00000000000E+00 0. -1.
         21    1    1    2  506  501 -0.20754952821E+02 -0.53220250900E+02 -0.13113074646E+02  0.58609861791E+02  0.00000000000E+00 0. -1.
<scales pt_clust_3="65.85059" pt_clust_4="41.59485" pt_clust_5="14000.00000" pt_clust_6="52.76978"></scales>
<clustering>
<clus scale="   41.595">  1  4  2 -1</clus>
<clus scale="   52.770">  2  6  1 -1</clus>
<clus scale="   65.851">  2  3  1 -1</clus>
<clus scale="   41.595">  1  3  2 -1</clus>
</clustering>
</event>
<event>
 6    0  0.8991567E+002  0.8589919E+02  0.7546771E-02  0.1313098E+00
         21   -1    0    0  503  501  0.00000000000E+00  0.00000000000E+00  0.23048468916E+03  0.23048468916E+03  0.00000000000E+00 0.  1.
         21   -1    0    0  504  502 -0.00000000000E+00 -0.00000000000E+00 -0.16479093533E+03  0.16479093533E+03  0.00000000000E+00 0.  1.
         21    1    1    2  503  506  0.30161307923E+02  0.26139128376E+01  0.10645838440E+03  0.11067937768E+03  0.00000000000E+00 0.  1.
         21    1    1    2  504  501  0.29556743104E+02  0.92829802072E+02 -0.86005888381E+02  0.12995378429E+03  0.00000000000E+00 0.  1.
         21    1    1    2  505  502 -0.35353009759E+02 -0.95184167907E+01 -0.22119605902E+02  0.42775139071E+02  0.00000000000E+00 0.  1.
         21    1    1    2  506  505 -0.24365041267E+02 -0.85925298119E+02  0.67360863715E+02  0.11186732344E+03  0.00000000000E+00 0.  1.
<scales pt_clust_3="30.27436" pt_clust_4="14000.00000" pt_clust_5="34.09019" pt_clust_6="85.89919"></scales>
<clustering>
<clus scale="   30.274">  1  3  2 -1</clus>
<clus scale="   34.090">  2  5  1 -1</clus>
<clus scale="   85.899">  1  6  2 -1</clus>
<clus scale="   30.274">  1  3  2 -1</clus>
</clustering>
</event>
<event>
 6    0  0.8991567E+002  0.1193578E+03  0.7546771E-02  0.1244160E+00
         21   -1    0    0  505  501  0.00000000000E+00  0.00000000000E+00  0.13329598497E+04  0.13329598497E+04  0.00000000000E+00 0.  1.
         21   -1    0    0  504  502 -0.00000000000E+00 -0.00000000000E+00 -0.12496075930E+03  0.12496075930E+03  0.00000000000E+00 0.  1.
         21    1    1    2  503  506  0.45734785540E+02  0.35164149874E+02  0.32103853224E+02  0.66021552819E+02  0.00000000000E+00 0. -1.
         21    1    1    2  504  501 -0.11415365245E+03 -0.32730051601E+02 -0.32780927268E+02  0.12319456903E+03  0.00000000000E+00 0.  1.
         21    1    1    2  505  503  0.27050619712E+02 -0.23493254075E+02  0.12203204290E+04  0.12208462714E+04  0.00000000000E+00 0.  1.
         21    1    1    2  506  502  0.41368247202E+02  0.21059155802E+02 -0.11644264516E+02  0.47858215761E+02  0.00000000000E+00 0. -1.
<scales pt_clust_3="37.48004" pt_clust_4="111.55393" pt_clust_5="35.82833" pt_clust_6="37.48004"></scales>
<clustering>
<clus scale="   35.828">  1  5  2 -1</clus>
<clus scale="   37.480">  3  6 -1 -1</clus>
<clus scale="  111.554">  2  4  1 -1</clus>
<clus scale="   35.828">  1  3  2 -1</clus>
</clustering>
</event>
<event>
 6    0  0.8991567E+002  0.2170497E+03  0.7546771E-02  0.1136102E+00
         21   -1    0    0  505  501  0.00000000000E+00  0.00000000000E+00  0.24965579845E+04  0.24965579845E+04  0.00000000000E+00 0. -1.
         21   -1    0    0  503  502 -0.00000000000E+00 -0.00000000000E+00 -0.14922715975E+03  0.14922715975E+03  0.00000000000E+00 0.  1.
         21    1    1    2  503  504 -0.12793858942E+03  0.14370138326E+03  0.55251238675E+02  0.20017759512E+03  0.00000000000E+00 0.  1.
         21    1    1    2  504  501 -0.10839177310E+03 -0.15471853202E+03  0.17601793232E+04  0.17702875050E+04  0.00000000000E+00 0. -1.
         21    1    1    2  505  506 -0.77173908237E+02  0.36208193334E+02  0.20335540018E+03  0.22050003211E+03  0.00000000000E+00 0.  1.
         21    1    1    2  506  502  0.31350427075E+03 -0.25191044570E+02  0.32854486266E+03  0.45482001197E+03  0.00000000000E+00 0.  1.
<scales pt_clust_3="196.79101" pt_clust_4="14000.00000" pt_clust_5="85.24579" pt_clust_6="217.04974"></scales>
<clustering>
<clus scale="   85.246">  1  5  2 -1</clus>
<clus scale="  196.791">  2  3  1 -1</clus>
<clus scale="  217.050">  2  6  1 -1</clus>
<clus scale="   85.246">  1  3  2 -1</clus>
</clustering>
</event>
<event>
 6    0  0.8991567E+002  0.9924211E+02  0.7546771E-02  0.1281898E+00
         21   -1    0    0  505  501  0.00000000000E+00  0.00000000000E+00  0.35958700211E+03  0.35958700211E+03  0.00000000000E+00 0.  1.
         21   -1    0    0  503  502 -0.00000000000E+00 -0.00000000000E+00 -0.36615367790E+04  0.36615367790E+04  0.00000000000E+00 0.  1.
         21    1    1    2  503  506 -0.36882961135E+02  0.36995443084E+02  0.10657331596E+03  0.11868819362E+03  0.00000000000E+00 0.  1.
         21    1    1    2  504  502  0.82511822735E+02 -0.26917889038E+02 -0.35988753747E+04  0.35999217681E+04  0.00000000000E+00 0.  1.
         21    1    1    2  505  504 -0.38166051742E+02 -0.63621553110E+02 -0.26685300486E+02  0.78844497511E+02  0.00000000000E+00 0. -1.
         21    1    1    2  506  501 -0.74628098572E+01  0.53543999063E+02  0.21703758239E+03  0.22366932185E+03  0.00000000000E+00 0.  1.
<scales pt_clust_3="47.35526" pt_clust_4="86.76566" pt_clust_5="74.19130" pt_clust_6="47.35526"></scales>
<clustering>
<clus scale="   47.355">  3  6 -1 -1</clus>
<clus scale="   74.191">  1  5  2 -1</clus>
<clus scale="   86.766">  2  4  1 -1</clus>
<clus scale="   74.191">  1  3  2 -1</clus>
</clustering>
</event>
<event>
 6    0  0.8991567E+002  0.1308378E+03  0.7546771E-02  0.1226218E+00
         21   -1    0    0  503  501  0.00000000000E+00  0.00000000000E+00  0.13426970537E+04  0.13426970537E+04  0.00000000000E+00 0.  1.
         21   -1    0    0  505  502 -0.00000000000E+00 -0.00000000000E+00 -0.22544899714E+03  0.22544899714E+03  0.00000000000E+00 0.  1.
         21    1    1    2  503  502  0.12689449003E+03  0.48534036267E+01  0.17879787438E+03  0.21930446190E+03  0.00000000000E+00 0.  1.
         21    1    1    2  504  501 -0.53782597428E+02 -0.48797556382E+02  0.59018110290E+03  0.59463224225E+03  0.00000000000E+00 0.  1.
         21    1    1    2  505  506  0.29328171239E+02 -0.10908179594E+02 -0.19558886494E+03  0.19807608160E+03  0.00000000000E+00 0.  1.
         21    1    1    2  506  504 -0.10244006384E+03  0.54852332350E+02  0.54385794419E+03  0.55613326506E+03  0.00000000000E+00 0.  1.
<scales pt_clust_3="14000.00000" pt_clust_4="71.53418" pt_clust_5="31.29105" pt_clust_6="130.83778"></scales>
<clustering>
<clus scale="   31.291">  2  5  1 -1</clus>
<clus scale="   71.534">  1  4  2 -1</clus>
<clus scale="  130.838">  1  6  2 -1</clus>
<clus scale="   71.534">  1  3  2 -1</clus>
</clustering>
</event>
<event>
 6    0  0.8991567E+002  0.1300405E+03  0.7546771E-02  0.1227396E+00
         21   -1    0    0  506  501  0.00000000000E+00  0.00000000000E+00  0.71011279991E+03  0.71011279991E+03  0.00000000000E+00 0. -1.
         21   -1    0    0  505  502 -0.00000000000E+00 -0.00000000000E+00 -0.86973196405E+02  0.86973196405E+02  0.00000000000E+00 0.  1.
         21    1    1    2  503  504  0.10683618958E+02 -0.59657016773E+02  0.59331220339E+02  0.84813283578E+02  0.00000000000E+00 0.  1.
         21    1    1    2  504  502  0.43857405266E+02 -0.41755357463E+02  0.79342177206E+02  0.99810635492E+02  0.00000000000E+00 0.  1.
         21    1    1    2  505  501 -0.99113872171E+02  0.83763228132E+02  0.42282703464E+01  0.12983726859E+03  0.00000000000E+00 0.  1.
         21    1    1    2  506  503  0.44572847947E+02  0.17649146104E+02  0.48023793561E+03  0.48262480866E+03  0.00000000000E+00 0. -1.
<scales pt_clust_3="39.93942" pt_clust_4="39.93942" pt_clust_5="123.74995" pt_clust_6="47.93987"></scales>
<clustering>
<clus scale="   39.939">  3  4 -1 -1</clus>
<clus scale="   47.940">  1  6  2 -1</clus>
<clus scale="  123.750">  2  5  1 -1</clus>
<clus scale="   47.940">  1  3  2 -1</clus>
</clustering>
</event>
<event>
 6    0  0.8991567E+002  0.8950355E+02  0.7546771E-02  0.1304058E+00
         21   -1    0    0  504  501  0.00000000000E+00  0.00000000000E+00  0.59306070496E+03  0.59306070496E+03  0.00000000000E+00 0. -1.
         21   -1    0    0  506  502 -0.00000000000E+00 -0.00000000000E+00 -0.12678223586E+04  0.12678223586E+04  0.00000000000E+00 0. -1.
         21    1    1    2  503  502  0.70420668834E+02 -0.66668950977E+02 -0.39867814467E+01  0.97055211348E+02  0.00000000000E+00 0.  1.
         21    1    1    2  504  503 -0.44592530376E+02  0.73642308585E+02  0.16584994452E+03  0.18686328553E+03  0.00000000000E+00 0. -1.
         21    1    1    2  505  501 -0.81822746221E+02 -0.76673173732E+02  0.35997185760E+03  0.37703245966E+03  0.00000000000E+00 0. -1.
         21    1    1    2  506  505  0.55994607763E+02  0.69699816124E+02 -0.11965966743E+04  0.11999321070E+04  0.00000000000E+00 0. -1.
<scales pt_clust_3="87.74025" pt_clust_4="86.09113" pt_clust_5="14000.00000" pt_clust_6="89.50355"></scales>
<clustering>
<clus scale="   86.091">  1  4  2 -1</clus>
<clus scale="   87.740">  1  3  2 -1</clus>
<clus scale="   89.504">  2  6  1 -1</clus>
<clus scale="   86.091">  1  3  2 -1</clus>
</clustering>
</event>
<event>
 6    0  0.8991567E+002  0.7823298E+02  0.7546771E-02  0.1334142E+00
         21   -1    0    0  506  501  0.00000000000E+00  0.00000000000E+00  0.88348148676E+02  0.88348148676E+02  0.00000000000E+00 0. -1.
         21   -1    0    0  505  502 -0.00000000000E+00 -0.00000000000E+00 -0.10527646241E+04  0.10527646241E+04  0.00000000000E+00 0.  1.
         21    1    1    2  503  501  0.96592885531E+02  0.95465038361E+02 -0.22710918124E+03  0.26461734502E+03  0.00000000000E+00 0. -1.
         21    1    1    2  504  502 -0.56818183102E+02 -0.10807384809E+02 -0.66028175057E+03  0.66280999965E+03  0.00000000000E+00 0.  1.
         21    1    1    2  505  503 -0.37786641315E+01 -0.31273857799E+02 -0.12783949411E+03  0.13166346775E+03  0.00000000000E+00 0.  1.
         21    1    1    2  506  504 -0.35996038297E+02 -0.53383795752E+02  0.50813950474E+02  0.82021960382E+02  0.00000000000E+00 0. -1.
<scales pt_clust_3="78.23298" pt_clust_4="14000.00000" pt_clust_5="31.50131" pt_clust_6="64.86043"></scales>
<clustering>
<clus scale="   31.501">  2  5  1 -1</clus>
<clus scale="   64.860">  1  6  2 -1</clus>
<clus scale="   78.233">  1  3  2 -1</clus>
<clus scale="   64.860">  1  3  2 -1</clus>
</clustering>
</event>
<event>
 6    0  0.8991567E+002  0.5264217E+02  0.7546771E-02  0.1431590E+00
         21   -1    0    0  506  501  0.00000000000E+00  0.00000000000E+00  0.32600865292E+03  0.32600865292E+03  0.00000000000E+00 0. -1.
         21   -1    0    0  505  502 -0.00000000000E+00 -0.00000000000E+00 -0.48257904024E+03  0.48257904024E+03  0.00000000000E+00 0. -1.
         21    1    1    2  503  502  0.86845424863E+02 -0.11646275162E+02 -0.22590972143E+02  0.90488206785E+02  0.00000000000E+00 0. -1.
         21    1    1    2  504  501 -0.47909786253E+02  0.54981356229E+02  0.22818169511E+03  0.23955204682E+03  0.00000000000E+00 0. -1.
         21    1    1    2  505  504 -0.50827072629E+02  0.43226999508E+01 -0.40811081455E+03  0.41128641358E+03  0.00000000000E+00 0. -1.
         21    1    1    2  506  503  0.11891434018E+02 -0.47657781018E+02  0.45949704256E+02  0.67261025979E+02  0.00000000000E+00 0. -1.
<scales pt_clust_3="14000.00000" pt_clust_4="39.97511" pt_clust_5="52.64217" pt_clust_6="49.11894"></scales>
<clustering>
<clus scale="   49.119">  1  6  2 -1</clus>
<clus scale="   39.975">  1  4  2 -1</clus>
<clus scale="   52.642">  2  5  1 -1</clus>
<clus scale="   49.119">  1  3  2 -1</clus>
</clustering>
</event>
<event>
 6    0  0.8991567E+002  0.1212515E+03  0.7546771E-02  0.1241047E+00
         21   -1    0    0  504  501  0.00000000000E+00  0.00000000000E+00  0.27589500221E+03  0.27589500221E+03  0.00000000000E+00 0.  1.
         21   -1    0    0  506  502 -0.00000000000E+00 -0.00000000000E+00 -0.12557776955E+04  0.12557776955E+04  0.00000000000E+00 0.  1.
         21    1    1    2  503  502 -0.13974789060E+02 -0.48497751029E+02 -0.11263687307E+04  0.11274989331E+04  0.00000000000E+00 0.  1.
         21    1    1    2  504  503 -0.70746734365E+02  0.95005831273E+02  0.73031197493E+02  0.13915733616E+03  0.00000000000E+00 0.  1.
         21    1    1    2  505  501 -0.35559672632E+02 -0.16073926941E+02  0.12478591192E+03  0.13074549804E+03  0.00000000000E+00 0.  1.
         21    1    1    2  506  505  0.12028119606E+03 -0.30434153303E+02 -0.51331072015E+02  0.13427093046E+03  0.00000000000E+00 0.  1.
<scales pt_clust_3="50.56766" pt_clust_4="121.25149" pt_clust_5="39.02386" pt_clust_6="14000.00000"></scales>
<clustering>
<clus scale="   39.024">  1  5  2 -1</clus>
<clus scale="   50.568">  2  3  1 -1</clus>
<clus scale="  121.251">  1  4  2 -1</clus>
<clus scale="   39.024">  1  3  2 -1</clus>
</clustering>
</event>
<event>
 6    0  0.8991567E+002  0.9940081E+02  0.7546771E-02  0.1281561E+00
         21   -1    0    0  504  501  0.00000000000E+00  0.00000000000E+00  0.10294554349E+03  0.10294554349E+03  0.00000000000E+00 0. -1.
         21   -1    0    0  506  502 -0.00000000000E+00 -0.00000000000E+00 -0.43437500557E+03  0.43437500557E+03  0.00000000000E+00 0. -1.
         21    1    1    2  503  502  0.29878121569E+02 -0.64477489858E+02 -0.73987345584E+02  0.10258740738E+03  0.00000000000E+00 0. -1.
         21    1    1    2  504  505  0.17882379551E+02 -0.41680811067E+02  0.33883025668E+02  0.56613858180E+02  0.00000000000E+00 0. -1.
         21    1    1    2  505  503 -0.11187903153E+02 -0.43116463592E+02  0.44817879312E+01  0.44769242039E+02  0.00000000000E+00 0. -1.
         21    1    1    2  506  501 -0.36572597966E+02  0.14927476452E+03 -0.29580693010E+03  0.33335004145E+03  0.00000000000E+00 0. -1.
<scales pt_clust_3="71.06370" pt_clust_4="39.28356" pt_clust_5="39.28356" pt_clust_6="91.15504"></scales>
<clustering>
<clus scale="   39.284">  4  5 -1 -1</clus>
<clus scale="   71.064">  2  3  1 -1</clus>
<clus scale="   91.155">  2  6  1 -1</clus>
<clus scale="   99.401">  1  3  2 -1</clus>
</clustering>
</event>
<event>
 6    0  0.8991567E+002  0.9938351E+02  0.7546771E-02  0.1281598E+00
         21   -1    0    0  505  501  0.00000000000E+00  0.00000000000E+00  0.52584234943E+03  0.52584234943E+03  0.00000000000E+00 0. -1.
         21   -1    0    0  504  502 -0.00000000000E+00 -0.00000000000E+00 -0.11369956093E+03  0.11369956093E+03  0.00000000000E+00 0. -1.
         21    1    1    2  503  501  0.49346294818E+02 -0.94178825326E+02  0.11573475820E+03  0.15715992558E+03  0.00000000000E+00 0. -1.
         21    1    1    2  504  506 -0.72097214570E+02  0.21532341300E+02 -0.17958286367E+02  0.77357288731E+02  0.00000000000E+00 0. -1.
         21    1    1    2  505  502 -0.86661089049E+02  0.52036941032E+02  0.26425913417E+03  0.28293263788E+03  0.00000000000E+00 0. -1.
         21    1    1    2  506  503  0.10941200880E+03  0.20609542994E+02  0.50107182495E+02  0.12209205818E+03  0.00000000000E+00 0. -1.
<scales pt_clust_3="14000.00000" pt_clust_4="75.24394" pt_clust_5="99.38351" pt_clust_6="77.21981"></scales>
<clustering>
<clus scale="   75.244">  2  4  1 -1</clus>
<clus scale="   77.220">  2  6  1 -1</clus>
<clus scale="   99.384">  1  5  2 -1</clus>
<clus scale="   99.384">  1  3  2 -1</clus>
</clustering>
</event>
<event>
 6    0  0.8991567E+002  0.1313475E+03  0.7546771E-02  0.1225470E+00
         21   -1    0    0  504  501  0.00000000000E+00  0.00000000000E+00  0.80556269951E+02  0.80556269951E+02  0.00000000000E+00 0. -1.
         21   -1    0    0  503  502 -0.00000000000E+00 -0.00000000000E+00 -0.30218581535E+04  0.30218581535E+04  0.00000000000E+00 0.  1.
         21    1    1    2  503  506 -0.49593922513E+01 -0.54598553580E+02 -0.19186997731E+03  0.19954870538E+03  0.00000000000E+00 0.  1.
         21    1    1    2  504  505 -0.18165165463E+03  0.86624737390E+02 -0.46039667536E+03  0.50246021478E+03  0.00000000000E+00 0.  1.
         21    1    1    2  505  502  0.11409896887E+03  0.68508043219E+02 -0.22712898204E+04  0.22751855694E+04  0.00000000000E+00 0.  1.
         21    1    1    2  506  501  0.72512078005E+02 -0.10053422703E+03 -0.17745410457E+02  0.12521993393E+03  0.00000000000E+00 0. -1.
<scales pt_clust_3="54.82333" pt_clust_4="131.34754" pt_clust_5="112.82245" pt_clust_6="14000.00000"></scales>
<clustering>
<clus scale="   54.823">  2  3  1 -1</clus>
<clus scale="  112.822">  2  5  1 -1</clus>
<clus scale="  131.348">  2  4  1 -1</clus>
<clus scale="  131.348">  1  3  2 -1</clus>
</clustering>
</event>
<event>
 6    0  0.8991567E+002  0.6283916E+02  0.7546771E-02  0.1386289E+00
         21   -1    0    0  505  501  0.00000000000E+00  0.00000000000E+00  0.37931663070E+03  0.37931663070E+03  0.00000000000E+00 0.  1.
         21   -1    0    0  506  502 -0.00000000000E+00 -0.00000000000E+00 -0.96601013459E+02  0.96601013459E+02  0.00000000000E+00 0. -1.
         21    1    1    2  503  502 -0.51706930768E+02  0.16493788785E+02 -0.15879039697E+02  0.56549055338E+02  0.00000000000E+00 0. -1.
         21    1    1    2  504  501  0.13416202602E+02  0.52152211304E+02  0.17532759566E+03  0.18341105047E+03  0.00000000000E+00 0.  1.
         21    1    1    2  505  503 -0.37493934293E+02 -0.59633057853E+02  0.14099057654E+03  0.15760786582E+03  0.00000000000E+00 0. -1.
         21    1    1    2  506  504  0.75784662459E+02 -0.90129422358E+01 -0.17723515255E+02  0.78349672525E+02  0.00000000000E+00 0. -1.
<scales pt_clust_3="14000.00000" pt_clust_4="53.85023" pt_clust_5="34.39581" pt_clust_6="62.83916"></scales>
<clustering>
<clus scale="   53.850">  1  4  2 -1</clus>
<clus scale="   34.396">  1  5  2 -1</clus>
<clus scale="   62.839">  1  6  2 -1</clus>
<clus scale="   53.850">  1  3  2 -1</clus>
</clustering>
</event>
<event>
 6    0  0.8991567E+002  0.1117561E+03  0.7546771E-02  0.1257352E+00
         21   -1    0    0  506  501  0.00000000000E+00  0.00000000000E+00  0.88065748227E+03  0.88065748227E+03  0.00000000000E+00 0.  1.
         21   -1    0    0  505  502 -0.00000000000E+00 -0.00000000000E+00 -0.39705279138E+03  0.39705279138E+03  0.00000000000E+00 0.  1.
         21    1    1    2  503  502  0.41975805705E+02 -0.46376274731E+01 -0.55360515153E+02  0.69629465681E+02  0.00000000000E+00 0.  1.
         21    1    1    2  504  501 -0.48392452660E+02  0.14266247343E+03  0.66187975826E+03  0.67880720768E+03  0.00000000000E+00 0.  1.
         21    1    1    2  505  504  0.40256428669E+02 -0.72462357468E+02 -0.31383238224E+03  0.32459534414E+03  0.00000000000E+00 0.  1.
         21    1    1    2  506  503 -0.33839781713E+02 -0.65562488494E+02  0.19091783001E+03  0.20467825615E+03  0.00000000000E+00 0.  1.
<scales pt_clust_3="42.23122" pt_clust_4="14000.00000" pt_clust_5="111.75615" pt_clust_6="73.47385"></scales>
<clustering>
<clus scale="   42.231">  2  3  1 -1</clus>
<clus scale="   73.474">  1  6  2 -1</clus>
<clus scale="  111.756">  2  5  1 -1</clus>
<clus scale="   73.474">  1  3  2 -1</clus>
</clustering>
</event>
<event>
 6    0  0.8991567E+002  0.1979000E+03  0.7546771E-02  0.1151523E+00
         21   -1    0    0  506  501  0.00000000000E+00  0.00000000000E+00  0.10697363172E+04  0.10697363172E+04  0.00000000000E+00 0. -1.
         21   -1    0    0  505  502 -0.00000000000E+00 -0.00000000000E+00 -0.11686167407E+03  0.11686167407E+03  0.00000000000E+00 0.  1.
         21    1    1    2  503  501 -0.53062401329E+01  0.14958448740E+03  0.21930377659E+03  0.26551425853E+03  0.00000000000E+00 0. -1.
         21    1    1    2  504  503 -0.86812857183E+01 -0.40669270754E+02  0.12936817515E+02  0.43551297946E+02  0.00000000000E+00 0. -1.
         21    1    1    2  505  504  0.92751202080E+02 -0.15405808668E+03  0.31643791342E+02  0.18258699047E+03  0.00000000000E+00 0.  1.
         21    1    1    2  506  502 -0.78763676229E+02  0.45142870037E+02  0.68899025767E+03  0.69494544432E+03  0.00000000000E+00 0. -1.
<scales pt_clust_3="187.08240" pt_clust_4="31.03372" pt_clust_5="31.03372" pt_clust_6="90.78323"></scales>
<clustering>
<clus scale="   31.034">  4  5 -1 -1</clus>
<clus scale="   90.783">  1  6  2 -1</clus>
<clus scale="  187.082">  1  3  2 -1</clus>
<clus scale="   90.783">  1  3  2 -1</clus>
</clustering>
</event>
<event>
 6    0  0.8991567E+002  0.6806660E+02  0.7546771E-02  0.1366794E+00
         21   -1    0    0  506  501  0.00000000000E+00  0.00000000000E+00  0.30003690610E+03  0.30003690610E+03  0.00000000000E+00 0. -1.
         21   -1    0    0  503  502 -0.00000000000E+00 -0.00000000000E+00 -0.22806367294E+03  0.22806367294E+03  0.00000000000E+00 0. -1.
         21    1    1    2  503  501  0.98000763187E+01  0.49852312170E+02 -0.97084433381E+02  0.10957500504E+03  0.00000000000E+00 0. -1.
         21    1    1    2  504  502  0.54777293571E+02 -0.32311707658E+02 -0.93319796557E+02  0.11292999058E+03  0.00000000000E+00 0. -1.
         21    1    1    2  505  504 -0.97104584529E+02 -0.40766376724E+02  0.12994302284E+03  0.16726143307E+03  0.00000000000E+00 0. -1.
         21    1    1    2  506  505  0.32527214640E+02  0.23225772213E+02  0.13243444026E+03  0.13833415035E+03  0.00000000000E+00 0. -1.
<scales pt_clust_3="51.91926" pt_clust_4="14000.00000" pt_clust_5="68.06660" pt_clust_6="39.96819"></scales>
<clustering>
<clus scale="   39.968">  1  6  2 -1</clus>
<clus scale="   51.919">  2  3  1 -1</clus>
<clus scale="   68.067">  1  5  2 -1</clus>
<clus scale="   39.968">  1  3  2 -1</clus>
</clustering>
</event>
<event>
 6    0  0.8991567E+002  0.1256848E+03  0.7546771E-02  0.1234003E+00
         21   -1    0    0  505  501  0.00000000000E+00  0.00000000000E+00  0.73224216062E+03  0.73224216062E+03  0.00000000000E+00 0. -1.
         21   -1    0    0  504  502 -0.00000000000E+00 -0.00000000000E+00 -0.24403782886E+03  0.24403782886E+03  0.00000000000E+00 0.  1.
         21    1    1    2  503  501 -0.48042480927E+02 -0.16885270791E+03  0.25749198009E+03  0.31164312402E+03  0.00000000000E+00 0. -1.
         21    1    1    2  504  503  0.49235063521E+02  0.13284656647E+02 -0.18974163649E+03  0.19647509308E+03  0.00000000000E+00 0.  1.
         21    1    1    2  505  506 -0.48323781158E+02  0.74316329758E+02  0.31361374359E+03  0.32590134222E+03  0.00000000000E+00 0. -1.
         21    1    1    2  506  502  0.47131198564E+02  0.81251721501E+02  0.10684024457E+03  0.14226043015E+03  0.00000000000E+00 0. -1.
<scales pt_clust_3="125.68478" pt_clust_4="50.99582" pt_clust_5="86.94893" pt_clust_6="14000.00000"></scales>
<clustering>
<clus scale="   50.996">  2  4  1 -1</clus>
<clus scale="   86.949">  1  5  2 -1</clus>
<clus scale="  125.685">  1  3  2 -1</clus>
<clus scale="   86.949">  1  3  2 -1</clus>
</clustering>
</event>
<event>
 6    0  0.8991567E+002  0.1487633E+03  0.7546771E-02  0.1202001E+00
         21   -1    0    0  506  501  0.00000000000E+00  0.00000000000E+00  0.68536460291E+03  0.68536460291E+03  0.00000000000E+00 0. -1.
         21   -1    0    0  504  502 -0.00000000000E+00 -0.00000000000E+00 -0.33737867831E+03  0.33737867831E+03  0.00000000000E+00 0. -1.
         21    1    1    2  503  505 -0.15301187178E+02  0.84386384335E+02  0.25240400415E+03  0.26657638587E+03  0.00000000000E+00 0.  1.
         21    1    1    2  504  501  0.29308109235E+02 -0.20027367330E+02 -0.28434639485E+03  0.28655354295E+03  0.00000000000E+00 0. -1.
         21    1    1    2  505  502  0.18927403390E+02 -0.11591391386E+03  0.39773240035E+02  0.12400077681E+03  0.00000000000E+00 0. -1.
         21    1    1    2  506  503 -0.32934325447E+02  0.51554896856E+02  0.34015507527E+03  0.34561257560E+03  0.00000000000E+00 0. -1.
<scales pt_clust_3="45.28178" pt_clust_4="35.49733" pt_clust_5="138.88177" pt_clust_6="45.28178"></scales>
<clustering>
<clus scale="   35.497">  2  4  1 -1</clus>
<clus scale="   45.282">  3  6 -1 -1</clus>
<clus scale="  138.882">  2  5  1 -1</clus>
<clus scale="  148.763">  1  3  2 -1</clus>
</clustering>
</event>
<event>
 6    0  0.8991567E+002  0.8186380E+02  0.7546771E-02  0.1323844E+00
         21   -1    0    0  504  501  0.00000000000E+00  0.00000000000E+00  0.51365462654E+02  0.51365462654E+02  0.00000000000E+00 0.  1.
         21   -1    0    0  503  502 -0.00000000000E+00 -0.00000000000E+00 -0.10421482035E+04  0.10421482035E+04  0.00000000000E+00 0.  1.
         21    1    1    2  503  506  0.53552506257E+02  0.14616480491E+02 -0.40614351597E+03  0.40991958723E+03  0.00000000000E+00 0.  1.
         21    1    1    2  504  505  0.81901808972E+02 -0.41488501155E+02 -0.11508919458E+03  0.14722338384E+03  0.00000000000E+00 0.  1.
         21    1    1    2  505  502 -0.11885711231E+03 -0.22812156597E+02 -0.46860253165E+03  0.48397907011E+03  0.00000000000E+00 0.  1.
         21    1    1    2  506  501 -0.16597202923E+02  0.49684177261E+02 -0.94749865835E+00  0.52391624986E+02  0.00000000000E+00 0.  1.
<scales pt_clust_3="55.42961" pt_clust_4="81.86380" pt_clust_5="14000.00000" pt_clust_6="52.38306"></scales>
<clustering>
<clus scale="   52.383">  1  6  2 -1</clus>
<clus scale="   55.430">  2  3  1 -1</clus>
<clus scale="   81.864">  1  4  2 -1</clus>
<clus scale="   52.383">  1  3  2 -1</clus>
</clustering>
</event>
<event>
 6    0  0.8991567E+002  0.6167568E+02  0.7546771E-02  0.1390931E+00
         21   -1    0    0  506  501  0.00000000000E+00  0.00000000000E+00  0.30424854756E+03  0.30424854756E+03  0.00000000000E+00 0. -1.
         21   -1    0    0  504  502 -0.00000000000E+00 -0.00000000000E+00 -0.54539336158E+03  0.54539336158E+03  0.00000000000E+00 0. -1.
         21    1    1    2  503  505  0.46220457415E+02 -0.42497688850E+02 -0.41111266853E+03  0.41587980290E+03  0.00000000000E+00 0. -1.
         21    1    1    2  504  503  0.14099929229E+02  0.51768443448E+02 -0.10546416491E+03  0.11832780663E+03  0.00000000000E+00 0. -1.
         21    1    1    2  505  501  0.25327094442E+02 -0.40381193152E+02  0.16765154796E+03  0.17429613882E+03  0.00000000000E+00 0. -1.
         21    1    1    2  506  502 -0.85647481086E+02  0.31110438554E+02  0.10778047145E+03  0.14113816078E+03  0.00000000000E+00 0. -1.
<scales pt_clust_3="14000.00000" pt_clust_4="52.12262" pt_clust_5="47.66658" pt_clust_6="61.67568"></scales>
<clustering>
<clus scale="   47.667">  1  5  2 -1</clus>
<clus scale="   52.123">  2  4  1 -1</clus>
<clus scale="   61.676">  1  6  2 -1</clus>
<clus scale="   47.667">  1  3  2 -1</clus>
</clustering>
</event>
<event>
 6    0  0.8991567E+002  0.8315294E+02  0.7546771E-02  0.1320335E+00
         21   -1    0    0  505  501  0.00000000000E+00  0.00000000000E+00  0.23069476752E+03  0.23069476752E+03  0.00000000000E+00 0. -1.
         21   -1    0    0  506  502 -0.00000000000E+00 -0.00000000000E+00 -0.14689080444E+04  0.14689080444E+04  0.00000000000E+00 0. -1.
         21    1    1    2  503  501  0.78423448413E+02 -0.26162728181E+02  0.20685986090E+03  0.22276832733E+03  0.00000000000E+00 0. -1.
         21    1    1    2  504  502  0.34523784873E+02 -0.98894156572E+01 -0.17933147157E+03  0.18289195980E+03  0.00000000000E+00 0. -1.
         21    1    1    2  505  504 -0.76949262209E+02  0.67982361875E+02 -0.18070247601E+03  0.20783689594E+03  0.00000000000E+00 0.  1.
         21    1    1    2  506  503 -0.35997971077E+02 -0.31930218037E+02 -0.10850391902E+04  0.10861056289E+04  0.00000000000E+00 0. -1.
<scales pt_clust_3="14000.00000" pt_clust_4="35.91229" pt_clust_5="83.15294" pt_clust_6="40.85283"></scales>
<clustering>
<clus scale="   35.912">  2  4  1 -1</clus>
<clus scale="   40.853">  2  6  1 -1</clus>
<clus scale="   83.153">  2  5  1 -1</clus>
<clus scale="   83.153">  1  3  2 -1</clus>
</clustering>
</event>
<event>
 6    0  0.8991567E+002  0.1499097E+03  0.7546771E-02  0.1200584E+00
         21   -1    0    0  502  501  0.00000000000E+00  0.00000000000E+00  0.19061788093E+04  0.19061788093E+04  0.00000000000E+00 0. -1.
         21   -1    0    0  505  502 -0.00000000000E+00 -0.00000000000E+00 -0.89343241268E+02  0.89343241268E+02  0.00000000000E+00 0.  1.
         21    1    1    2  503  506  0.11827543656E+03  0.82993010671E+02  0.69774395424E+03  0.71254722256E+03  0.00000000000E+00 0. -1.
         21    1    1    2  504  501  0.22465066905E+02 -0.28226430563E+02  0.92741899626E+03  0.92812036139E+03  0.00000000000E+00 0. -1.
         21    1    1    2  505  503 -0.15291586469E+03 -0.21008314476E+01 -0.28542330693E+01  0.15295692797E+03  0.00000000000E+00 0.  1.
         21    1    1    2  506  504  0.12175361230E+02 -0.52665748660E+02  0.19452685062E+03  0.20189753866E+03  0.00000000000E+00 0. -1.
<scales pt_clust_3="14000.00000" pt_clust_4="36.07507" pt_clust_5="149.90970" pt_clust_6="60.73278"></scales>
<clustering>
<clus scale="   36.075">  1  4  2 -1</clus>
<clus scale="   60.733">  1  6  2 -1</clus>
<clus scale="  149.910">  2  5  1 -1</clus>
<clus scale="   36.075">  1  3  2 -1</clus>
</clustering>
</event>
<event>
 6    0  0.8991567E+002  0.7931402E+02  0.7546771E-02  0.1331009E+00
         21   -1    0    0  502  501  0.00000000000E+00  0.00000000000E+00  0.10477520124E+04  0.10477520124E+04  0.00000000000E+00 0.  1.
         21   -1    0    0  503  502 -0.00000000000E+00 -0.00000000000E+00 -0.26543901370E+02  0.26543901370E+02  0.00000000000E+00 0.  1.
         21    1    1    2  503  506  0.25445888243E+02  0.34407118919E+02  0.17558946304E+02  0.46256455290E+02  0.00000000000E+00 0.  1.
         21    1    1    2  504  505  0.18867196353E+02 -0.72829619212E+02  0.38626833619E+03  0.39352681239E+03  0.00000000000E+00 0.  1.
         21    1    1    2  505  501  0.40299933901E+02 -0.42610061799E+01  0.31586663874E+03  0.31845560808E+03  0.00000000000E+00 0.  1.
         21    1    1    2  506  504 -0.84613018497E+02  0.42683506473E+02  0.30151418977E+03  0.31605703798E+03  0.00000000000E+00 0. -1.
<scales pt_clust_3="43.71775" pt_clust_4="79.31402" pt_clust_5="40.52457" pt_clust_6="14000.00000"></scales>
<clustering>
<clus scale="   40.525">  1  5  2 -1</clus>
<clus scale="   43.718">  2  3  1 -1</clus>
<clus scale="   79.314">  1  4  2 -1</clus>
<clus scale="   40.525">  1  3  2 -1</clus>
</clustering>
</event>
<event>
 6    0  0.8991567E+002  0.9657188E+02  0.7546771E-02  0.1287675E+00
         21   -1    0    0  503  501  0.00000000000E+00  0.00000000000E+00  0.72173198758E+03  0.72173198758E+03  0.00000000000E+00 0. -1.
         21   -1    0    0  505  502 -0.00000000000E+00 -0.00000000000E+00 -0.97660179226E+02  0.97660179226E+02  0.00000000000E+00 0. -1.
         21    1    1    2  503  502 -0.38272217664E+02  0.42566553690E-01  0.23832440465E+02  0.45086025278E+02  0.00000000000E+00 0. -1.
         21    1    1    2  504  501 -0.35004844712E+02 -0.66050583362E+02  0.54229512510E+03  0.54742307352E+03  0.00000000000E+00 0. -1.
         21    1    1    2  505  506 -0.25186560202E+02  0.10112071448E+03 -0.59257561518E+01  0.10437852412E+03  0.00000000000E+00 0. -1.
         21    1    1    2  506  504  0.98463622578E+02 -0.35112697669E+02  0.63869998942E+02  0.12250454389E+03  0.00000000000E+00 0. -1.
<scales pt_clust_3="38.27224" pt_clust_4="75.28651" pt_clust_5="14000.00000" pt_clust_6="96.57188"></scales>
<clustering>
<clus scale="   38.272">  2  3  1 -1</clus>
<clus scale="   75.287">  1  4  2 -1</clus>
<clus scale="   96.572">  1  6  2 -1</clus>
<clus scale="   75.287">  1  3  2 -1</clus>
</clustering>
</event>
<event>
 6    0  0.8991567E+002  0.3150383E+03  0.7546771E-02  0.1077956E+00
         21   -1    0    0  502  501  0.00000000000E+00  0.00000000000E+00  0.56539751166E+03  0.56539751166E+03  0.00000000000E+00 0. -1.
         21   -1    0    0  503  502 -0.00000000000E+00 -0.00000000000E+00 -0.88392706746E+03  0.88392706746E+03  0.00000000000E+00 0.  1.
         21    1    1    2  503  505 -0.55040621874E+02 -0.29704158297E+02 -0.39472912051E+03  0.39965345695E+03  0.00000000000E+00 0. -1.
         21    1    1    2  504  501  0.24514806986E+03 -0.11645966766E+03  0.40643329421E+03  0.48872124262E+03  0.00000000000E+00 0. -1.
         21    1    1    2  505  506 -0.19808549017E+03  0.19184848902E+03 -0.39472843593E+03  0.48151245289E+03  0.00000000000E+00 0.  1.
         21    1    1    2  506  504  0.79780421840E+01 -0.45684663062E+02  0.64494706424E+02  0.79437426651E+02  0.00000000000E+00 0.  1.
<scales pt_clust_3="62.54444" pt_clust_4="42.69423" pt_clust_5="297.62669" pt_clust_6="42.69423"></scales>
<clustering>
<clus scale="   42.694">  4  6 -1 -1</clus>
<clus scale="   62.544">  2  3  1 -1</clus>
<clus scale="  297.627">  2  5  1 -1</clus>
<clus scale="  315.038">  1  3  2 -1</clus>
</clustering>
</event>
<event>
 6    0  0.8991567E+002  0.7494832E+02  0.7546771E-02  0.1344031E+00
         21   -1    0    0  505  501  0.00000000000E+00  0.00000000000E+00  0.14200965384E+04  0.14200965384E+04  0.00000000000E+00 0. -1.
         21   -1    0    0  506  502 -0.00000000000E+00 -0.00000000000E+00 -0.37904075375E+02  0.37904075375E+02  0.00000000000E+00 0. -1.
         21    1    1    2  503  502 -0.30840653809E+02 -0.44844080701E+02  0.43530350768E+02  0.69692387958E+02  0.00000000000E+00 0. -1.
         21    1    1    2  504  503  0.41411231740E+02 -0.87871580905E+02  0.68054990089E+03  0.68744779616E+03  0.00000000000E+00 0. -1.
         21    1    1    2  505  504  0.36875612285E+01  0.37128922086E+02  0.56639675690E+03  0.56762438389E+03  0.00000000000E+00 0. -1.
         21    1    1    2  506  501 -0.14258139159E+02  0.95586739520E+02  0.91715454489E+02  0.13323604579E+03  0.00000000000E+00 0. -1.
<scales pt_clust_3="52.27037" pt_clust_4="14000.00000" pt_clust_5="37.31159" pt_clust_6="74.94832"></scales>
<clustering>
<clus scale="   37.312">  1  5  2 -1</clus>
<clus scale="   52.270">  2  3  1 -1</clus>
<clus scale="   74.948">  2  6  1 -1</clus>
<clus scale="   37.312">  1  3  2 -1</clus>
</clustering>
</event>
<event>
 6    0  0.8991567E+002  0.1175711E+03  0.7546771E-02  0.1247159E+00
         21   -1    0    0  505  501  0.00000000000E+00  0.00000000000E+00  0.83119802307E+03  0.83119802307E+03  0.00000000000E+00 0.  1.
         21   -1    0    0  506  502 -0.00000000000E+00 -0.00000000000E+00 -0.31845950408E+03  0.31845950408E+03  0.00000000000E+00 0. -1.
         21    1    1    2  503  501 -0.62484277783E+02 -0.58681683164E+02  0.74438135337E+03  0.74930062336E+03  0.00000000000E+00 0.  1.
         21    1    1    2  504  503  0.94849237127E+01  0.16333314285E+03 -0.12128604859E+03  0.20366144680E+03  0.00000000000E+00 0. -1.
         21    1    1    2  505  502 -0.21628111907E+02 -0.35258827393E+02  0.62519957296E+01  0.41833570065E+02  0.00000000000E+00 0.  1.
         21    1    1    2  506  504  0.74627465977E+02 -0.69392632294E+02 -0.11660878152E+03  0.15486188692E+03  0.00000000000E+00 0.  1.
<scales pt_clust_3="86.04593" pt_clust_4="14000.00000" pt_clust_5="41.36375" pt_clust_6="117.57106"></scales>
<clustering>
<clus scale="   41.364">  2  5  1 -1</clus>
<clus scale="   86.046">  1  3  2 -1</clus>
<clus scale="  117.571">  2  6  1 -1</clus>
<clus scale="   86.046">  1  3  2 -1</clus>
</clustering>
</event>
<event>
 6    0  0.8991567E+002  0.1031666E+03  0.7546771E-02  0.1273774E+00
         21   -1    0    0  505  501  0.00000000000E+00  0.00000000000E+00  0.24515853032E+03  0.24515853032E+03  0.00000000000E+00 0. -1.
         21   -1    0    0  503  502 -0.00000000000E+00 -0.00000000000E+00 -0.33072044322E+03  0.33072044322E+03  0.00000000000E+00 0.  1.
         21    1    1    2  503  501 -0.22608531347E+02 -0.22647896958E+02 -0.50873403192E+02  0.60101381670E+02  0.00000000000E+00 0.  1.
         21    1    1    2  504  506 -0.69134025838E+02 -0.52791714668E+02  0.12698343981E+03  0.15391969547E+03  0.00000000000E+00 0. -1.
         21    1    1    2  505  504  0.70230324450E+01 -0.29604959074E+02  0.79706336159E+02  0.85316332612E+02  0.00000000000E+00 0. -1.
         21    1    1    2  506  502  0.84719524739E+02  0.10504457070E+03 -0.24137828568E+03  0.27654156379E+03  0.00000000000E+00 0.  1.
<scales pt_clust_3="32.46306" pt_clust_4="103.16665" pt_clust_5="30.42658" pt_clust_6="14000.00000"></scales>
<clustering>
<clus scale="   30.427">  1  5  2 -1</clus>
<clus scale="   32.463">  2  3  1 -1</clus>
<clus scale="  103.167">  1  4  2 -1</clus>
<clus scale="   30.427">  1  3  2 -1</clus>
</clustering>
</event>
<event>
 6    0  0.8991567E+002  0.1168293E+03  0.7546771E-02  0.1248421E+00
         21   -1    0    0  503  501  0.00000000000E+00  0.00000000000E+00  0.11805212787E+04  0.11805212787E+04  0.00000000000E+00 0. -1.
         21   -1    0    0  506  502 -0.00000000000E+00 -0.00000000000E+00 -0.37805650176E+03  0.37805650176E+03  0.00000000000E+00 0. -1.
         21    1    1    2  503  505  0.21408003758E+02  0.48997669593E+02  0.11120510650E+04  0.11133358188E+04  0.00000000000E+00 0. -1.
         21    1    1    2  504  501 -0.11467545922E+02  0.89396634060E+02  0.86379538132E+01  0.90542128519E+02  0.00000000000E+00 0.  1.
         21    1    1    2  505  502 -0.34722934624E+02 -0.99598658593E+02 -0.25924441477E+03  0.27988076313E+03  0.00000000000E+00 0. -1.
         21    1    1    2  506  504  0.24782476788E+02 -0.38795645060E+02 -0.58979827105E+02  0.74819070007E+02  0.00000000000E+00 0. -1.
<scales pt_clust_3="53.41746" pt_clust_4="14000.00000" pt_clust_5="116.82928" pt_clust_6="46.03556"></scales>
<clustering>
<clus scale="   46.036">  2  6  1 -1</clus>
<clus scale="   53.417">  1  3  2 -1</clus>
<clus scale="  116.829">  2  5  1 -1</clus>
<clus scale="   53.417">  1  3  2 -1</clus>
</clustering>
</event>
<event>
 6    0  0.8991567E+002  0.8922649E+02  0.7546771E-02  0.1304736E+00
         21   -1    0    0  503  501  0.00000000000E+00  0.00000000000E+00  0.24618972368E+04  0.24618972368E+04  0.00000000000E+00 0.  1.
         21   -1    0    0  506  502 -0.00000000000E+00 -0.00000000000E+00 -0.80134121520E+03  0.80134121520E+03  0.00000000000E+00 0. -1.
         21    1    1    2  503  502 -0.27336700340E+02 -0.13705126662E+02 -0.62841490425E+03  0.62915849956E+03  0.00000000000E+00 0. -1.
         21    1    1    2  504  505  0.12686277780E+03  0.32602185935E+02  0.97131776708E+02  0.16306946055E+03  0.00000000000E+00 0.  1.
         21    1    1    2  505  501 -0.53247880874E+02 -0.71151203792E+02  0.23217951387E+04  0.23234953188E+04  0.00000000000E+00 0.  1.
         21    1    1    2  506  504 -0.46278196584E+02  0.52254144519E+02 -0.12995598948E+03  0.14751517312E+03  0.00000000000E+00 0. -1.
<scales pt_clust_3="30.57982" pt_clust_4="89.22649" pt_clust_5="14000.00000" pt_clust_6="79.74569"></scales>
<clustering>
<clus scale="   30.580">  2  3  1 -1</clus>
<clus scale="   79.746">  2  6  1 -1</clus>
<clus scale="   89.226">  2  4  1 -1</clus>
<clus scale="   89.226">  1  3  2 -1</clus>
</clustering>
</event>
<event>
 6    0  0.8991567E+002  0.2050861E+03  0.7546771E-02  0.1145517E+00
         21   -1    0    0  506  501  0.00000000000E+00  0.00000000000E+00  0.62843156041E+03  0.62843156041E+03  0.00000000000E+00 0. -1.
         21   -1    0    0  505  502 -0.00000000000E+00 -0.00000000000E+00 -0.14217736146E+03  0.14217736146E+03  0.00000000000E+00 0. -1.
         21    1    1    2  503  502  0.15785741990E+03 -0.14160562041E+03  0.60167780918E+02  0.22043429545E+03  0.00000000000E+00 0. -1.
         21    1    1    2  504  503 -0.14772510154E+03  0.12988231924E+03  0.11131256923E+03  0.22601462463E+03  0.00000000000E+00 0. -1.
         21    1    1    2  505  501 -0.41139939737E+02  0.19412322670E+02  0.18662859579E+03  0.19209259663E+03  0.00000000000E+00 0. -1.
         21    1    1    2  506  504  0.31007621381E+02 -0.76890215041E+01  0.12814525302E+03  0.13206740516E+03  0.00000000000E+00 0. -1.
<scales pt_clust_3="205.08609" pt_clust_4="14000.00000" pt_clust_5="33.67172" pt_clust_6="31.94673"></scales>
<clustering>
<clus scale="   31.947">  1  6  2 -1</clus>
<clus scale="   33.672">  1  5  2 -1</clus>
<clus scale="  205.086">  2  3  1 -1</clus>
<clus scale="   31.947">  1  3  2 -1</clus>
</clustering>
</event>
<event>
 6    0  0.8991567E+002  0.1564689E+03  0.7546771E-02  0.1192742E+00
         21   -1    0    0  506  501  0.00000000000E+00  0.00000000000E+00  0.10166079827E+04  0.10166079827E+04  0.00000000000E+00 0. -1.
         21   -1    0    0  505  502 -0.00000000000E+00 -0.00000000000E+00 -0.37281205101E+02  0.37281205101E+02  0.00000000000E+00 0. -1.
         21    1    1    2  503  502 -0.58289224771E+02  0.56258687167E+02  0.77311532405E+02  0.11198101022E+03  0.00000000000E+00 0. -1.
         21    1    1    2  504  501  0.10437555160E+03 -0.98454255689E+02  0.67517267523E+03  0.69025041660E+03  0.00000000000E+00 0. -1.
         21    1    1    2  505  504 -0.11698759338E+02 -0.28199894330E+02  0.68350826915E+02  0.74859405222E+02  0.00000000000E+00 0. -1.
         21    1    1    2  506  503 -0.34387567494E+02  0.70395462851E+02  0.15849174310E+03  0.17679835581E+03  0.00000000000E+00 0. -1.
<scales pt_clust_3="54.90576" pt_clust_4="146.02205" pt_clust_5="30.53023" pt_clust_6="54.90576"></scales>
<clustering>
<clus scale="   30.530">  2  5  1 -1</clus>
<clus scale="   54.906">  3  6 -1 -1</clus>
<clus scale="  146.022">  1  4  2 -1</clus>
<clus scale="  146.022">  1  3  2 -1</clus>
</clustering>
</event>
<event>
 6    0  0.8991567E+002  0.1007945E+03  0.7546771E-02  0.1278634E+00
         21   -1    0    0  504  501  0.00000000000E+00  0.00000000000E+00  0.87451343766E+02  0.87451343766E+02  0.00000000000E+00 0. -1.
         21   -1    0    0  505  502 -0.00000000000E+00 -0.00000000000E+00 -0.11496287801E+04  0.11496287801E+04  0.00000000000E+00 0. -1.
         21    1    1    2  503  506  0.19192720721E+02 -0.86228112950E+02 -0.13898619110E+02  0.89424938382E+02  0.00000000000E+00 0. -1.
         21    1    1    2  504  503 -0.19653998960E+02 -0.47737424413E+02  0.26715839103E+02  0.58128112163E+02  0.00000000000E+00 0. -1.
         21    1    1    2  505  501  0.30075425879E+01  0.32267373727E+02 -0.50564992377E+02  0.60058697736E+02  0.00000000000E+00 0. -1.
         21    1    1    2  506  502 -0.25462643481E+01  0.10169816364E+03 -0.10244296639E+04  0.10294683756E+04  0.00000000000E+00 0. -1.
<scales pt_clust_3="100.79449" pt_clust_4="36.06398" pt_clust_5="32.40723" pt_clust_6="14000.00000"></scales>
<clustering>
<clus scale="   32.407">  1  5  2 -1</clus>
<clus scale="   36.064">  1  4  2 -1</clus>
<clus scale="  100.794">  1  3  2 -1</clus>
<clus scale="   32.407">  1  3  2 -1</clus>
</clustering>
</event>
<event>
 6    0  0.8991567E+002  0.1628721E+03  0.7546771E-02  0.1185492E+00
         21   -1    0    0  503  501  0.00000000000E+00  0.00000000000E+00  0.11606494255E+04  0.11606494255E+04  0.00000000000E+00 0. -1.
         21   -1    0    0  501  502 -0.00000000000E+00 -0.00000000000E+00 -0.36787881182E+03  0.36787881182E+03  0.00000000000E+00 0.  1.
         21    1    1    2  503  505  0.26787639450E+02  0.26083284069E+02  0.10290047676E+04  0.10296837996E+04  0.00000000000E+00 0. -1.
         21    1    1    2  504  506  0.43414970443E+02  0.70100491119E+02  0.18722667252E+02  0.84554578721E+02  0.00000000000E+00 0.  1.
         21    1    1    2  505  504 -0.13766430090E+02  0.44412554812E+02  0.53351149907E+02  0.70769589647E+02  0.00000000000E+00 0.  1.
         21    1    1    2  506  502 -0.56436179803E+02 -0.14059633000E+03 -0.30830797112E+03  0.34352026935E+03  0.00000000000E+00 0.  1.
<scales pt_clust_3="37.38871" pt_clust_4="53.81234" pt_clust_5="53.81234" pt_clust_6="146.93074"></scales>
<clustering>
<clus scale="   37.389">  1  3  2 -1</clus>
<clus scale="   53.812">  4  5 -1 -1</clus>
<clus scale="  146.931">  2  6  1 -1</clus>
<clus scale="   37.389">  1  3  2 -1</clus>
</clustering>
</event>
<event>
 6    0  0.8991567E+002  0.9087591E+02  0.7546771E-02  0.1300744E+00
         21   -1    0    0  506  501  0.00000000000E+00  0.00000000000E+00  0.64672574114E+03  0.64672574114E+03  0.00000000000E+00 0. -1.
         21   -1    0    0  504  502 -0.00000000000E+00 -0.00000000000E+00 -0.29942476930E+03  0.29942476930E+03  0.00000000000E+00 0. -1.
         21    1    1    2  503  505 -0.34674172844E+02 -0.83929256719E+01  0.11912547347E+02  0.37611809954E+02  0.00000000000E+00 0. -1.
         21    1    1    2  504  501  0.89986450015E+02  0.28254824906E+02  0.23997696977E+03  0.25784654805E+03  0.00000000000E+00 0. -1.
         21    1    1    2  505  502 -0.78327971948E+02 -0.46012949947E+02 -0.26935730676E+03  0.28426364780E+03  0.00000000000E+00 0. -1.
         21    1    1    2  506  503  0.23015694776E+02  0.26151050713E+02  0.36476876148E+03  0.36642850464E+03  0.00000000000E+00 0. -1.
<scales pt_clust_3="33.20998" pt_clust_4="90.87591" pt_clust_5="14000.00000" pt_clust_6="34.83676"></scales>
<clustering>
<clus scale="   34.837">  1  6  2 -1</clus>
<clus scale="   33.210">  1  3  2 -1</clus>
<clus scale="   90.876">  1  4  2 -1</clus>
<clus scale="   34.837">  1  3  2 -1</clus>
</clustering>
</event>
<event>
 6    0  0.8991567E+002  0.1215256E+03  0.7546771E-02  0.1240601E+00
         21   -1    0    0  504  501  0.00000000000E+00  0.00000000000E+00  0.36780145281E+02  0.36780145281E+02  0.00000000000E+00 0.  1.
         21   -1    0    0  506  502 -0.00000000000E+00 -0.00000000000E+00 -0.77528481478E+03  0.77528481478E+03  0.00000000000E+00 0.  1.
         21    1    1    2  503  501 -0.51435093052E+01  0.82380477545E+02 -0.21721767377E+03  0.23237150549E+03  0.00000000000E+00 0.  1.
         21    1    1    2  504  505 -0.29827003788E+02 -0.10110628784E+03 -0.10870813278E+03  0.15142519515E+03  0.00000000000E+00 0.  1.
         21    1    1    2  505  502  0.21550312618E+02 -0.26480920131E+02 -0.39454455746E+02  0.52175752828E+02  0.00000000000E+00 0.  1.
         21    1    1    2  506  503  0.13420200475E+02  0.45206730423E+02 -0.37312440721E+03  0.37609250659E+03  0.00000000000E+00 0.  1.
<scales pt_clust_3="107.76957" pt_clust_4="31.96225" pt_clust_5="31.96225" pt_clust_6="47.15666"></scales>
<clustering>
<clus scale="   31.962">  4  5 -1 -1</clus>
<clus scale="   47.157">  2  6  1 -1</clus>
<clus scale="  107.770">  2  3  1 -1</clus>
<clus scale="  121.526">  1  3  2 -1</clus>
</clustering>
</event>
<event>
 6    0  0.8991567E+002  0.7727658E+02  0.7546771E-02  0.1336963E+00
         21   -1    0    0  503  501  0.00000000000E+00  0.00000000000E+00  0.43553896451E+03  0.43553896451E+03  0.00000000000E+00 0. -1.
         21   -1    0    0  504  502 -0.00000000000E+00 -0.00000000000E+00 -0.14205884044E+04  0.14205884044E+04  0.00000000000E+00 0. -1.
         21    1    1    2  503  506 -0.10332685879E+03  0.27736054073E+02  0.26189989036E+03  0.28290860894E+03  0.00000000000E+00 0. -1.
         21    1    1    2  504  505  0.49691887201E+02  0.25261961027E+02 -0.13018071627E+04  0.13030001301E+04  0.00000000000E+00 0. -1.
         21    1    1    2  505  501  0.57162038917E+02 -0.21235535452E+02  0.15422298364E+03  0.16584081326E+03  0.00000000000E+00 0. -1.
         21    1    1    2  506  502 -0.35270673263E+01 -0.31762479649E+02 -0.99365151189E+02  0.10437781655E+03  0.00000000000E+00 0. -1.
<scales pt_clust_3="14000.00000" pt_clust_4="46.61034" pt_clust_5="77.27658" pt_clust_6="31.95771"></scales>
<clustering>
<clus scale="   31.958">  2  6  1 -1</clus>
<clus scale="   46.610">  2  4  1 -1</clus>
<clus scale="   77.277">  1  5  2 -1</clus>
<clus scale="   77.277">  1  3  2 -1</clus>
</clustering>
</event>
<event>
 6    0  0.8991567E+002  0.1317224E+03  0.7546771E-02  0.1224922E+00
         21   -1    0    0  503  501  0.00000000000E+00  0.00000000000E+00  0.68388806526E+03  0.68388806526E+03  0.00000000000E+00 0.  1.
         21   -1    0    0  506  502 -0.00000000000E+00 -0.00000000000E+00 -0.60221945235E+03  0.60221945235E+03  0.00000000000E+00 0. -1.
         21    1    1    2  503  505 -0.73426064356E+02  0.65486777666E+02  0.63354009993E+03  0.64113412262E+03  0.00000000000E+00 0.  1.
         21    1    1    2  504  502 -0.17587187068E+02  0.25533986688E+02 -0.37696430849E+02  0.48808959464E+02  0.00000000000E+00 0. -1.
         21    1    1    2  505  504  0.82362225628E+02  0.85491498322E+02 -0.26808822033E+03  0.29319554290E+03  0.00000000000E+00 0. -1.
         21    1    1    2  506  501  0.86510257955E+01 -0.17651226268E+03 -0.24608683584E+03  0.30296889262E+03  0.00000000000E+00 0. -1.
<scales pt_clust_3="98.59113" pt_clust_4="31.00474" pt_clust_5="131.72245" pt_clust_6="14000.00000"></scales>
<clustering>
<clus scale="   31.005">  2  4  1 -1</clus>
<clus scale="   98.591">  1  3  2 -1</clus>
<clus scale="  131.722">  2  5  1 -1</clus>
<clus scale="   98.591">  1  3  2 -1</clus>
</clustering>
</event>
<event>
 6    0  0.8991567E+002  0.9311033E+02  0.7546771E-02  0.1295490E+00
         21   -1    0    0  503  501  0.00000000000E+00  0.00000000000E+00  0.59430609423E+02  0.59430609423E+02  0.00000000000E+00 0. -1.
         21   -1    0    0  504  502 -0.00000000000E+00 -0.00000000000E+00 -0.57741388695E+03  0.57741388695E+03  0.00000000000E+00 0.  1.
         21    1    1    2  503  506 -0.20607105597E+02 -0.31643485390E+02 -0.14911558968E+02  0.40599477331E+02  0.00000000000E+00 0. -1.
         21    1    1    2  504  505 -0.62404453163E+02 -0.42592939437E+02 -0.28514005013E+03  0.29498020689E+03  0.00000000000E+00 0.  1.
         21    1    1    2  505  501  0.74853907941E+02  0.10643717535E+03 -0.66305197615E+02  0.14604231942E+03  0.00000000000E+00 0. -1.
         21    1    1    2  506  502  0.81576508182E+01 -0.32200750524E+02 -0.15162647082E+03  0.15522249274E+03  0.00000000000E+00 0.  1.
<scales pt_clust_3="39.26943" pt_clust_4="14000.00000" pt_clust_5="93.11033" pt_clust_6="33.21800"></scales>
<clustering>
<clus scale="   33.218">  2  6  1 -1</clus>
<clus scale="   39.269">  1  3  2 -1</clus>
<clus scale="   93.110">  1  5  2 -1</clus>
<clus scale="   39.269">  1  3  2 -1</clus>
</clustering>
</event>
<event>
 6    0  0.8991567E+002  0.1564492E+03  0.7546771E-02  0.1192765E+00
         21   -1    0    0  506  501  0.00000000000E+00  0.00000000000E+00  0.28398902458E+03  0.28398902458E+03  0.00000000000E+00 0.  1.
         21   -1    0    0  505  502 -0.00000000000E+00 -0.00000000000E+00 -0.20641047546E+03  0.20641047546E+03  0.00000000000E+00 0.  1.
         21    1    1    2  503  502 -0.48261680038E+02 -0.73903032608E+01 -0.42508339303E+02  0.64736120154E+02  0.00000000000E+00 0.  1.
         21    1    1    2  504  501  0.18498229345E+03  0.58601136807E+02  0.54512316637E+02  0.20155429737E+03  0.00000000000E+00 0.  1.
         21    1    1    2  505  504  0.25488539256E+01 -0.41904974340E+02 -0.32858199141E+02  0.53312144785E+02  0.00000000000E+00 0.  1.
         21    1    1    2  506  503 -0.13926946733E+03 -0.93058592057E+01  0.98432770923E+02  0.17079693773E+03  0.00000000000E+00 0.  1.
<scales pt_clust_3="51.92658" pt_clust_4="14000.00000" pt_clust_5="41.98242" pt_clust_6="156.44918"></scales>
<clustering>
<clus scale="   41.982">  2  5  1 -1</clus>
<clus scale="   51.927">  2  3  1 -1</clus>
<clus scale="  156.449">  1  6  2 -1</clus>
<clus scale="  156.449">  1  3  2 -1</clus>
</clustering>
</event>
<event>
 6    0  0.8991567E+002  0.1520231E+03  0.7546771E-02  0.1198009E+00
         21   -1    0    0  504  501  0.00000000000E+00  0.00000000000E+00  0.33827783861E+03  0.33827783861E+03  0.00000000000E+00 0.  1.
         21   -1    0    0  506  502 -0.00000000000E+00 -0.00000000000E+00 -0.27181817718E+04  0.27181817718E+04  0.00000000000E+00 0.  1.
         21    1    1    2  503  505  0.16684052308E+03  0.21005473580E+03 -0.19515295390E+03  0.33172794213E+03  0.00000000000E+00 0.  1.
         21    1    1    2  504  502 -0.16591396580E+02 -0.62083457992E+02 -0.20461631892E+04  0.20471720561E+04  0.00000000000E+00 0.  1.
         21    1    1    2  505  501 -0.14024219178E+03 -0.41771741406E+02  0.24172736747E+03  0.28256834734E+03  0.00000000000E+00 0.  1.
         21    1    1    2  506  503 -0.10006934724E+02 -0.10619953640E+03 -0.38031515757E+03  0.39499126490E+03  0.00000000000E+00 0.  1.
<scales pt_clust_3="14000.00000" pt_clust_4="64.26220" pt_clust_5="152.02314" pt_clust_6="143.38307"></scales>
<clustering>
<clus scale="   64.262">  2  4  1 -1</clus>
<clus scale="  143.383">  2  6  1 -1</clus>
<clus scale="  152.023">  1  5  2 -1</clus>
<clus scale="  152.023">  1  3  2 -1</clus>
</clustering>
</event>
<event>
 6    0  0.8991567E+002  0.1000014E+03  0.7546771E-02  0.1280293E+00
         21   -1    0    0  504  501  0.00000000000E+00  0.00000000000E+00  0.14414397867E+04  0.14414397867E+04  0.00000000000E+00 0.  1.
         21   -1    0    0  503  502 -0.00000000000E+00 -0.00000000000E+00 -0.68702254546E+02  0.68702254546E+02  0.00000000000E+00 0.  1.
         21    1    1    2  503  505 -0.92775391467E+02 -0.85675711269E+02  0.11464600757E+03  0.17056174195E+03  0.00000000000E+00 0.  1.
         21    1    1    2  504  506 -0.20064054814E+02  0.66343703070E+02  0.10263900275E+04  0.10287276324E+04  0.00000000000E+00 0.  1.
         21    1    1    2  505  501  0.10849110929E+02  0.40420122851E+02  0.19651453843E+03  0.20092151043E+03  0.00000000000E+00 0.  1.
         21    1    1    2  506  502  0.10199033535E+03 -0.21088114652E+02  0.35186958611E+02  0.10993115637E+03  0.00000000000E+00 0.  1.
<scales pt_clust_3="14000.00000" pt_clust_4="100.38041" pt_clust_5="41.85080" pt_clust_6="100.00142"></scales>
<clustering>
<clus scale="   41.851">  1  5  2 -1</clus>
<clus scale="  100.380">  1  4  2 -1</clus>
<clus scale="  100.001">  2  6  1 -1</clus>
<clus scale="   41.851">  1  3  2 -1</clus>
</clustering>
</event>
<event>
 6    0  0.1353636E+003  0.6556666E+02  0.7546771E-02  0.1375853E+00
         21   -1    0    0  504  501  0.00000000000E+00  0.00000000000E+00  0.15590515573E+04  0.15590515573E+04  0.00000000000E+00 0.  1.
         21   -1    0    0  506  502 -0.00000000000E+00 -0.00000000000E+00 -0.28058380292E+03  0.28058380292E+03  0.00000000000E+00 0.  1.
         21    1    1    2  503  501  0.79971176161E+02 -0.30549709931E+02  0.17631847079E+03  0.19600223706E+03  0.00000000000E+00 0.  1.
         21    1    1    2  504  505 -0.45356950885E+02  0.24629781194E+02  0.11244168451E+04  0.11256007821E+04  0.00000000000E+00 0.  1.
         21    1    1    2  505  502 -0.21718247138E+02  0.70220041577E+02  0.23827955427E+03  0.24935854203E+03  0.00000000000E+00 0.  1.
         21    1    1    2  506  503 -0.12895978138E+02 -0.64300112840E+02 -0.26054711576E+03  0.26867379905E+03  0.00000000000E+00 0.  1.
<scales pt_clust_3="63.73246" pt_clust_4="51.61278" pt_clust_5="14000.00000" pt_clust_6="65.56666"></scales>
<clustering>
<clus scale="   51.613">  1  4  2 -1</clus>
<clus scale="   63.732">  1  3  2 -1</clus>
<clus scale="   65.567">  2  6  1 -1</clus>
<clus scale="   51.613">  1  3  2 -1</clus>
</clustering>
</event>
<event>
 6    0  0.8991567E+002  0.1714799E+03  0.7546771E-02  0.1176313E+00
         21   -1    0    0  506  501  0.00000000000E+00  0.00000000000E+00  0.32850501413E+03  0.32850501413E+03  0.00000000000E+00 0.  1.
         21   -1    0    0  503  502 -0.00000000000E+00 -0.00000000000E+00 -0.10000894870E+04  0.10000894870E+04  0.00000000000E+00 0.  1.
         21    1    1    2  503  504  0.15031115514E+01  0.51392481321E+02 -0.19470978247E+03  0.20138357895E+03  0.00000000000E+00 0. -1.
         21    1    1    2  504  505 -0.12655749375E+03  0.60719690041E+02  0.23348619514E+03  0.27243252982E+03  0.00000000000E+00 0.  1.
         21    1    1    2  505  501 -0.44182050578E+02 -0.32151314523E+02  0.48569033056E+02  0.73107534432E+02  0.00000000000E+00 0.  1.
         21    1    1    2  506  502  0.16923643278E+03 -0.79960856839E+02 -0.75892991862E+03  0.78167085796E+03  0.00000000000E+00 0.  1.
<scales pt_clust_3="51.41446" pt_clust_4="14000.00000" pt_clust_5="54.16451" pt_clust_6="171.47994"></scales>
<clustering>
<clus scale="   51.414">  2  3  1 -1</clus>
<clus scale="   54.165">  1  5  2 -1</clus>
<clus scale="  171.480">  2  6  1 -1</clus>
<clus scale="   54.165">  1  3  2 -1</clus>
</clustering>
</event>
<event>
 6    0  0.8991567E+002  0.7794649E+02  0.7546771E-02  0.1334982E+00
         21   -1    0    0  506  501  0.00000000000E+00  0.00000000000E+00  0.16078988443E+02  0.16078988443E+02  0.00000000000E+00 0. -1.
         21   -1    0    0  504  502 -0.00000000000E+00 -0.00000000000E+00 -0.21779420419E+04  0.21779420419E+04  0.00000000000E+00 0. -1.
         21    1    1    2  503  505 -0.49515449726E+02  0.68993074389E+02 -0.76407393582E+03  0.76877877407E+03  0.00000000000E+00 0. -1.
         21    1    1    2  504  503  0.37506832359E+02  0.12920295694E+02 -0.10925803909E+04  0.10933003279E+04  0.00000000000E+00 0. -1.
         21    1    1    2  505  501 -0.33488890066E+02 -0.75957208274E+02 -0.17054021489E+03  0.18967068340E+03  0.00000000000E+00 0. -1.
         21    1    1    2  506  502  0.45497507434E+02 -0.59561618082E+01 -0.13466851181E+03  0.14227124488E+03  0.00000000000E+00 0. -1.
<scales pt_clust_3="77.94649" pt_clust_4="39.66984" pt_clust_5="14000.00000" pt_clust_6="50.46834"></scales>
<clustering>
<clus scale="   39.670">  2  4  1 -1</clus>
<clus scale="   50.468">  1  6  2 -1</clus>
<clus scale="   77.946">  2  3  1 -1</clus>
<clus scale="   50.468">  1  3  2 -1</clus>
</clustering>
</event>
<event>
 6    0  0.8991567E+002  0.1403448E+03  0.7546771E-02  0.1212866E+00
         21   -1    0    0  503  501  0.00000000000E+00  0.00000000000E+00  0.37681765875E+03  0.37681765875E+03  0.00000000000E+00 0.  1.
         21   -1    0    0  504  502 -0.00000000000E+00 -0.00000000000E+00 -0.38621232001E+03  0.38621232001E+03  0.00000000000E+00 0.  1.
         21    1    1    2  503  506  0.11562239895E+03 -0.31429850864E+02 -0.57528099090E+02  0.13291296720E+03  0.00000000000E+00 0.  1.
         21    1    1    2  504  505 -0.16666668294E+03  0.53361500091E+01 -0.50559861383E+02  0.17424855030E+03  0.00000000000E+00 0.  1.
         21    1    1    2  505  501  0.38649059139E+01  0.36241430166E+02  0.27278644895E+03  0.27521051122E+03  0.00000000000E+00 0.  1.
         21    1    1    2  506  502  0.47179378075E+02 -0.10147729311E+02 -0.17409314974E+03  0.18065795003E+03  0.00000000000E+00 0.  1.
<scales pt_clust_3="14000.00000" pt_clust_4="140.34481" pt_clust_5="36.44693" pt_clust_6="48.14961"></scales>
<clustering>
<clus scale="   36.447">  1  5  2 -1</clus>
<clus scale="   48.150">  2  6  1 -1</clus>
<clus scale="  140.345">  2  4  1 -1</clus>
<clus scale="   36.447">  1  3  2 -1</clus>
</clustering>
</event>
<event>
 6    0  0.8991567E+002  0.1063355E+03  0.7546771E-02  0.1267510E+00
         21   -1    0    0  503  501  0.00000000000E+00  0.00000000000E+00  0.23169511380E+04  0.23169511380E+04  0.00000000000E+00 0. -1.
         21   -1    0    0  504  502 -0.00000000000E+00 -0.00000000000E+00 -0.76604767935E+02  0.76604767935E+02  0.00000000000E+00 0. -1.
         21    1    1    2  503  502  0.27723584014E+02  0.40894407631E+02  0.48769713738E+03  0.49019327565E+03  0.00000000000E+00 0. -1.
         21    1    1    2  504  506  0.81251973077E+02 -0.73723892278E+02 -0.27133048967E+02  0.11301901507E+03  0.00000000000E+00 0. -1.
         21    1    1    2  505  501 -0.17604252293E+02  0.25523019305E+02  0.13734807820E+04  0.13738307001E+04  0.00000000000E+00 0. -1.
         21    1    1    2  506  505 -0.91371304798E+02  0.73064653422E+01  0.40630149968E+03  0.41651291507E+03  0.00000000000E+00 0. -1.
<scales pt_clust_3="57.23033" pt_clust_4="14000.00000" pt_clust_5="31.00539" pt_clust_6="106.33552"></scales>
<clustering>
<clus scale="   31.005">  1  5  2 -1</clus>
<clus scale="   57.230">  1  3  2 -1</clus>
<clus scale="  106.336">  1  6  2 -1</clus>
<clus scale="   31.005">  1  3  2 -1</clus>
</clustering>
</event>
<event>
 6    0  0.8991567E+002  0.1134467E+03  0.7546771E-02  0.1254317E+00
         21   -1    0    0  504  501  0.00000000000E+00  0.00000000000E+00  0.21222195614E+03  0.21222195614E+03  0.00000000000E+00 0.  1.
         21   -1    0    0  505  502 -0.00000000000E+00 -0.00000000000E+00 -0.11090014740E+03  0.11090014740E+03  0.00000000000E+00 0.  1.
         21    1    1    2  503  506  0.63206464565E+02 -0.59134794280E+02  0.10273468458E+02  0.87163783830E+02  0.00000000000E+00 0.  1.
         21    1    1    2  504  502 -0.14670094209E+02  0.92702680443E+02  0.16414370166E+02  0.95280796456E+02  0.00000000000E+00 0.  1.
         21    1    1    2  505  503  0.26464085887E+02 -0.27603095189E+02  0.46848267155E+02  0.60473455675E+02  0.00000000000E+00 0. -1.
         21    1    1    2  506  501 -0.75000456243E+02 -0.59647909730E+01  0.27785702962E+02  0.80204067584E+02  0.00000000000E+00 0.  1.
<scales pt_clust_3="36.22070" pt_clust_4="99.50154" pt_clust_5="36.22070" pt_clust_6="75.23727"></scales>
<clustering>
<clus scale="   36.221">  3  5 -1 -1</clus>
<clus scale="   75.237">  1  6  2 -1</clus>
<clus scale="   99.502">  2  4  1 -1</clus>
<clus scale="   75.237">  1  3  2 -1</clus>
</clustering>
</event>
<event>
 6    0  0.8991567E+002  0.9308300E+02  0.7546771E-02  0.1295553E+00
         21   -1    0    0  505  501  0.00000000000E+00  0.00000000000E+00  0.34850334721E+04  0.34850334721E+04  0.00000000000E+00 0. -1.
         21   -1    0    0  503  502 -0.00000000000E+00 -0.00000000000E+00 -0.17407637103E+03  0.17407637103E+03  0.00000000000E+00 0. -1.
         21    1    1    2  503  501 -0.13939110550E+02 -0.30008924089E+02  0.10420670937E+04  0.10425922799E+04  0.00000000000E+00 0. -1.
         21    1    1    2  504  506  0.10852809169E+03 -0.65866972604E+02  0.14832882291E+03  0.19523894199E+03  0.00000000000E+00 0. -1.
         21    1    1    2  505  504 -0.57556298557E+02  0.85854079142E+02  0.22672759307E+04  0.22696307621E+04  0.00000000000E+00 0. -1.
         21    1    1    2  506  502 -0.37032682580E+02  0.10021817552E+02 -0.14671474625E+03  0.15164785911E+03  0.00000000000E+00 0. -1.
<scales pt_clust_3="33.08828" pt_clust_4="14000.00000" pt_clust_5="93.08300" pt_clust_6="38.37047"></scales>
<clustering>
<clus scale="   33.088">  1  3  2 -1</clus>
<clus scale="   38.370">  2  6  1 -1</clus>
<clus scale="   93.083">  1  5  2 -1</clus>
<clus scale="   33.088">  1  3  2 -1</clus>
</clustering>
</event>
<event>
 6    0  0.8991567E+002  0.6293983E+02  0.7546771E-02  0.1385893E+00
         21   -1    0    0  506  501  0.00000000000E+00  0.00000000000E+00  0.11511225637E+03  0.11511225637E+03  0.00000000000E+00 0.  1.
         21   -1    0    0  504  502 -0.00000000000E+00 -0.00000000000E+00 -0.42451535457E+03  0.42451535457E+03  0.00000000000E+00 0.  1.
         21    1    1    2  503  502 -0.15838297036E+02 -0.47158082565E+02 -0.14479695073E+03  0.15310419114E+03  0.00000000000E+00 0. -1.
         21    1    1    2  504  505 -0.57840554118E+02  0.20706596199E+02 -0.59367685022E+02  0.85433101616E+02  0.00000000000E+00 0. -1.
         21    1    1    2  505  501  0.45462368405E+02 -0.44994272940E+02  0.78900893967E+02  0.10157097325E+03  0.00000000000E+00 0.  1.
         21    1    1    2  506  503  0.28216482748E+02  0.71445759305E+02 -0.18413935642E+03  0.19951934494E+03  0.00000000000E+00 0.  1.
<scales pt_clust_3="49.74672" pt_clust_4="62.93983" pt_clust_5="14000.00000" pt_clust_6="42.27105"></scales>
<clustering>
<clus scale="   49.747">  2  3  1 -1</clus>
<clus scale="   42.271">  2  6  1 -1</clus>
<clus scale="   62.940">  2  4  1 -1</clus>
<clus scale="   62.940">  1  3  2 -1</clus>
</clustering>
</event>
<event>
 6    0  0.8991567E+002  0.2697575E+03  0.7546771E-02  0.1101418E+00
         21   -1    0    0  504  501  0.00000000000E+00  0.00000000000E+00  0.28204274510E+03  0.28204274510E+03  0.00000000000E+00 0.  1.
         21   -1    0    0  503  502 -0.00000000000E+00 -0.00000000000E+00 -0.34142422933E+03  0.34142422933E+03  0.00000000000E+00 0.  1.
         21    1    1    2  503  505  0.13969111978E+01 -0.72554353409E+02 -0.76375851698E+02  0.10535348253E+03  0.00000000000E+00 0.  1.
         21    1    1    2  504  506 -0.10828631807E+03 -0.15613363502E+02  0.61022270772E+02  0.12527338636E+03  0.00000000000E+00 0.  1.
         21    1    1    2  505  501  0.24086913938E+03  0.59101049060E+02  0.26113389102E+01  0.24802761015E+03  0.00000000000E+00 0.  1.
         21    1    1    2  506  502 -0.13397973251E+03  0.29066667851E+02 -0.46639242213E+02  0.14481249538E+03  0.00000000000E+00 0.  1.
<scales pt_clust_3="72.56780" pt_clust_4="107.36267" pt_clust_5="242.70033" pt_clust_6="107.36267"></scales>
<clustering>
<clus scale="   72.568">  2  3  1 -1</clus>
<clus scale="  107.363">  4  6 -1 -1</clus>
<clus scale="  242.700">  2  5  1 -1</clus>
<clus scale="  269.758">  1  3  2 -1</clus>
</clustering>
</event>
<event>
 6    0  0.8991567E+002  0.7899854E+02  0.7546771E-02  0.1331918E+00
         21   -1    0    0  505  501  0.00000000000E+00  0.00000000000E+00  0.43972998672E+02  0.43972998672E+02  0.00000000000E+00 0. -1.
         21   -1    0    0  503  502 -0.00000000000E+00 -0.00000000000E+00 -0.86478019278E+03  0.86478019278E+03  0.00000000000E+00 0. -1.
         21    1    1    2  503  501  0.74148900603E+02  0.23355487582E+01 -0.38545588212E+02  0.83601893634E+02  0.00000000000E+00 0. -1.
         21    1    1    2  504  502  0.65797149526E+01  0.36935720927E+02 -0.40869872795E+03  0.41041709316E+03  0.00000000000E+00 0. -1.
         21    1    1    2  505  506 -0.10292150574E+02 -0.67108528174E+02 -0.55244368015E+02  0.87529555663E+02  0.00000000000E+00 0. -1.
         21    1    1    2  506  504 -0.70436464982E+02  0.27837258489E+02 -0.31831850993E+03  0.32720464900E+03  0.00000000000E+00 0. -1.
<scales pt_clust_3="78.99854" pt_clust_4="37.51720" pt_clust_5="62.01168" pt_clust_6="14000.00000"></scales>
<clustering>
<clus scale="   37.517">  2  4  1 -1</clus>
<clus scale="   62.012">  1  5  2 -1</clus>
<clus scale="   78.999">  1  3  2 -1</clus>
<clus scale="   62.012">  1  3  2 -1</clus>
</clustering>
</event>
<event>
 6    0  0.8991567E+002  0.1360945E+03  0.7546771E-02  0.1218683E+00
         21   -1    0    0  506  501  0.00000000000E+00  0.00000000000E+00  0.56248264970E+03  0.56248264970E+03  0.00000000000E+00 0.  1.
         21   -1    0    0  504  502 -0.00000000000E+00 -0.00000000000E+00 -0.29038741111E+03  0.29038741111E+03  0.00000000000E+00 0.  1.
         21    1    1    2  503  505 -0.12324091980E+03  0.35697407271E+02  0.44471628462E+02  0.13579526846E+03  0.00000000000E+00 0.  1.
         21    1    1    2  504  503  0.12630939096E+03 -0.56025848089E+02 -0.20109609441E+03  0.24399302672E+03  0.00000000000E+00 0.  1.
         21    1    1    2  505  501 -0.12435723922E+01 -0.36694149995E+02  0.41199690849E+03  0.41362961659E+03  0.00000000000E+00 0.  1.
         21    1    1    2  506  502 -0.18248987689E+01  0.57022590813E+02  0.16722796046E+02  0.59452149046E+02  0.00000000000E+00 0.  1.
<scales pt_clust_3="136.09454" pt_clust_4="14000.00000" pt_clust_5="36.71522" pt_clust_6="47.73282"></scales>
<clustering>
<clus scale="   36.715">  1  5  2 -1</clus>
<clus scale="   47.733">  1  6  2 -1</clus>
<clus scale="  136.095">  1  3  2 -1</clus>
<clus scale="   36.715">  1  3  2 -1</clus>
</clustering>
</event>
<event>
 6    0  0.8991567E+002  0.5680465E+02  0.7546771E-02  0.1411752E+00
         21   -1    0    0  504  501  0.00000000000E+00  0.00000000000E+00  0.10050107402E+04  0.10050107402E+04  0.00000000000E+00 0.  1.
         21   -1    0    0  503  502 -0.00000000000E+00 -0.00000000000E+00 -0.22090844433E+03  0.22090844433E+03  0.00000000000E+00 0.  1.
         21    1    1    2  503  506  0.24659645573E+01 -0.54131556321E+02  0.15731799510E+02  0.56425135239E+02  0.00000000000E+00 0. -1.
         21    1    1    2  504  505 -0.29630051515E+02  0.47319540699E+02  0.86778380057E+03  0.86957794557E+03  0.00000000000E+00 0.  1.
         21    1    1    2  505  502 -0.50379225350E+02  0.52534456562E+02 -0.17038715117E+03  0.18528280211E+03  0.00000000000E+00 0.  1.
         21    1    1    2  506  501  0.77543312308E+02 -0.45722440940E+02  0.70973846980E+02  0.11463330164E+03  0.00000000000E+00 0. -1.
<scales pt_clust_3="54.18770" pt_clust_4="56.80465" pt_clust_5="48.40577" pt_clust_6="14000.00000"></scales>
<clustering>
<clus scale="   54.188">  2  3  1 -1</clus>
<clus scale="   48.406">  2  5  1 -1</clus>
<clus scale="   56.805">  1  4  2 -1</clus>
<clus scale="   56.805">  1  3  2 -1</clus>
</clustering>
</event>
<event>
 6    0  0.8991567E+002  0.1541472E+03  0.7546771E-02  0.1195468E+00
         21   -1    0    0  506  501  0.00000000000E+00  0.00000000000E+00  0.86462779542E+03  0.86462779542E+03  0.00000000000E+00 0. -1.
         21   -1    0    0  505  502 -0.00000000000E+00 -0.00000000000E+00 -0.43205462404E+03  0.43205462404E+03  0.00000000000E+00 0. -1.
         21    1    1    2  503  501  0.51856169035E+00  0.12148603633E+03 -0.11993717398E+03  0.17071628988E+03  0.00000000000E+00 0. -1.
         21    1    1    2  504  502  0.11404424127E+02 -0.21436846063E+03  0.31775928805E+03  0.38347733042E+03  0.00000000000E+00 0. -1.
         21    1    1    2  505  503 -0.48772028595E+02  0.26189271329E+02 -0.24782582145E+03  0.25393350800E+03  0.00000000000E+00 0. -1.
         21    1    1    2  506  504  0.36849042778E+02  0.66693152972E+02  0.48257687876E+03  0.48855529116E+03  0.00000000000E+00 0. -1.
<scales pt_clust_3="14000.00000" pt_clust_4="154.14718" pt_clust_5="55.35873" pt_clust_6="76.19051"></scales>
<clustering>
<clus scale="   55.359">  2  5  1 -1</clus>
<clus scale="   76.191">  1  6  2 -1</clus>
<clus scale="  154.147">  1  4  2 -1</clus>
<clus scale="   76.191">  1  3  2 -1</clus>
</clustering>
</event>
<event>
 6    0  0.8991567E+002  0.7770906E+02  0.7546771E-02  0.1335681E+00
         21   -1    0    0  504  501  0.00000000000E+00  0.00000000000E+00  0.11648776038E+03  0.11648776038E+03  0.00000000000E+00 0.  1.
         21   -1    0    0  505  502 -0.00000000000E+00 -0.00000000000E+00 -0.38988662446E+03  0.38988662446E+03  0.00000000000E+00 0.  1.
         21    1    1    2  503  502  0.40850281788E+02  0.46589261355E+02 -0.23407513766E+03  0.24213730581E+03  0.00000000000E+00 0.  1.
         21    1    1    2  504  506  0.49471836621E+02  0.18719620584E+02  0.65264528488E+02  0.84008008501E+02  0.00000000000E+00 0.  1.
         21    1    1    2  505  501 -0.27242340380E+02  0.24575787759E+02 -0.31101667052E+02  0.48098109597E+02  0.00000000000E+00 0.  1.
         21    1    1    2  506  503 -0.63079778029E+02 -0.89884669698E+02 -0.73486587856E+02  0.13213096094E+03  0.00000000000E+00 0.  1.
<scales pt_clust_3="14000.00000" pt_clust_4="52.45333" pt_clust_5="36.68943" pt_clust_6="77.70906"></scales>
<clustering>
<clus scale="   36.689">  2  5  1 -1</clus>
<clus scale="   52.453">  1  4  2 -1</clus>
<clus scale="   77.709">  1  6  2 -1</clus>
<clus scale="   52.453">  1  3  2 -1</clus>
</clustering>
</event>
<event>
 6    0  0.8991567E+002  0.6261291E+02  0.7546771E-02  0.1387183E+00
         21   -1    0    0  505  501  0.00000000000E+00  0.00000000000E+00  0.54392393303E+03  0.54392393303E+03  0.00000000000E+00 0. -1.
         21   -1    0    0  506  502 -0.00000000000E+00 -0.00000000000E+00 -0.20318415729E+03  0.20318415729E+03  0.00000000000E+00 0. -1.
         21    1    1    2  503  504  0.36778491204E+02 -0.69824120039E+02  0.19664726632E+03  0.21189198311E+03  0.00000000000E+00 0.  1.
         21    1    1    2  504  501 -0.48820470622E+02  0.33034618237E+02  0.30715181364E+03  0.31275703185E+03  0.00000000000E+00 0. -1.
         21    1    1    2  505  502 -0.15426218210E+02  0.71911110242E+02 -0.16193880672E+03  0.17785767655E+03  0.00000000000E+00 0. -1.
         21    1    1    2  506  503  0.27468197628E+02 -0.35121608441E+02 -0.11204975038E+01  0.44601398801E+02  0.00000000000E+00 0.  1.
<scales pt_clust_3="14000.00000" pt_clust_4="62.61291" pt_clust_5="40.20294" pt_clust_6="44.58732"></scales>
<clustering>
<clus scale="   44.587">  2  6  1 -1</clus>
<clus scale="   40.203">  2  5  1 -1</clus>
<clus scale="   62.613">  1  4  2 -1</clus>
<clus scale="   62.613">  1  3  2 -1</clus>
</clustering>
</event>
<event>
 6    0  0.8991567E+002  0.1422035E+03  0.7546771E-02  0.1210394E+00
         21   -1    0    0  506  501  0.00000000000E+00  0.00000000000E+00  0.80971681371E+02  0.80971681371E+02  0.00000000000E+00 0.  1.
         21   -1    0    0  504  502 -0.00000000000E+00 -0.00000000000E+00 -0.10791346890E+04  0.10791346890E+04  0.00000000000E+00 0.  1.
         21    1    1    2  503  505 -0.67269977950E+02 -0.36134933011E+02 -0.81553861693E+02  0.11172294158E+03  0.00000000000E+00 0. -1.
         21    1    1    2  504  503  0.20052277612E+03  0.13388628203E+02 -0.56042342793E+03  0.59536800190E+03  0.00000000000E+00 0.  1.
         21    1    1    2  505  501 -0.29572787513E+02 -0.39712719495E+02  0.23279289357E+02  0.54713573855E+02  0.00000000000E+00 0.  1.
         21    1    1    2  506  502 -0.10368001066E+03  0.62459024303E+02 -0.37946500734E+03  0.39830185302E+03  0.00000000000E+00 0.  1.
<scales pt_clust_3="92.78373" pt_clust_4="14000.00000" pt_clust_5="49.51414" pt_clust_6="142.20349"></scales>
<clustering>
<clus scale="   49.514">  1  5  2 -1</clus>
<clus scale="   92.784">  1  3  2 -1</clus>
<clus scale="  142.203">  2  6  1 -1</clus>
<clus scale="   49.514">  1  3  2 -1</clus>
</clustering>
</event>
<event>
 6    0  0.8991567E+002  0.9891004E+02  0.7546771E-02  0.1282605E+00
         21   -1    0    0  504  501  0.00000000000E+00  0.00000000000E+00  0.16044830401E+03  0.16044830401E+03  0.00000000000E+00 0. -1.
         21   -1    0    0  506  502 -0.00000000000E+00 -0.00000000000E+00 -0.14306048485E+03  0.14306048485E+03  0.00000000000E+00 0. -1.
         21    1    1    2  503  501 -0.21162634523E+02 -0.21691601546E+02  0.38046825088E+02  0.48640966035E+02  0.00000000000E+00 0. -1.
         21    1    1    2  504  502 -0.38960735238E+02 -0.49034897058E+01 -0.58547702416E+01  0.39702159087E+02  0.00000000000E+00 0. -1.
         21    1    1    2  505  503 -0.11362858931E+02  0.10513292648E+03  0.96556765377E+01  0.10618511611E+03  0.00000000000E+00 0. -1.
         21    1    1    2  506  505  0.71486228692E+02 -0.78537835229E+02 -0.24459912234E+02  0.10898054763E+03  0.00000000000E+00 0. -1.
<scales pt_clust_3="30.30483" pt_clust_4="42.78108" pt_clust_5="14000.00000" pt_clust_6="98.91004"></scales>
<clustering>
<clus scale="   30.305">  1  3  2 -1</clus>
<clus scale="   42.781">  2  4  1 -1</clus>
<clus scale="   98.910">  2  6  1 -1</clus>
<clus scale="   30.305">  1  3  2 -1</clus>
</clustering>
</event>
<event>
 6    0  0.8991567E+002  0.8064805E+02  0.7546771E-02  0.1327222E+00
         21   -1    0    0  505  501  0.00000000000E+00  0.00000000000E+00  0.11838967625E+04  0.11838967625E+04  0.00000000000E+00 0. -1.
         21   -1    0    0  503  502 -0.00000000000E+00 -0.00000000000E+00 -0.36280066846E+02  0.36280066846E+02  0.00000000000E+00 0.  1.
         21    1    1    2  503  506 -0.82200727077E+02 -0.92172294151E+02  0.33359525583E+03  0.35572248460E+03  0.00000000000E+00 0.  1.
         21    1    1    2  504  502  0.57046840678E+02  0.14862492064E+02  0.37848561813E+02  0.70055330511E+02  0.00000000000E+00 0.  1.
         21    1    1    2  505  504 -0.41892125074E+01  0.59251254713E+02  0.92953678856E+02  0.11031159096E+03  0.00000000000E+00 0.  1.
         21    1    1    2  506  501  0.29343098906E+02  0.18058547374E+02  0.68321919918E+03  0.68408742330E+03  0.00000000000E+00 0. -1.
<scales pt_clust_3="80.64805" pt_clust_4="62.51407" pt_clust_5="14000.00000" pt_clust_6="34.45473"></scales>
<clustering>
<clus scale="   34.455">  1  6  2 -1</clus>
<clus scale="   62.514">  2  4  1 -1</clus>
<clus scale="   80.648">  1  3  2 -1</clus>
<clus scale="   34.455">  1  3  2 -1</clus>
</clustering>
</event>
<event>
 6    0  0.8991567E+002  0.6588738E+02  0.7546771E-02  0.1374664E+00
         21   -1    0    0  504  501  0.00000000000E+00  0.00000000000E+00  0.61131019137E+02  0.61131019137E+02  0.00000000000E+00 0. -1.
         21   -1    0    0  505  502 -0.00000000000E+00 -0.00000000000E+00 -0.14558671713E+04  0.14558671713E+04  0.00000000000E+00 0. -1.
         21    1    1    2  503  506 -0.44375471173E+01  0.98310789540E+02 -0.61211958873E+03  0.61997991424E+03  0.00000000000E+00 0. -1.
         21    1    1    2  504  502 -0.30704419696E+02 -0.76601093289E+02  0.10719919806E+02  0.83219021639E+02  0.00000000000E+00 0. -1.
         21    1    1    2  505  503 -0.19129454994E+02 -0.42964471928E+02 -0.71298463091E+03  0.71453409002E+03  0.00000000000E+00 0. -1.
         21    1    1    2  506  501  0.54271421807E+02  0.21254775678E+02 -0.80351852311E+02  0.99265164504E+02  0.00000000000E+00 0. -1.
<scales pt_clust_3="65.88738" pt_clust_4="14000.00000" pt_clust_5="47.03065" pt_clust_6="54.38052"></scales>
<clustering>
<clus scale="   47.031">  2  5  1 -1</clus>
<clus scale="   54.381">  1  6  2 -1</clus>
<clus scale="   65.887">  2  3  1 -1</clus>
<clus scale="   54.381">  1  3  2 -1</clus>
</clustering>
</event>
<event>
 6    0  0.8991567E+002  0.8794853E+02  0.7546771E-02  0.1307897E+00
         21   -1    0    0  505  501  0.00000000000E+00  0.00000000000E+00  0.55034964479E+03  0.55034964479E+03  0.00000000000E+00 0.  1.
         21   -1    0    0  503  502 -0.00000000000E+00 -0.00000000000E+00 -0.23282739778E+03  0.23282739778E+03  0.00000000000E+00 0.  1.
         21    1    1    2  503  501 -0.34900188667E+02 -0.12382146535E+03  0.57811380016E+02  0.14103876811E+03  0.00000000000E+00 0.  1.
         21    1    1    2  504  506  0.46856513103E+02  0.36335330083E+02  0.13753640563E+03  0.14977333510E+03  0.00000000000E+00 0.  1.
         21    1    1    2  505  504  0.63788992609E+01  0.44655536405E+02  0.30263954230E+03  0.30598284241E+03  0.00000000000E+00 0.  1.
         21    1    1    2  506  502 -0.18335223697E+02  0.42830598862E+02 -0.18046508093E+03  0.18638209695E+03  0.00000000000E+00 0.  1.
<scales pt_clust_3="14000.00000" pt_clust_4="87.94853" pt_clust_5="45.10884" pt_clust_6="47.05443"></scales>
<clustering>
<clus scale="   45.109">  1  5  2 -1</clus>
<clus scale="   47.054">  2  6  1 -1</clus>
<clus scale="   87.949">  1  4  2 -1</clus>
<clus scale="   45.109">  1  3  2 -1</clus>
</clustering>
</event>
<event>
 6    0  0.8991567E+002  0.1729892E+03  0.7546771E-02  0.1174766E+00
         21   -1    0    0  504  501  0.00000000000E+00  0.00000000000E+00  0.14571782600E+04  0.14571782600E+04  0.00000000000E+00 0. -1.
         21   -1    0    0  503  502 -0.00000000000E+00 -0.00000000000E+00 -0.13351218659E+03  0.13351218659E+03  0.00000000000E+00 0.  1.
         21    1    1    2  503  506 -0.12903838964E+03 -0.11285474353E+03 -0.12538926841E+02  0.17188462358E+03  0.00000000000E+00 0.  1.
         21    1    1    2  504  505  0.16444826738E+02  0.43735966813E+02  0.20041801828E+03  0.20579273352E+03  0.00000000000E+00 0. -1.
         21    1    1    2  505  502  0.18537913914E+03  0.50712398888E+02  0.21187697131E+03  0.28605772775E+03  0.00000000000E+00 0.  1.
         21    1    1    2  506  501 -0.72785576245E+02  0.18406377826E+02  0.92391001065E+03  0.92695536173E+03  0.00000000000E+00 0. -1.
<scales pt_clust_3="172.98920" pt_clust_4="46.72544" pt_clust_5="14000.00000" pt_clust_6="79.03805"></scales>
<clustering>
<clus scale="   46.725">  1  4  2 -1</clus>
<clus scale="   79.038">  1  6  2 -1</clus>
<clus scale="  172.989">  2  3  1 -1</clus>
<clus scale="   46.725">  1  3  2 -1</clus>
</clustering>
</event>
<event>
 6    0  0.8991567E+002  0.1084106E+03  0.7546771E-02  0.1263542E+00
         21   -1    0    0  505  501  0.00000000000E+00  0.00000000000E+00  0.35642083397E+03  0.35642083397E+03  0.00000000000E+00 0. -1.
         21   -1    0    0  503  502 -0.00000000000E+00 -0.00000000000E+00 -0.53809466599E+03  0.53809466599E+03  0.00000000000E+00 0.  1.
         21    1    1    2  503  504 -0.39531708107E+02  0.53064911958E+01 -0.30507588561E+02  0.50215811798E+02  0.00000000000E+00 0. -1.
         21    1    1    2  504  501 -0.63327023714E+02  0.85249845554E+02  0.24819917680E+03  0.26996421886E+03  0.00000000000E+00 0. -1.
         21    1    1    2  505  506  0.42476076494E+02 -0.11305208265E+03  0.42324422151E+02  0.12797010266E+03  0.00000000000E+00 0. -1.
         21    1    1    2  506  502  0.60382655328E+02  0.22495745899E+02 -0.44168984241E+03  0.44636536664E+03  0.00000000000E+00 0.  1.
<scales pt_clust_3="39.88627" pt_clust_4="14000.00000" pt_clust_5="108.41056" pt_clust_6="37.04442"></scales>
<clustering>
<clus scale="   39.886">  2  3  1 -1</clus>
<clus scale="   37.044">  2  6  1 -1</clus>
<clus scale="  108.411">  2  5  1 -1</clus>
<clus scale="  108.411">  1  3  2 -1</clus>
</clustering>
</event>
<event>
 6    0  0.8991567E+002  0.1001079E+03  0.7546771E-02  0.1280069E+00
         21   -1    0    0  504  501  0.00000000000E+00  0.00000000000E+00  0.31111287565E+03  0.31111287565E+03  0.00000000000E+00 0.  1.
         21   -1    0    0  503  502 -0.00000000000E+00 -0.00000000000E+00 -0.28166427398E+03  0.28166427398E+03  0.00000000000E+00 0.  1.
         21    1    1    2  503  506 -0.25895610117E+02 -0.18287261490E+02 -0.98564655809E+02  0.10353742285E+03  0.00000000000E+00 0.  1.
         21    1    1    2  504  505  0.27293967207E+02  0.97370367908E+02  0.26769639488E+03  0.28615958664E+03  0.00000000000E+00 0.  1.
         21    1    1    2  505  502 -0.29831253350E+02  0.14392856908E+02 -0.62330754524E+00  0.33127730359E+02  0.00000000000E+00 0. -1.
         21    1    1    2  506  501  0.28432896261E+02 -0.93475963325E+02 -0.13905982986E+03  0.16995240978E+03  0.00000000000E+00 0.  1.
<scales pt_clust_3="31.70184" pt_clust_4="100.10794" pt_clust_5="34.65549" pt_clust_6="14000.00000"></scales>
<clustering>
<clus scale="   31.702">  2  3  1 -1</clus>
<clus scale="   34.655">  2  5  1 -1</clus>
<clus scale="  100.108">  1  4  2 -1</clus>
<clus scale="  100.108">  1  3  2 -1</clus>
</clustering>
</event>
<event>
 6    0  0.8991567E+002  0.1172861E+03  0.7546771E-02  0.1247643E+00
         21   -1    0    0  503  501  0.00000000000E+00  0.00000000000E+00  0.11130833149E+04  0.11130833149E+04  0.00000000000E+00 0. -1.
         21   -1    0    0  506  502 -0.00000000000E+00 -0.00000000000E+00 -0.97223652806E+02  0.97223652806E+02  0.00000000000E+00 0.  1.
         21    1    1    2  503  504 -0.39335708432E+02  0.10131714227E+03  0.95895679701E+03  0.96509616091E+03  0.00000000000E+00 0. -1.
         21    1    1    2  504  505  0.12928771542E+02 -0.59301933988E+02 -0.42537613991E+01  0.60843791749E+02  0.00000000000E+00 0.  1.
         21    1    1    2  505  502 -0.31755389282E+02 -0.84197386593E+02 -0.43464418051E-01  0.89986702055E+02  0.00000000000E+00 0.  1.
         21    1    1    2  506  501  0.58162326173E+02  0.42182178311E+02  0.61200090886E+02  0.94380312976E+02  0.00000000000E+00 0.  1.
<scales pt_clust_3="109.41275" pt_clust_4="34.69692" pt_clust_5="34.69692" pt_clust_6="71.84840"></scales>
<clustering>
<clus scale="   34.697">  4  5 -1 -1</clus>
<clus scale="   71.848">  2  6  1 -1</clus>
<clus scale="  109.413">  1  3  2 -1</clus>
<clus scale="  109.413">  1  3  2 -1</clus>
</clustering>
</event>
<event>
 6    0  0.8991567E+002  0.1534301E+03  0.7546771E-02  0.1196320E+00
         21   -1    0    0  503  501  0.00000000000E+00  0.00000000000E+00  0.22177064485E+03  0.22177064485E+03  0.00000000000E+00 0.  1.
         21   -1    0    0  506  502 -0.00000000000E+00 -0.00000000000E+00 -0.14977061453E+04  0.14977061453E+04  0.00000000000E+00 0. -1.
         21    1    1    2  503  502  0.50159024814E+02  0.11605210283E+02 -0.13781788503E+04  0.13791401496E+04  0.00000000000E+00 0. -1.
         21    1    1    2  504  505  0.46871994089E+02 -0.42582591677E+02 -0.29286394567E+02  0.69770723449E+02  0.00000000000E+00 0.  1.
         21    1    1    2  505  501 -0.14978547811E+03  0.50828199241E+01  0.14686047566E+03  0.20983213249E+03  0.00000000000E+00 0.  1.
         21    1    1    2  506  504  0.52754459208E+02  0.25894561470E+02 -0.15330731264E+02  0.60733784677E+02  0.00000000000E+00 0.  1.
<scales pt_clust_3="51.48406" pt_clust_4="68.33856" pt_clust_5="136.76245" pt_clust_6="68.33856"></scales>
<clustering>
<clus scale="   51.484">  2  3  1 -1</clus>
<clus scale="   68.339">  4  6 -1 -1</clus>
<clus scale="  136.762">  1  5  2 -1</clus>
<clus scale="  136.762">  1  3  2 -1</clus>
</clustering>
</event>
<event>
 6    0  0.1391987E+003  0.7895679E+02  0.7546771E-02  0.1332038E+00
         21   -1    0    0  506  501  0.00000000000E+00  0.00000000000E+00  0.65816367934E+03  0.65816367934E+03  0.00000000000E+00 0. -1.
         21   -1    0    0  505  502 -0.00000000000E+00 -0.00000000000E+00 -0.82068732229E+03  0.82068732229E+03  0.00000000000E+00 0.  1.
         21    1    1    2  503  501 -0.38000452667E+02  0.13110120523E+02  0.15882871981E+02  0.43222393333E+02  0.00000000000E+00 0.  1.
         21    1    1    2  504  503  0.76968504719E+02 -0.10350088859E+03 -0.62075260285E+03  0.63401133949E+03  0.00000000000E+00 0.  1.
         21    1    1    2  505  504 -0.19577599848E+02  0.50213003071E+02 -0.17476978227E+03  0.18289096447E+03  0.00000000000E+00 0. -1.
         21    1    1    2  506  502 -0.19390452204E+02  0.40177764999E+02  0.61711587019E+03  0.61872630433E+03  0.00000000000E+00 0. -1.
<scales pt_clust_3="40.19838" pt_clust_4="78.95679" pt_clust_5="54.06303" pt_clust_6="14000.00000"></scales>
<clustering>
<clus scale="   40.198">  1  3  2 -1</clus>
<clus scale="   54.063">  2  5  1 -1</clus>
<clus scale="   78.957">  2  4  1 -1</clus>
<clus scale="   40.198">  1  3  2 -1</clus>
</clustering>
</event>
<event>
 6    0  0.8991567E+002  0.8180331E+02  0.7546771E-02  0.1324010E+00
         21   -1    0    0  504  501  0.00000000000E+00  0.00000000000E+00  0.42111697746E+03  0.42111697746E+03  0.00000000000E+00 0.  1.
         21   -1    0    0  505  502 -0.00000000000E+00 -0.00000000000E+00 -0.76531309904E+03  0.76531309904E+03  0.00000000000E+00 0. -1.
         21    1    1    2  503  502  0.42235299698E+01 -0.41296753755E+02 -0.72174427593E+03  0.72293710647E+03  0.00000000000E+00 0. -1.
         21    1    1    2  504  506 -0.29678306821E+02  0.69248572356E+02  0.13714337916E+03  0.15647515175E+03  0.00000000000E+00 0.  1.
         21    1    1    2  505  501  0.87049114717E+02 -0.47307200784E+02  0.21663981592E+03  0.23821907871E+03  0.00000000000E+00 0.  1.
         21    1    1    2  506  503 -0.61594337866E+02  0.19355382182E+02  0.23764959279E+02  0.68798739568E+02  0.00000000000E+00 0.  1.
<scales pt_clust_3="41.51217" pt_clust_4="81.80331" pt_clust_5="14000.00000" pt_clust_6="59.42516"></scales>
<clustering>
<clus scale="   41.512">  2  3  1 -1</clus>
<clus scale="   59.425">  2  6  1 -1</clus>
<clus scale="   81.803">  1  4  2 -1</clus>
<clus scale="   81.803">  1  3  2 -1</clus>
</clustering>
</event>
<event>
 6    0  0.8991567E+002  0.1481539E+03  0.7546771E-02  0.1202760E+00
         21   -1    0    0  504  501  0.00000000000E+00  0.00000000000E+00  0.78642653018E+03  0.78642653018E+03  0.00000000000E+00 0.  1.
         21   -1    0    0  505  502 -0.00000000000E+00 -0.00000000000E+00 -0.58521495528E+02  0.58521495528E+02  0.00000000000E+00 0.  1.
         21    1    1    2  503  506  0.63300404438E+02 -0.13029440135E+02  0.20350538514E+03  0.21352084042E+03  0.00000000000E+00 0.  1.
         21    1    1    2  504  502 -0.11431610933E+03  0.10850084256E+03  0.18727076959E+03  0.24476712776E+03  0.00000000000E+00 0.  1.
         21    1    1    2  505  503  0.70173616346E+01 -0.33908086318E+02 -0.61253117697E+01  0.35164202342E+02  0.00000000000E+00 0.  1.
         21    1    1    2  506  501  0.43998343254E+02 -0.61563316110E+02  0.34325419170E+03  0.35149585519E+03  0.00000000000E+00 0.  1.
<scales pt_clust_3="52.05427" pt_clust_4="136.85333" pt_clust_5="34.62660" pt_clust_6="52.05427"></scales>
<clustering>
<clus scale="   34.627">  2  5  1 -1</clus>
<clus scale="   52.054">  3  6 -1 -1</clus>
<clus scale="  136.853">  2  4  1 -1</clus>
<clus scale="  148.154">  1  3  2 -1</clus>
</clustering>
</event>
<event>
 6    0  0.8991567E+002  0.1121227E+03  0.7546771E-02  0.1256689E+00
         21   -1    0    0  506  501  0.00000000000E+00  0.00000000000E+00  0.71352175403E+03  0.71352175403E+03  0.00000000000E+00 0. -1.
         21   -1    0    0  505  502 -0.00000000000E+00 -0.00000000000E+00 -0.16950194243E+03  0.16950194243E+03  0.00000000000E+00 0. -1.
         21    1    1    2  503  502  0.11844834777E+03  0.21235622724E+02 -0.71287860074E+02  0.13986751502E+03  0.00000000000E+00 0. -1.
         21    1    1    2  504  503 -0.63991645296E+02  0.34906562253E+02  0.44122663588E+03  0.44720727070E+03  0.00000000000E+00 0. -1.
         21    1    1    2  505  501 -0.73932464811E+02 -0.90012551859E+02 -0.10753400584E+01  0.11648787577E+03  0.00000000000E+00 0. -1.
         21    1    1    2  506  504  0.19475762333E+02  0.33870366883E+02  0.17515637585E+03  0.17946103497E+03  0.00000000000E+00 0. -1.
<scales pt_clust_3="112.12273" pt_clust_4="79.08871" pt_clust_5="14000.00000" pt_clust_6="39.07054"></scales>
<clustering>
<clus scale="   39.071">  1  6  2 -1</clus>
<clus scale="   79.089">  1  4  2 -1</clus>
<clus scale="  112.123">  2  3  1 -1</clus>
<clus scale="   39.071">  1  3  2 -1</clus>
</clustering>
</event>
<event>
 6    0  0.8991567E+002  0.1201114E+03  0.7546771E-02  0.1242913E+00
         21   -1    0    0  504  501  0.00000000000E+00  0.00000000000E+00  0.57456826537E+03  0.57456826537E+03  0.00000000000E+00 0. -1.
         21   -1    0    0  503  502 -0.00000000000E+00 -0.00000000000E+00 -0.18178771137E+03  0.18178771137E+03  0.00000000000E+00 0. -1.
         21    1    1    2  503  505  0.11400327477E+03  0.48955046381E+02 -0.14006412092E+03  0.18711307061E+03  0.00000000000E+00 0. -1.
         21    1    1    2  504  502 -0.87212814806E+01  0.32171103867E+02  0.46321740278E+02  0.57067891997E+02  0.00000000000E+00 0. -1.
         21    1    1    2  505  506 -0.57415235092E+02 -0.77099285224E+02  0.20298434502E+03  0.22459620060E+03  0.00000000000E+00 0. -1.
         21    1    1    2  506  501 -0.47866758200E+02 -0.40268650232E+01  0.28353858963E+03  0.28757881353E+03  0.00000000000E+00 0. -1.
<scales pt_clust_3="14000.00000" pt_clust_4="33.33228" pt_clust_5="120.11145" pt_clust_6="54.34426"></scales>
<clustering>
<clus scale="   33.332">  1  4  2 -1</clus>
<clus scale="   54.344">  1  6  2 -1</clus>
<clus scale="  120.111">  1  5  2 -1</clus>
<clus scale="   33.332">  1  3  2 -1</clus>
</clustering>
</event>
<event>
 6    0  0.8991567E+002  0.1012674E+03  0.7546771E-02  0.1277653E+00
         21   -1    0    0  503  501  0.00000000000E+00  0.00000000000E+00  0.36428631436E+02  0.36428631436E+02  0.00000000000E+00 0. -1.
         21   -1    0    0  505  502 -0.00000000000E+00 -0.00000000000E+00 -0.12298159687E+04  0.12298159687E+04  0.00000000000E+00 0. -1.
         21    1    1    2  503  504  0.16466657128E+02 -0.28192903153E+02 -0.20724515991E+02  0.38671645275E+02  0.00000000000E+00 0.  1.
         21    1    1    2  504  506 -0.80333080838E+02 -0.32577905898E+02 -0.97332935707E+02  0.13033964939E+03  0.00000000000E+00 0. -1.
         21    1    1    2  505  501 -0.41430420305E+02  0.71481151979E+02 -0.21349764179E+03  0.22892635905E+03  0.00000000000E+00 0. -1.
         21    1    1    2  506  502  0.10529684402E+03 -0.10710342928E+02 -0.86183224381E+03  0.86830694646E+03  0.00000000000E+00 0. -1.
<scales pt_clust_3="32.64951" pt_clust_4="14000.00000" pt_clust_5="73.44598" pt_clust_6="101.26736"></scales>
<clustering>
<clus scale="   32.650">  1  3  2 -1</clus>
<clus scale="   73.446">  1  5  2 -1</clus>
<clus scale="  101.267">  2  6  1 -1</clus>
<clus scale="   32.650">  1  3  2 -1</clus>
</clustering>
</event>
<event>
 6    0  0.8991567E+002  0.8537921E+02  0.7546771E-02  0.1314444E+00
         21   -1    0    0  504  501  0.00000000000E+00  0.00000000000E+00  0.22967197189E+03  0.22967197189E+03  0.00000000000E+00 0. -1.
         21   -1    0    0  503  502 -0.00000000000E+00 -0.00000000000E+00 -0.20967398895E+03  0.20967398895E+03  0.00000000000E+00 0.  1.
         21    1    1    2  503  501  0.30959998749E+02  0.51291763964E+02 -0.93653287910E+02  0.11117690817E+03  0.00000000000E+00 0.  1.
         21    1    1    2  504  505 -0.85673151454E+02 -0.44683745802E+02  0.16778048232E+03  0.19361512406E+03  0.00000000000E+00 0. -1.
         21    1    1    2  505  506  0.43762226367E+02  0.42270986342E+02 -0.54275323614E-01  0.60843830326E+02  0.00000000000E+00 0.  1.
         21    1    1    2  506  502  0.10950926338E+02 -0.48879004504E+02 -0.54074936145E+02  0.73710098277E+02  0.00000000000E+00 0.  1.
<scales pt_clust_3="42.20762" pt_clust_4="85.37921" pt_clust_5="14000.00000" pt_clust_6="50.09072"></scales>
<clustering>
<clus scale="   50.091">  2  6  1 -1</clus>
<clus scale="   42.208">  2  3  1 -1</clus>
<clus scale="   85.379">  1  4  2 -1</clus>
<clus scale="   85.379">  1  3  2 -1</clus>
</clustering>
</event>
<event>
 6    0  0.8991567E+002  0.7494081E+02  0.7546771E-02  0.1344054E+00
         21   -1    0    0  505  501  0.00000000000E+00  0.00000000000E+00  0.73592633928E+03  0.73592633928E+03  0.00000000000E+00 0. -1.
         21   -1    0    0  503  502 -0.00000000000E+00 -0.00000000000E+00 -0.26914022938E+03  0.26914022938E+03  0.00000000000E+00 0. -1.
         21    1    1    2  503  506  0.63667682872E+02 -0.30335751792E+02 -0.13797658333E+03  0.15495602353E+03  0.00000000000E+00 0. -1.
         21    1    1    2  504  501 -0.38347059526E+01 -0.48547842777E+02  0.68618657905E+03  0.68791250844E+03  0.00000000000E+00 0. -1.
         21    1    1    2  505  502 -0.82136103029E+02  0.31697876956E+02 -0.53164588636E+02  0.10284730579E+03  0.00000000000E+00 0. -1.
         21    1    1    2  506  504  0.22303126110E+02  0.47185717613E+02 -0.28259297185E+02  0.59350730899E+02  0.00000000000E+00 0. -1.
<scales pt_clust_3="14000.00000" pt_clust_4="48.69906" pt_clust_5="74.94081" pt_clust_6="38.10818"></scales>
<clustering>
<clus scale="   48.699">  1  4  2 -1</clus>
<clus scale="   38.108">  1  6  2 -1</clus>
<clus scale="   74.941">  1  5  2 -1</clus>
<clus scale="   48.699">  1  3  2 -1</clus>
</clustering>
</event>
<event>
 6    0  0.8991567E+002  0.1190973E+03  0.7546771E-02  0.1244594E+00
         21   -1    0    0  504  501  0.00000000000E+00  0.00000000000E+00  0.28924845001E+03  0.28924845001E+03  0.00000000000E+00 0. -1.
         21   -1    0    0  505  502 -0.00000000000E+00 -0.00000000000E+00 -0.68704544905E+03  0.68704544905E+03  0.00000000000E+00 0. -1.
         21    1    1    2  503  501 -0.34155928401E+02  0.14177796595E+02  0.21381482576E+03  0.21698944001E+03  0.00000000000E+00 0. -1.
         21    1    1    2  504  506 -0.86336962570E+02  0.35191157339E+02 -0.11012594598E+02  0.93881659020E+02  0.00000000000E+00 0.  1.
         21    1    1    2  505  503  0.93617693390E+02 -0.13207041279E+03 -0.20942316953E+03  0.26469780956E+03  0.00000000000E+00 0. -1.
         21    1    1    2  506  502  0.26875197580E+02  0.82701458861E+02 -0.39117606068E+03  0.40072499047E+03  0.00000000000E+00 0. -1.
<scales pt_clust_3="36.98158" pt_clust_4="14000.00000" pt_clust_5="119.09728" pt_clust_6="87.18052"></scales>
<clustering>
<clus scale="   36.982">  1  3  2 -1</clus>
<clus scale="   87.181">  2  6  1 -1</clus>
<clus scale="  119.097">  2  5  1 -1</clus>
<clus scale="   36.982">  1  3  2 -1</clus>
</clustering>
</event>
<event>
 6    0  0.8991567E+002  0.1318635E+03  0.7546771E-02  0.1224717E+00
         21   -1    0    0  505  501  0.00000000000E+00  0.00000000000E+00  0.41186255818E+03  0.41186255818E+03  0.00000000000E+00 0.  1.
         21   -1    0    0  506  502 -0.00000000000E+00 -0.00000000000E+00 -0.18984672199E+03  0.18984672199E+03  0.00000000000E+00 0.  1.
         21    1    1    2  503  504  0.28525366973E+02  0.15346325627E+02  0.24039306215E+03  0.24256551816E+03  0.00000000000E+00 0.  1.
         21    1    1    2  504  501  0.15480483991E+02 -0.25886504807E+02  0.67637354847E+02  0.74057871198E+02  0.00000000000E+00 0.  1.
         21    1    1    2  505  502  0.11327134481E+03  0.15871150189E+02 -0.39038710725E+02  0.12085657573E+03  0.00000000000E+00 0.  1.
         21    1    1    2  506  503 -0.15727719577E+03 -0.53309710086E+01 -0.46975870083E+02  0.16422931508E+03  0.00000000000E+00 0.  1.
<scales pt_clust_3="39.60002" pt_clust_4="30.16217" pt_clust_5="131.86351" pt_clust_6="14000.00000"></scales>
<clustering>
<clus scale="   30.162">  1  4  2 -1</clus>
<clus scale="   39.600">  1  3  2 -1</clus>
<clus scale="  131.864">  2  5  1 -1</clus>
<clus scale="   30.162">  1  3  2 -1</clus>
</clustering>
</event>
<event>
 6    0  0.8991567E+002  0.8988613E+02  0.7546771E-02  0.1303128E+00
         21   -1    0    0  506  501  0.00000000000E+00  0.00000000000E+00  0.42237728223E+03  0.42237728223E+03  0.00000000000E+00 0.  1.
         21   -1    0    0  504  502 -0.00000000000E+00 -0.00000000000E+00 -0.15174367821E+03  0.15174367821E+03  0.00000000000E+00 0.  1.
         21    1    1    2  503  505 -0.32879005729E+02  0.54976688298E+02  0.20843458661E+02  0.67364048594E+02  0.00000000000E+00 0.  1.
         21    1    1    2  504  501  0.67368737016E+02  0.29401695075E+02  0.82041122511E+01  0.73961570145E+02  0.00000000000E+00 0.  1.
         21    1    1    2  505  502 -0.51936323007E+02  0.13402196710E+02 -0.79945548236E+02  0.96271964802E+02  0.00000000000E+00 0.  1.
         21    1    1    2  506  503  0.17446591719E+02 -0.97780580083E+02  0.32153158134E+03  0.33652337691E+03  0.00000000000E+00 0.  1.
<scales pt_clust_3="89.88613" pt_clust_4="54.43013" pt_clust_5="53.63768" pt_clust_6="14000.00000"></scales>
<clustering>
<clus scale="   53.638">  2  5  1 -1</clus>
<clus scale="   54.430">  2  4  1 -1</clus>
<clus scale="   89.886">  2  3  1 -1</clus>
<clus scale="   89.886">  1  3  2 -1</clus>
</clustering>
</event>
<event>
 6    0  0.8991567E+002  0.1070563E+03  0.7546771E-02  0.1266120E+00
         21   -1    0    0  506  501  0.00000000000E+00  0.00000000000E+00  0.18196015824E+04  0.18196015824E+04  0.00000000000E+00 0.  1.
         21   -1    0    0  505  502 -0.00000000000E+00 -0.00000000000E+00 -0.47102151011E+02  0.47102151011E+02  0.00000000000E+00 0. -1.
         21    1    1    2  503  501  0.20376835837E+02  0.40816282417E+02  0.95484399844E+03  0.95593318057E+03  0.00000000000E+00 0.  1.
         21    1    1    2  504  503  0.38726262987E+02  0.42532512459E+02  0.63254944385E+03  0.63515945791E+03  0.00000000000E+00 0.  1.
         21    1    1    2  505  504  0.17984269409E+02 -0.10038021693E+03  0.38317669326E+02  0.10893973417E+03  0.00000000000E+00 0. -1.
         21    1    1    2  506  502 -0.77087368233E+02  0.17031422057E+02  0.14678831979E+03  0.16667136078E+03  0.00000000000E+00 0. -1.
<scales pt_clust_3="32.32670" pt_clust_4="32.32670" pt_clust_5="100.71448" pt_clust_6="78.94638"></scales>
<clustering>
<clus scale="   32.327">  3  4 -1 -1</clus>
<clus scale="   78.946">  2  6  1 -1</clus>
<clus scale="  100.714">  2  5  1 -1</clus>
<clus scale="  107.056">  1  3  2 -1</clus>
</clustering>
</event>
<event>
 6    0  0.8991567E+002  0.1027860E+03  0.7546771E-02  0.1274544E+00
         21   -1    0    0  505  501  0.00000000000E+00  0.00000000000E+00  0.22104763263E+04  0.22104763263E+04  0.00000000000E+00 0. -1.
         21   -1    0    0  503  502 -0.00000000000E+00 -0.00000000000E+00 -0.20908111026E+03  0.20908111026E+03  0.00000000000E+00 0.  1.
         21    1    1    2  503  501 -0.60157834231E+02  0.49918882851E+01  0.17858110782E+03  0.18850754902E+03  0.00000000000E+00 0. -1.
         21    1    1    2  504  506  0.33105607810E+02  0.53483221476E+02  0.42776776437E+02  0.76067659687E+02  0.00000000000E+00 0. -1.
         21    1    1    2  505  504 -0.19889648257E+01  0.47504207712E+02  0.19510928749E+04  0.19516721067E+04  0.00000000000E+00 0. -1.
         21    1    1    2  506  502  0.29041191246E+02 -0.10597931747E+03 -0.17105554311E+03  0.20331012112E+03  0.00000000000E+00 0.  1.
<scales pt_clust_3="14000.00000" pt_clust_4="72.18401" pt_clust_5="47.54583" pt_clust_6="102.78597"></scales>
<clustering>
<clus scale="   47.546">  1  5  2 -1</clus>
<clus scale="   72.184">  1  4  2 -1</clus>
<clus scale="  102.786">  2  6  1 -1</clus>
<clus scale="   47.546">  1  3  2 -1</clus>
</clustering>
</event>
<event>
 6    0  0.8991567E+002  0.9419770E+02  0.7546771E-02  0.1292993E+00
         21   -1    0    0  503  501  0.00000000000E+00  0.00000000000E+00  0.86553574356E+02  0.86553574356E+02  0.00000000000E+00 0.  1.
         21   -1    0    0  504  502 -0.00000000000E+00 -0.00000000000E+00 -0.99083080278E+03  0.99083080278E+03  0.00000000000E+00 0.  1.
         21    1    1    2  503  502  0.53985192809E+02 -0.57955004416E+02 -0.77346016837E+03  0.77750486535E+03  0.00000000000E+00 0.  1.
         21    1    1    2  504  505 -0.41230600457E+02  0.14941588331E+02 -0.79977788046E+02  0.91212170551E+02  0.00000000000E+00 0.  1.
         21    1    1    2  505  506 -0.52229395187E+02  0.72813800942E+02 -0.10317637595E+03  0.13665695695E+03  0.00000000000E+00 0.  1.
         21    1    1    2  506  501  0.39474802835E+02 -0.29800384857E+02  0.52337103940E+02  0.72010384288E+02  0.00000000000E+00 0.  1.
<scales pt_clust_3="83.24719" pt_clust_4="30.83757" pt_clust_5="30.83757" pt_clust_6="49.46032"></scales>
<clustering>
<clus scale="   30.838">  4  5 -1 -1</clus>
<clus scale="   49.460">  1  6  2 -1</clus>
<clus scale="   83.247">  2  3  1 -1</clus>
<clus scale="   49.460">  1  3  2 -1</clus>
</clustering>
</event>
<event>
 6    0  0.8991567E+002  0.1013300E+03  0.7546771E-02  0.1277524E+00
         21   -1    0    0  506  501  0.00000000000E+00  0.00000000000E+00  0.12992476552E+03  0.12992476552E+03  0.00000000000E+00 0. -1.
         21   -1    0    0  505  502 -0.00000000000E+00 -0.00000000000E+00 -0.40621794678E+03  0.40621794678E+03  0.00000000000E+00 0.  1.
         21    1    1    2  503  504  0.72870442843E+02  0.50078208076E+02 -0.97547668362E+02  0.13165665941E+03  0.00000000000E+00 0.  1.
         21    1    1    2  504  502  0.77552195516E+01 -0.40317740452E+02 -0.46500996873E+02  0.62032300744E+02  0.00000000000E+00 0.  1.
         21    1    1    2  505  501  0.27886069042E+02 -0.26185224961E+02 -0.20645611167E+03  0.20997005715E+03  0.00000000000E+00 0.  1.
         21    1    1    2  506  503 -0.10851173144E+03  0.16424757337E+02  0.74211595640E+02  0.13248369500E+03  0.00000000000E+00 0. -1.
<scales pt_clust_3="101.32995" pt_clust_4="49.92794" pt_clust_5="38.25309" pt_clust_6="14000.00000"></scales>
<clustering>
<clus scale="   38.253">  2  5  1 -1</clus>
<clus scale="   49.928">  2  4  1 -1</clus>
<clus scale="  101.330">  2  3  1 -1</clus>
<clus scale="  101.330">  1  3  2 -1</clus>
</clustering>
</event>
<event>
 6    0  0.8991567E+002  0.1197555E+03  0.7546771E-02  0.1243501E+00
         21   -1    0    0  505  501  0.00000000000E+00  0.00000000000E+00  0.13266395246E+03  0.13266395246E+03  0.00000000000E+00 0.  1.
         21   -1    0    0  503  502 -0.00000000000E+00 -0.00000000000E+00 -0.67475337230E+03  0.67475337230E+03  0.00000000000E+00 0.  1.
         21    1    1    2  503  501  0.32574441549E+02 -0.24986590813E+02 -0.15485076949E+02  0.43877232944E+02  0.00000000000E+00 0. -1.
         21    1    1    2  504  502 -0.69262826693E+02  0.10211099498E+03 -0.61093534167E+03  0.62327039570E+03  0.00000000000E+00 0.  1.
         21    1    1    2  505  506 -0.21748503015E+02 -0.24376223675E+02  0.32073945061E+02  0.45781389404E+02  0.00000000000E+00 0.  1.
         21    1    1    2  506  504  0.58436888159E+02 -0.52748180491E+02  0.52257053717E+02  0.94488306716E+02  0.00000000000E+00 0.  1.
<scales pt_clust_3="40.98541" pt_clust_4="119.75554" pt_clust_5="32.66799" pt_clust_6="14000.00000"></scales>
<clustering>
<clus scale="   32.668">  1  5  2 -1</clus>
<clus scale="   40.985">  1  3  2 -1</clus>
<clus scale="  119.756">  2  4  1 -1</clus>
<clus scale="   32.668">  1  3  2 -1</clus>
</clustering>
</event>
<event>
 6    0  0.8991567E+002  0.1139352E+03  0.7546771E-02  0.1253451E+00
         21   -1    0    0  503  501  0.00000000000E+00  0.00000000000E+00  0.57262685375E+03  0.57262685375E+03  0.00000000000E+00 0.  1.
         21   -1    0    0  505  502 -0.00000000000E+00 -0.00000000000E+00 -0.11490475672E+03  0.11490475672E+03  0.00000000000E+00 0.  1.
         21    1    1    2  503  502  0.20542382275E+02  0.13318293400E+03  0.29388258238E+03  0.32330582365E+03  0.00000000000E+00 0.  1.
         21    1    1    2  504  506 -0.72773258085E+02 -0.71550100345E+02  0.80571849246E+02  0.13002763876E+03  0.00000000000E+00 0.  1.
         21    1    1    2  505  504  0.91112025893E+02 -0.61988021690E+02 -0.30192213933E+02  0.11426060510E+03  0.00000000000E+00 0.  1.
         21    1    1    2  506  501 -0.38881150083E+02  0.35518803878E+00  0.11345987934E+03  0.11993754295E+03  0.00000000000E+00 0.  1.
<scales pt_clust_3="113.93517" pt_clust_4="14000.00000" pt_clust_5="107.23572" pt_clust_6="38.88277"></scales>
<clustering>
<clus scale="   38.883">  1  6  2 -1</clus>
<clus scale="  107.236">  2  5  1 -1</clus>
<clus scale="  113.935">  1  3  2 -1</clus>
<clus scale="   38.883">  1  3  2 -1</clus>
</clustering>
</event>
<event>
 6    0  0.8991567E+002  0.1124093E+03  0.7546771E-02  0.1256172E+00
         21   -1    0    0  503  501  0.00000000000E+00  0.00000000000E+00  0.48287998822E+02  0.48287998822E+02  0.00000000000E+00 0.  1.
         21   -1    0    0  504  502 -0.00000000000E+00 -0.00000000000E+00 -0.83856758332E+03  0.83856758332E+03  0.00000000000E+00 0.  1.
         21    1    1    2  503  506 -0.12713301233E+03 -0.56316660581E+02 -0.25890499241E+03  0.29388120760E+03  0.00000000000E+00 0.  1.
         21    1    1    2  504  505  0.39865001749E+02  0.22539717783E+02 -0.22152504168E+03  0.22620919816E+03  0.00000000000E+00 0.  1.
         21    1    1    2  505  501  0.77173453528E+02  0.70351101392E+02 -0.74257357287E+02  0.12813732675E+03  0.00000000000E+00 0.  1.
         21    1    1    2  506  502  0.10094557052E+02 -0.36574158594E+02 -0.23559219313E+03  0.23862784964E+03  0.00000000000E+00 0. -1.
<scales pt_clust_3="112.40933" pt_clust_4="44.52624" pt_clust_5="14000.00000" pt_clust_6="37.94165"></scales>
<clustering>
<clus scale="   37.942">  2  6  1 -1</clus>
<clus scale="   44.526">  2  4  1 -1</clus>
<clus scale="  112.409">  2  3  1 -1</clus>
<clus scale="  112.409">  1  3  2 -1</clus>
</clustering>
</event>
<event>
 6    0  0.8991567E+002  0.1002431E+03  0.7546771E-02  0.1279786E+00
         21   -1    0    0  506  501  0.00000000000E+00  0.00000000000E+00  0.16681967661E+03  0.16681967661E+03  0.00000000000E+00 0. -1.
         21   -1    0    0  503  502 -0.00000000000E+00 -0.00000000000E+00 -0.59239972877E+03  0.59239972877E+03  0.00000000000E+00 0. -1.
         21    1    1    2  503  504  0.69696934532E+02  0.31703713440E+02 -0.17944063627E+03  0.19509415694E+03  0.00000000000E+00 0. -1.
         21    1    1    2  504  505  0.16678596449E+02  0.54990785267E+02 -0.31299654427E+02  0.65435696764E+02  0.00000000000E+00 0. -1.
         21    1    1    2  505  501  0.27519492889E+02  0.29838954803E+02  0.11979752424E+03  0.12648767737E+03  0.00000000000E+00 0. -1.
         21    1    1    2  506  502 -0.11389502387E+03 -0.11653345351E+03 -0.33463728570E+03  0.37220187430E+03  0.00000000000E+00 0. -1.
<scales pt_clust_3="14000.00000" pt_clust_4="72.07584" pt_clust_5="40.59170" pt_clust_6="100.24313"></scales>
<clustering>
<clus scale="   40.592">  1  5  2 -1</clus>
<clus scale="   72.076">  1  4  2 -1</clus>
<clus scale="  100.243">  1  6  2 -1</clus>
<clus scale="   40.592">  1  3  2 -1</clus>
</clustering>
</event>
<event>
 6    0  0.8991567E+002  0.8809945E+02  0.7546771E-02  0.1307521E+00
         21   -1    0    0  503  501  0.00000000000E+00  0.00000000000E+00  0.25658625956E+03  0.25658625956E+03  0.00000000000E+00 0.  1.
         21   -1    0    0  506  502 -0.00000000000E+00 -0.00000000000E+00 -0.50370143969E+03  0.50370143969E+03  0.00000000000E+00 0. -1.
         21    1    1    2  503  504  0.40539910029E+02  0.33829839114E+02  0.19829947458E+03  0.20520873261E+03  0.00000000000E+00 0.  1.
         21    1    1    2  504  502 -0.61177015357E+02  0.62519071699E+02 -0.22926736063E+03  0.24538700900E+03  0.00000000000E+00 0. -1.
         21    1    1    2  505  501  0.61673819404E+02 -0.39215185113E+02  0.91614001651E+01  0.73657463955E+02  0.00000000000E+00 0.  1.
         21    1    1    2  506  505 -0.41036714076E+02 -0.57133725700E+02 -0.22530869424E+03  0.23603449369E+03  0.00000000000E+00 0. -1.
<scales pt_clust_3="52.80097" pt_clust_4="14000.00000" pt_clust_5="88.09945" pt_clust_6="65.35623"></scales>
<clustering>
<clus scale="   52.801">  1  3  2 -1</clus>
<clus scale="   65.356">  2  6  1 -1</clus>
<clus scale="   88.099">  1  5  2 -1</clus>
<clus scale="   52.801">  1  3  2 -1</clus>
</clustering>
</event>
<event>
 6    0  0.8991567E+002  0.9517057E+02  0.7546771E-02  0.1290792E+00
         21   -1    0    0  503  501  0.00000000000E+00  0.00000000000E+00  0.26483065127E+03  0.26483065127E+03  0.00000000000E+00 0. -1.
         21   -1    0    0  506  502 -0.00000000000E+00 -0.00000000000E+00 -0.17273024859E+04  0.17273024859E+04  0.00000000000E+00 0. -1.
         21    1    1    2  503  502  0.79774239891E+02  0.14093866409E+03  0.17288931717E+03  0.23689312438E+03  0.00000000000E+00 0. -1.
         21    1    1    2  504  501 -0.17392356220E+02 -0.27186314749E+02  0.33444595629E+02  0.46477206686E+02  0.00000000000E+00 0. -1.
         21    1    1    2  505  504 -0.28869192536E+01 -0.40015373407E+02 -0.29638427855E+01  0.40228705867E+02  0.00000000000E+00 0. -1.
         21    1    1    2  506  505 -0.59494964417E+02 -0.73736975932E+02 -0.16658419046E+04  0.16685341002E+04  0.00000000000E+00 0. -1.
<scales pt_clust_3="95.17057" pt_clust_4="32.27367" pt_clust_5="42.48900" pt_clust_6="14000.00000"></scales>
<clustering>
<clus scale="   32.274">  1  4  2 -1</clus>
<clus scale="   42.489">  1  5  2 -1</clus>
<clus scale="   95.171">  1  3  2 -1</clus>
<clus scale="   32.274">  1  3  2 -1</clus>
</clustering>
</event>
<event>
 6    0  0.8991567E+002  0.7061428E+02  0.7546771E-02  0.1358017E+00
         21   -1    0    0  505  501  0.00000000000E+00  0.00000000000E+00  0.36167138348E+04  0.36167138348E+04  0.00000000000E+00 0.  1.
         21   -1    0    0  504  502 -0.00000000000E+00 -0.00000000000E+00 -0.33643519525E+03  0.33643519525E+03  0.00000000000E+00 0.  1.
         21    1    1    2  503  506 -0.16715669148E+02  0.78114816513E+02 -0.90382454705E+02  0.12062473325E+03  0.00000000000E+00 0.  1.
         21    1    1    2  504  501  0.20485430355E+02 -0.57368387809E+02  0.33825026650E+04  0.33830511470E+04  0.00000000000E+00 0.  1.
         21    1    1    2  505  503  0.34562568425E+02  0.41644388747E+02  0.20947725751E+03  0.21635514244E+03  0.00000000000E+00 0.  1.
         21    1    1    2  506  502 -0.38332329632E+02 -0.62390817451E+02 -0.22131882825E+03  0.23311800732E+03  0.00000000000E+00 0.  1.
<scales pt_clust_3="70.61428" pt_clust_4="57.11590" pt_clust_5="54.11863" pt_clust_6="14000.00000"></scales>
<clustering>
<clus scale="   54.119">  1  5  2 -1</clus>
<clus scale="   57.116">  1  4  2 -1</clus>
<clus scale="   70.614">  1  3  2 -1</clus>
<clus scale="   54.119">  1  3  2 -1</clus>
</clustering>
</event>
<event>
 6    0  0.8991567E+002  0.1573961E+03  0.7546771E-02  0.1191668E+00
         21   -1    0    0  505  501  0.00000000000E+00  0.00000000000E+00  0.72572012855E+03  0.72572012855E+03  0.00000000000E+00 0.  1.
         21   -1    0    0  504  502 -0.00000000000E+00 -0.00000000000E+00 -0.37895289533E+03  0.37895289533E+03  0.00000000000E+00 0. -1.
         21    1    1    2  503  502 -0.12817891333E+03 -0.98226178532E+02 -0.28495120890E+03  0.32752924667E+03  0.00000000000E+00 0. -1.
         21    1    1    2  504  506 -0.16629818656E+02  0.32152791654E+02 -0.54801427481E+02  0.65677616686E+02  0.00000000000E+00 0.  1.
         21    1    1    2  505  503  0.96535707491E+02  0.73383774296E+02  0.59991083742E+03  0.61204357198E+03  0.00000000000E+00 0.  1.
         21    1    1    2  506  501  0.48273024495E+02 -0.73103874176E+01  0.86609032179E+02  0.99422588545E+02  0.00000000000E+00 0. -1.
<scales pt_clust_3="14000.00000" pt_clust_4="36.19880" pt_clust_5="157.39614" pt_clust_6="48.39971"></scales>
<clustering>
<clus scale="   36.199">  2  4  1 -1</clus>
<clus scale="   48.400">  1  6  2 -1</clus>
<clus scale="  157.396">  1  5  2 -1</clus>
<clus scale="   48.400">  1  3  2 -1</clus>
</clustering>
</event>
<event>
 6    0  0.8991567E+002  0.1750580E+03  0.7546771E-02  0.1172674E+00
         21   -1    0    0  503  501  0.00000000000E+00  0.00000000000E+00  0.12194487082E+03  0.12194487082E+03  0.00000000000E+00 0.  1.
         21   -1    0    0  505  502 -0.00000000000E+00 -0.00000000000E+00 -0.26360562699E+04  0.26360562699E+04  0.00000000000E+00 0. -1.
         21    1    1    2  503  506 -0.12408436334E+03 -0.19753239143E+03 -0.50484560170E+03  0.55613402742E+03  0.00000000000E+00 0. -1.
         21    1    1    2  504  501  0.45702230194E+02  0.16139575325E+03  0.14228928210E+02  0.16834412793E+03  0.00000000000E+00 0.  1.
         21    1    1    2  505  504 -0.19420925095E+02 -0.46977060758E+02 -0.10973860787E+04  0.10985627985E+04  0.00000000000E+00 0. -1.
         21    1    1    2  506  502  0.97803058241E+02  0.83113698939E+02 -0.92610864685E+03  0.93496018681E+03  0.00000000000E+00 0. -1.
<scales pt_clust_3="14000.00000" pt_clust_4="175.05796" pt_clust_5="50.83322" pt_clust_6="101.96320"></scales>
<clustering>
<clus scale="   50.833">  2  5  1 -1</clus>
<clus scale="  101.963">  2  6  1 -1</clus>
<clus scale="  175.058">  1  4  2 -1</clus>
<clus scale="  175.058">  1  3  2 -1</clus>
</clustering>
</event>
<event>
 6    0  0.8991567E+002  0.9374188E+02  0.7546771E-02  0.1294035E+00
         21   -1    0    0  504  501  0.00000000000E+00  0.00000000000E+00  0.76008761561E+03  0.76008761561E+03  0.00000000000E+00 0. -1.
         21   -1    0    0  505  502 -0.00000000000E+00 -0.00000000000E+00 -0.13469701105E+04  0.13469701105E+04  0.00000000000E+00 0.  1.
         21    1    1    2  503  506  0.12846154808E+03 -0.65737099303E+01  0.21021467831E+03  0.24644633082E+03  0.00000000000E+00 0. -1.
         21    1    1    2  504  502  0.13228623002E+02 -0.28510516692E+02 -0.11204987981E+04  0.11209395178E+04  0.00000000000E+00 0.  1.
         21    1    1    2  505  503 -0.99287980249E+02  0.55983630005E+02 -0.19136489267E+03  0.22273929155E+03  0.00000000000E+00 0.  1.
         21    1    1    2  506  501 -0.42402190835E+02 -0.20899403383E+02  0.51476651754E+03  0.51693258597E+03  0.00000000000E+00 0.  1.
<scales pt_clust_3="93.74188" pt_clust_4="31.43002" pt_clust_5="14000.00000" pt_clust_6="47.27672"></scales>
<clustering>
<clus scale="   31.430">  2  4  1 -1</clus>
<clus scale="   47.277">  1  6  2 -1</clus>
<clus scale="   93.742">  1  3  2 -1</clus>
<clus scale="   47.277">  1  3  2 -1</clus>
</clustering>
</event>
<event>
 6    0  0.8991567E+002  0.6959747E+02  0.7546771E-02  0.1361467E+00
         21   -1    0    0  506  501  0.00000000000E+00  0.00000000000E+00  0.33166336423E+02  0.33166336423E+02  0.00000000000E+00 0. -1.
         21   -1    0    0  503  502 -0.00000000000E+00 -0.00000000000E+00 -0.28685634034E+04  0.28685634034E+04  0.00000000000E+00 0.  1.
         21    1    1    2  503  504 -0.96631112932E+02 -0.19898841646E+02 -0.23505783658E+04  0.23526479102E+04  0.00000000000E+00 0.  1.
         21    1    1    2  504  501 -0.51031643920E+02 -0.12203634935E+02 -0.53968305302E+02  0.75271079200E+02  0.00000000000E+00 0.  1.
         21    1    1    2  505  502  0.34712368014E+02  0.97354105308E+01 -0.28839548808E+03  0.29064012843E+03  0.00000000000E+00 0.  1.
         21    1    1    2  506  505  0.11295038884E+03  0.22367066050E+02 -0.14245490779E+03  0.18317062192E+03  0.00000000000E+00 0. -1.
<scales pt_clust_3="14000.00000" pt_clust_4="51.56793" pt_clust_5="36.05172" pt_clust_6="69.59747"></scales>
<clustering>
<clus scale="   36.052">  2  5  1 -1</clus>
<clus scale="   51.568">  1  4  2 -1</clus>
<clus scale="   69.597">  1  6  2 -1</clus>
<clus scale="   51.568">  1  3  2 -1</clus>
</clustering>
</event>
<event>
 6    0  0.8991567E+002  0.1087056E+03  0.7546771E-02  0.1262986E+00
         21   -1    0    0  505  501  0.00000000000E+00  0.00000000000E+00  0.34997332412E+03  0.34997332412E+03  0.00000000000E+00 0.  1.
         21   -1    0    0  504  502 -0.00000000000E+00 -0.00000000000E+00 -0.29072601504E+03  0.29072601504E+03  0.00000000000E+00 0.  1.
         21    1    1    2  503  501 -0.13888277456E+02  0.45743229658E+02  0.14174136611E+03  0.14958590234E+03  0.00000000000E+00 0.  1.
         21    1    1    2  504  503  0.50247635090E+02 -0.85193243218E+02 -0.94947244523E+02  0.13710467813E+03  0.00000000000E+00 0.  1.
         21    1    1    2  505  506 -0.27588288035E+02 -0.87561164542E+02  0.14410714847E+03  0.17086527269E+03  0.00000000000E+00 0.  1.
         21    1    1    2  506  502 -0.87710695991E+01  0.12701117810E+03 -0.13165396098E+03  0.18314348600E+03  0.00000000000E+00 0.  1.
<scales pt_clust_3="47.80510" pt_clust_4="108.70561" pt_clust_5="64.82155" pt_clust_6="14000.00000"></scales>
<clustering>
<clus scale="   47.805">  1  3  2 -1</clus>
<clus scale="   64.822">  1  5  2 -1</clus>
<clus scale="  108.706">  2  4  1 -1</clus>
<clus scale="   47.805">  1  3  2 -1</clus>
</clustering>
</event>
<event>
 6    0  0.8991567E+002  0.1158833E+03  0.7546771E-02  0.1250047E+00
         21   -1    0    0  505  501  0.00000000000E+00  0.00000000000E+00  0.68894109888E+03  0.68894109888E+03  0.00000000000E+00 0. -1.
         21   -1    0    0  503  502 -0.00000000000E+00 -0.00000000000E+00 -0.85437532643E+03  0.85437532643E+03  0.00000000000E+00 0. -1.
         21    1    1    2  503  506  0.64628340884E+02  0.24064533453E+02 -0.80769620910E+03  0.81063499210E+03  0.00000000000E+00 0. -1.
         21    1    1    2  504  502 -0.12250079808E+03 -0.25278224786E+02  0.37497092465E+03  0.39528297271E+03  0.00000000000E+00 0. -1.
         21    1    1    2  505  504 -0.49983139493E+02  0.32106252820E+02  0.14977101942E+02  0.61265318789E+02  0.00000000000E+00 0. -1.
         21    1    1    2  506  501  0.10785559668E+03 -0.30892561487E+02  0.25231395495E+03  0.27613314172E+03  0.00000000000E+00 0. -1.
<scales pt_clust_3="68.88283" pt_clust_4="14000.00000" pt_clust_5="59.40644" pt_clust_6="115.88334"></scales>
<clustering>
<clus scale="   59.406">  1  5  2 -1</clus>
<clus scale="   68.883">  2  3  1 -1</clus>
<clus scale="  115.883">  1  6  2 -1</clus>
<clus scale="   59.406">  1  3  2 -1</clus>
</clustering>
</event>
<event>
 6    0  0.8991567E+002  0.6863229E+02  0.7546771E-02  0.1364807E+00
         21   -1    0    0  504  501  0.00000000000E+00  0.00000000000E+00  0.14993306929E+04  0.14993306929E+04  0.00000000000E+00 0. -1.
         21   -1    0    0  506  502 -0.00000000000E+00 -0.00000000000E+00 -0.13803423313E+03  0.13803423313E+03  0.00000000000E+00 0. -1.
         21    1    1    2  503  505 -0.77336743109E+02 -0.48234109808E+01  0.37071882090E+02  0.85898553945E+02  0.00000000000E+00 0.  1.
         21    1    1    2  504  502  0.57318746149E+02  0.27028051107E+02  0.10858020067E+04  0.10876497377E+04  0.00000000000E+00 0. -1.
         21    1    1    2  505  501  0.32333837616E+00 -0.80734984377E+02  0.33752561179E+03  0.34704723146E+03  0.00000000000E+00 0.  1.
         21    1    1    2  506  503  0.19694658584E+02  0.58530344251E+02 -0.99103040765E+02  0.11676940294E+03  0.00000000000E+00 0. -1.
<scales pt_clust_3="68.63229" pt_clust_4="64.69905" pt_clust_5="14000.00000" pt_clust_6="61.75501"></scales>
<clustering>
<clus scale="   61.755">  2  6  1 -1</clus>
<clus scale="   64.699">  1  4  2 -1</clus>
<clus scale="   68.632">  2  3  1 -1</clus>
<clus scale="   64.699">  1  3  2 -1</clus>
</clustering>
</event>
<event>
 6    0  0.8991567E+002  0.6968801E+02  0.7546771E-02  0.1361157E+00
         21   -1    0    0  506  501  0.00000000000E+00  0.00000000000E+00  0.65369770246E+03  0.65369770246E+03  0.00000000000E+00 0.  1.
         21   -1    0    0  503  502 -0.00000000000E+00 -0.00000000000E+00 -0.58224255601E+02  0.58224255601E+02  0.00000000000E+00 0. -1.
         21    1    1    2  503  504 -0.62498679056E+02 -0.49938955903E+02  0.18991801158E+03  0.20607968198E+03  0.00000000000E+00 0.  1.
         21    1    1    2  504  501  0.37504741920E+02 -0.25648116189E+02  0.19790785683E+03  0.20305652249E+03  0.00000000000E+00 0.  1.
         21    1    1    2  505  502  0.66891444315E+02 -0.54781258673E+01 -0.89890748633E+01  0.67714685649E+02  0.00000000000E+00 0. -1.
         21    1    1    2  506  505 -0.41897507179E+02  0.81065197960E+02  0.21663665331E+03  0.23507106795E+03  0.00000000000E+00 0.  1.
<scales pt_clust_3="14000.00000" pt_clust_4="45.43602" pt_clust_5="69.68801" pt_clust_6="65.57527"></scales>
<clustering>
<clus scale="   45.436">  1  4  2 -1</clus>
<clus scale="   69.688">  2  5  1 -1</clus>
<clus scale="   65.575">  1  6  2 -1</clus>
<clus scale="   45.436">  1  3  2 -1</clus>
</clustering>
</event>
<event>
 6    0  0.8991567E+002  0.7036402E+02  0.7546771E-02  0.1358860E+00
         21   -1    0    0  504  501  0.00000000000E+00  0.00000000000E+00  0.53601968671E+03  0.53601968671E+03  0.00000000000E+00 0. -1.
         21   -1    0    0  505  502 -0.00000000000E+00 -0.00000000000E+00 -0.41097840643E+02  0.41097840643E+02  0.00000000000E+00 0. -1.
         21    1    1    2  503  502 -0.21745677735E+02  0.84409911363E+02  0.12838223677E+03  0.15517701620E+03  0.00000000000E+00 0. -1.
         21    1    1    2  504  503  0.35291904814E+02  0.33085903575E+02  0.18909553663E+03  0.19518534150E+03  0.00000000000E+00 0.  1.
         21    1    1    2  505  506 -0.37858044454E+02 -0.59724833523E+02  0.56416461003E+02  0.90460512608E+02  0.00000000000E+00 0. -1.
         21    1    1    2  506  501  0.24311817375E+02 -0.57770981415E+02  0.12102761166E+03  0.13629465706E+03  0.00000000000E+00 0. -1.
<scales pt_clust_3="14000.00000" pt_clust_4="48.37557" pt_clust_5="70.36402" pt_clust_6="58.88885"></scales>
<clustering>
<clus scale="   48.376">  1  4  2 -1</clus>
<clus scale="   58.889">  1  6  2 -1</clus>
<clus scale="   70.364">  2  5  1 -1</clus>
<clus scale="   48.376">  1  3  2 -1</clus>
</clustering>
</event>
<event>
 6    0  0.8991567E+002  0.7736227E+02  0.7546771E-02  0.1336708E+00
         21   -1    0    0  503  501  0.00000000000E+00  0.00000000000E+00  0.12075327269E+04  0.12075327269E+04  0.00000000000E+00 0. -1.
         21   -1    0    0  504  502 -0.00000000000E+00 -0.00000000000E+00 -0.81788399243E+02  0.81788399243E+02  0.00000000000E+00 0. -1.
         21    1    1    2  503  502 -0.24907146590E+02  0.58411985461E+02  0.62754990575E+03  0.63075447696E+03  0.00000000000E+00 0. -1.
         21    1    1    2  504  506 -0.40101116456E+02  0.89446071819E+01 -0.57495038435E+02  0.70666717649E+02  0.00000000000E+00 0. -1.
         21    1    1    2  505  501  0.11464606776E+03 -0.45411447727E+02  0.47435220292E+03  0.49011828455E+03  0.00000000000E+00 0. -1.
         21    1    1    2  506  505 -0.49637804710E+02 -0.21945144916E+02  0.81337257419E+02  0.97781646980E+02  0.00000000000E+00 0. -1.
<scales pt_clust_3="65.73779" pt_clust_4="41.08656" pt_clust_5="77.36227" pt_clust_6="14000.00000"></scales>
<clustering>
<clus scale="   41.087">  2  4  1 -1</clus>
<clus scale="   65.738">  1  3  2 -1</clus>
<clus scale="   77.362">  1  5  2 -1</clus>
<clus scale="   65.738">  1  3  2 -1</clus>
</clustering>
</event>
<event>
 6    0  0.8991567E+002  0.8737368E+02  0.7546771E-02  0.1309339E+00
         21   -1    0    0  505  501  0.00000000000E+00  0.00000000000E+00  0.97785839985E+02  0.97785839985E+02  0.00000000000E+00 0. -1.
         21   -1    0    0  501  502 -0.00000000000E+00 -0.00000000000E+00 -0.66102507061E+03  0.66102507061E+03  0.00000000000E+00 0. -1.
         21    1    1    2  503  502  0.63847820257E+01 -0.30909158077E+02 -0.50533953247E+02  0.59580382051E+02  0.00000000000E+00 0. -1.
         21    1    1    2  504  503 -0.82294503686E+02 -0.20576594227E+02 -0.33797181136E+03  0.34845477015E+03  0.00000000000E+00 0. -1.
         21    1    1    2  505  506  0.25450788925E+02 -0.39262585569E+02  0.70415642121E+02  0.84543810760E+02  0.00000000000E+00 0. -1.
         21    1    1    2  506  504  0.50458932736E+02  0.90748337873E+02 -0.24514910814E+03  0.26623194764E+03  0.00000000000E+00 0. -1.
<scales pt_clust_3="31.56171" pt_clust_4="14000.00000" pt_clust_5="47.13292" pt_clust_6="87.37368"></scales>
<clustering>
<clus scale="   31.562">  2  3  1 -1</clus>
<clus scale="   47.133">  1  5  2 -1</clus>
<clus scale="   87.374">  1  6  2 -1</clus>
<clus scale="   47.133">  1  3  2 -1</clus>
</clustering>
</event>
<event>
 6    0  0.8991567E+002  0.7838323E+02  0.7546771E-02  0.1333703E+00
         21   -1    0    0  503  501  0.00000000000E+00  0.00000000000E+00  0.22521613723E+03  0.22521613723E+03  0.00000000000E+00 0. -1.
         21   -1    0    0  504  502 -0.00000000000E+00 -0.00000000000E+00 -0.66898587594E+03  0.66898587594E+03  0.00000000000E+00 0. -1.
         21    1    1    2  503  502 -0.26361868357E+02 -0.79572065449E+02 -0.25453441526E+03  0.26798214540E+03  0.00000000000E+00 0. -1.
         21    1    1    2  504  506  0.57816508190E+02  0.53734353236E+02 -0.36785539932E+03  0.37622828728E+03  0.00000000000E+00 0.  1.
         21    1    1    2  505  501  0.46578601047E+02 -0.48400298281E+02  0.70621676048E+02  0.97465768745E+02  0.00000000000E+00 0. -1.
         21    1    1    2  506  505 -0.78033240880E+02  0.74238010495E+02  0.10799839982E+03  0.15252581175E+03  0.00000000000E+00 0. -1.
<scales pt_clust_3="78.38323" pt_clust_4="14000.00000" pt_clust_5="67.17258" pt_clust_6="45.86594"></scales>
<clustering>
<clus scale="   67.173">  1  5  2 -1</clus>
<clus scale="   45.866">  1  6  2 -1</clus>
<clus scale="   78.383">  1  3  2 -1</clus>
<clus scale="   67.173">  1  3  2 -1</clus>
</clustering>
</event>
<event>
 6    0  0.8991567E+002  0.6694255E+02  0.7546771E-02  0.1370810E+00
         21   -1    0    0  505  501  0.00000000000E+00  0.00000000000E+00  0.29099204759E+03  0.29099204759E+03  0.00000000000E+00 0. -1.
         21   -1    0    0  506  502 -0.00000000000E+00 -0.00000000000E+00 -0.12475253165E+03  0.12475253165E+03  0.00000000000E+00 0.  1.
         21    1    1    2  503  502 -0.35022548447E+01 -0.62875854325E+02 -0.22802439768E+02  0.66974548191E+02  0.00000000000E+00 0.  1.
         21    1    1    2  504  501  0.93474763309E+02  0.28868028857E+02  0.45515899742E+02  0.10790084149E+03  0.00000000000E+00 0.  1.
         21    1    1    2  505  503 -0.46954979497E+02  0.27903527679E+02  0.17750066026E+03  0.18571446187E+03  0.00000000000E+00 0. -1.
         21    1    1    2  506  504 -0.43017528968E+02  0.61042977895E+01 -0.33974604287E+02  0.55154727689E+02  0.00000000000E+00 0.  1.
<scales pt_clust_3="66.94255" pt_clust_4="14000.00000" pt_clust_5="56.68048" pt_clust_6="43.44848"></scales>
<clustering>
<clus scale="   43.448">  2  6  1 -1</clus>
<clus scale="   56.680">  1  5  2 -1</clus>
<clus scale="   66.943">  2  3  1 -1</clus>
<clus scale="   56.680">  1  3  2 -1</clus>
</clustering>
</event>
<event>
 6    0  0.8991567E+002  0.8024381E+02  0.7546771E-02  0.1328361E+00
         21   -1    0    0  506  501  0.00000000000E+00  0.00000000000E+00  0.28780858358E+03  0.28780858358E+03  0.00000000000E+00 0. -1.
         21   -1    0    0  505  502 -0.00000000000E+00 -0.00000000000E+00 -0.31480223132E+04  0.31480223132E+04  0.00000000000E+00 0. -1.
         21    1    1    2  503  501 -0.29169203693E+02 -0.10235125129E+03  0.19216029993E+02  0.10814747752E+03  0.00000000000E+00 0. -1.
         21    1    1    2  504  502  0.11330693969E+02 -0.44756041345E+02 -0.73921731965E+02  0.87154519787E+02  0.00000000000E+00 0.  1.
         21    1    1    2  505  503 -0.41914808338E+01  0.74059632295E+02 -0.30158575456E+04  0.30167696520E+04  0.00000000000E+00 0. -1.
         21    1    1    2  506  504  0.22029990558E+02  0.73047660337E+02  0.21034951793E+03  0.22375924753E+03  0.00000000000E+00 0. -1.
<scales pt_clust_3="14000.00000" pt_clust_4="46.16804" pt_clust_5="30.84347" pt_clust_6="80.24381"></scales>
<clustering>
<clus scale="   46.168">  2  4  1 -1</clus>
<clus scale="   30.843">  2  5  1 -1</clus>
<clus scale="   80.244">  1  6  2 -1</clus>
<clus scale="   80.244">  1  3  2 -1</clus>
</clustering>
</event>
<event>
 6    0  0.8991567E+002  0.6529000E+02  0.7546771E-02  0.1376884E+00
         21   -1    0    0  506  501  0.00000000000E+00  0.00000000000E+00  0.20968069900E+03  0.20968069900E+03  0.00000000000E+00 0. -1.
         21   -1    0    0  503  502 -0.00000000000E+00 -0.00000000000E+00 -0.27421786608E+03  0.27421786608E+03  0.00000000000E+00 0. -1.
         21    1    1    2  503  504 -0.81824830237E+02 -0.89875874300E+02  0.46149010861E+02  0.13001041046E+03  0.00000000000E+00 0. -1.
         21    1    1    2  504  501 -0.24757566479E+02  0.39132986525E+02  0.34712172860E+02  0.57872814663E+02  0.00000000000E+00 0. -1.
         21    1    1    2  505  502  0.48588401320E+02  0.39116552332E+02 -0.20365604647E+03  0.21299465409E+03  0.00000000000E+00 0. -1.
         21    1    1    2  506  505  0.57993995396E+02  0.11626335444E+02  0.58257695662E+02  0.83020685866E+02  0.00000000000E+00 0. -1.
<scales pt_clust_3="14000.00000" pt_clust_4="46.30689" pt_clust_5="65.29000" pt_clust_6="55.23763"></scales>
<clustering>
<clus scale="   46.307">  1  4  2 -1</clus>
<clus scale="   55.238">  1  6  2 -1</clus>
<clus scale="   65.290">  2  5  1 -1</clus>
<clus scale="   46.307">  1  3  2 -1</clus>
</clustering>
</event>
<event>
 6    0  0.8991567E+002  0.1300807E+03  0.7546771E-02  0.1227336E+00
         21   -1    0    0  505  501  0.00000000000E+00  0.00000000000E+00  0.10482577232E+03  0.10482577232E+03  0.00000000000E+00 0. -1.
         21   -1    0    0  504  502 -0.00000000000E+00 -0.00000000000E+00 -0.18448103417E+04  0.18448103417E+04  0.00000000000E+00 0. -1.
         21    1    1    2  503  506  0.75396611538E+02  0.39032862619E+02 -0.48583894682E+03  0.49320147571E+03  0.00000000000E+00 0. -1.
         21    1    1    2  504  503  0.60283236391E+02 -0.14026520218E+02 -0.11698867883E+04  0.11715229017E+04  0.00000000000E+00 0. -1.
         21    1    1    2  505  502 -0.19759863042E+03 -0.36851418137E+02 -0.33076052734E+02  0.20370878977E+03  0.00000000000E+00 0. -1.
         21    1    1    2  506  501  0.61918782493E+02  0.11845075736E+02 -0.51182781526E+02  0.81202946802E+02  0.00000000000E+00 0.  1.
<scales pt_clust_3="130.08069" pt_clust_4="61.89355" pt_clust_5="14000.00000" pt_clust_6="68.64107"></scales>
<clustering>
<clus scale="   61.894">  2  4  1 -1</clus>
<clus scale="   68.641">  1  6  2 -1</clus>
<clus scale="  130.081">  2  3  1 -1</clus>
<clus scale="   68.641">  1  3  2 -1</clus>
</clustering>
</event>
<event>
 6    0  0.8991567E+002  0.1339642E+03  0.7546771E-02  0.1221689E+00
         21   -1    0    0  504  501  0.00000000000E+00  0.00000000000E+00  0.11746721390E+04  0.11746721390E+04  0.00000000000E+00 0.  1.
         21   -1    0    0  506  502 -0.00000000000E+00 -0.00000000000E+00 -0.21311214092E+03  0.21311214092E+03  0.00000000000E+00 0. -1.
         21    1    1    2  503  505 -0.21658467348E+02 -0.10451262818E+03  0.23216176179E+03  0.25552115821E+03  0.00000000000E+00 0. -1.
         21    1    1    2  504  503  0.18381361248E+02 -0.38761741398E+02  0.87326864294E+03  0.87432171984E+03  0.00000000000E+00 0.  1.
         21    1    1    2  505  502 -0.30679681707E+02  0.11897570142E+03 -0.16919900203E+03  0.20910466921E+03  0.00000000000E+00 0. -1.
         21    1    1    2  506  501  0.33956787807E+02  0.24298668151E+02  0.25328595371E+02  0.48836732646E+02  0.00000000000E+00 0.  1.
<scales pt_clust_3="14000.00000" pt_clust_4="42.88004" pt_clust_5="133.96420" pt_clust_6="41.75510"></scales>
<clustering>
<clus scale="   41.755">  2  6  1 -1</clus>
<clus scale="   42.880">  1  4  2 -1</clus>
<clus scale="  133.964">  2  5  1 -1</clus>
<clus scale="   42.880">  1  3  2 -1</clus>
</clustering>
</event>
<event>
 6    0  0.8991567E+002  0.7315270E+02  0.7546771E-02  0.1349689E+00
         21   -1    0    0  505  501  0.00000000000E+00  0.00000000000E+00  0.29745484587E+03  0.29745484587E+03  0.00000000000E+00 0. -1.
         21   -1    0    0  504  502 -0.00000000000E+00 -0.00000000000E+00 -0.62916072794E+02  0.62916072794E+02  0.00000000000E+00 0.  1.
         21    1    1    2  503  502 -0.34528275933E+02  0.45958182667E+02  0.31555141674E+02  0.65575020846E+02  0.00000000000E+00 0.  1.
         21    1    1    2  504  506 -0.53702078028E+01 -0.77324004557E+02  0.48901126707E+02  0.91646936696E+02  0.00000000000E+00 0. -1.
         21    1    1    2  505  503  0.49640216684E+02  0.65776439486E+02  0.58399690987E+02  0.10100106441E+03  0.00000000000E+00 0.  1.
         21    1    1    2  506  501 -0.97417329484E+01 -0.34410617596E+02  0.95682813711E+02  0.10214789672E+03  0.00000000000E+00 0. -1.
<scales pt_clust_3="52.64751" pt_clust_4="73.15270" pt_clust_5="14000.00000" pt_clust_6="35.76300"></scales>
<clustering>
<clus scale="   35.763">  1  6  2 -1</clus>
<clus scale="   52.648">  2  3  1 -1</clus>
<clus scale="   73.153">  2  4  1 -1</clus>
<clus scale="   35.763">  1  3  2 -1</clus>
</clustering>
</event>
<event>
 6    0  0.8991567E+002  0.2335186E+03  0.7546771E-02  0.1124187E+00
         21   -1    0    0  505  501  0.00000000000E+00  0.00000000000E+00  0.37237036029E+03  0.37237036029E+03  0.00000000000E+00 0.  1.
         21   -1    0    0  504  502 -0.00000000000E+00 -0.00000000000E+00 -0.17531183865E+03  0.17531183865E+03  0.00000000000E+00 0.  1.
         21    1    1    2  503  506  0.71852320487E+02  0.58056873225E+02  0.26850015221E+02  0.96199167384E+02  0.00000000000E+00 0.  1.
         21    1    1    2  504  503  0.12579761725E+02 -0.34506768411E+02 -0.32930766344E+01  0.36875626435E+02  0.00000000000E+00 0. -1.
         21    1    1    2  505  502 -0.20756534633E+03 -0.60927685672E+02  0.24461007754E+02  0.21770139361E+03  0.00000000000E+00 0.  1.
         21    1    1    2  506  501  0.12313326412E+03  0.37377580858E+02  0.14904057531E+03  0.19690601151E+03  0.00000000000E+00 0.  1.
<scales pt_clust_3="73.97476" pt_clust_4="36.72829" pt_clust_5="216.06692" pt_clust_6="73.97476"></scales>
<clustering>
<clus scale="   36.728">  2  4  1 -1</clus>
<clus scale="   73.975">  3  6 -1 -1</clus>
<clus scale="  216.067">  2  5  1 -1</clus>
<clus scale="  233.519">  1  3  2 -1</clus>
</clustering>
</event>
<event>
 6    0  0.8991567E+002  0.1789261E+03  0.7546771E-02  0.1168846E+00
         21   -1    0    0  505  501  0.00000000000E+00  0.00000000000E+00  0.60720922556E+03  0.60720922556E+03  0.00000000000E+00 0.  1.
         21   -1    0    0  506  502 -0.00000000000E+00 -0.00000000000E+00 -0.24664226791E+03  0.24664226791E+03  0.00000000000E+00 0.  1.
         21    1    1    2  503  501  0.92183954059E+02  0.18805015505E+03  0.29200844648E+03  0.35934617713E+03  0.00000000000E+00 0.  1.
         21    1    1    2  504  503 -0.80885547644E+02 -0.12071619343E+03  0.10202345893E+03  0.17754902801E+03  0.00000000000E+00 0. -1.
         21    1    1    2  505  502  0.72243593207E+02 -0.26329639599E+02  0.11701919690E+03  0.14002099530E+03  0.00000000000E+00 0.  1.
         21    1    1    2  506  504 -0.83541999622E+02 -0.41004322028E+02 -0.15048414467E+03  0.17693529304E+03  0.00000000000E+00 0.  1.
<scales pt_clust_3="178.92613" pt_clust_4="14000.00000" pt_clust_5="76.89205" pt_clust_6="91.60399"></scales>
<clustering>
<clus scale="   76.892">  1  5  2 -1</clus>
<clus scale="   91.604">  2  6  1 -1</clus>
<clus scale="  178.926">  1  3  2 -1</clus>
<clus scale="   76.892">  1  3  2 -1</clus>
</clustering>
</event>
<event>
 6    0  0.8991567E+002  0.8815960E+02  0.7546771E-02  0.1307371E+00
         21   -1    0    0  506  501  0.00000000000E+00  0.00000000000E+00  0.19906801444E+04  0.19906801444E+04  0.00000000000E+00 0. -1.
         21   -1    0    0  503  502 -0.00000000000E+00 -0.00000000000E+00 -0.64307973461E+02  0.64307973461E+02  0.00000000000E+00 0. -1.
         21    1    1    2  503  505  0.65893619623E+02  0.63632085695E+02  0.19815218400E+03  0.21830093783E+03  0.00000000000E+00 0. -1.
         21    1    1    2  504  502 -0.89824287980E+02 -0.10760575787E+02 -0.14381808731E+02  0.91602560689E+02  0.00000000000E+00 0. -1.
         21    1    1    2  505  501  0.45857179773E+02 -0.32355769171E+02  0.78090608199E+03  0.78292022941E+03  0.00000000000E+00 0. -1.
         21    1    1    2  506  504 -0.21926511415E+02 -0.20515740736E+02  0.96169571373E+03  0.96216438997E+03  0.00000000000E+00 0. -1.
<scales pt_clust_3="14000.00000" pt_clust_4="88.15960" pt_clust_5="56.13609" pt_clust_6="30.02778"></scales>
<clustering>
<clus scale="   30.028">  1  6  2 -1</clus>
<clus scale="   56.136">  1  5  2 -1</clus>
<clus scale="   88.160">  2  4  1 -1</clus>
<clus scale="   30.028">  1  3  2 -1</clus>
</clustering>
</event>
<event>
 6    0  0.8991567E+002  0.6591797E+02  0.7546771E-02  0.1374551E+00
         21   -1    0    0  503  501  0.00000000000E+00  0.00000000000E+00  0.91022005669E+02  0.91022005669E+02  0.00000000000E+00 0. -1.
         21   -1    0    0  505  502 -0.00000000000E+00 -0.00000000000E+00 -0.26261386095E+03  0.26261386095E+03  0.00000000000E+00 0. -1.
         21    1    1    2  503  506 -0.24706096627E+02 -0.74330223935E+02 -0.17854125632E+02  0.80337682334E+02  0.00000000000E+00 0. -1.
         21    1    1    2  504  501 -0.35472987141E+02  0.44012216669E+02  0.79737897225E+01  0.57087558674E+02  0.00000000000E+00 0. -1.
         21    1    1    2  505  504  0.51452321973E+02 -0.32442319200E+02 -0.25448307473E+02  0.65935285430E+02  0.00000000000E+00 0. -1.
         21    1    1    2  506  502  0.87267617949E+01  0.62760326466E+02 -0.13626321190E+03  0.15027534018E+03  0.00000000000E+00 0. -1.
<scales pt_clust_3="14000.00000" pt_clust_4="56.52794" pt_clust_5="42.78890" pt_clust_6="65.91797"></scales>
<clustering>
<clus scale="   56.528">  1  4  2 -1</clus>
<clus scale="   42.789">  1  5  2 -1</clus>
<clus scale="   65.918">  2  6  1 -1</clus>
<clus scale="   56.528">  1  3  2 -1</clus>
</clustering>
</event>
<event>
 6    0  0.8991567E+002  0.1561798E+03  0.7546771E-02  0.1193078E+00
         21   -1    0    0  504  501  0.00000000000E+00  0.00000000000E+00  0.82153126265E+03  0.82153126265E+03  0.00000000000E+00 0.  1.
         21   -1    0    0  506  502 -0.00000000000E+00 -0.00000000000E+00 -0.11142235031E+03  0.11142235031E+03  0.00000000000E+00 0.  1.
         21    1    1    2  503  502 -0.12556068920E+03  0.77087001958E+02  0.55513830396E+02  0.15744738139E+03  0.00000000000E+00 0.  1.
         21    1    1    2  504  503  0.22132220911E+03  0.37463071237E+02  0.31641323333E+03  0.38794888346E+03  0.00000000000E+00 0.  1.
         21    1    1    2  505  501 -0.51740774218E+02  0.53503618722E+01  0.16059169264E+03  0.16880588211E+03  0.00000000000E+00 0.  1.
         21    1    1    2  506  505 -0.44020745696E+02 -0.11990043507E+03  0.17759015597E+03  0.21875146600E+03  0.00000000000E+00 0.  1.
<scales pt_clust_3="14000.00000" pt_clust_4="156.17984" pt_clust_5="52.01667" pt_clust_6="132.46703"></scales>
<clustering>
<clus scale="   52.017">  1  5  2 -1</clus>
<clus scale="  132.467">  1  6  2 -1</clus>
<clus scale="  156.180">  1  4  2 -1</clus>
<clus scale="   52.017">  1  3  2 -1</clus>
</clustering>
</event>
<event>
 6    0  0.8991567E+002  0.7607307E+02  0.7546771E-02  0.1340580E+00
         21   -1    0    0  505  501  0.00000000000E+00  0.00000000000E+00  0.49559285046E+02  0.49559285046E+02  0.00000000000E+00 0.  1.
         21   -1    0    0  504  502 -0.00000000000E+00 -0.00000000000E+00 -0.56091778780E+03  0.56091778780E+03  0.00000000000E+00 0.  1.
         21    1    1    2  503  506  0.85629732916E+02 -0.64722904379E+02 -0.68040656045E+02  0.12708672781E+03  0.00000000000E+00 0.  1.
         21    1    1    2  504  503 -0.64608143131E+02  0.72450794368E+00 -0.12755994303E+03  0.14299047569E+03  0.00000000000E+00 0.  1.
         21    1    1    2  505  502  0.62961374118E+01  0.47576199756E+02 -0.30182029228E+03  0.30561188616E+03  0.00000000000E+00 0.  1.
         21    1    1    2  506  501 -0.27317727197E+02  0.16422196680E+02 -0.13937611397E+02  0.34787983190E+02  0.00000000000E+00 0. -1.
<scales pt_clust_3="76.07307" pt_clust_4="14000.00000" pt_clust_5="48.62669" pt_clust_6="31.87392"></scales>
<clustering>
<clus scale="   31.874">  1  6  2 -1</clus>
<clus scale="   48.627">  2  5  1 -1</clus>
<clus scale="   76.073">  1  3  2 -1</clus>
<clus scale="   31.874">  1  3  2 -1</clus>
</clustering>
</event>
<event>
 6    0  0.8991567E+002  0.1199734E+03  0.7546771E-02  0.1243141E+00
         21   -1    0    0  504  501  0.00000000000E+00  0.00000000000E+00  0.36205204935E+04  0.36205204935E+04  0.00000000000E+00 0.  1.
         21   -1    0    0  503  502 -0.00000000000E+00 -0.00000000000E+00 -0.33318793012E+03  0.33318793012E+03  0.00000000000E+00 0.  1.
         21    1    1    2  503  505 -0.61968283548E+02  0.45838987454E+02  0.95929805328E+02  0.12306018238E+03  0.00000000000E+00 0. -1.
         21    1    1    2  504  506  0.78865334198E+02 -0.44390356062E+02  0.33594754995E+04  0.33606942551E+04  0.00000000000E+00 0.  1.
         21    1    1    2  505  501  0.49323805608E+02 -0.14247438635E+02  0.14285221240E+03  0.15179783232E+03  0.00000000000E+00 0.  1.
         21    1    1    2  506  502 -0.66220856259E+02  0.12798807244E+02 -0.31092495386E+03  0.31815615380E+03  0.00000000000E+00 0.  1.
<scales pt_clust_3="14000.00000" pt_clust_4="119.97344" pt_clust_5="51.34031" pt_clust_6="67.39313"></scales>
<clustering>
<clus scale="   51.340">  1  5  2 -1</clus>
<clus scale="   67.393">  2  6  1 -1</clus>
<clus scale="  119.973">  1  4  2 -1</clus>
<clus scale="   51.340">  1  3  2 -1</clus>
</clustering>
</event>
<event>
 6    0  0.8991567E+002  0.1238126E+03  0.7546771E-02  0.1236937E+00
         21   -1    0    0  504  501  0.00000000000E+00  0.00000000000E+00  0.11971267668E+04  0.11971267668E+04  0.00000000000E+00 0.  1.
         21   -1    0    0  501  502 -0.00000000000E+00 -0.00000000000E+00 -0.11496733328E+03  0.11496733328E+03  0.00000000000E+00 0. -1.
         21    1    1    2  503  505  0.37504526058E+02  0.11360152321E+03 -0.54680848779E+02  0.13153665182E+03  0.00000000000E+00 0. -1.
         21    1    1    2  504  506  0.20547321862E+02 -0.38172214936E+02  0.62151599501E+03  0.62302603676E+03  0.00000000000E+00 0.  1.
         21    1    1    2  505  502 -0.56330722817E+02 -0.25709547988E+01  0.24764513965E+02  0.61587671604E+02  0.00000000000E+00 0.  1.
         21    1    1    2  506  503 -0.17211251029E+01 -0.72858353474E+02  0.49055977335E+03  0.49594373992E+03  0.00000000000E+00 0.  1.
<scales pt_clust_3="112.38740" pt_clust_4="40.06557" pt_clust_5="56.38936" pt_clust_6="40.06557"></scales>
<clustering>
<clus scale="   40.066">  4  6 -1 -1</clus>
<clus scale="   56.389">  2  5  1 -1</clus>
<clus scale="  112.387">  2  3  1 -1</clus>
<clus scale="  123.813">  1  3  2 -1</clus>
</clustering>
</event>
<event>
 6    0  0.8991567E+002  0.2718902E+03  0.7546771E-02  0.1100203E+00
         21   -1    0    0  505  501  0.00000000000E+00  0.00000000000E+00  0.18198747291E+04  0.18198747291E+04  0.00000000000E+00 0.  1.
         21   -1    0    0  504  502 -0.00000000000E+00 -0.00000000000E+00 -0.23782003383E+03  0.23782003383E+03  0.00000000000E+00 0.  1.
         21    1    1    2  503  506 -0.48950450932E+02  0.26883210720E+03  0.12361799936E+04  0.12660204678E+04  0.00000000000E+00 0.  1.
         21    1    1    2  504  501  0.40631479650E+02 -0.20519200390E+02  0.94896542151E+02  0.10524879304E+03  0.00000000000E+00 0.  1.
         21    1    1    2  505  503 -0.75710279568E+02  0.10334183952E+02  0.37844390403E+03  0.38608111879E+03  0.00000000000E+00 0.  1.
         21    1    1    2  506  502  0.84029250851E+02 -0.25864709076E+03 -0.12746574445E+03  0.30034438328E+03  0.00000000000E+00 0.  1.
<scales pt_clust_3="271.89025" pt_clust_4="45.51873" pt_clust_5="66.92854" pt_clust_6="14000.00000"></scales>
<clustering>
<clus scale="   45.519">  1  4  2 -1</clus>
<clus scale="   66.929">  1  5  2 -1</clus>
<clus scale="  271.890">  1  3  2 -1</clus>
<clus scale="   45.519">  1  3  2 -1</clus>
</clustering>
</event>
<event>
 6    0  0.8991567E+002  0.1299661E+03  0.7546771E-02  0.1227506E+00
         21   -1    0    0  506  501  0.00000000000E+00  0.00000000000E+00  0.30138493070E+03  0.30138493070E+03  0.00000000000E+00 0. -1.
         21   -1    0    0  503  502 -0.00000000000E+00 -0.00000000000E+00 -0.35193018574E+03  0.35193018574E+03  0.00000000000E+00 0. -1.
         21    1    1    2  503  504  0.22535889873E+02 -0.24940814066E+02 -0.15490403515E+03  0.15850921312E+03  0.00000000000E+00 0. -1.
         21    1    1    2  504  501  0.48368220498E+02 -0.62355576632E+02 -0.14062461556E+03  0.16125441139E+03  0.00000000000E+00 0. -1.
         21    1    1    2  505  502 -0.26169879629E+02 -0.25696536926E+02 -0.20183351257E+02  0.41863376330E+02  0.00000000000E+00 0.  1.
         21    1    1    2  506  505 -0.44734230742E+02  0.11299292762E+03  0.26516674693E+03  0.29168811558E+03  0.00000000000E+00 0. -1.
<scales pt_clust_3="31.05082" pt_clust_4="31.05082" pt_clust_5="36.67662" pt_clust_6="120.94478"></scales>
<clustering>
<clus scale="   31.051">  3  4 -1 -1</clus>
<clus scale="   36.677">  2  5  1 -1</clus>
<clus scale="  120.945">  1  6  2 -1</clus>
<clus scale="  120.945">  1  3  2 -1</clus>
</clustering>
</event>
<event>
 6    0  0.8991567E+002  0.8569396E+02  0.7546771E-02  0.1313628E+00
         21   -1    0    0  505  501  0.00000000000E+00  0.00000000000E+00  0.18035395535E+04  0.18035395535E+04  0.00000000000E+00 0. -1.
         21   -1    0    0  506  502 -0.00000000000E+00 -0.00000000000E+00 -0.58364067592E+02  0.58364067592E+02  0.00000000000E+00 0.  1.
         21    1    1    2  503  504  0.34720816921E+02 -0.71236653644E+02  0.69123476773E+03  0.69576267511E+03  0.00000000000E+00 0. -1.
         21    1    1    2  504  501 -0.21928712444E+02 -0.25549666319E+02  0.84978944619E+03  0.85045620507E+03  0.00000000000E+00 0. -1.
         21    1    1    2  505  502 -0.77001282479E+02  0.50805123147E+02  0.21688516558E+03  0.23568948447E+03  0.00000000000E+00 0. -1.
         21    1    1    2  506  503  0.64209178002E+02  0.45981196817E+02 -0.12733893637E+02  0.79995256406E+02  0.00000000000E+00 0.  1.
<scales pt_clust_3="85.69396" pt_clust_4="33.66978" pt_clust_5="14000.00000" pt_clust_6="77.82215"></scales>
<clustering>
<clus scale="   33.670">  1  4  2 -1</clus>
<clus scale="   77.822">  2  6  1 -1</clus>
<clus scale="   85.694">  1  3  2 -1</clus>
<clus scale="   33.670">  1  3  2 -1</clus>
</clustering>
</event>
<event>
 6    0  0.8991567E+002  0.6227842E+02  0.7546771E-02  0.1388512E+00
         21   -1    0    0  505  501  0.00000000000E+00  0.00000000000E+00  0.12297850755E+03  0.12297850755E+03  0.00000000000E+00 0. -1.
         21   -1    0    0  506  502 -0.00000000000E+00 -0.00000000000E+00 -0.11794080453E+04  0.11794080453E+04  0.00000000000E+00 0.  1.
         21    1    1    2  503  501 -0.35649044976E+02 -0.28454617333E+02  0.10254823788E+03  0.11223484641E+03  0.00000000000E+00 0. -1.
         21    1    1    2  504  502  0.29204673103E+02 -0.32609877048E+02 -0.30325333262E+03  0.30639663960E+03  0.00000000000E+00 0.  1.
         21    1    1    2  505  504  0.67420563403E+02 -0.18068818783E+02 -0.10295433927E+03  0.12438492897E+03  0.00000000000E+00 0.  1.
         21    1    1    2  506  503 -0.60976191530E+02  0.79133313165E+02 -0.75277010371E+03  0.75937013782E+03  0.00000000000E+00 0.  1.
<scales pt_clust_3="45.59961" pt_clust_4="43.77576" pt_clust_5="62.27842" pt_clust_6="14000.00000"></scales>
<clustering>
<clus scale="   43.776">  2  4  1 -1</clus>
<clus scale="   45.600">  1  3  2 -1</clus>
<clus scale="   62.278">  1  5  2 -1</clus>
<clus scale="   45.600">  1  3  2 -1</clus>
</clustering>
</event>
<event>
 6    0  0.8991567E+002  0.8280518E+02  0.7546771E-02  0.1321274E+00
         21   -1    0    0  505  501  0.00000000000E+00  0.00000000000E+00  0.58421039402E+02  0.58421039402E+02  0.00000000000E+00 0. -1.
         21   -1    0    0  506  502 -0.00000000000E+00 -0.00000000000E+00 -0.42308334034E+03  0.42308334034E+03  0.00000000000E+00 0. -1.
         21    1    1    2  503  502 -0.67742144913E+02 -0.31349852794E+02 -0.19969802008E+03  0.21319266097E+03  0.00000000000E+00 0. -1.
         21    1    1    2  504  501 -0.49184952032E+02 -0.23385253098E+01 -0.15417276847E+02  0.51597680494E+02  0.00000000000E+00 0. -1.
         21    1    1    2  505  503  0.91701761522E+02  0.64357675542E+02 -0.83801223846E+02  0.13990628501E+03  0.00000000000E+00 0. -1.
         21    1    1    2  506  504  0.25225335422E+02 -0.30669297438E+02 -0.65745780167E+02  0.76807753269E+02  0.00000000000E+00 0. -1.
<scales pt_clust_3="14000.00000" pt_clust_4="47.07712" pt_clust_5="82.80518" pt_clust_6="39.71049"></scales>
<clustering>
<clus scale="   39.710">  2  6  1 -1</clus>
<clus scale="   47.077">  1  4  2 -1</clus>
<clus scale="   82.805">  1  5  2 -1</clus>
<clus scale="   47.077">  1  3  2 -1</clus>
</clustering>
</event>
<event>
 6    0  0.8991567E+002  0.7038511E+02  0.7546771E-02  0.1358788E+00
         21   -1    0    0  503  501  0.00000000000E+00  0.00000000000E+00  0.23675310028E+03  0.23675310028E+03  0.00000000000E+00 0. -1.
         21   -1    0    0  505  502 -0.00000000000E+00 -0.00000000000E+00 -0.11781521564E+03  0.11781521564E+03  0.00000000000E+00 0. -1.
         21    1    1    2  503  506  0.18033345341E+02 -0.62758103246E+02  0.67962668152E+02  0.94248105178E+02  0.00000000000E+00 0. -1.
         21    1    1    2  504  501 -0.32369449374E+02  0.31372233056E+02  0.98061264119E+02  0.10792594582E+03  0.00000000000E+00 0. -1.
         21    1    1    2  505  504  0.17695348077E+02  0.85256453530E+02 -0.45844409324E+02  0.98404766543E+02  0.00000000000E+00 0. -1.
         21    1    1    2  506  502 -0.33592440436E+01 -0.53870583340E+02 -0.12416383142E+01  0.53989498383E+02  0.00000000000E+00 0. -1.
<scales pt_clust_3="43.76451" pt_clust_4="45.07769" pt_clust_5="70.38511" pt_clust_6="14000.00000"></scales>
<clustering>
<clus scale="   45.078">  1  4  2 -1</clus>
<clus scale="   43.765">  1  3  2 -1</clus>
<clus scale="   70.385">  2  5  1 -1</clus>
<clus scale="   45.078">  1  3  2 -1</clus>
</clustering>
</event>
<event>
 6    0  0.8991567E+002  0.7925879E+02  0.7546771E-02  0.1331168E+00
         21   -1    0    0  505  501  0.00000000000E+00  0.00000000000E+00  0.88892832003E+02  0.88892832003E+02  0.00000000000E+00 0. -1.
         21   -1    0    0  503  502 -0.00000000000E+00 -0.00000000000E+00 -0.40243060426E+03  0.40243060426E+03  0.00000000000E+00 0. -1.
         21    1    1    2  503  506 -0.51946871556E+02 -0.20845057826E+02 -0.25087541361E+03  0.25704370650E+03  0.00000000000E+00 0. -1.
         21    1    1    2  504  501  0.23003192814E+02 -0.21657220464E+02  0.92593768054E+01  0.32922912032E+02  0.00000000000E+00 0. -1.
         21    1    1    2  505  502  0.73522228372E+02 -0.42768045430E+02 -0.60678834432E+02  0.10448226990E+03  0.00000000000E+00 0. -1.
         21    1    1    2  506  504 -0.44578549629E+02  0.85270323720E+02 -0.11242901024E+02  0.96874547833E+02  0.00000000000E+00 0. -1.
<scales pt_clust_3="55.38429" pt_clust_4="31.59402" pt_clust_5="79.25879" pt_clust_6="14000.00000"></scales>
<clustering>
<clus scale="   31.594">  1  4  2 -1</clus>
<clus scale="   55.384">  2  3  1 -1</clus>
<clus scale="   79.259">  2  5  1 -1</clus>
<clus scale="   31.594">  1  3  2 -1</clus>
</clustering>
</event>
<event>
 6    0  0.8991567E+002  0.9702193E+02  0.7546771E-02  0.1286686E+00
         21   -1    0    0  504  501  0.00000000000E+00  0.00000000000E+00  0.36852182201E+03  0.36852182201E+03  0.00000000000E+00 0. -1.
         21   -1    0    0  503  502 -0.00000000000E+00 -0.00000000000E+00 -0.23953958837E+03  0.23953958837E+03  0.00000000000E+00 0.  1.
         21    1    1    2  503  501 -0.69554886848E+02 -0.67498911335E+02  0.34392170183E+02  0.10284360304E+03  0.00000000000E+00 0. -1.
         21    1    1    2  504  506 -0.33585519336E+02 -0.31056982011E+02  0.22448378116E+03  0.22909712186E+03  0.00000000000E+00 0. -1.
         21    1    1    2  505  502  0.67484704482E+01  0.49446537941E+02 -0.15687847074E+03  0.16462489651E+03  0.00000000000E+00 0.  1.
         21    1    1    2  506  505  0.96391935736E+02  0.49109355405E+02  0.26984753042E+02  0.11149578898E+03  0.00000000000E+00 0. -1.
<scales pt_clust_3="97.02193" pt_clust_4="45.74411" pt_clust_5="48.94634" pt_clust_6="14000.00000"></scales>
<clustering>
<clus scale="   45.744">  1  4  2 -1</clus>
<clus scale="   48.946">  2  5  1 -1</clus>
<clus scale="   97.022">  2  3  1 -1</clus>
<clus scale="   45.744">  1  3  2 -1</clus>
</clustering>
</event>
<event>
 6    0  0.8991567E+002  0.9745489E+02  0.7546771E-02  0.1285741E+00
         21   -1    0    0  504  501  0.00000000000E+00  0.00000000000E+00  0.86912176688E+03  0.86912176688E+03  0.00000000000E+00 0.  1.
         21   -1    0    0  505  502 -0.00000000000E+00 -0.00000000000E+00 -0.11208516397E+03  0.11208516397E+03  0.00000000000E+00 0.  1.
         21    1    1    2  503  501  0.97630427868E+02 -0.72024273127E+02  0.57063145215E+01  0.12145681698E+03  0.00000000000E+00 0.  1.
         21    1    1    2  504  506 -0.64872393406E+02  0.71180491520E+02  0.75402138801E+03  0.76014692223E+03  0.00000000000E+00 0.  1.
         21    1    1    2  505  503 -0.32742437875E+02 -0.38233639154E+02 -0.23249989824E+02  0.55447636810E+02  0.00000000000E+00 0.  1.
         21    1    1    2  506  502 -0.15596586791E-01  0.39077420761E+02  0.20558890201E+02  0.44155554836E+02  0.00000000000E+00 0.  1.
<scales pt_clust_3="97.45489" pt_clust_4="14000.00000" pt_clust_5="39.96160" pt_clust_6="39.07742"></scales>
<clustering>
<clus scale="   39.077">  2  6  1 -1</clus>
<clus scale="   39.962">  2  5  1 -1</clus>
<clus scale="   97.455">  2  3  1 -1</clus>
<clus scale="   97.455">  1  3  2 -1</clus>
</clustering>
</event>
<event>
 6    0  0.8991567E+002  0.1130541E+03  0.7546771E-02  0.1255016E+00
         21   -1    0    0  505  501  0.00000000000E+00  0.00000000000E+00  0.55541006243E+03  0.55541006243E+03  0.00000000000E+00 0.  1.
         21   -1    0    0  506  502 -0.00000000000E+00 -0.00000000000E+00 -0.61224051358E+03  0.61224051358E+03  0.00000000000E+00 0. -1.
         21    1    1    2  503  502 -0.14106638325E+02  0.31995712635E+02 -0.14048281823E+03  0.14476928227E+03  0.00000000000E+00 0. -1.
         21    1    1    2  504  501  0.84342372803E+02  0.30558507270E+02  0.26669769792E+03  0.28138073903E+03  0.00000000000E+00 0.  1.
         21    1    1    2  505  503 -0.19300421977E+03 -0.38842963662E+02  0.23418075623E+03  0.30594122191E+03  0.00000000000E+00 0.  1.
         21    1    1    2  506  504  0.12276848529E+03 -0.23711256242E+02 -0.41722608708E+03  0.43555933281E+03  0.00000000000E+00 0. -1.
<scales pt_clust_3="34.96745" pt_clust_4="89.67233" pt_clust_5="113.05413" pt_clust_6="14000.00000"></scales>
<clustering>
<clus scale="   34.967">  2  3  1 -1</clus>
<clus scale="   89.672">  1  4  2 -1</clus>
<clus scale="  113.054">  1  5  2 -1</clus>
<clus scale="   89.672">  1  3  2 -1</clus>
</clustering>
</event>
<event>
 6    0  0.8991567E+002  0.7592000E+02  0.7546771E-02  0.1341046E+00
         21   -1    0    0  503  501  0.00000000000E+00  0.00000000000E+00  0.40443480926E+03  0.40443480926E+03  0.00000000000E+00 0. -1.
         21   -1    0    0  504  502 -0.00000000000E+00 -0.00000000000E+00 -0.27586385470E+03  0.27586385470E+03  0.00000000000E+00 0. -1.
         21    1    1    2  503  502 -0.62647182815E+02  0.67785604962E+02  0.55702297220E+02  0.10780678861E+03  0.00000000000E+00 0. -1.
         21    1    1    2  504  506  0.27520634880E+01  0.35802212327E+02 -0.22584172847E+03  0.22867850484E+03  0.00000000000E+00 0. -1.
         21    1    1    2  505  501  0.26865583174E+01 -0.63591897609E+02  0.25178046115E+03  0.25970088111E+03  0.00000000000E+00 0. -1.
         21    1    1    2  506  505  0.57208561010E+02 -0.39995919679E+02  0.46929924661E+02  0.84112489397E+02  0.00000000000E+00 0. -1.
<scales pt_clust_3="75.92000" pt_clust_4="35.90783" pt_clust_5="60.74453" pt_clust_6="14000.00000"></scales>
<clustering>
<clus scale="   35.908">  2  4  1 -1</clus>
<clus scale="   60.745">  1  5  2 -1</clus>
<clus scale="   75.920">  1  3  2 -1</clus>
<clus scale="   60.745">  1  3  2 -1</clus>
</clustering>
</event>
<event>
 6    0  0.8991567E+002  0.1021994E+03  0.7546771E-02  0.1275738E+00
         21   -1    0    0  502  501  0.00000000000E+00  0.00000000000E+00  0.59570452651E+03  0.59570452651E+03  0.00000000000E+00 0. -1.
         21   -1    0    0  505  502 -0.00000000000E+00 -0.00000000000E+00 -0.58902128779E+03  0.58902128779E+03  0.00000000000E+00 0. -1.
         21    1    1    2  503  504 -0.49036880024E+02 -0.72355553356E+02  0.89529997753E+00  0.87411345179E+02  0.00000000000E+00 0. -1.
         21    1    1    2  504  506 -0.73052481108E+02  0.11756686501E+03  0.53202367681E+02  0.14828730448E+03  0.00000000000E+00 0. -1.
         21    1    1    2  505  503  0.10196516253E+03  0.30555092057E+02 -0.48904372920E+03  0.50049403302E+03  0.00000000000E+00 0. -1.
         21    1    1    2  506  501  0.20124198603E+02 -0.75766403708E+02  0.44162930027E+03  0.44853313161E+03  0.00000000000E+00 0. -1.
<scales pt_clust_3="14000.00000" pt_clust_4="89.58548" pt_clust_5="102.19941" pt_clust_6="78.39344"></scales>
<clustering>
<clus scale="   78.393">  1  6  2 -1</clus>
<clus scale="   89.585">  1  4  2 -1</clus>
<clus scale="  102.199">  2  5  1 -1</clus>
<clus scale="   78.393">  1  3  2 -1</clus>
</clustering>
</event>
<event>
 6    0  0.8991567E+002  0.6751408E+02  0.7546771E-02  0.1368757E+00
         21   -1    0    0  504  501  0.00000000000E+00  0.00000000000E+00  0.57465709038E+02  0.57465709038E+02  0.00000000000E+00 0. -1.
         21   -1    0    0  503  502 -0.00000000000E+00 -0.00000000000E+00 -0.21268098660E+04  0.21268098660E+04  0.00000000000E+00 0.  1.
         21    1    1    2  503  501 -0.34864993054E+02 -0.66328580419E+02 -0.38545594392E+03  0.39267204258E+03  0.00000000000E+00 0.  1.
         21    1    1    2  504  506  0.16163373859E+02  0.50858160794E+02  0.31082998961E+02  0.61757266765E+02  0.00000000000E+00 0. -1.
         21    1    1    2  505  502  0.68237533578E+02 -0.10842170927E+02 -0.16041638301E+04  0.16056511163E+04  0.00000000000E+00 0.  1.
         21    1    1    2  506  505 -0.49535914383E+02  0.26312590552E+02 -0.11080738195E+03  0.12419514939E+03  0.00000000000E+00 0.  1.
<scales pt_clust_3="57.85271" pt_clust_4="53.36485" pt_clust_5="67.51408" pt_clust_6="14000.00000"></scales>
<clustering>
<clus scale="   53.365">  1  4  2 -1</clus>
<clus scale="   57.853">  1  3  2 -1</clus>
<clus scale="   67.514">  2  5  1 -1</clus>
<clus scale="   53.365">  1  3  2 -1</clus>
</clustering>
</event>
<event>
 6    0  0.8991567E+002  0.1301889E+03  0.7546771E-02  0.1227176E+00
         21   -1    0    0  503  501  0.00000000000E+00  0.00000000000E+00  0.22128038182E+04  0.22128038182E+04  0.00000000000E+00 0. -1.
         21   -1    0    0  504  502 -0.00000000000E+00 -0.00000000000E+00 -0.10815658837E+03  0.10815658837E+03  0.00000000000E+00 0.  1.
         21    1    1    2  503  506  0.10367372769E+03  0.85458019713E+02  0.18261662872E+04  0.18311020244E+04  0.00000000000E+00 0. -1.
         21    1    1    2  504  505  0.11343079341E+02  0.51327056325E+02 -0.70391451933E+02  0.87852653149E+02  0.00000000000E+00 0.  1.
         21    1    1    2  505  501 -0.94408041134E+02 -0.59169934101E+02  0.25621035827E+03  0.27938809390E+03  0.00000000000E+00 0.  1.
         21    1    1    2  506  502 -0.20608765894E+02 -0.77615141938E+02  0.92662036288E+02  0.12261763519E+03  0.00000000000E+00 0.  1.
<scales pt_clust_3="14000.00000" pt_clust_4="52.56550" pt_clust_5="130.18887" pt_clust_6="53.22425"></scales>
<clustering>
<clus scale="   52.566">  2  4  1 -1</clus>
<clus scale="   53.224">  2  6  1 -1</clus>
<clus scale="  130.189">  2  5  1 -1</clus>
<clus scale="  130.189">  1  3  2 -1</clus>
</clustering>
</event>
<event>
 6    0  0.8991567E+002  0.1110470E+03  0.7546771E-02  0.1258643E+00
         21   -1    0    0  502  501  0.00000000000E+00  0.00000000000E+00  0.11339404516E+03  0.11339404516E+03  0.00000000000E+00 0. -1.
         21   -1    0    0  503  502 -0.00000000000E+00 -0.00000000000E+00 -0.48260358437E+03  0.48260358437E+03  0.00000000000E+00 0. -1.
         21    1    1    2  503  505  0.10664377697E+02  0.63472060318E+02 -0.24256608235E+03  0.25095962962E+03  0.00000000000E+00 0. -1.
         21    1    1    2  504  501 -0.34552158609E+02 -0.27330063853E+02 -0.25700046734E+02  0.51002710290E+02  0.00000000000E+00 0. -1.
         21    1    1    2  505  506  0.86222868751E+02  0.28260788398E+02 -0.16193438753E+03  0.18562273869E+03  0.00000000000E+00 0. -1.
         21    1    1    2  506  504 -0.62335087839E+02 -0.64402784863E+02  0.60990977402E+02  0.10841255093E+03  0.00000000000E+00 0. -1.
<scales pt_clust_3="63.01246" pt_clust_4="44.05433" pt_clust_5="14000.00000" pt_clust_6="111.04699"></scales>
<clustering>
<clus scale="   44.054">  1  4  2 -1</clus>
<clus scale="   63.012">  2  3  1 -1</clus>
<clus scale="  111.047">  1  6  2 -1</clus>
<clus scale="   44.054">  1  3  2 -1</clus>
</clustering>
</event>
<event>
 6    0  0.8991567E+002  0.1392533E+03  0.7546771E-02  0.1214337E+00
         21   -1    0    0  505  501  0.00000000000E+00  0.00000000000E+00  0.43483091961E+02  0.43483091961E+02  0.00000000000E+00 0.  1.
         21   -1    0    0  501  502 -0.00000000000E+00 -0.00000000000E+00 -0.16385003690E+04  0.16385003690E+04  0.00000000000E+00 0.  1.
         21    1    1    2  503  504  0.11760707594E+03 -0.64033756659E+02 -0.76990003531E+03  0.78145877094E+03  0.00000000000E+00 0.  1.
         21    1    1    2  504  502 -0.28357179359E+02 -0.34900434229E+02 -0.31093474891E+03  0.31416968029E+03  0.00000000000E+00 0.  1.
         21    1    1    2  505  506  0.45572832751E+02  0.25781473655E+02 -0.27686820765E+01  0.52433129501E+02  0.00000000000E+00 0.  1.
         21    1    1    2  506  503 -0.13482272933E+03  0.73152717233E+02 -0.51141381078E+03  0.53392188028E+03  0.00000000000E+00 0.  1.
<scales pt_clust_3="14000.00000" pt_clust_4="44.96854" pt_clust_5="51.48963" pt_clust_6="139.25333"></scales>
<clustering>
<clus scale="   44.969">  2  4  1 -1</clus>
<clus scale="   51.490">  1  5  2 -1</clus>
<clus scale="  139.253">  1  6  2 -1</clus>
<clus scale="   51.490">  1  3  2 -1</clus>
</clustering>
</event>
<event>
 6    0  0.8991567E+002  0.9698840E+02  0.7546771E-02  0.1286759E+00
         21   -1    0    0  506  501  0.00000000000E+00  0.00000000000E+00  0.14072723195E+03  0.14072723195E+03  0.00000000000E+00 0.  1.
         21   -1    0    0  503  502 -0.00000000000E+00 -0.00000000000E+00 -0.50185595408E+03  0.50185595408E+03  0.00000000000E+00 0.  1.
         21    1    1    2  503  504  0.12195782020E+03  0.22837152375E+02 -0.35362233689E+03  0.37475859241E+03  0.00000000000E+00 0.  1.
         21    1    1    2  504  501 -0.69198732891E+02  0.26907393752E+01  0.24372949890E+02  0.73414885401E+02  0.00000000000E+00 0.  1.
         21    1    1    2  505  502 -0.21363808904E+02 -0.25065539703E+02 -0.10755191493E+03  0.11248158967E+03  0.00000000000E+00 0.  1.
         21    1    1    2  506  505 -0.31395278407E+02 -0.46235204776E+00  0.75672579791E+02  0.81928118542E+02  0.00000000000E+00 0.  1.
<scales pt_clust_3="14000.00000" pt_clust_4="96.98840" pt_clust_5="33.77234" pt_clust_6="31.39868"></scales>
<clustering>
<clus scale="   31.399">  1  6  2 -1</clus>
<clus scale="   33.772">  2  5  1 -1</clus>
<clus scale="   96.988">  1  4  2 -1</clus>
<clus scale="   31.399">  1  3  2 -1</clus>
</clustering>
</event>
<event>
 6    0  0.8991567E+002  0.1875020E+03  0.7546771E-02  0.1160734E+00
         21   -1    0    0  504  501  0.00000000000E+00  0.00000000000E+00  0.14665007858E+04  0.14665007858E+04  0.00000000000E+00 0. -1.
         21   -1    0    0  505  502 -0.00000000000E+00 -0.00000000000E+00 -0.86744297302E+02  0.86744297302E+02  0.00000000000E+00 0. -1.
         21    1    1    2  503  506 -0.10094097052E+03 -0.31417354246E+01  0.33339039867E+02  0.10635055999E+03  0.00000000000E+00 0. -1.
         21    1    1    2  504  502 -0.32210372953E+02  0.42398333015E+02  0.57242961090E+02  0.78178535178E+02  0.00000000000E+00 0. -1.
         21    1    1    2  505  503 -0.41334262914E+02  0.13983965112E+02 -0.19208437114E+02  0.47676373889E+02  0.00000000000E+00 0. -1.
         21    1    1    2  506  501  0.17448560638E+03 -0.53240562702E+02  0.13083829246E+04  0.13210396140E+04  0.00000000000E+00 0. -1.
<scales pt_clust_3="36.97915" pt_clust_4="53.24591" pt_clust_5="36.97915" pt_clust_6="178.86353"></scales>
<clustering>
<clus scale="   36.979">  3  5 -1 -1</clus>
<clus scale="   53.246">  2  4  1 -1</clus>
<clus scale="  178.864">  1  6  2 -1</clus>
<clus scale="  178.864">  1  3  2 -1</clus>
</clustering>
</event>
<event>
 6    0  0.8991567E+002  0.8220404E+02  0.7546771E-02  0.1322911E+00
         21   -1    0    0  504  501  0.00000000000E+00  0.00000000000E+00  0.60853538373E+02  0.60853538373E+02  0.00000000000E+00 0. -1.
         21   -1    0    0  506  502 -0.00000000000E+00 -0.00000000000E+00 -0.82350677185E+03  0.82350677185E+03  0.00000000000E+00 0. -1.
         21    1    1    2  503  502 -0.13972723420E+02 -0.30936120136E+02 -0.39821483807E+03  0.39965902691E+03  0.00000000000E+00 0. -1.
         21    1    1    2  504  505 -0.31959337695E+02  0.70350892576E+02 -0.87372850546E+01  0.77762378451E+02  0.00000000000E+00 0. -1.
         21    1    1    2  505  503  0.17889845817E+02 -0.94073577813E+02 -0.80910445542E+02  0.12536500638E+03  0.00000000000E+00 0. -1.
         21    1    1    2  506  501  0.28042215298E+02  0.54658805373E+02 -0.27479066481E+03  0.28157389849E+03  0.00000000000E+00 0. -1.
<scales pt_clust_3="33.94526" pt_clust_4="82.20404" pt_clust_5="14000.00000" pt_clust_6="39.23441"></scales>
<clustering>
<clus scale="   33.945">  2  3  1 -1</clus>
<clus scale="   39.234">  2  6  1 -1</clus>
<clus scale="   82.204">  1  4  2 -1</clus>
<clus scale="   82.204">  1  3  2 -1</clus>
</clustering>
</event>
<event>
 6    0  0.8991567E+002  0.1310333E+03  0.7546771E-02  0.1225931E+00
         21   -1    0    0  505  501  0.00000000000E+00  0.00000000000E+00  0.42915481872E+03  0.42915481872E+03  0.00000000000E+00 0. -1.
         21   -1    0    0  504  502 -0.00000000000E+00 -0.00000000000E+00 -0.48318620384E+03  0.48318620384E+03  0.00000000000E+00 0. -1.
         21    1    1    2  503  502 -0.46733754723E+02  0.16126671498E+02 -0.77083550863E+02  0.91575035778E+02  0.00000000000E+00 0. -1.
         21    1    1    2  504  506  0.19990103095E+02 -0.14195748185E+03 -0.34127619915E+03  0.37016344360E+03  0.00000000000E+00 0. -1.
         21    1    1    2  505  503 -0.66605807196E+02 -0.19280621878E+02  0.32464826868E+02  0.76563966170E+02  0.00000000000E+00 0. -1.
         21    1    1    2  506  501  0.93349458824E+02  0.14511143223E+03  0.33186353802E+03  0.37403857701E+03  0.00000000000E+00 0. -1.
<scales pt_clust_3="49.43797" pt_clust_4="14000.00000" pt_clust_5="71.59137" pt_clust_6="131.03326"></scales>
<clustering>
<clus scale="   49.438">  2  3  1 -1</clus>
<clus scale="   71.591">  1  5  2 -1</clus>
<clus scale="  131.033">  1  6  2 -1</clus>
<clus scale="   71.591">  1  3  2 -1</clus>
</clustering>
</event>
<event>
 6    0  0.8991567E+002  0.1070203E+03  0.7546771E-02  0.1266189E+00
         21   -1    0    0  506  501  0.00000000000E+00  0.00000000000E+00  0.11777739696E+03  0.11777739696E+03  0.00000000000E+00 0. -1.
         21   -1    0    0  505  502 -0.00000000000E+00 -0.00000000000E+00 -0.12647573361E+04  0.12647573361E+04  0.00000000000E+00 0. -1.
         21    1    1    2  503  501  0.17732175536E+03  0.46345939393E+02 -0.33562324983E+03  0.38240543518E+03  0.00000000000E+00 0. -1.
         21    1    1    2  504  502  0.31636329261E+02  0.49357503792E+01 -0.34219014641E+03  0.34368490694E+03  0.00000000000E+00 0. -1.
         21    1    1    2  505  503 -0.10815408864E+03 -0.44445809247E+02 -0.52714329516E+03  0.53995628572E+03  0.00000000000E+00 0. -1.
         21    1    1    2  506  504 -0.10080399598E+03 -0.68358805258E+01  0.57976752237E+02  0.11648810526E+03  0.00000000000E+00 0. -1.
<scales pt_clust_3="14000.00000" pt_clust_4="32.01904" pt_clust_5="99.00203" pt_clust_6="107.02035"></scales>
<clustering>
<clus scale="   32.019">  2  4  1 -1</clus>
<clus scale="   99.002">  2  5  1 -1</clus>
<clus scale="  107.020">  1  6  2 -1</clus>
<clus scale="  107.020">  1  3  2 -1</clus>
</clustering>
</event>
<event>
 6    0  0.8991567E+002  0.1000077E+03  0.7546771E-02  0.1280280E+00
         21   -1    0    0  504  501  0.00000000000E+00  0.00000000000E+00  0.80214717918E+03  0.80214717918E+03  0.00000000000E+00 0. -1.
         21   -1    0    0  503  502 -0.00000000000E+00 -0.00000000000E+00 -0.56910673757E+03  0.56910673757E+03  0.00000000000E+00 0.  1.
         21    1    1    2  503  505  0.57261347080E+02 -0.30119970340E+02 -0.45883088297E+03  0.46337010440E+03  0.00000000000E+00 0.  1.
         21    1    1    2  504  502 -0.18677302437E+02 -0.48178854964E+02 -0.60779310776E+02  0.79775737605E+02  0.00000000000E+00 0. -1.
         21    1    1    2  505  506  0.35768899765E+02  0.14142740949E+03  0.12261302714E+03  0.19056516148E+03  0.00000000000E+00 0.  1.
         21    1    1    2  506  501 -0.74352944407E+02 -0.63128584188E+02  0.63003760822E+03  0.63754291326E+03  0.00000000000E+00 0. -1.
<scales pt_clust_3="84.69404" pt_clust_4="51.67247" pt_clust_5="100.00773" pt_clust_6="14000.00000"></scales>
<clustering>
<clus scale="   51.672">  2  4  1 -1</clus>
<clus scale="   84.694">  2  3  1 -1</clus>
<clus scale="  100.008">  2  5  1 -1</clus>
<clus scale="  100.008">  1  3  2 -1</clus>
</clustering>
</event>
<event>
 6    0  0.8991567E+002  0.1104234E+03  0.7546771E-02  0.1259788E+00
         21   -1    0    0  506  501  0.00000000000E+00  0.00000000000E+00  0.88084726618E+02  0.88084726618E+02  0.00000000000E+00 0.  1.
         21   -1    0    0  505  502 -0.00000000000E+00 -0.00000000000E+00 -0.41583980822E+03  0.41583980822E+03  0.00000000000E+00 0.  1.
         21    1    1    2  503  504 -0.11480441520E+03  0.74956111192E+01 -0.91943421199E+02  0.14727467752E+03  0.00000000000E+00 0.  1.
         21    1    1    2  504  502  0.41533810498E+02  0.54070197988E+02 -0.15632482532E+03  0.17054645917E+03  0.00000000000E+00 0.  1.
         21    1    1    2  505  501  0.10461677263E+03 -0.39879435938E+02 -0.93117860640E+02  0.14562271284E+03  0.00000000000E+00 0.  1.
         21    1    1    2  506  503 -0.31346167926E+02 -0.21686373169E+02  0.13631025558E+02  0.40480685303E+02  0.00000000000E+00 0.  1.
<scales pt_clust_3="14000.00000" pt_clust_4="63.96663" pt_clust_5="110.42341" pt_clust_6="38.11668"></scales>
<clustering>
<clus scale="   38.117">  1  6  2 -1</clus>
<clus scale="   63.967">  2  4  1 -1</clus>
<clus scale="  110.423">  1  5  2 -1</clus>
<clus scale="   38.117">  1  3  2 -1</clus>
</clustering>
</event>
<event>
 6    0  0.8991567E+002  0.2268058E+03  0.7546771E-02  0.1128908E+00
         21   -1    0    0  505  501  0.00000000000E+00  0.00000000000E+00  0.19859927324E+04  0.19859927324E+04  0.00000000000E+00 0. -1.
         21   -1    0    0  503  502 -0.00000000000E+00 -0.00000000000E+00 -0.15335814505E+03  0.15335814505E+03  0.00000000000E+00 0. -1.
         21    1    1    2  503  501  0.20318235670E+03 -0.30696198179E+02  0.58748498830E+03  0.62238568278E+03  0.00000000000E+00 0. -1.
         21    1    1    2  504  506 -0.24567543413E+03 -0.12576254768E+03  0.86698873867E+03  0.90985829134E+03  0.00000000000E+00 0. -1.
         21    1    1    2  505  504  0.23378012577E+02 -0.28824777171E+02  0.41548331017E+03  0.41713760353E+03  0.00000000000E+00 0. -1.
         21    1    1    2  506  502  0.19115064853E+02  0.18528352303E+03 -0.37322449783E+02  0.18996929980E+03  0.00000000000E+00 0. -1.
<scales pt_clust_3="226.80584" pt_clust_4="14000.00000" pt_clust_5="37.11333" pt_clust_6="184.99381"></scales>
<clustering>
<clus scale="   37.113">  1  5  2 -1</clus>
<clus scale="  184.994">  2  6  1 -1</clus>
<clus scale="  226.806">  1  3  2 -1</clus>
<clus scale="   37.113">  1  3  2 -1</clus>
</clustering>
</event>
<event>
 6    0  0.8991567E+002  0.1095097E+03  0.7546771E-02  0.1261481E+00
         21   -1    0    0  505  501  0.00000000000E+00  0.00000000000E+00  0.53766806556E+03  0.53766806556E+03  0.00000000000E+00 0.  1.
         21   -1    0    0  506  502 -0.00000000000E+00 -0.00000000000E+00 -0.47845424096E+02  0.47845424096E+02  0.00000000000E+00 0.  1.
         21    1    1    2  503  502  0.28124728182E+02  0.23712632708E+02 -0.10313132473E+02  0.38205365941E+02  0.00000000000E+00 0.  1.
         21    1    1    2  504  503 -0.23815573734E+01  0.47229413827E+02  0.10109033508E+03  0.11160441385E+03  0.00000000000E+00 0.  1.
         21    1    1    2  505  504  0.37375202112E+02  0.31048957624E+02  0.17441890884E+03  0.18106048510E+03  0.00000000000E+00 0.  1.
         21    1    1    2  506  501 -0.63118372920E+02 -0.10199100416E+03  0.22462653002E+03  0.25464322476E+03  0.00000000000E+00 0.  1.
<scales pt_clust_3="36.78708" pt_clust_4="48.43417" pt_clust_5="48.43417" pt_clust_6="97.96441"></scales>
<clustering>
<clus scale="   36.787">  2  3  1 -1</clus>
<clus scale="   48.434">  4  5 -1 -1</clus>
<clus scale="   97.964">  2  6  1 -1</clus>
<clus scale="  109.510">  1  3  2 -1</clus>
</clustering>
</event>
<event>
 6    0  0.8991567E+002  0.8012653E+02  0.7546771E-02  0.1328693E+00
         21   -1    0    0  503  501  0.00000000000E+00  0.00000000000E+00  0.98825727773E+02  0.98825727773E+02  0.00000000000E+00 0. -1.
         21   -1    0    0  504  502 -0.00000000000E+00 -0.00000000000E+00 -0.15737246043E+04  0.15737246043E+04  0.00000000000E+00 0.  1.
         21    1    1    2  503  505  0.57458311794E+02  0.14064451082E+02 -0.12424684910E+03  0.13761012277E+03  0.00000000000E+00 0.  1.
         21    1    1    2  504  506  0.25018592623E+01  0.78444072628E+02 -0.11869407215E+04  0.11895326848E+04  0.00000000000E+00 0.  1.
         21    1    1    2  505  502 -0.26986776180E+01 -0.90768730639E+02 -0.23617645201E+03  0.25303272872E+03  0.00000000000E+00 0.  1.
         21    1    1    2  506  501 -0.57261493438E+02 -0.17397930710E+01  0.72465146048E+02  0.92374795818E+02  0.00000000000E+00 0. -1.
<scales pt_clust_3="36.65689" pt_clust_4="80.12653" pt_clust_5="14000.00000" pt_clust_6="57.28792"></scales>
<clustering>
<clus scale="   57.288">  1  6  2 -1</clus>
<clus scale="   36.657">  1  3  2 -1</clus>
<clus scale="   80.127">  2  4  1 -1</clus>
<clus scale="   57.288">  1  3  2 -1</clus>
</clustering>
</event>
<event>
 6    0  0.8991567E+002  0.1016249E+03  0.7546771E-02  0.1276916E+00
         21   -1    0    0  504  501  0.00000000000E+00  0.00000000000E+00  0.54578514245E+03  0.54578514245E+03  0.00000000000E+00 0.  1.
         21   -1    0    0  503  502 -0.00000000000E+00 -0.00000000000E+00 -0.72907833849E+03  0.72907833849E+03  0.00000000000E+00 0.  1.
         21    1    1    2  503  505 -0.89734776729E+01 -0.63264717767E+02 -0.48584702889E+03  0.49003090034E+03  0.00000000000E+00 0.  1.
         21    1    1    2  504  506 -0.11385594960E+02 -0.98497475393E+02  0.37724930408E+03  0.39006207437E+03  0.00000000000E+00 0.  1.
         21    1    1    2  505  501 -0.74907820895E+02  0.48538336868E+02  0.12041893993E+03  0.14989287132E+03  0.00000000000E+00 0.  1.
         21    1    1    2  506  502  0.95266893528E+02  0.11322385629E+03 -0.19511441117E+03  0.24487763491E+03  0.00000000000E+00 0.  1.
<scales pt_clust_3="63.89795" pt_clust_4="101.62489" pt_clust_5="87.68824" pt_clust_6="14000.00000"></scales>
<clustering>
<clus scale="   63.898">  2  3  1 -1</clus>
<clus scale="   87.688">  1  5  2 -1</clus>
<clus scale="  101.625">  1  4  2 -1</clus>
<clus scale="   87.688">  1  3  2 -1</clus>
</clustering>
</event>
<event>
 6    0  0.8991567E+002  0.1419884E+03  0.7546771E-02  0.1210678E+00
         21   -1    0    0  506  501  0.00000000000E+00  0.00000000000E+00  0.24364136632E+03  0.24364136632E+03  0.00000000000E+00 0. -1.
         21   -1    0    0  503  502 -0.00000000000E+00 -0.00000000000E+00 -0.85178968628E+03  0.85178968628E+03  0.00000000000E+00 0. -1.
         21    1    1    2  503  501 -0.47287972672E+02 -0.93768449153E+02 -0.56007010349E+02  0.11901873644E+03  0.00000000000E+00 0. -1.
         21    1    1    2  504  505  0.36742301694E+02  0.15920370023E+03  0.81842468967E+02  0.18274026548E+03  0.00000000000E+00 0. -1.
         21    1    1    2  505  502 -0.45040467206E+02 -0.97128765555E+02 -0.69622381600E+03  0.70440772479E+03  0.00000000000E+00 0. -1.
         21    1    1    2  506  504  0.55586138184E+02  0.31693514481E+02  0.62240037424E+02  0.89264325892E+02  0.00000000000E+00 0. -1.
<scales pt_clust_3="105.01750" pt_clust_4="56.87687" pt_clust_5="109.08837" pt_clust_6="56.87687"></scales>
<clustering>
<clus scale="   56.877">  4  6 -1 -1</clus>
<clus scale="  105.017">  1  3  2 -1</clus>
<clus scale="  109.088">  2  5  1 -1</clus>
<clus scale="  105.017">  1  3  2 -1</clus>
</clustering>
</event>
<event>
 6    0  0.8991567E+002  0.8310828E+02  0.7546771E-02  0.1320455E+00
         21   -1    0    0  504  501  0.00000000000E+00  0.00000000000E+00  0.50514907041E+02  0.50514907041E+02  0.00000000000E+00 0. -1.
         21   -1    0    0  506  502 -0.00000000000E+00 -0.00000000000E+00 -0.10768594105E+04  0.10768594105E+04  0.00000000000E+00 0.  1.
         21    1    1    2  503  501  0.42878070499E+02  0.59208050732E+02 -0.41825801638E+02  0.84223036539E+02  0.00000000000E+00 0. -1.
         21    1    1    2  504  502  0.29898331770E+02 -0.16214187594E+02  0.99712887255E+01  0.35443429868E+02  0.00000000000E+00 0. -1.
         21    1    1    2  505  503 -0.10472416761E+03 -0.18200930229E+02 -0.47987001632E+03  0.49150143205E+03  0.00000000000E+00 0.  1.
         21    1    1    2  506  505  0.31947765339E+02 -0.24792932909E+02 -0.51461997419E+03  0.51620641905E+03  0.00000000000E+00 0.  1.
<scales pt_clust_3="83.10828" pt_clust_4="34.01191" pt_clust_5="14000.00000" pt_clust_6="41.39709"></scales>
<clustering>
<clus scale="   34.012">  1  4  2 -1</clus>
<clus scale="   41.397">  2  6  1 -1</clus>
<clus scale="   83.108">  1  3  2 -1</clus>
<clus scale="   34.012">  1  3  2 -1</clus>
</clustering>
</event>
<event>
 6    0  0.8991567E+002  0.1355135E+03  0.7546771E-02  0.1219497E+00
         21   -1    0    0  504  501  0.00000000000E+00  0.00000000000E+00  0.15115454904E+04  0.15115454904E+04  0.00000000000E+00 0.  1.
         21   -1    0    0  503  502 -0.00000000000E+00 -0.00000000000E+00 -0.28894088004E+03  0.28894088004E+03  0.00000000000E+00 0.  1.
         21    1    1    2  503  501  0.15673570583E+03  0.12298251388E+03 -0.16864422468E+03  0.26102041054E+03  0.00000000000E+00 0.  1.
         21    1    1    2  504  506 -0.77246116172E+02 -0.50757062643E+01  0.13699878443E+04  0.13721732466E+04  0.00000000000E+00 0.  1.
         21    1    1    2  505  502 -0.29384722877E+02 -0.43028679653E+02 -0.33420064714E+02  0.61901776523E+02  0.00000000000E+00 0.  1.
         21    1    1    2  506  505 -0.50104866780E+02 -0.74878127964E+02  0.54681055490E+02  0.10539093676E+03  0.00000000000E+00 0.  1.
<scales pt_clust_3="14000.00000" pt_clust_4="77.55848" pt_clust_5="52.10498" pt_clust_6="135.51354"></scales>
<clustering>
<clus scale="   52.105">  2  5  1 -1</clus>
<clus scale="   77.558">  1  4  2 -1</clus>
<clus scale="  135.514">  1  6  2 -1</clus>
<clus scale="   77.558">  1  3  2 -1</clus>
</clustering>
</event>
<event>
 6    0  0.8991567E+002  0.1153244E+03  0.7546771E-02  0.1251016E+00
         21   -1    0    0  505  501  0.00000000000E+00  0.00000000000E+00  0.16997439257E+04  0.16997439257E+04  0.00000000000E+00 0. -1.
         21   -1    0    0  506  502 -0.00000000000E+00 -0.00000000000E+00 -0.29036429361E+02  0.29036429361E+02  0.00000000000E+00 0.  1.
         21    1    1    2  503  501 -0.22132434188E+02  0.41132284143E+02  0.12399489874E+04  0.12408284333E+04  0.00000000000E+00 0. -1.
         21    1    1    2  504  503  0.22972790188E+02  0.31300982776E+02  0.54696185186E+02  0.67075877077E+02  0.00000000000E+00 0. -1.
         21    1    1    2  505  502 -0.51426009971E+02 -0.10493807059E+03  0.17053507285E+03  0.20673375204E+03  0.00000000000E+00 0.  1.
         21    1    1    2  506  504  0.50585653971E+02  0.32504803673E+02  0.20552725089E+03  0.21414229266E+03  0.00000000000E+00 0. -1.
<scales pt_clust_3="46.70877" pt_clust_4="34.89192" pt_clust_5="106.83781" pt_clust_6="34.89192"></scales>
<clustering>
<clus scale="   34.892">  4  6 -1 -1</clus>
<clus scale="   46.709">  1  3  2 -1</clus>
<clus scale="  106.838">  2  5  1 -1</clus>
<clus scale="   46.709">  1  3  2 -1</clus>
</clustering>
</event>
<event>
 6    0  0.8991567E+002  0.7547860E+02  0.7546771E-02  0.1342395E+00
         21   -1    0    0  505  501  0.00000000000E+00  0.00000000000E+00  0.14215960575E+04  0.14215960575E+04  0.00000000000E+00 0. -1.
         21   -1    0    0  503  502 -0.00000000000E+00 -0.00000000000E+00 -0.78777403841E+03  0.78777403841E+03  0.00000000000E+00 0. -1.
         21    1    1    2  503  506 -0.55622997403E+02  0.61764584281E+02 -0.74981466607E+03  0.75440759220E+03  0.00000000000E+00 0. -1.
         21    1    1    2  504  502  0.56137911313E+02  0.12978062767E+02  0.21008210307E+01  0.57656817887E+02  0.00000000000E+00 0. -1.
         21    1    1    2  505  504  0.69733402339E+02 -0.86105062741E+02  0.46529794058E+03  0.47830848073E+03  0.00000000000E+00 0.  1.
         21    1    1    2  506  501 -0.70248316249E+02  0.11362415693E+02  0.91623792358E+03  0.91899720512E+03  0.00000000000E+00 0. -1.
<scales pt_clust_3="75.47860" pt_clust_4="57.61853" pt_clust_5="14000.00000" pt_clust_6="71.06447"></scales>
<clustering>
<clus scale="   57.619">  2  4  1 -1</clus>
<clus scale="   71.064">  1  6  2 -1</clus>
<clus scale="   75.479">  2  3  1 -1</clus>
<clus scale="   71.064">  1  3  2 -1</clus>
</clustering>
</event>
<event>
 6    0  0.8991567E+002  0.6853424E+02  0.7546771E-02  0.1365150E+00
         21   -1    0    0  506  501  0.00000000000E+00  0.00000000000E+00  0.79437206372E+02  0.79437206372E+02  0.00000000000E+00 0. -1.
         21   -1    0    0  505  502 -0.00000000000E+00 -0.00000000000E+00 -0.35350354561E+03  0.35350354561E+03  0.00000000000E+00 0. -1.
         21    1    1    2  503  502 -0.61817339394E+02  0.37190915434E+02 -0.50446609737E+02  0.88030722334E+02  0.00000000000E+00 0. -1.
         21    1    1    2  504  501 -0.25101779688E+02 -0.50168476659E+02 -0.54523795529E+02  0.78229276315E+02  0.00000000000E+00 0. -1.
         21    1    1    2  505  504  0.35332388836E+02 -0.41875700334E+02 -0.18219057986E+03  0.19025078020E+03  0.00000000000E+00 0. -1.
         21    1    1    2  506  503  0.51586730247E+02  0.54853261559E+02  0.13094645889E+02  0.76429973127E+02  0.00000000000E+00 0. -1.
<scales pt_clust_3="51.20115" pt_clust_4="68.53424" pt_clust_5="54.79007" pt_clust_6="14000.00000"></scales>
<clustering>
<clus scale="   54.790">  2  5  1 -1</clus>
<clus scale="   51.201">  2  3  1 -1</clus>
<clus scale="   68.534">  2  4  1 -1</clus>
<clus scale="   68.534">  1  3  2 -1</clus>
</clustering>
</event>
<event>
 6    0  0.8991567E+002  0.8717931E+02  0.7546771E-02  0.1309830E+00
         21   -1    0    0  506  501  0.00000000000E+00  0.00000000000E+00  0.11459157459E+03  0.11459157459E+03  0.00000000000E+00 0. -1.
         21   -1    0    0  505  502 -0.00000000000E+00 -0.00000000000E+00 -0.19247016961E+04  0.19247016961E+04  0.00000000000E+00 0. -1.
         21    1    1    2  503  504 -0.61158567548E+02 -0.17723141683E+02  0.39965162874E+02  0.75177751889E+02  0.00000000000E+00 0. -1.
         21    1    1    2  504  502  0.96546520330E+02 -0.53013393398E+02 -0.18095352147E+03  0.21183915455E+03  0.00000000000E+00 0.  1.
         21    1    1    2  505  501 -0.73556745199E+01  0.31978189988E+02 -0.16967301282E+04  0.16970473885E+04  0.00000000000E+00 0. -1.
         21    1    1    2  506  503 -0.28032278263E+02  0.38758345093E+02  0.27608365277E+02  0.55228975838E+02  0.00000000000E+00 0. -1.
<scales pt_clust_3="14000.00000" pt_clust_4="87.17931" pt_clust_5="32.81327" pt_clust_6="49.67137"></scales>
<clustering>
<clus scale="   32.813">  2  5  1 -1</clus>
<clus scale="   49.671">  1  6  2 -1</clus>
<clus scale="   87.179">  2  4  1 -1</clus>
<clus scale="   49.671">  1  3  2 -1</clus>
</clustering>
</event>
<event>
 6    0  0.8991567E+002  0.8490775E+02  0.7546771E-02  0.1315674E+00
         21   -1    0    0  503  501  0.00000000000E+00  0.00000000000E+00  0.45840963958E+03  0.45840963958E+03  0.00000000000E+00 0.  1.
         21   -1    0    0  506  502 -0.00000000000E+00 -0.00000000000E+00 -0.88560934675E+03  0.88560934675E+03  0.00000000000E+00 0.  1.
         21    1    1    2  503  505  0.98957358466E+01  0.33225649108E+02  0.21771689143E+03  0.22045977901E+03  0.00000000000E+00 0.  1.
         21    1    1    2  504  501  0.31145556616E+02 -0.61899960709E+00  0.15345918414E+03  0.15658911218E+03  0.00000000000E+00 0.  1.
         21    1    1    2  505  502  0.55622064344E+01 -0.10342910520E+03  0.49547240939E+02  0.11481919277E+03  0.00000000000E+00 0.  1.
         21    1    1    2  506  504 -0.46603498897E+02  0.70822455703E+02 -0.84792302367E+03  0.85215090237E+03  0.00000000000E+00 0.  1.
<scales pt_clust_3="46.08014" pt_clust_4="31.15171" pt_clust_5="14000.00000" pt_clust_6="84.90775"></scales>
<clustering>
<clus scale="   31.152">  1  4  2 -1</clus>
<clus scale="   46.080">  1  3  2 -1</clus>
<clus scale="   84.908">  2  6  1 -1</clus>
<clus scale="   31.152">  1  3  2 -1</clus>
</clustering>
</event>
<event>
 6    0  0.8991567E+002  0.8378345E+02  0.7546771E-02  0.1318645E+00
         21   -1    0    0  505  501  0.00000000000E+00  0.00000000000E+00  0.70863210182E+02  0.70863210182E+02  0.00000000000E+00 0. -1.
         21   -1    0    0  501  502 -0.00000000000E+00 -0.00000000000E+00 -0.52985782960E+03  0.52985782960E+03  0.00000000000E+00 0. -1.
         21    1    1    2  503  506 -0.99223845119E+01  0.10426643698E+03 -0.22453396304E+03  0.24776086082E+03  0.00000000000E+00 0. -1.
         21    1    1    2  504  503  0.15512740692E+02 -0.97233891902E+02 -0.58937068605E+02  0.11475475116E+03  0.00000000000E+00 0.  1.
         21    1    1    2  505  504 -0.48474190041E+02  0.36944410465E+02 -0.10142782799E+02  0.61786022753E+02  0.00000000000E+00 0. -1.
         21    1    1    2  506  502  0.42883833861E+02 -0.43976955540E+02 -0.16538080497E+03  0.17641940505E+03  0.00000000000E+00 0. -1.
<scales pt_clust_3="14000.00000" pt_clust_4="83.78345" pt_clust_5="60.94782" pt_clust_6="54.04761"></scales>
<clustering>
<clus scale="   60.948">  1  5  2 -1</clus>
<clus scale="   54.048">  2  6  1 -1</clus>
<clus scale="   83.783">  1  4  2 -1</clus>
<clus scale="   60.948">  1  3  2 -1</clus>
</clustering>
</event>
<event>
 6    0  0.8991567E+002  0.9444636E+02  0.7546771E-02  0.1292428E+00
         21   -1    0    0  506  501  0.00000000000E+00  0.00000000000E+00  0.62199765502E+03  0.62199765502E+03  0.00000000000E+00 0.  1.
         21   -1    0    0  505  502 -0.00000000000E+00 -0.00000000000E+00 -0.26901888987E+03  0.26901888987E+03  0.00000000000E+00 0.  1.
         21    1    1    2  503  504  0.66656290468E+02  0.33612526473E+02  0.33200666918E+02  0.81701574518E+02  0.00000000000E+00 0.  1.
         21    1    1    2  504  501 -0.51874884556E+02 -0.42518669064E+02  0.49195970679E+03  0.49651102099E+03  0.00000000000E+00 0.  1.
         21    1    1    2  505  503  0.89363161729E+02 -0.21375540141E+02 -0.18202405337E+03  0.20390057478E+03  0.00000000000E+00 0.  1.
         21    1    1    2  506  502 -0.10414456764E+03  0.30281682732E+02  0.98424448138E+01  0.10890337460E+03  0.00000000000E+00 0.  1.
<scales pt_clust_3="45.68921" pt_clust_4="67.07340" pt_clust_5="94.44636" pt_clust_6="14000.00000"></scales>
<clustering>
<clus scale="   67.073">  1  4  2 -1</clus>
<clus scale="   45.689">  1  3  2 -1</clus>
<clus scale="   94.446">  2  5  1 -1</clus>
<clus scale="   67.073">  1  3  2 -1</clus>
</clustering>
</event>
<event>
 6    0  0.8991567E+002  0.1501782E+03  0.7546771E-02  0.1200254E+00
         21   -1    0    0  506  501  0.00000000000E+00  0.00000000000E+00  0.52951623151E+03  0.52951623151E+03  0.00000000000E+00 0.  1.
         21   -1    0    0  504  502 -0.00000000000E+00 -0.00000000000E+00 -0.77688844245E+03  0.77688844245E+03  0.00000000000E+00 0.  1.
         21    1    1    2  503  502  0.85497753174E+01  0.74490320737E+02  0.18412692692E+02  0.77207083831E+02  0.00000000000E+00 0.  1.
         21    1    1    2  504  505  0.78299198093E+02  0.12707060354E+03 -0.70523156751E+03  0.72085315184E+03  0.00000000000E+00 0.  1.
         21    1    1    2  505  501 -0.61569601070E+02 -0.17434088326E+03  0.22745893416E+03  0.29312646772E+03  0.00000000000E+00 0.  1.
         21    1    1    2  506  503 -0.25279372341E+02 -0.27220041016E+02  0.21198772972E+03  0.21521797056E+03  0.00000000000E+00 0.  1.
<scales pt_clust_3="70.52926" pt_clust_4="150.17823" pt_clust_5="14000.00000" pt_clust_6="37.14805"></scales>
<clustering>
<clus scale="   37.148">  1  6  2 -1</clus>
<clus scale="   70.529">  1  3  2 -1</clus>
<clus scale="  150.178">  2  4  1 -1</clus>
<clus scale="   37.148">  1  3  2 -1</clus>
</clustering>
</event>
<event>
 6    0  0.8991567E+002  0.7775096E+02  0.7546771E-02  0.1335558E+00
         21   -1    0    0  503  501  0.00000000000E+00  0.00000000000E+00  0.54111305330E+03  0.54111305330E+03  0.00000000000E+00 0.  1.
         21   -1    0    0  506  502 -0.00000000000E+00 -0.00000000000E+00 -0.48805581056E+02  0.48805581056E+02  0.00000000000E+00 0. -1.
         21    1    1    2  503  504  0.15381855949E+02  0.35763682442E+02  0.13220264399E+03  0.13781575219E+03  0.00000000000E+00 0. -1.
         21    1    1    2  504  505  0.93188592455E+02 -0.44743236974E+02  0.11883075399E+03  0.15750180669E+03  0.00000000000E+00 0. -1.
         21    1    1    2  505  502 -0.41994321519E+02 -0.79293362550E+01 -0.10300449966E+01  0.42748782509E+02  0.00000000000E+00 0. -1.
         21    1    1    2  506  501 -0.66576126885E+02  0.16908890786E+02  0.24230411926E+03  0.25185229296E+03  0.00000000000E+00 0.  1.
<scales pt_clust_3="38.93125" pt_clust_4="77.75096" pt_clust_5="41.65220" pt_clust_6="14000.00000"></scales>
<clustering>
<clus scale="   38.931">  1  3  2 -1</clus>
<clus scale="   41.652">  2  5  1 -1</clus>
<clus scale="   77.751">  2  4  1 -1</clus>
<clus scale="   38.931">  1  3  2 -1</clus>
</clustering>
</event>
<event>
 6    0  0.8991567E+002  0.2505218E+03  0.7546771E-02  0.1112976E+00
         21   -1    0    0  505  501  0.00000000000E+00  0.00000000000E+00  0.15530459939E+04  0.15530459939E+04  0.00000000000E+00 0. -1.
         21   -1    0    0  503  502 -0.00000000000E+00 -0.00000000000E+00 -0.10543461130E+03  0.10543461130E+03  0.00000000000E+00 0.  1.
         21    1    1    2  503  501 -0.78161564281E+02 -0.82059521882E+02  0.19424621468E+03  0.22488794360E+03  0.00000000000E+00 0. -1.
         21    1    1    2  504  502  0.25689911727E+03  0.11947941702E+03  0.16696744910E+03  0.32886261053E+03  0.00000000000E+00 0.  1.
         21    1    1    2  505  506 -0.19896544986E+02 -0.23438140713E+02  0.34563381722E+03  0.34699849358E+03  0.00000000000E+00 0.  1.
         21    1    1    2  506  504 -0.15884100801E+03 -0.13981754422E+02  0.74076390165E+03  0.75773155753E+03  0.00000000000E+00 0. -1.
<scales pt_clust_3="118.65783" pt_clust_4="250.52176" pt_clust_5="30.74441" pt_clust_6="14000.00000"></scales>
<clustering>
<clus scale="   30.744">  1  5  2 -1</clus>
<clus scale="  118.658">  1  3  2 -1</clus>
<clus scale="  250.522">  2  4  1 -1</clus>
<clus scale="   30.744">  1  3  2 -1</clus>
</clustering>
</event>
<event>
 6    0  0.8991567E+002  0.8770271E+02  0.7546771E-02  0.1308512E+00
         21   -1    0    0  504  501  0.00000000000E+00  0.00000000000E+00  0.41757455623E+03  0.41757455623E+03  0.00000000000E+00 0.  1.
         21   -1    0    0  506  502 -0.00000000000E+00 -0.00000000000E+00 -0.13828170179E+03  0.13828170179E+03  0.00000000000E+00 0.  1.
         21    1    1    2  503  502 -0.79536726853E+02 -0.15160062882E+02 -0.72660265906E+02  0.10879077473E+03  0.00000000000E+00 0.  1.
         21    1    1    2  504  505 -0.71520726309E+02 -0.11044422517E+02  0.16985956400E+03  0.18463332592E+03  0.00000000000E+00 0.  1.
         21    1    1    2  505  503  0.14123483149E+03 -0.63254740495E+01  0.98812344760E+02  0.17248527104E+03  0.00000000000E+00 0.  1.
         21    1    1    2  506  501  0.98226216720E+01  0.32529959448E+02  0.83281211585E+02  0.89946886335E+02  0.00000000000E+00 0. -1.
<scales pt_clust_3="87.70271" pt_clust_4="66.56637" pt_clust_5="14000.00000" pt_clust_6="33.98061"></scales>
<clustering>
<clus scale="   33.981">  1  6  2 -1</clus>
<clus scale="   66.566">  1  4  2 -1</clus>
<clus scale="   87.703">  2  3  1 -1</clus>
<clus scale="   33.981">  1  3  2 -1</clus>
</clustering>
</event>
<event>
 6    0  0.8991567E+002  0.1547805E+03  0.7546771E-02  0.1194719E+00
         21   -1    0    0  506  501  0.00000000000E+00  0.00000000000E+00  0.73444239577E+03  0.73444239577E+03  0.00000000000E+00 0. -1.
         21   -1    0    0  503  502 -0.00000000000E+00 -0.00000000000E+00 -0.12867081108E+03  0.12867081108E+03  0.00000000000E+00 0. -1.
         21    1    1    2  503  501 -0.17336269995E+03  0.11376542247E+03  0.32690695652E+03  0.38712447004E+03  0.00000000000E+00 0. -1.
         21    1    1    2  504  505  0.53784775832E+02 -0.27103614969E+02  0.68794945096E+01  0.60619596670E+02  0.00000000000E+00 0. -1.
         21    1    1    2  505  502  0.60641328204E+02 -0.48856297105E+02 -0.45542277429E+02  0.90213122585E+02  0.00000000000E+00 0. -1.
         21    1    1    2  506  504  0.58936595909E+02 -0.37805510396E+02  0.31752741110E+03  0.32515601755E+03  0.00000000000E+00 0. -1.
<scales pt_clust_3="146.84873" pt_clust_4="43.01559" pt_clust_5="43.01559" pt_clust_6="70.01985"></scales>
<clustering>
<clus scale="   43.016">  4  5 -1 -1</clus>
<clus scale="   70.020">  1  6  2 -1</clus>
<clus scale="  146.849">  1  3  2 -1</clus>
<clus scale="   70.020">  1  3  2 -1</clus>
</clustering>
</event>
<event>
 6    0  0.8991567E+002  0.1391155E+03  0.7546771E-02  0.1214524E+00
         21   -1    0    0  503  501  0.00000000000E+00  0.00000000000E+00  0.29088262347E+04  0.29088262347E+04  0.00000000000E+00 0.  1.
         21   -1    0    0  505  502 -0.00000000000E+00 -0.00000000000E+00 -0.43691217004E+02  0.43691217004E+02  0.00000000000E+00 0.  1.
         21    1    1    2  503  504 -0.58784469352E+01  0.12498072390E+03  0.24040581643E+04  0.24073118607E+04  0.00000000000E+00 0.  1.
         21    1    1    2  504  502  0.34869028395E+02  0.89764118685E+01 -0.20252684384E+02  0.41310971134E+02  0.00000000000E+00 0.  1.
         21    1    1    2  505  506 -0.31152442570E+02 -0.50475343869E+02  0.13187404897E+03  0.14459944609E+03  0.00000000000E+00 0.  1.
         21    1    1    2  506  501  0.21618611098E+01 -0.83481791898E+02  0.34945548880E+03  0.35929517374E+03  0.00000000000E+00 0.  1.
<scales pt_clust_3="126.12067" pt_clust_4="36.00590" pt_clust_5="45.10190" pt_clust_6="45.10190"></scales>
<clustering>
<clus scale="   36.006">  2  4  1 -1</clus>
<clus scale="   45.102">  5  6 -1 -1</clus>
<clus scale="  126.121">  1  3  2 -1</clus>
<clus scale="  126.121">  1  3  2 -1</clus>
</clustering>
</event>
<event>
 6    0  0.8991567E+002  0.1149940E+03  0.7546771E-02  0.1251592E+00
         21   -1    0    0  503  501  0.00000000000E+00  0.00000000000E+00  0.10170495592E+03  0.10170495592E+03  0.00000000000E+00 0. -1.
         21   -1    0    0  504  502 -0.00000000000E+00 -0.00000000000E+00 -0.12573834616E+04  0.12573834616E+04  0.00000000000E+00 0. -1.
         21    1    1    2  503  502  0.88141892115E+02 -0.94120406373E+01 -0.69733672931E+03  0.70294814439E+03  0.00000000000E+00 0. -1.
         21    1    1    2  504  506 -0.17904376382E+03 -0.28864137907E+02 -0.50479680789E+03  0.53638570551E+03  0.00000000000E+00 0. -1.
         21    1    1    2  505  501  0.18424407342E+02  0.32348340474E+02  0.10786718609E+02  0.38758576027E+02  0.00000000000E+00 0.  1.
         21    1    1    2  506  505  0.72477464365E+02  0.59278380696E+01  0.35668312924E+02  0.80995991579E+02  0.00000000000E+00 0. -1.
<scales pt_clust_3="88.64299" pt_clust_4="103.77259" pt_clust_5="35.45029" pt_clust_6="35.45029"></scales>
<clustering>
<clus scale="   35.450">  5  6 -1 -1</clus>
<clus scale="   88.643">  2  3  1 -1</clus>
<clus scale="  103.773">  2  4  1 -1</clus>
<clus scale="  114.994">  1  3  2 -1</clus>
</clustering>
</event>
<event>
 6    0  0.8991567E+002  0.2897185E+03  0.7546771E-02  0.1090496E+00
         21   -1    0    0  503  501  0.00000000000E+00  0.00000000000E+00  0.30469591988E+03  0.30469591988E+03  0.00000000000E+00 0. -1.
         21   -1    0    0  506  502 -0.00000000000E+00 -0.00000000000E+00 -0.16480276334E+04  0.16480276334E+04  0.00000000000E+00 0. -1.
         21    1    1    2  503  504 -0.10641634073E+03  0.21020379355E+02 -0.66852764626E+02  0.12741893918E+03  0.00000000000E+00 0. -1.
         21    1    1    2  504  502  0.10403190407E+03 -0.25524354503E+03 -0.14766737033E+04  0.15021774630E+04  0.00000000000E+00 0. -1.
         21    1    1    2  505  501  0.10537619438E+02  0.12790121801E+03  0.16864838991E+03  0.21192461493E+03  0.00000000000E+00 0. -1.
         21    1    1    2  506  505 -0.81531827723E+01  0.10632194767E+03  0.31546364470E+02  0.11120253620E+03  0.00000000000E+00 0. -1.
<scales pt_clust_3="108.47255" pt_clust_4="272.89148" pt_clust_5="88.69177" pt_clust_6="88.69177"></scales>
<clustering>
<clus scale="   88.692">  5  6 -1 -1</clus>
<clus scale="  108.473">  1  3  2 -1</clus>
<clus scale="  272.891">  2  4  1 -1</clus>
<clus scale="  108.473">  1  3  2 -1</clus>
</clustering>
</event>
<event>
 6    0  0.8991567E+002  0.1963828E+03  0.7546771E-02  0.1152827E+00
         21   -1    0    0  503  501  0.00000000000E+00  0.00000000000E+00  0.19896342987E+04  0.19896342987E+04  0.00000000000E+00 0.  1.
         21   -1    0    0  504  502 -0.00000000000E+00 -0.00000000000E+00 -0.62345483936E+03  0.62345483936E+03  0.00000000000E+00 0. -1.
         21    1    1    2  503  505  0.15358463504E+03  0.33337486502E+01  0.17316635869E+04  0.17384643028E+04  0.00000000000E+00 0.  1.
         21    1    1    2  504  506 -0.27951147517E+03  0.83032746992E+02 -0.14905587343E+03  0.32747328934E+03  0.00000000000E+00 0. -1.
         21    1    1    2  505  502  0.17138129542E+03 -0.34246868192E+02 -0.35309695041E+03  0.39398204628E+03  0.00000000000E+00 0. -1.
         21    1    1    2  506  501 -0.45454455291E+02 -0.52119627451E+02  0.13666869629E+03  0.15316949963E+03  0.00000000000E+00 0.  1.
<scales pt_clust_3="119.87960" pt_clust_4="196.38283" pt_clust_5="14000.00000" pt_clust_6="69.15608"></scales>
<clustering>
<clus scale="   69.156">  1  6  2 -1</clus>
<clus scale="  119.880">  1  3  2 -1</clus>
<clus scale="  196.383">  1  4  2 -1</clus>
<clus scale="   69.156">  1  3  2 -1</clus>
</clustering>
</event>
<event>
 6    0  0.8991567E+002  0.8628370E+02  0.7546771E-02  0.1312109E+00
         21   -1    0    0  506  501  0.00000000000E+00  0.00000000000E+00  0.40661661957E+03  0.40661661957E+03  0.00000000000E+00 0. -1.
         21   -1    0    0  503  502 -0.00000000000E+00 -0.00000000000E+00 -0.73498835432E+02  0.73498835432E+02  0.00000000000E+00 0. -1.
         21    1    1    2  503  505  0.28877960076E+02  0.11663627989E+03  0.56158304122E+02  0.13263375697E+03  0.00000000000E+00 0. -1.
         21    1    1    2  504  502 -0.16366400561E+01 -0.34407897049E+02 -0.59410367399E+01  0.34955369939E+02  0.00000000000E+00 0. -1.
         21    1    1    2  505  501  0.10277901771E+02 -0.66303006193E+02  0.74845948834E+02  0.10051686402E+03  0.00000000000E+00 0. -1.
         21    1    1    2  506  504 -0.37519221791E+02 -0.15925376652E+02  0.20805456792E+03  0.21200946407E+03  0.00000000000E+00 0. -1.
<scales pt_clust_3="14000.00000" pt_clust_4="34.44680" pt_clust_5="86.28370" pt_clust_6="41.33263"></scales>
<clustering>
<clus scale="   34.447">  2  4  1 -1</clus>
<clus scale="   41.333">  1  6  2 -1</clus>
<clus scale="   86.284">  1  5  2 -1</clus>
<clus scale="   41.333">  1  3  2 -1</clus>
</clustering>
</event>
<event>
 6    0  0.8991567E+002  0.9589177E+02  0.7546771E-02  0.1289180E+00
         21   -1    0    0  503  501  0.00000000000E+00  0.00000000000E+00  0.20325966022E+03  0.20325966022E+03  0.00000000000E+00 0. -1.
         21   -1    0    0  504  502 -0.00000000000E+00 -0.00000000000E+00 -0.17275022192E+03  0.17275022192E+03  0.00000000000E+00 0. -1.
         21    1    1    2  503  506 -0.80440601207E+01  0.81355412455E+02  0.14075478639E+03  0.16277383061E+03  0.00000000000E+00 0. -1.
         21    1    1    2  504  505 -0.12654067771E+02 -0.50481247658E+02 -0.74390873872E+02  0.90788126491E+02  0.00000000000E+00 0. -1.
         21    1    1    2  505  501 -0.27356790856E+02 -0.56135257399E+02 -0.23854596620E+02  0.66847609598E+02  0.00000000000E+00 0. -1.
         21    1    1    2  506  502  0.48054918747E+02  0.25261092602E+02 -0.11999877602E+02  0.55600315446E+02  0.00000000000E+00 0.  1.
<scales pt_clust_3="83.46453" pt_clust_4="43.09961" pt_clust_5="43.09961" pt_clust_6="54.28994"></scales>
<clustering>
<clus scale="   43.100">  4  5 -1 -1</clus>
<clus scale="   54.290">  2  6  1 -1</clus>
<clus scale="   83.465">  1  3  2 -1</clus>
<clus scale="   83.465">  1  3  2 -1</clus>
</clustering>
</event>
<event>
 6    0  0.8991567E+002  0.7868619E+02  0.7546771E-02  0.1332822E+00
         21   -1    0    0  506  501  0.00000000000E+00  0.00000000000E+00  0.19832189541E+02  0.19832189541E+02  0.00000000000E+00 0. -1.
         21   -1    0    0  503  502 -0.00000000000E+00 -0.00000000000E+00 -0.12911861655E+04  0.12911861655E+04  0.00000000000E+00 0. -1.
         21    1    1    2  503  501 -0.54588247326E+02  0.21536367348E+02 -0.21684889935E+03  0.22464891946E+03  0.00000000000E+00 0. -1.
         21    1    1    2  504  502  0.23591492017E+02  0.21233907432E+02 -0.47127084218E+03  0.47233848458E+03  0.00000000000E+00 0. -1.
         21    1    1    2  505  504  0.21591121527E+02 -0.11122607849E+03 -0.44876159023E+03  0.46284379863E+03  0.00000000000E+00 0. -1.
         21    1    1    2  506  505  0.94056337815E+01  0.68455803705E+02 -0.13447264423E+03  0.15118715241E+03  0.00000000000E+00 0. -1.
<scales pt_clust_3="55.40140" pt_clust_4="31.74015" pt_clust_5="78.68619" pt_clust_6="14000.00000"></scales>
<clustering>
<clus scale="   31.740">  2  4  1 -1</clus>
<clus scale="   55.401">  2  3  1 -1</clus>
<clus scale="   78.686">  2  5  1 -1</clus>
<clus scale="   78.686">  1  3  2 -1</clus>
</clustering>
</event>
<event>
 6    0  0.8991567E+002  0.2001517E+03  0.7546771E-02  0.1149611E+00
         21   -1    0    0  506  501  0.00000000000E+00  0.00000000000E+00  0.81677014812E+03  0.81677014812E+03  0.00000000000E+00 0. -1.
         21   -1    0    0  505  502 -0.00000000000E+00 -0.00000000000E+00 -0.36560457882E+03  0.36560457882E+03  0.00000000000E+00 0.  1.
         21    1    1    2  503  502 -0.11750663914E+03  0.14513646476E+03  0.12903100646E+03  0.22698326870E+03  0.00000000000E+00 0. -1.
         21    1    1    2  504  501  0.77215275047E+02 -0.17846480698E+03 -0.22323852860E+03  0.29605291197E+03  0.00000000000E+00 0.  1.
         21    1    1    2  505  504  0.32173152911E+02  0.28499361177E+01 -0.51956007201E+02  0.61177288174E+02  0.00000000000E+00 0.  1.
         21    1    1    2  506  503  0.81182111810E+01  0.30478406104E+02  0.59732909865E+03  0.59816125809E+03  0.00000000000E+00 0. -1.
<scales pt_clust_3="200.15171" pt_clust_4="14000.00000" pt_clust_5="32.53196" pt_clust_6="31.54106"></scales>
<clustering>
<clus scale="   31.541">  1  6  2 -1</clus>
<clus scale="   32.532">  2  5  1 -1</clus>
<clus scale="  200.152">  1  3  2 -1</clus>
<clus scale="   31.541">  1  3  2 -1</clus>
</clustering>
</event>
<event>
 6    0  0.8991567E+002  0.8876050E+02  0.7546771E-02  0.1305881E+00
         21   -1    0    0  503  501  0.00000000000E+00  0.00000000000E+00  0.11254842267E+03  0.11254842267E+03  0.00000000000E+00 0. -1.
         21   -1    0    0  506  502 -0.00000000000E+00 -0.00000000000E+00 -0.43591953916E+03  0.43591953916E+03  0.00000000000E+00 0. -1.
         21    1    1    2  503  504 -0.50601912074E+01  0.58523128199E+02 -0.55800225458E+02  0.81019918726E+02  0.00000000000E+00 0. -1.
         21    1    1    2  504  502 -0.22554025027E+02 -0.30517858601E+02 -0.15721978459E+03  0.16173461103E+03  0.00000000000E+00 0. -1.
         21    1    1    2  505  501 -0.38118880773E+02 -0.81738397111E+02  0.64810100925E+02  0.11106108146E+03  0.00000000000E+00 0. -1.
         21    1    1    2  506  505  0.65733097007E+02  0.53733127514E+02 -0.17516120736E+03  0.19465235062E+03  0.00000000000E+00 0. -1.
<scales pt_clust_3="52.07000" pt_clust_4="37.94764" pt_clust_5="88.76050" pt_clust_6="14000.00000"></scales>
<clustering>
<clus scale="   37.948">  2  4  1 -1</clus>
<clus scale="   52.070">  2  3  1 -1</clus>
<clus scale="   88.761">  1  5  2 -1</clus>
<clus scale="   88.761">  1  3  2 -1</clus>
</clustering>
</event>
<event>
 6    0  0.8991567E+002  0.9562867E+02  0.7546771E-02  0.1289766E+00
         21   -1    0    0  506  501  0.00000000000E+00  0.00000000000E+00  0.12523303073E+04  0.12523303073E+04  0.00000000000E+00 0. -1.
         21   -1    0    0  503  502 -0.00000000000E+00 -0.00000000000E+00 -0.68791232659E+03  0.68791232659E+03  0.00000000000E+00 0.  1.
         21    1    1    2  503  501 -0.86807076377E+01 -0.67926536367E+02 -0.54651485587E+03  0.55078839559E+03  0.00000000000E+00 0.  1.
         21    1    1    2  504  505  0.13769498686E+03 -0.12071499752E+02  0.34126435623E+02  0.14237360753E+03  0.00000000000E+00 0. -1.
         21    1    1    2  505  502 -0.38820515261E+02  0.52791904094E+02 -0.70304393825E+02  0.96107883829E+02  0.00000000000E+00 0. -1.
         21    1    1    2  506  504 -0.90193763958E+02  0.27206132025E+02  0.11471107948E+04  0.11509727470E+04  0.00000000000E+00 0. -1.
<scales pt_clust_3="48.25533" pt_clust_4="95.62867" pt_clust_5="65.52875" pt_clust_6="14000.00000"></scales>
<clustering>
<clus scale="   65.529">  2  5  1 -1</clus>
<clus scale="   48.255">  2  3  1 -1</clus>
<clus scale="   95.629">  2  4  1 -1</clus>
<clus scale="   95.629">  1  3  2 -1</clus>
</clustering>
</event>
<event>
 6    0  0.8991567E+002  0.8525821E+02  0.7546771E-02  0.1314759E+00
         21   -1    0    0  506  501  0.00000000000E+00  0.00000000000E+00  0.29068582220E+03  0.29068582220E+03  0.00000000000E+00 0.  1.
         21   -1    0    0  504  502 -0.00000000000E+00 -0.00000000000E+00 -0.30266931513E+03  0.30266931513E+03  0.00000000000E+00 0.  1.
         21    1    1    2  503  501 -0.19921774973E+02  0.66576337138E+02  0.22747077379E+03  0.23784919321E+03  0.00000000000E+00 0.  1.
         21    1    1    2  504  505  0.72578092276E+02 -0.57885576331E+02 -0.17207954650E+03  0.19552414109E+03  0.00000000000E+00 0.  1.
         21    1    1    2  505  503 -0.78383467068E+02 -0.44593163249E+02 -0.14917290897E+02  0.91405928068E+02  0.00000000000E+00 0. -1.
         21    1    1    2  506  502  0.25727149766E+02  0.35902402442E+02 -0.52457429321E+02  0.68575874965E+02  0.00000000000E+00 0.  1.
<scales pt_clust_3="70.07609" pt_clust_4="85.25821" pt_clust_5="14000.00000" pt_clust_6="44.16864"></scales>
<clustering>
<clus scale="   44.169">  2  6  1 -1</clus>
<clus scale="   70.076">  1  3  2 -1</clus>
<clus scale="   85.258">  2  4  1 -1</clus>
<clus scale="   70.076">  1  3  2 -1</clus>
</clustering>
</event>
<event>
 6    0  0.8991567E+002  0.1137640E+03  0.7546771E-02  0.1253754E+00
         21   -1    0    0  506  501  0.00000000000E+00  0.00000000000E+00  0.31903997115E+03  0.31903997115E+03  0.00000000000E+00 0. -1.
         21   -1    0    0  503  502 -0.00000000000E+00 -0.00000000000E+00 -0.14871345948E+04  0.14871345948E+04  0.00000000000E+00 0. -1.
         21    1    1    2  503  501  0.15713070615E+02  0.39186357631E+02 -0.55462627701E+02  0.69703473974E+02  0.00000000000E+00 0. -1.
         21    1    1    2  504  505 -0.44099907977E+02 -0.63599354358E+02  0.19644445039E+00  0.77393270694E+02  0.00000000000E+00 0.  1.
         21    1    1    2  505  502 -0.31465441141E+02 -0.88961435846E+02 -0.13691947991E+04  0.13724425703E+04  0.00000000000E+00 0. -1.
         21    1    1    2  506  504  0.59852278502E+02  0.11337443257E+03  0.25636635870E+03  0.28663525093E+03  0.00000000000E+00 0. -1.
<scales pt_clust_3="42.21932" pt_clust_4="14000.00000" pt_clust_5="53.79634" pt_clust_6="113.76395"></scales>
<clustering>
<clus scale="   42.219">  2  3  1 -1</clus>
<clus scale="   53.796">  2  5  1 -1</clus>
<clus scale="  113.764">  1  6  2 -1</clus>
<clus scale="  113.764">  1  3  2 -1</clus>
</clustering>
</event>
<event>
 6    0  0.8991567E+002  0.2183461E+03  0.7546771E-02  0.1135122E+00
         21   -1    0    0  504  501  0.00000000000E+00  0.00000000000E+00  0.70807408459E+03  0.70807408459E+03  0.00000000000E+00 0. -1.
         21   -1    0    0  501  502 -0.00000000000E+00 -0.00000000000E+00 -0.40636194260E+03  0.40636194260E+03  0.00000000000E+00 0. -1.
         21    1    1    2  503  502  0.60559226142E+02  0.52546572533E+02 -0.10775919734E+03  0.13431532588E+03  0.00000000000E+00 0. -1.
         21    1    1    2  504  506 -0.29049972853E+02  0.27258761251E+02  0.54919848265E+03  0.55064136634E+03  0.00000000000E+00 0. -1.
         21    1    1    2  505  503 -0.15733292428E+02  0.13292802743E+03 -0.16744155633E+03  0.21436900838E+03  0.00000000000E+00 0. -1.
         21    1    1    2  506  505 -0.15775960860E+02 -0.21273336121E+03  0.27714413010E+02  0.21511032658E+03  0.00000000000E+00 0. -1.
<scales pt_clust_3="73.79809" pt_clust_4="39.83643" pt_clust_5="73.79809" pt_clust_6="195.55023"></scales>
<clustering>
<clus scale="   39.836">  1  4  2 -1</clus>
<clus scale="   73.798">  3  5 -1 -1</clus>
<clus scale="  195.550">  1  6  2 -1</clus>
<clus scale="   39.836">  1  3  2 -1</clus>
</clustering>
</event>
<event>
 6    0  0.8991567E+002  0.1217993E+03  0.7546771E-02  0.1240158E+00
         21   -1    0    0  504  501  0.00000000000E+00  0.00000000000E+00  0.44414944959E+02  0.44414944959E+02  0.00000000000E+00 0.  1.
         21   -1    0    0  501  502 -0.00000000000E+00 -0.00000000000E+00 -0.10267177344E+04  0.10267177344E+04  0.00000000000E+00 0.  1.
         21    1    1    2  503  506  0.79872577483E+02 -0.12514255411E+03 -0.40576045694E+03  0.43206693451E+03  0.00000000000E+00 0.  1.
         21    1    1    2  504  505  0.32135463300E+02 -0.12661010819E+02 -0.37212759985E+02  0.50771829809E+02  0.00000000000E+00 0.  1.
         21    1    1    2  505  503 -0.76106678898E+01  0.11997274044E+03 -0.20563456636E+03  0.23819520481E+03  0.00000000000E+00 0.  1.
         21    1    1    2  506  502 -0.10439737289E+03  0.17830824490E+02 -0.33369500618E+03  0.35009871025E+03  0.00000000000E+00 0.  1.
<scales pt_clust_3="14000.00000" pt_clust_4="34.53968" pt_clust_5="121.79926" pt_clust_6="98.55338"></scales>
<clustering>
<clus scale="   34.540">  1  4  2 -1</clus>
<clus scale="   98.553">  2  6  1 -1</clus>
<clus scale="  121.799">  1  5  2 -1</clus>
<clus scale="   34.540">  1  3  2 -1</clus>
</clustering>
</event>
<event>
 6    0  0.8991567E+002  0.1488583E+03  0.7546771E-02  0.1201883E+00
         21   -1    0    0  506  501  0.00000000000E+00  0.00000000000E+00  0.89181316730E+03  0.89181316730E+03  0.00000000000E+00 0. -1.
         21   -1    0    0  505  502 -0.00000000000E+00 -0.00000000000E+00 -0.91749053341E+02  0.91749053341E+02  0.00000000000E+00 0. -1.
         21    1    1    2  503  502 -0.14251299665E+03  0.21398292428E+02  0.50090157011E+02  0.15256757507E+03  0.00000000000E+00 0. -1.
         21    1    1    2  504  501 -0.46161641935E+02 -0.26738866634E+02  0.49572310610E+03  0.49858526061E+03  0.00000000000E+00 0. -1.
         21    1    1    2  505  504  0.15821361063E+03  0.49549421853E+01  0.13105532395E+03  0.20550327485E+03  0.00000000000E+00 0. -1.
         21    1    1    2  506  503  0.30461027957E+02  0.38563202068E+00  0.12319552690E+03  0.12690611011E+03  0.00000000000E+00 0. -1.
<scales pt_clust_3="148.85827" pt_clust_4="37.40607" pt_clust_5="14000.00000" pt_clust_6="30.46347"></scales>
<clustering>
<clus scale="   30.463">  1  6  2 -1</clus>
<clus scale="   37.406">  1  4  2 -1</clus>
<clus scale="  148.858">  2  3  1 -1</clus>
<clus scale="   30.463">  1  3  2 -1</clus>
</clustering>
</event>
<event>
 6    0  0.8991567E+002  0.9347940E+02  0.7546771E-02  0.1294638E+00
         21   -1    0    0  505  501  0.00000000000E+00  0.00000000000E+00  0.24659994010E+03  0.24659994010E+03  0.00000000000E+00 0. -1.
         21   -1    0    0  503  502 -0.00000000000E+00 -0.00000000000E+00 -0.35117772327E+03  0.35117772327E+03  0.00000000000E+00 0.  1.
         21    1    1    2  503  506  0.36738377400E+02 -0.35598931106E+02  0.19647529600E+02  0.54799796435E+02  0.00000000000E+00 0. -1.
         21    1    1    2  504  502 -0.89852399995E+02  0.28464174350E+02 -0.30677489505E+03  0.32092756074E+03  0.00000000000E+00 0.  1.
         21    1    1    2  505  504  0.71345761415E+02 -0.18227521969E+02  0.17507840263E+03  0.18993395509E+03  0.00000000000E+00 0. -1.
         21    1    1    2  506  501 -0.18231738820E+02  0.25362278725E+02  0.74711796494E+01  0.32116351099E+02  0.00000000000E+00 0.  1.
<scales pt_clust_3="46.12000" pt_clust_4="93.47940" pt_clust_5="14000.00000" pt_clust_6="31.23526"></scales>
<clustering>
<clus scale="   31.235">  1  6  2 -1</clus>
<clus scale="   46.120">  1  3  2 -1</clus>
<clus scale="   93.479">  2  4  1 -1</clus>
<clus scale="   31.235">  1  3  2 -1</clus>
</clustering>
</event>
<event>
 6    0  0.8991567E+002  0.6186713E+02  0.7546771E-02  0.1390159E+00
         21   -1    0    0  506  501  0.00000000000E+00  0.00000000000E+00  0.13947703413E+03  0.13947703413E+03  0.00000000000E+00 0. -1.
         21   -1    0    0  505  502 -0.00000000000E+00 -0.00000000000E+00 -0.20950824559E+04  0.20950824559E+04  0.00000000000E+00 0.  1.
         21    1    1    2  503  501  0.49948168188E+02 -0.12715491425E+02  0.67198602185E+02  0.84688578705E+02  0.00000000000E+00 0. -1.
         21    1    1    2  504  502 -0.40200640815E+02 -0.92985298808E+01 -0.18672348297E+04  0.18676906766E+04  0.00000000000E+00 0.  1.
         21    1    1    2  505  503  0.60123919407E+02 -0.43497069290E+02 -0.16983913592E+03  0.18534349952E+03  0.00000000000E+00 0.  1.
         21    1    1    2  506  504 -0.69871446780E+02  0.65511090596E+02  0.14269941604E+02  0.96836735279E+02  0.00000000000E+00 0. -1.
<scales pt_clust_3="50.13794" pt_clust_4="41.26202" pt_clust_5="61.86713" pt_clust_6="14000.00000"></scales>
<clustering>
<clus scale="   41.262">  2  4  1 -1</clus>
<clus scale="   50.138">  1  3  2 -1</clus>
<clus scale="   61.867">  2  5  1 -1</clus>
<clus scale="   50.138">  1  3  2 -1</clus>
</clustering>
</event>
<event>
 6    0  0.8991567E+002  0.1086331E+03  0.7546771E-02  0.1263122E+00
         21   -1    0    0  503  501  0.00000000000E+00  0.00000000000E+00  0.48908187884E+02  0.48908187884E+02  0.00000000000E+00 0. -1.
         21   -1    0    0  504  502 -0.00000000000E+00 -0.00000000000E+00 -0.36469778910E+04  0.36469778910E+04  0.00000000000E+00 0.  1.
         21    1    1    2  503  502 -0.63751855646E+02 -0.59918881620E+02 -0.99849637820E+02  0.13275737887E+03  0.00000000000E+00 0. -1.
         21    1    1    2  504  505  0.27385972949E+02  0.40531151375E+02 -0.26247348061E+04  0.26251905775E+04  0.00000000000E+00 0.  1.
         21    1    1    2  505  506  0.39894546490E+02  0.63399949071E+02 -0.88823363726E+03  0.89138662921E+03  0.00000000000E+00 0.  1.
         21    1    1    2  506  501 -0.35286637931E+01 -0.44012218827E+02  0.14748378064E+02  0.46551493314E+02  0.00000000000E+00 0. -1.
<scales pt_clust_3="108.63312" pt_clust_4="48.43684" pt_clust_5="14000.00000" pt_clust_6="44.15345"></scales>
<clustering>
<clus scale="   44.153">  1  6  2 -1</clus>
<clus scale="   48.437">  2  4  1 -1</clus>
<clus scale="  108.633">  1  3  2 -1</clus>
<clus scale="   44.153">  1  3  2 -1</clus>
</clustering>
</event>
<event>
 6    0  0.8991567E+002  0.6718651E+02  0.7546771E-02  0.1369930E+00
         21   -1    0    0  503  501  0.00000000000E+00  0.00000000000E+00  0.73839906495E+02  0.73839906495E+02  0.00000000000E+00 0.  1.
         21   -1    0    0  505  502 -0.00000000000E+00 -0.00000000000E+00 -0.36397140955E+03  0.36397140955E+03  0.00000000000E+00 0.  1.
         21    1    1    2  503  504  0.77256259661E+01 -0.41814728272E+02  0.17670792882E+02  0.46047950205E+02  0.00000000000E+00 0.  1.
         21    1    1    2  504  502  0.82385684757E+02  0.31403638274E+02 -0.10050843893E+03  0.13369942350E+03  0.00000000000E+00 0.  1.
         21    1    1    2  505  506 -0.51029564156E+02  0.46247234084E+02 -0.19030713684E+03  0.20238485470E+03  0.00000000000E+00 0.  1.
         21    1    1    2  506  501 -0.39081746567E+02 -0.35836144087E+02 -0.16986720163E+02  0.55679087633E+02  0.00000000000E+00 0.  1.
<scales pt_clust_3="42.52243" pt_clust_4="67.18651" pt_clust_5="64.11289" pt_clust_6="14000.00000"></scales>
<clustering>
<clus scale="   42.522">  1  3  2 -1</clus>
<clus scale="   64.113">  2  5  1 -1</clus>
<clus scale="   67.187">  2  4  1 -1</clus>
<clus scale="   42.522">  1  3  2 -1</clus>
</clustering>
</event>
<event>
 6    0  0.8991567E+002  0.1215508E+03  0.7546771E-02  0.1240560E+00
         21   -1    0    0  505  501  0.00000000000E+00  0.00000000000E+00  0.49649175051E+03  0.49649175051E+03  0.00000000000E+00 0. -1.
         21   -1    0    0  503  502 -0.00000000000E+00 -0.00000000000E+00 -0.29491473673E+04  0.29491473673E+04  0.00000000000E+00 0. -1.
         21    1    1    2  503  506 -0.32449976078E+01 -0.65332757405E+02 -0.22953924852E+04  0.22963243586E+04  0.00000000000E+00 0. -1.
         21    1    1    2  504  501 -0.80760154327E+02 -0.11193712405E+03 -0.14261728660E+03  0.19847370784E+03  0.00000000000E+00 0.  1.
         21    1    1    2  505  502  0.32193307541E+01  0.45786752086E+02  0.45457957589E+03  0.45689099529E+03  0.00000000000E+00 0. -1.
         21    1    1    2  506  504  0.80785821180E+02  0.13148312937E+03 -0.46922542092E+03  0.49395005602E+03  0.00000000000E+00 0.  1.
<scales pt_clust_3="64.88867" pt_clust_4="14000.00000" pt_clust_5="45.89979" pt_clust_6="121.55078"></scales>
<clustering>
<clus scale="   45.900">  1  5  2 -1</clus>
<clus scale="   64.889">  2  3  1 -1</clus>
<clus scale="  121.551">  2  6  1 -1</clus>
<clus scale="   45.900">  1  3  2 -1</clus>
</clustering>
</event>
<event>
 6    0  0.8991567E+002  0.7705351E+02  0.7546771E-02  0.1337627E+00
         21   -1    0    0  506  501  0.00000000000E+00  0.00000000000E+00  0.23343387332E+04  0.23343387332E+04  0.00000000000E+00 0.  1.
         21   -1    0    0  504  502 -0.00000000000E+00 -0.00000000000E+00 -0.77158213948E+02  0.77158213948E+02  0.00000000000E+00 0. -1.
         21    1    1    2  503  502 -0.91448190107E+02  0.15024579212E+02  0.16865994388E+03  0.19244398178E+03  0.00000000000E+00 0. -1.
         21    1    1    2  504  501  0.47445719888E+02  0.24286848541E+02 -0.46607995756E+02  0.70804326253E+02  0.00000000000E+00 0. -1.
         21    1    1    2  505  503  0.70987772300E+02 -0.87462017567E+02  0.51479078837E+03  0.52697098983E+03  0.00000000000E+00 0. -1.
         21    1    1    2  506  505 -0.26985302081E+02  0.48150589813E+02  0.16203377828E+04  0.16212776493E+04  0.00000000000E+00 0.  1.
<scales pt_clust_3="14000.00000" pt_clust_4="53.30054" pt_clust_5="77.05351" pt_clust_6="55.16230"></scales>
<clustering>
<clus scale="   53.301">  2  4  1 -1</clus>
<clus scale="   55.162">  1  6  2 -1</clus>
<clus scale="   77.054">  1  5  2 -1</clus>
<clus scale="   55.162">  1  3  2 -1</clus>
</clustering>
</event>
<event>
 6    0  0.8991567E+002  0.9473991E+02  0.7546771E-02  0.1291763E+00
         21   -1    0    0  503  501  0.00000000000E+00  0.00000000000E+00  0.13991272924E+04  0.13991272924E+04  0.00000000000E+00 0.  1.
         21   -1    0    0  504  502 -0.00000000000E+00 -0.00000000000E+00 -0.25961224569E+02  0.25961224569E+02  0.00000000000E+00 0. -1.
         21    1    1    2  503  505 -0.84795548628E+01 -0.10217671739E+03  0.66583418276E+03  0.67368178197E+03  0.00000000000E+00 0.  1.
         21    1    1    2  504  501  0.94654376425E+02  0.23848805869E+02  0.41902754651E+03  0.43024679111E+03  0.00000000000E+00 0. -1.
         21    1    1    2  505  506 -0.55482192292E+02  0.76851568219E+02  0.26815580449E+03  0.28441514144E+03  0.00000000000E+00 0. -1.
         21    1    1    2  506  502 -0.30692629270E+02  0.14763433000E+01  0.20148534027E+02  0.36744802414E+02  0.00000000000E+00 0. -1.
<scales pt_clust_3="94.73991" pt_clust_4="88.32042" pt_clust_5="14000.00000" pt_clust_6="30.72812"></scales>
<clustering>
<clus scale="   30.728">  2  6  1 -1</clus>
<clus scale="   88.320">  2  4  1 -1</clus>
<clus scale="   94.740">  1  3  2 -1</clus>
<clus scale="   94.740">  1  3  2 -1</clus>
</clustering>
</event>
<event>
 6    0  0.8991567E+002  0.1472828E+03  0.7546771E-02  0.1203852E+00
         21   -1    0    0  504  501  0.00000000000E+00  0.00000000000E+00  0.15021595405E+04  0.15021595405E+04  0.00000000000E+00 0.  1.
         21   -1    0    0  505  502 -0.00000000000E+00 -0.00000000000E+00 -0.81021210048E+03  0.81021210048E+03  0.00000000000E+00 0. -1.
         21    1    1    2  503  506  0.66144752183E+02 -0.12374798272E+03  0.71236371947E+02  0.15736363035E+03  0.00000000000E+00 0. -1.
         21    1    1    2  504  502  0.94248088788E+01  0.13454322973E+03 -0.21012097614E+03  0.24968286345E+03  0.00000000000E+00 0.  1.
         21    1    1    2  505  503 -0.28301580130E+02  0.20177046573E+02 -0.53609994897E+03  0.53722550938E+03  0.00000000000E+00 0. -1.
         21    1    1    2  506  501 -0.47267980933E+02 -0.30972293587E+02  0.13669319932E+04  0.13680996378E+04  0.00000000000E+00 0.  1.
<scales pt_clust_3="14000.00000" pt_clust_4="147.28283" pt_clust_5="34.75763" pt_clust_6="56.53842"></scales>
<clustering>
<clus scale="   34.758">  2  5  1 -1</clus>
<clus scale="   56.538">  1  6  2 -1</clus>
<clus scale="  147.283">  2  4  1 -1</clus>
<clus scale="   56.538">  1  3  2 -1</clus>
</clustering>
</event>
<event>
 6    0  0.8991567E+002  0.1636157E+03  0.7546771E-02  0.1184674E+00
         21   -1    0    0  506  501  0.00000000000E+00  0.00000000000E+00  0.12072868071E+03  0.12072868071E+03  0.00000000000E+00 0.  1.
         21   -1    0    0  505  502 -0.00000000000E+00 -0.00000000000E+00 -0.19300417215E+04  0.19300417215E+04  0.00000000000E+00 0. -1.
         21    1    1    2  503  501 -0.12235683289E+03  0.57635067652E+02  0.62047535765E+02  0.14880487987E+03  0.00000000000E+00 0.  1.
         21    1    1    2  504  502  0.12044032979E+03 -0.75374856164E+02 -0.10068748983E+04  0.10168501870E+04  0.00000000000E+00 0. -1.
         21    1    1    2  505  503  0.38120381791E+02  0.20151464488E+02 -0.84053268765E+03  0.84163795306E+03  0.00000000000E+00 0. -1.
         21    1    1    2  506  504 -0.36203878691E+02 -0.24116759765E+01 -0.23952990660E+02  0.43477382337E+02  0.00000000000E+00 0.  1.
<scales pt_clust_3="163.61574" pt_clust_4="14000.00000" pt_clust_5="42.95401" pt_clust_6="36.28412"></scales>
<clustering>
<clus scale="   36.284">  1  6  2 -1</clus>
<clus scale="   42.954">  2  5  1 -1</clus>
<clus scale="  163.616">  1  3  2 -1</clus>
<clus scale="   36.284">  1  3  2 -1</clus>
</clustering>
</event>
<event>
 6    0  0.8991567E+002  0.1950204E+03  0.7546771E-02  0.1154010E+00
         21   -1    0    0  503  501  0.00000000000E+00  0.00000000000E+00  0.21582995982E+03  0.21582995982E+03  0.00000000000E+00 0.  1.
         21   -1    0    0  504  502 -0.00000000000E+00 -0.00000000000E+00 -0.17465379617E+03  0.17465379617E+03  0.00000000000E+00 0. -1.
         21    1    1    2  503  506 -0.73056969252E+02  0.74770349971E+01 -0.13693826721E+02  0.74704402139E+02  0.00000000000E+00 0.  1.
         21    1    1    2  504  505  0.12411103619E+03  0.42597572671E+01  0.35175485171E+02  0.12906978574E+03  0.00000000000E+00 0. -1.
         21    1    1    2  505  501  0.50744149902E+02  0.26208207954E+02 -0.33003680398E+02  0.65962730638E+02  0.00000000000E+00 0. -1.
         21    1    1    2  506  502 -0.10179821684E+03 -0.37945000218E+02  0.52698185597E+02  0.12074683746E+03  0.00000000000E+00 0.  1.
<scales pt_clust_3="59.15819" pt_clust_4="54.80249" pt_clust_5="54.80249" pt_clust_6="191.51983"></scales>
<clustering>
<clus scale="   54.802">  4  5 -1 -1</clus>
<clus scale="   59.158">  3  6 -1 -1</clus>
<clus scale="  191.520">  1  3  2 -1</clus>
<clus scale="  191.520">  1  3  2 -1</clus>
</clustering>
</event>
<event>
 6    0  0.8991567E+002  0.1051562E+03  0.7546771E-02  0.1269812E+00
         21   -1    0    0  506  501  0.00000000000E+00  0.00000000000E+00  0.62006075407E+03  0.62006075407E+03  0.00000000000E+00 0.  1.
         21   -1    0    0  504  502 -0.00000000000E+00 -0.00000000000E+00 -0.95592249770E+03  0.95592249770E+03  0.00000000000E+00 0.  1.
         21    1    1    2  503  502  0.11648314764E+03  0.16479013840E+02 -0.20307147112E+02  0.11938283715E+03  0.00000000000E+00 0. -1.
         21    1    1    2  504  505 -0.44121588489E+02 -0.69474729888E+01 -0.82742352829E+03  0.82862818991E+03  0.00000000000E+00 0.  1.
         21    1    1    2  505  501 -0.10754926166E+03 -0.46739519242E+02  0.37991380951E+01  0.11732800089E+03  0.00000000000E+00 0. -1.
         21    1    1    2  506  503  0.35187702502E+02  0.37207978391E+02  0.50806979369E+03  0.51064422382E+03  0.00000000000E+00 0.  1.
<scales pt_clust_3="14000.00000" pt_clust_4="44.66522" pt_clust_5="105.15616" pt_clust_6="50.85623"></scales>
<clustering>
<clus scale="   44.665">  2  4  1 -1</clus>
<clus scale="   50.856">  1  6  2 -1</clus>
<clus scale="  105.156">  1  5  2 -1</clus>
<clus scale="   50.856">  1  3  2 -1</clus>
</clustering>
</event>
<event>
 6    0  0.8991567E+002  0.8592952E+02  0.7546771E-02  0.1313019E+00
         21   -1    0    0  506  501  0.00000000000E+00  0.00000000000E+00  0.54988302083E+03  0.54988302083E+03  0.00000000000E+00 0.  1.
         21   -1    0    0  505  502 -0.00000000000E+00 -0.00000000000E+00 -0.18612597826E+03  0.18612597826E+03  0.00000000000E+00 0.  1.
         21    1    1    2  503  501 -0.93535614393E+02 -0.85000085774E+02  0.11638908611E+03  0.17181485706E+03  0.00000000000E+00 0.  1.
         21    1    1    2  504  502 -0.19388663598E+01 -0.33378631557E+02 -0.15132204108E+02  0.36699807200E+02  0.00000000000E+00 0.  1.
         21    1    1    2  505  503  0.64201931938E+02  0.43490123015E+02 -0.11647472020E+03  0.13992726435E+03  0.00000000000E+00 0.  1.
         21    1    1    2  506  504  0.31272548816E+02  0.74888594316E+02  0.37897488077E+03  0.38756707049E+03  0.00000000000E+00 0.  1.
<scales pt_clust_3="14000.00000" pt_clust_4="33.43490" pt_clust_5="64.85875" pt_clust_6="85.92952"></scales>
<clustering>
<clus scale="   33.435">  2  4  1 -1</clus>
<clus scale="   64.859">  2  5  1 -1</clus>
<clus scale="   85.930">  1  6  2 -1</clus>
<clus scale="   85.930">  1  3  2 -1</clus>
</clustering>
</event>
<event>
 6    0  0.8991567E+002  0.1025496E+03  0.7546771E-02  0.1275024E+00
         21   -1    0    0  504  501  0.00000000000E+00  0.00000000000E+00  0.22324069317E+03  0.22324069317E+03  0.00000000000E+00 0. -1.
         21   -1    0    0  506  502 -0.00000000000E+00 -0.00000000000E+00 -0.21529774022E+03  0.21529774022E+03  0.00000000000E+00 0. -1.
         21    1    1    2  503  502 -0.13375226814E+02  0.52907539826E+02  0.21322673251E+02  0.58589767514E+02  0.00000000000E+00 0. -1.
         21    1    1    2  504  503  0.75009732918E+02  0.71828405683E+02  0.89404839960E+02  0.13703651084E+03  0.00000000000E+00 0. -1.
         21    1    1    2  505  501 -0.46653625992E+02 -0.93145916581E+02  0.27723465378E+02  0.10780219444E+03  0.00000000000E+00 0. -1.
         21    1    1    2  506  505 -0.14980880112E+02 -0.31590028928E+02 -0.13050802564E+03  0.13510996060E+03  0.00000000000E+00 0. -1.
<scales pt_clust_3="48.74334" pt_clust_4="102.54965" pt_clust_5="14000.00000" pt_clust_6="34.96222"></scales>
<clustering>
<clus scale="   34.962">  2  6  1 -1</clus>
<clus scale="   48.743">  2  3  1 -1</clus>
<clus scale="  102.550">  1  4  2 -1</clus>
<clus scale="  102.550">  1  3  2 -1</clus>
</clustering>
</event>
<event>
 6    0  0.8991567E+002  0.1332683E+03  0.7546771E-02  0.1222685E+00
         21   -1    0    0  505  501  0.00000000000E+00  0.00000000000E+00  0.43485494673E+03  0.43485494673E+03  0.00000000000E+00 0. -1.
         21   -1    0    0  506  502 -0.00000000000E+00 -0.00000000000E+00 -0.21499333491E+03  0.21499333491E+03  0.00000000000E+00 0. -1.
         21    1    1    2  503  504 -0.12852173258E+03 -0.46379525958E+02  0.28276215099E+02  0.13952935359E+03  0.00000000000E+00 0. -1.
         21    1    1    2  504  502 -0.37006744517E+02  0.71681582262E+02 -0.11792422124E+03  0.14287711618E+03  0.00000000000E+00 0. -1.
         21    1    1    2  505  503  0.13448384245E+03 -0.12973649887E+02  0.30519198534E+03  0.33376094347E+03  0.00000000000E+00 0. -1.
         21    1    1    2  506  501  0.31044634640E+02 -0.12328406417E+02  0.43176326253E+01  0.33680868400E+02  0.00000000000E+00 0. -1.
<scales pt_clust_3="14000.00000" pt_clust_4="65.83478" pt_clust_5="133.26833" pt_clust_6="33.40298"></scales>
<clustering>
<clus scale="   33.403">  2  6  1 -1</clus>
<clus scale="   65.835">  2  4  1 -1</clus>
<clus scale="  133.268">  1  5  2 -1</clus>
<clus scale="  133.268">  1  3  2 -1</clus>
</clustering>
</event>
<event>
 6    0  0.8991567E+002  0.7547480E+02  0.7546771E-02  0.1342407E+00
         21   -1    0    0  505  501  0.00000000000E+00  0.00000000000E+00  0.21690503785E+04  0.21690503785E+04  0.00000000000E+00 0. -1.
         21   -1    0    0  504  502 -0.00000000000E+00 -0.00000000000E+00 -0.18817458722E+03  0.18817458722E+03  0.00000000000E+00 0.  1.
         21    1    1    2  503  501 -0.21257809989E+02 -0.60841010398E+02  0.45964812814E+03  0.46414429301E+03  0.00000000000E+00 0. -1.
         21    1    1    2  504  503 -0.53760024570E+02  0.63555449055E+02 -0.13252604128E+03  0.15650107656E+03  0.00000000000E+00 0.  1.
         21    1    1    2  505  506  0.96633894769E+02  0.55698532386E+02  0.16687841743E+04  0.16725074160E+04  0.00000000000E+00 0. -1.
         21    1    1    2  506  502 -0.21616060209E+02 -0.58412971043E+02 -0.15030469882E+02  0.64072180156E+02  0.00000000000E+00 0.  1.
<scales pt_clust_3="65.38979" pt_clust_4="75.47480" pt_clust_5="14000.00000" pt_clust_6="62.28426"></scales>
<clustering>
<clus scale="   62.284">  2  6  1 -1</clus>
<clus scale="   65.390">  1  3  2 -1</clus>
<clus scale="   75.475">  2  4  1 -1</clus>
<clus scale="   65.390">  1  3  2 -1</clus>
</clustering>
</event>
<event>
 6    0  0.8991567E+002  0.9783702E+02  0.7546771E-02  0.1284911E+00
         21   -1    0    0  506  501  0.00000000000E+00  0.00000000000E+00  0.39974796572E+03  0.39974796572E+03  0.00000000000E+00 0.  1.
         21   -1    0    0  505  502 -0.00000000000E+00 -0.00000000000E+00 -0.10422257680E+03  0.10422257680E+03  0.00000000000E+00 0. -1.
         21    1    1    2  503  502  0.88614257054E+01  0.75325344731E+02 -0.56510648947E+02  0.94582693283E+02  0.00000000000E+00 0. -1.
         21    1    1    2  504  503 -0.45006274792E+02 -0.31913381716E+02  0.31921216105E+02  0.63741609180E+02  0.00000000000E+00 0.  1.
         21    1    1    2  505  501  0.61693630742E+02  0.14086399859E+02  0.20387474965E+03  0.21347000791E+03  0.00000000000E+00 0.  1.
         21    1    1    2  506  504 -0.25548781655E+02 -0.57498362874E+02  0.11624007212E+03  0.13217623214E+03  0.00000000000E+00 0.  1.
<scales pt_clust_3="78.18264" pt_clust_4="55.07842" pt_clust_5="63.28136" pt_clust_6="55.07842"></scales>
<clustering>
<clus scale="   55.078">  4  6 -1 -1</clus>
<clus scale="   63.281">  1  5  2 -1</clus>
<clus scale="   78.183">  2  3  1 -1</clus>
<clus scale="   63.281">  1  3  2 -1</clus>
</clustering>
</event>
<event>
 6    0  0.8991567E+002  0.1022241E+03  0.7546771E-02  0.1275687E+00
         21   -1    0    0  503  501  0.00000000000E+00  0.00000000000E+00  0.27558234336E+03  0.27558234336E+03  0.00000000000E+00 0.  1.
         21   -1    0    0  504  502 -0.00000000000E+00 -0.00000000000E+00 -0.52704349384E+03  0.52704349384E+03  0.00000000000E+00 0. -1.
         21    1    1    2  503  506  0.23172788703E+02  0.34444325086E+02  0.12951019158E+03  0.13600102716E+03  0.00000000000E+00 0.  1.
         21    1    1    2  504  501  0.84343503099E+02 -0.59608252750E+02  0.11117246100E+03  0.15174414781E+03  0.00000000000E+00 0.  1.
         21    1    1    2  505  502 -0.34197933814E+02  0.27208744573E+02 -0.36877195711E+03  0.37135235398E+03  0.00000000000E+00 0. -1.
         21    1    1    2  506  505 -0.73318357988E+02 -0.20448169095E+01 -0.12337184595E+03  0.14352830824E+03  0.00000000000E+00 0.  1.
<scales pt_clust_3="41.51373" pt_clust_4="102.22413" pt_clust_5="43.73294" pt_clust_6="14000.00000"></scales>
<clustering>
<clus scale="   41.514">  1  3  2 -1</clus>
<clus scale="   43.733">  2  5  1 -1</clus>
<clus scale="  102.224">  1  4  2 -1</clus>
<clus scale="   41.514">  1  3  2 -1</clus>
</clustering>
</event>
<event>
 6    0  0.8991567E+002  0.9084061E+02  0.7546771E-02  0.1300829E+00
         21   -1    0    0  504  501  0.00000000000E+00  0.00000000000E+00  0.11868836079E+03  0.11868836079E+03  0.00000000000E+00 0. -1.
         21   -1    0    0  505  502 -0.00000000000E+00 -0.00000000000E+00 -0.10130986490E+04  0.10130986490E+04  0.00000000000E+00 0. -1.
         21    1    1    2  503  502 -0.23578851942E+02  0.29590538206E+02 -0.30688072186E+03  0.30920436552E+03  0.00000000000E+00 0. -1.
         21    1    1    2  504  503 -0.11169835904E+02 -0.66871299686E+02 -0.81647331504E+02  0.10612644674E+03  0.00000000000E+00 0.  1.
         21    1    1    2  505  506  0.74867137608E+02  0.64432616010E+02 -0.60134613515E+03  0.60940448354E+03  0.00000000000E+00 0. -1.
         21    1    1    2  506  501 -0.40118449761E+02 -0.27151854530E+02  0.95463900279E+02  0.10705171401E+03  0.00000000000E+00 0. -1.
<scales pt_clust_3="37.83599" pt_clust_4="90.84061" pt_clust_5="14000.00000" pt_clust_6="48.46805"></scales>
<clustering>
<clus scale="   37.836">  2  3  1 -1</clus>
<clus scale="   48.468">  1  6  2 -1</clus>
<clus scale="   90.841">  1  4  2 -1</clus>
<clus scale="   48.468">  1  3  2 -1</clus>
</clustering>
</event>
<event>
 6    0  0.8991567E+002  0.9442384E+02  0.7546771E-02  0.1292479E+00
         21   -1    0    0  505  501  0.00000000000E+00  0.00000000000E+00  0.13431379534E+03  0.13431379534E+03  0.00000000000E+00 0. -1.
         21   -1    0    0  504  502 -0.00000000000E+00 -0.00000000000E+00 -0.61848815872E+03  0.61848815872E+03  0.00000000000E+00 0. -1.
         21    1    1    2  503  501  0.91304732071E+02 -0.64303944858E+02  0.71725195743E+02  0.13272548786E+03  0.00000000000E+00 0. -1.
         21    1    1    2  504  506 -0.22178906029E+02 -0.26631400748E+02 -0.25539546916E+03  0.25773626258E+03  0.00000000000E+00 0. -1.
         21    1    1    2  505  502 -0.31809414677E+01  0.30490209057E+02  0.15192787544E+02  0.34213915741E+02  0.00000000000E+00 0. -1.
         21    1    1    2  506  503 -0.65944884574E+02  0.60445136549E+02 -0.31569687751E+03  0.32812628789E+03  0.00000000000E+00 0. -1.
<scales pt_clust_3="14000.00000" pt_clust_4="34.42976" pt_clust_5="30.65569" pt_clust_6="94.42384"></scales>
<clustering>
<clus scale="   30.656">  1  5  2 -1</clus>
<clus scale="   34.430">  2  4  1 -1</clus>
<clus scale="   94.424">  2  6  1 -1</clus>
<clus scale="   30.656">  1  3  2 -1</clus>
</clustering>
</event>
<event>
 6    0  0.8991567E+002  0.5876763E+02  0.7546771E-02  0.1403077E+00
         21   -1    0    0  505  501  0.00000000000E+00  0.00000000000E+00  0.16738990447E+04  0.16738990447E+04  0.00000000000E+00 0. -1.
         21   -1    0    0  504  502 -0.00000000000E+00 -0.00000000000E+00 -0.10537788018E+03  0.10537788018E+03  0.00000000000E+00 0.  1.
         21    1    1    2  503  502 -0.48857639126E+02  0.10776332541E+02  0.12985438388E+03  0.13915947419E+03  0.00000000000E+00 0. -1.
         21    1    1    2  504  506  0.11753934467E+02  0.57367855980E+02 -0.88234934276E+02  0.10589914779E+03  0.00000000000E+00 0.  1.
         21    1    1    2  505  503 -0.44838247859E+01  0.32505784199E+02  0.18359024774E+03  0.18649962401E+03  0.00000000000E+00 0. -1.
         21    1    1    2  506  501  0.41587529444E+02 -0.10064997272E+03  0.13433114672E+04  0.13477186789E+04  0.00000000000E+00 0. -1.
<scales pt_clust_3="51.13572" pt_clust_4="58.76763" pt_clust_5="32.81357" pt_clust_6="14000.00000"></scales>
<clustering>
<clus scale="   32.814">  1  5  2 -1</clus>
<clus scale="   51.136">  1  3  2 -1</clus>
<clus scale="   58.768">  2  4  1 -1</clus>
<clus scale="   32.814">  1  3  2 -1</clus>
</clustering>
</event>
<event>
 6    0  0.8991567E+002  0.9219018E+02  0.7546771E-02  0.1297633E+00
         21   -1    0    0  503  501  0.00000000000E+00  0.00000000000E+00  0.32580767077E+03  0.32580767077E+03  0.00000000000E+00 0.  1.
         21   -1    0    0  501  502 -0.00000000000E+00 -0.00000000000E+00 -0.67022192523E+03  0.67022192523E+03  0.00000000000E+00 0.  1.
         21    1    1    2  503  504  0.38970925240E+02  0.80470555310E+02  0.26450936180E+03  0.27921218771E+03  0.00000000000E+00 0.  1.
         21    1    1    2  504  506 -0.33127531826E+02 -0.11832883877E+03 -0.27354949985E+02  0.12588661859E+03  0.00000000000E+00 0.  1.
         21    1    1    2  505  502 -0.49777184271E+02  0.81076388850E+01 -0.23756885418E+03  0.24286305269E+03  0.00000000000E+00 0.  1.
         21    1    1    2  506  505  0.43933790858E+02  0.29750644580E+02 -0.34399981209E+03  0.34806773701E+03  0.00000000000E+00 0.  1.
<scales pt_clust_3="14000.00000" pt_clust_4="92.19018" pt_clust_5="50.43314" pt_clust_6="36.48162"></scales>
<clustering>
<clus scale="   50.433">  2  5  1 -1</clus>
<clus scale="   36.482">  2  6  1 -1</clus>
<clus scale="   92.190">  2  4  1 -1</clus>
<clus scale="   92.190">  1  3  2 -1</clus>
</clustering>
</event>
<event>
 6    0  0.8991567E+002  0.9266057E+02  0.7546771E-02  0.1296534E+00
         21   -1    0    0  504  501  0.00000000000E+00  0.00000000000E+00  0.10961920801E+04  0.10961920801E+04  0.00000000000E+00 0.  1.
         21   -1    0    0  506  502 -0.00000000000E+00 -0.00000000000E+00 -0.40700525828E+03  0.40700525828E+03  0.00000000000E+00 0. -1.
         21    1    1    2  503  502 -0.18444539613E+02  0.87925430040E+02 -0.35918644701E+03  0.37025124713E+03  0.00000000000E+00 0. -1.
         21    1    1    2  504  503 -0.58308342324E+02  0.49567340598E+02  0.38491849797E+03  0.39245258837E+03  0.00000000000E+00 0.  1.
         21    1    1    2  505  501  0.45185636645E+02 -0.11463807081E+03  0.68497794529E+03  0.69597299845E+03  0.00000000000E+00 0.  1.
         21    1    1    2  506  505  0.31567245291E+02 -0.22854699827E+02 -0.21523174408E+02  0.44520504445E+02  0.00000000000E+00 0.  1.
<scales pt_clust_3="66.78694" pt_clust_4="14000.00000" pt_clust_5="92.66057" pt_clust_6="38.97215"></scales>
<clustering>
<clus scale="   38.972">  2  6  1 -1</clus>
<clus scale="   66.787">  2  3  1 -1</clus>
<clus scale="   92.661">  2  5  1 -1</clus>
<clus scale="   92.661">  1  3  2 -1</clus>
</clustering>
</event>
<event>
 6    0  0.8991567E+002  0.7465984E+02  0.7546771E-02  0.1344928E+00
         21   -1    0    0  505  501  0.00000000000E+00  0.00000000000E+00  0.22077066976E+03  0.22077066976E+03  0.00000000000E+00 0. -1.
         21   -1    0    0  506  502 -0.00000000000E+00 -0.00000000000E+00 -0.19737327958E+03  0.19737327958E+03  0.00000000000E+00 0. -1.
         21    1    1    2  503  502  0.54950262173E+02  0.10672394856E+01 -0.70701024606E+02  0.89550573384E+02  0.00000000000E+00 0. -1.
         21    1    1    2  504  501 -0.40223137918E+02  0.31344086549E+02  0.13164297431E+03  0.14117444978E+03  0.00000000000E+00 0. -1.
         21    1    1    2  505  503 -0.50900365618E+02 -0.82974357308E+02 -0.67452498510E+02  0.11842901142E+03  0.00000000000E+00 0. -1.
         21    1    1    2  506  504  0.36173241363E+02  0.50563031273E+02  0.29907938986E+02  0.68989914746E+02  0.00000000000E+00 0. -1.
<scales pt_clust_3="50.66304" pt_clust_4="50.99365" pt_clust_5="74.65984" pt_clust_6="14000.00000"></scales>
<clustering>
<clus scale="   50.994">  1  4  2 -1</clus>
<clus scale="   50.663">  2  3  1 -1</clus>
<clus scale="   74.660">  2  5  1 -1</clus>
<clus scale="   50.994">  1  3  2 -1</clus>
</clustering>
</event>
<event>
 6    0  0.8991567E+002  0.1278856E+03  0.7546771E-02  0.1230627E+00
         21   -1    0    0  506  501  0.00000000000E+00  0.00000000000E+00  0.10933899160E+04  0.10933899160E+04  0.00000000000E+00 0. -1.
         21   -1    0    0  503  502 -0.00000000000E+00 -0.00000000000E+00 -0.16303285267E+03  0.16303285267E+03  0.00000000000E+00 0.  1.
         21    1    1    2  503  504  0.77463743581E+02  0.58979136999E+02 -0.13043802758E+03  0.16276746975E+03  0.00000000000E+00 0.  1.
         21    1    1    2  504  505 -0.45261298261E+02  0.10517636457E+02  0.47609612511E+03  0.47835836581E+03  0.00000000000E+00 0. -1.
         21    1    1    2  505  501 -0.72872822597E+02 -0.32200061668E+02  0.53541568858E+03  0.54131067958E+03  0.00000000000E+00 0. -1.
         21    1    1    2  506  502  0.40670377277E+02 -0.37296711789E+02  0.49283277224E+02  0.73986253535E+02  0.00000000000E+00 0.  1.
<scales pt_clust_3="119.21288" pt_clust_4="35.35403" pt_clust_5="35.35403" pt_clust_6="55.18264"></scales>
<clustering>
<clus scale="   35.354">  4  5 -1 -1</clus>
<clus scale="   55.183">  2  6  1 -1</clus>
<clus scale="  119.213">  2  3  1 -1</clus>
<clus scale="  127.886">  1  3  2 -1</clus>
</clustering>
</event>
<event>
 6    0  0.8991567E+002  0.1172782E+03  0.7546771E-02  0.1247656E+00
         21   -1    0    0  504  501  0.00000000000E+00  0.00000000000E+00  0.11685724812E+04  0.11685724812E+04  0.00000000000E+00 0. -1.
         21   -1    0    0  503  502 -0.00000000000E+00 -0.00000000000E+00 -0.20607155164E+04  0.20607155164E+04  0.00000000000E+00 0.  1.
         21    1    1    2  503  505  0.11168017455E+03 -0.18684731065E+02 -0.17111881285E+04  0.17149304335E+04  0.00000000000E+00 0.  1.
         21    1    1    2  504  506  0.30435616847E+02 -0.50055808580E+01  0.76442757147E+03  0.76504960273E+03  0.00000000000E+00 0. -1.
         21    1    1    2  505  501 -0.17270524149E+03 -0.34408828130E+02 -0.32200075432E+03  0.36700892861E+03  0.00000000000E+00 0.  1.
         21    1    1    2  506  502  0.30589450097E+02  0.58099140054E+02  0.37661827618E+03  0.38229903281E+03  0.00000000000E+00 0. -1.
<scales pt_clust_3="14000.00000" pt_clust_4="30.84449" pt_clust_5="117.27819" pt_clust_6="79.71398"></scales>
<clustering>
<clus scale="   30.844">  1  4  2 -1</clus>
<clus scale="   79.714">  1  6  2 -1</clus>
<clus scale="  117.278">  1  5  2 -1</clus>
<clus scale="   30.844">  1  3  2 -1</clus>
</clustering>
</event>
<event>
 6    0  0.8991567E+002  0.1540110E+03  0.7546771E-02  0.1195629E+00
         21   -1    0    0  505  501  0.00000000000E+00  0.00000000000E+00  0.73009422251E+03  0.73009422251E+03  0.00000000000E+00 0.  1.
         21   -1    0    0  506  502 -0.00000000000E+00 -0.00000000000E+00 -0.10438084492E+04  0.10438084492E+04  0.00000000000E+00 0.  1.
         21    1    1    2  503  501  0.30608546956E+02 -0.93637992647E+00  0.46675717990E+01  0.30976542425E+02  0.00000000000E+00 0. -1.
         21    1    1    2  504  503 -0.10735089675E+03  0.16481490865E+03  0.71744267413E+02  0.20936907377E+03  0.00000000000E+00 0.  1.
         21    1    1    2  505  502 -0.15750988188E+02 -0.43002726674E+02  0.56476153883E+03  0.56661532266E+03  0.00000000000E+00 0.  1.
         21    1    1    2  506  504  0.92493337982E+02 -0.12087580205E+03 -0.95488760475E+03  0.96694173289E+03  0.00000000000E+00 0.  1.
<scales pt_clust_3="30.62287" pt_clust_4="154.01097" pt_clust_5="44.57571" pt_clust_6="14000.00000"></scales>
<clustering>
<clus scale="   30.623">  1  3  2 -1</clus>
<clus scale="   44.576">  1  5  2 -1</clus>
<clus scale="  154.011">  1  4  2 -1</clus>
<clus scale="   30.623">  1  3  2 -1</clus>
</clustering>
</event>
<event>
 6    0  0.8991567E+002  0.5469046E+02  0.7546771E-02  0.1421568E+00
         21   -1    0    0  504  501  0.00000000000E+00  0.00000000000E+00  0.13632106528E+04  0.13632106528E+04  0.00000000000E+00 0.  1.
         21   -1    0    0  506  502 -0.00000000000E+00 -0.00000000000E+00 -0.35504392460E+03  0.35504392460E+03  0.00000000000E+00 0.  1.
         21    1    1    2  503  502 -0.23239833424E+02  0.40881323210E+02  0.16216649596E+02  0.49742860483E+02  0.00000000000E+00 0. -1.
         21    1    1    2  504  503  0.53985461742E+02  0.52288026071E+02  0.82139995243E+02  0.11133483987E+03  0.00000000000E+00 0.  1.
         21    1    1    2  505  501 -0.49996036612E+02 -0.24977680844E+01  0.12263363207E+04  0.12273575738E+04  0.00000000000E+00 0.  1.
         21    1    1    2  506  505  0.19250408293E+02 -0.90671581197E+02 -0.31652623735E+03  0.32981930323E+03  0.00000000000E+00 0.  1.
<scales pt_clust_3="47.02523" pt_clust_4="54.69046" pt_clust_5="50.09039" pt_clust_6="14000.00000"></scales>
<clustering>
<clus scale="   47.025">  2  3  1 -1</clus>
<clus scale="   50.090">  1  5  2 -1</clus>
<clus scale="   54.690">  1  4  2 -1</clus>
<clus scale="   50.090">  1  3  2 -1</clus>
</clustering>
</event>
<event>
 6    0  0.8991567E+002  0.9171485E+02  0.7546771E-02  0.1298751E+00
         21   -1    0    0  503  501  0.00000000000E+00  0.00000000000E+00  0.77946740424E+03  0.77946740424E+03  0.00000000000E+00 0.  1.
         21   -1    0    0  505  502 -0.00000000000E+00 -0.00000000000E+00 -0.55494755259E+03  0.55494755259E+03  0.00000000000E+00 0. -1.
         21    1    1    2  503  504  0.60755861036E+02  0.14701548835E+01  0.40611551291E+03  0.41063760889E+03  0.00000000000E+00 0. -1.
         21    1    1    2  504  506  0.39266679499E+02  0.45209258652E+02  0.92079247751E+02  0.10983777607E+03  0.00000000000E+00 0.  1.
         21    1    1    2  505  501 -0.10156469157E+03 -0.98918011879E+02  0.25013990346E+03  0.28752413977E+03  0.00000000000E+00 0.  1.
         21    1    1    2  506  502  0.15421510375E+01  0.52238598343E+02 -0.52381481247E+03  0.52641543209E+03  0.00000000000E+00 0. -1.
<scales pt_clust_3="61.11439" pt_clust_4="91.71485" pt_clust_5="14000.00000" pt_clust_6="52.26136"></scales>
<clustering>
<clus scale="   52.261">  2  6  1 -1</clus>
<clus scale="   61.114">  1  3  2 -1</clus>
<clus scale="   91.715">  2  4  1 -1</clus>
<clus scale="   61.114">  1  3  2 -1</clus>
</clustering>
</event>
<event>
 6    0  0.8991567E+002  0.1676091E+03  0.7546771E-02  0.1180364E+00
         21   -1    0    0  502  501  0.00000000000E+00  0.00000000000E+00  0.73185599156E+03  0.73185599156E+03  0.00000000000E+00 0.  1.
         21   -1    0    0  503  502 -0.00000000000E+00 -0.00000000000E+00 -0.48985904082E+03  0.48985904082E+03  0.00000000000E+00 0. -1.
         21    1    1    2  503  505 -0.21624182326E+02 -0.27454870446E+02 -0.28331476823E+03  0.28546213947E+03  0.00000000000E+00 0. -1.
         21    1    1    2  504  501  0.52277129701E+02  0.21862462016E+02  0.44187093518E+03  0.44548938134E+03  0.00000000000E+00 0.  1.
         21    1    1    2  505  506 -0.80747302608E+02 -0.11787334852E+03 -0.15922034905E+03  0.21392842897E+03  0.00000000000E+00 0. -1.
         21    1    1    2  506  504  0.50094355232E+02  0.12346575695E+03  0.24266113284E+03  0.27683508260E+03  0.00000000000E+00 0.  1.
<scales pt_clust_3="34.94818" pt_clust_4="56.39576" pt_clust_5="14000.00000" pt_clust_6="167.60908"></scales>
<clustering>
<clus scale="   34.948">  2  3  1 -1</clus>
<clus scale="   56.396">  1  4  2 -1</clus>
<clus scale="  167.609">  1  6  2 -1</clus>
<clus scale="   56.396">  1  3  2 -1</clus>
</clustering>
</event>
<event>
 6    0  0.8991567E+002  0.1127463E+03  0.7546771E-02  0.1255567E+00
         21   -1    0    0  503  501  0.00000000000E+00  0.00000000000E+00  0.80814241138E+03  0.80814241138E+03  0.00000000000E+00 0.  1.
         21   -1    0    0  504  502 -0.00000000000E+00 -0.00000000000E+00 -0.25321908146E+03  0.25321908146E+03  0.00000000000E+00 0.  1.
         21    1    1    2  503  506  0.11392969663E+03 -0.49777200033E+01  0.71409989789E+03  0.72314826808E+03  0.00000000000E+00 0.  1.
         21    1    1    2  504  501 -0.86240279323E+02  0.14492210456E+01 -0.72846333651E+02  0.11289851348E+03  0.00000000000E+00 0.  1.
         21    1    1    2  505  502  0.22261832337E+02 -0.82280597093E+02 -0.92561181571E+02  0.12583027526E+03  0.00000000000E+00 0.  1.
         21    1    1    2  506  505 -0.49951249647E+02  0.85809096051E+02  0.62309472610E+01  0.99484436020E+02  0.00000000000E+00 0.  1.
<scales pt_clust_3="112.74630" pt_clust_4="14000.00000" pt_clust_5="85.23899" pt_clust_6="72.99515"></scales>
<clustering>
<clus scale="   85.239">  2  5  1 -1</clus>
<clus scale="   72.995">  2  6  1 -1</clus>
<clus scale="  112.746">  1  3  2 -1</clus>
<clus scale="  112.746">  1  3  2 -1</clus>
</clustering>
</event>
<event>
 6    0  0.8991567E+002  0.1079520E+03  0.7546771E-02  0.1264410E+00
         21   -1    0    0  505  501  0.00000000000E+00  0.00000000000E+00  0.99566714981E+02  0.99566714981E+02  0.00000000000E+00 0. -1.
         21   -1    0    0  504  502 -0.00000000000E+00 -0.00000000000E+00 -0.52303426474E+03  0.52303426474E+03  0.00000000000E+00 0. -1.
         21    1    1    2  503  502 -0.90648029454E+02 -0.17875950929E+02 -0.97135501270E+02  0.13405939159E+03  0.00000000000E+00 0. -1.
         21    1    1    2  504  506  0.36787702505E+02 -0.39258050423E+02 -0.16167469100E+03  0.17039141788E+03  0.00000000000E+00 0. -1.
         21    1    1    2  505  503 -0.43916368419E+02 -0.34734286794E+02  0.43223402591E+02  0.70734578714E+02  0.00000000000E+00 0. -1.
         21    1    1    2  506  501  0.97776695369E+02  0.91868288146E+02 -0.20788076009E+03  0.24741559154E+03  0.00000000000E+00 0. -1.
<scales pt_clust_3="14000.00000" pt_clust_4="53.80083" pt_clust_5="55.85694" pt_clust_6="107.95203"></scales>
<clustering>
<clus scale="   53.801">  2  4  1 -1</clus>
<clus scale="   55.857">  1  5  2 -1</clus>
<clus scale="  107.952">  1  6  2 -1</clus>
<clus scale="   55.857">  1  3  2 -1</clus>
</clustering>
</event>
<event>
 6    0  0.8991567E+002  0.8342490E+02  0.7546771E-02  0.1319604E+00
         21   -1    0    0  505  501  0.00000000000E+00  0.00000000000E+00  0.15171154998E+04  0.15171154998E+04  0.00000000000E+00 0.  1.
         21   -1    0    0  504  502 -0.00000000000E+00 -0.00000000000E+00 -0.88494764899E+02  0.88494764899E+02  0.00000000000E+00 0.  1.
         21    1    1    2  503  501 -0.64724121916E+02  0.92693662319E+02  0.13354532018E+04  0.13402300479E+04  0.00000000000E+00 0.  1.
         21    1    1    2  504  503 -0.39254968412E+02 -0.17285420780E+02  0.80070087812E+01  0.43633135415E+02  0.00000000000E+00 0.  1.
         21    1    1    2  505  506  0.28023212919E+02 -0.19350059605E+02  0.11720659535E+03  0.12205372285E+03  0.00000000000E+00 0.  1.
         21    1    1    2  506  502  0.75955877409E+02 -0.56058181934E+02 -0.32046071029E+02  0.99693358571E+02  0.00000000000E+00 0.  1.
<scales pt_clust_3="83.42490" pt_clust_4="42.56577" pt_clust_5="34.05474" pt_clust_6="14000.00000"></scales>
<clustering>
<clus scale="   34.055">  1  5  2 -1</clus>
<clus scale="   42.566">  2  4  1 -1</clus>
<clus scale="   83.425">  1  3  2 -1</clus>
<clus scale="   34.055">  1  3  2 -1</clus>
</clustering>
</event>
<event>
 6    0  0.8991567E+002  0.1489905E+03  0.7546771E-02  0.1201719E+00
         21   -1    0    0  506  501  0.00000000000E+00  0.00000000000E+00  0.11757613077E+03  0.11757613077E+03  0.00000000000E+00 0. -1.
         21   -1    0    0  503  502 -0.00000000000E+00 -0.00000000000E+00 -0.56201542623E+03  0.56201542623E+03  0.00000000000E+00 0. -1.
         21    1    1    2  503  501 -0.14363698612E+03  0.41643367247E+02  0.17087242178E+02  0.15052484068E+03  0.00000000000E+00 0. -1.
         21    1    1    2  504  502  0.31244627205E+02 -0.29275213373E+02 -0.74611772633E+02  0.86024307395E+02  0.00000000000E+00 0.  1.
         21    1    1    2  505  504  0.86290777550E+02 -0.41511319833E+02 -0.39205825086E+03  0.40358265576E+03  0.00000000000E+00 0. -1.
         21    1    1    2  506  505  0.26101581368E+02  0.29143165959E+02  0.51434858615E+01  0.39459753152E+02  0.00000000000E+00 0. -1.
<scales pt_clust_3="138.16444" pt_clust_4="37.28346" pt_clust_5="37.28346" pt_clust_6="39.12310"></scales>
<clustering>
<clus scale="   37.283">  4  5 -1 -1</clus>
<clus scale="   39.123">  1  6  2 -1</clus>
<clus scale="  138.164">  1  3  2 -1</clus>
<clus scale="   39.123">  1  3  2 -1</clus>
</clustering>
</event>
<event>
 6    0  0.8991567E+002  0.5975274E+02  0.7546771E-02  0.1398872E+00
         21   -1    0    0  503  501  0.00000000000E+00  0.00000000000E+00  0.69395472492E+03  0.69395472492E+03  0.00000000000E+00 0.  1.
         21   -1    0    0  506  502 -0.00000000000E+00 -0.00000000000E+00 -0.13225223690E+03  0.13225223690E+03  0.00000000000E+00 0. -1.
         21    1    1    2  503  504  0.63526237877E+02  0.12837200626E+02  0.23164879946E+03  0.24054426393E+03  0.00000000000E+00 0.  1.
         21    1    1    2  504  502 -0.65045253934E+02 -0.79938634646E+02  0.14393061541E+03  0.17702285847E+03  0.00000000000E+00 0.  1.
         21    1    1    2  505  501 -0.26447353993E+02  0.16536617940E+02  0.28898256853E+03  0.29066105205E+03  0.00000000000E+00 0.  1.
         21    1    1    2  506  505  0.27966370050E+02  0.50564816080E+02 -0.10285949538E+03  0.11797878736E+03  0.00000000000E+00 0. -1.
<scales pt_clust_3="53.07936" pt_clust_4="59.75274" pt_clust_5="31.19170" pt_clust_6="14000.00000"></scales>
<clustering>
<clus scale="   31.192">  1  5  2 -1</clus>
<clus scale="   53.079">  1  3  2 -1</clus>
<clus scale="   59.753">  1  4  2 -1</clus>
<clus scale="   31.192">  1  3  2 -1</clus>
</clustering>
</event>
<event>
 6    0  0.8991567E+002  0.1901958E+03  0.7546771E-02  0.1158285E+00
         21   -1    0    0  506  501  0.00000000000E+00  0.00000000000E+00  0.96044731640E+03  0.96044731640E+03  0.00000000000E+00 0.  1.
         21   -1    0    0  501  502 -0.00000000000E+00 -0.00000000000E+00 -0.14653571590E+03  0.14653571590E+03  0.00000000000E+00 0.  1.
         21    1    1    2  503  502 -0.32617337348E+01 -0.34806851894E+02 -0.48383930992E+02  0.59692215773E+02  0.00000000000E+00 0.  1.
         21    1    1    2  504  503 -0.18811427555E+03  0.10297715649E+03  0.11364773735E+03  0.24270781535E+03  0.00000000000E+00 0.  1.
         21    1    1    2  505  504  0.10615077916E+03 -0.13104642036E+03  0.30552486940E+03  0.34897936619E+03  0.00000000000E+00 0.  1.
         21    1    1    2  506  505  0.85225230128E+02  0.62876115765E+02  0.44312292474E+03  0.45560363499E+03  0.00000000000E+00 0.  1.
<scales pt_clust_3="34.95935" pt_clust_4="190.19583" pt_clust_5="14000.00000" pt_clust_6="104.35278"></scales>
<clustering>
<clus scale="   34.959">  2  3  1 -1</clus>
<clus scale="  104.353">  1  6  2 -1</clus>
<clus scale="  190.196">  2  4  1 -1</clus>
<clus scale="  104.353">  1  3  2 -1</clus>
</clustering>
</event>
<event>
 6    0  0.8991567E+002  0.9332659E+02  0.7546771E-02  0.1294990E+00
         21   -1    0    0  505  501  0.00000000000E+00  0.00000000000E+00  0.14756815928E+04  0.14756815928E+04  0.00000000000E+00 0.  1.
         21   -1    0    0  503  502 -0.00000000000E+00 -0.00000000000E+00 -0.15022844352E+03  0.15022844352E+03  0.00000000000E+00 0.  1.
         21    1    1    2  503  506  0.55177917442E+02 -0.52650758623E+02 -0.82590548638E+02  0.11241843123E+03  0.00000000000E+00 0.  1.
         21    1    1    2  504  502  0.10716964987E+03  0.83601350860E+01  0.20136364434E+03  0.22825981463E+03  0.00000000000E+00 0.  1.
         21    1    1    2  505  504 -0.91433556064E+02  0.56100972969E+01  0.12007476525E+04  0.12042368926E+04  0.00000000000E+00 0.  1.
         21    1    1    2  506  501 -0.70914011249E+02  0.38680526240E+02  0.59324010516E+01  0.80994897888E+02  0.00000000000E+00 0.  1.
<scales pt_clust_3="76.26733" pt_clust_4="14000.00000" pt_clust_5="93.32659" pt_clust_6="31.65873"></scales>
<clustering>
<clus scale="   76.267">  2  3  1 -1</clus>
<clus scale="   31.659">  2  6  1 -1</clus>
<clus scale="   93.327">  1  5  2 -1</clus>
<clus scale="   93.327">  1  3  2 -1</clus>
</clustering>
</event>
<event>
 6    0  0.8991567E+002  0.8667550E+02  0.7546771E-02  0.1311108E+00
         21   -1    0    0  504  501  0.00000000000E+00  0.00000000000E+00  0.19328673861E+03  0.19328673861E+03  0.00000000000E+00 0. -1.
         21   -1    0    0  505  502 -0.00000000000E+00 -0.00000000000E+00 -0.23662503473E+03  0.23662503473E+03  0.00000000000E+00 0. -1.
         21    1    1    2  503  502 -0.49062199049E+02  0.14425006993E+02 -0.12068581973E+03  0.13107344234E+03  0.00000000000E+00 0. -1.
         21    1    1    2  504  503  0.45986136150E+02  0.81009918841E+02 -0.51571562706E+02  0.10647515085E+03  0.00000000000E+00 0. -1.
         21    1    1    2  505  506 -0.23588648087E+02 -0.75803159648E+02  0.24901363528E+02  0.83202291054E+02  0.00000000000E+00 0. -1.
         21    1    1    2  506  501  0.26664710986E+02 -0.19631766186E+02  0.10401772279E+03  0.10916088910E+03  0.00000000000E+00 0. -1.
<scales pt_clust_3="49.27920" pt_clust_4="86.67550" pt_clust_5="14000.00000" pt_clust_6="33.11213"></scales>
<clustering>
<clus scale="   33.112">  1  6  2 -1</clus>
<clus scale="   49.279">  2  3  1 -1</clus>
<clus scale="   86.675">  2  4  1 -1</clus>
<clus scale="   33.112">  1  3  2 -1</clus>
</clustering>
</event>
<event>
 6    0  0.8991567E+002  0.8967214E+02  0.7546771E-02  0.1303648E+00
         21   -1    0    0  504  501  0.00000000000E+00  0.00000000000E+00  0.28872116656E+03  0.28872116656E+03  0.00000000000E+00 0.  1.
         21   -1    0    0  505  502 -0.00000000000E+00 -0.00000000000E+00 -0.19210329470E+04  0.19210329470E+04  0.00000000000E+00 0.  1.
         21    1    1    2  503  501 -0.53242001516E+02  0.20782450396E+02  0.18721006222E+03  0.19574020631E+03  0.00000000000E+00 0.  1.
         21    1    1    2  504  502 -0.11821965399E+02 -0.41674153748E+02  0.69794101619E+02  0.82144449461E+02  0.00000000000E+00 0.  1.
         21    1    1    2  505  506  0.76932082815E+02 -0.50344037302E+02 -0.18446825495E+04  0.18469723267E+04  0.00000000000E+00 0.  1.
         21    1    1    2  506  503 -0.11868115900E+02  0.71235740654E+02 -0.44633394785E+02  0.84897130997E+02  0.00000000000E+00 0. -1.
<scales pt_clust_3="66.03454" pt_clust_4="43.31852" pt_clust_5="14000.00000" pt_clust_6="89.67214"></scales>
<clustering>
<clus scale="   43.319">  1  4  2 -1</clus>
<clus scale="   66.035">  1  3  2 -1</clus>
<clus scale="   89.672">  1  6  2 -1</clus>
<clus scale="   43.319">  1  3  2 -1</clus>
</clustering>
</event>
<event>
 6    0  0.8991567E+002  0.9971718E+02  0.7546771E-02  0.1280892E+00
         21   -1    0    0  504  501  0.00000000000E+00  0.00000000000E+00  0.64157907799E+02  0.64157907799E+02  0.00000000000E+00 0.  1.
         21   -1    0    0  505  502 -0.00000000000E+00 -0.00000000000E+00 -0.24487753881E+04  0.24487753881E+04  0.00000000000E+00 0. -1.
         21    1    1    2  503  502 -0.99754568081E+02  0.26860936404E+02 -0.21684812367E+04  0.21709406620E+04  0.00000000000E+00 0. -1.
         21    1    1    2  504  506 -0.27581919065E+02 -0.28644931277E+02  0.31642574270E+02  0.50818764778E+02  0.00000000000E+00 0.  1.
         21    1    1    2  505  501  0.82159190968E+02  0.47223890491E+01 -0.22681493480E+03  0.24128292163E+03  0.00000000000E+00 0.  1.
         21    1    1    2  506  503  0.45177296178E+02 -0.29383941756E+01 -0.20963882997E+02  0.49890947481E+02  0.00000000000E+00 0. -1.
<scales pt_clust_3="14000.00000" pt_clust_4="39.76549" pt_clust_5="99.71718" pt_clust_6="34.82753"></scales>
<clustering>
<clus scale="   39.765">  1  4  2 -1</clus>
<clus scale="   34.828">  1  6  2 -1</clus>
<clus scale="   99.717">  1  5  2 -1</clus>
<clus scale="   39.765">  1  3  2 -1</clus>
</clustering>
</event>
<event>
 6    0  0.8991567E+002  0.1010798E+03  0.7546771E-02  0.1278041E+00
         21   -1    0    0  504  501  0.00000000000E+00  0.00000000000E+00  0.44767791371E+02  0.44767791371E+02  0.00000000000E+00 0.  1.
         21   -1    0    0  505  502 -0.00000000000E+00 -0.00000000000E+00 -0.71142118974E+03  0.71142118974E+03  0.00000000000E+00 0.  1.
         21    1    1    2  503  502  0.51940079543E+02 -0.78300844634E+02 -0.13670495920E+03  0.16588260911E+03  0.00000000000E+00 0.  1.
         21    1    1    2  504  503  0.78344217911E+02  0.13103748019E+02 -0.82949929324E+02  0.11484866332E+03  0.00000000000E+00 0.  1.
         21    1    1    2  505  506 -0.33052163784E+02  0.69835938805E+01 -0.21067974448E+03  0.21337097002E+03  0.00000000000E+00 0.  1.
         21    1    1    2  506  501 -0.97232133670E+02  0.58213502734E+02 -0.23631876537E+03  0.26208673866E+03  0.00000000000E+00 0.  1.
<scales pt_clust_3="101.07983" pt_clust_4="73.24555" pt_clust_5="33.78189" pt_clust_6="14000.00000"></scales>
<clustering>
<clus scale="   33.782">  2  5  1 -1</clus>
<clus scale="   73.246">  1  4  2 -1</clus>
<clus scale="  101.080">  2  3  1 -1</clus>
<clus scale="   73.246">  1  3  2 -1</clus>
</clustering>
</event>
<event>
 6    0  0.8991567E+002  0.7793590E+02  0.7546771E-02  0.1335013E+00
         21   -1    0    0  503  501  0.00000000000E+00  0.00000000000E+00  0.13185060128E+04  0.13185060128E+04  0.00000000000E+00 0. -1.
         21   -1    0    0  505  502 -0.00000000000E+00 -0.00000000000E+00 -0.12609054146E+03  0.12609054146E+03  0.00000000000E+00 0. -1.
         21    1    1    2  503  502  0.80025146648E+02 -0.51853626428E+02  0.97830934607E+02  0.13661520573E+03  0.00000000000E+00 0. -1.
         21    1    1    2  504  506  0.42441490168E+01  0.57856063948E+02  0.29560389803E+03  0.30124242973E+03  0.00000000000E+00 0. -1.
         21    1    1    2  505  504 -0.71965713828E+02  0.24880465374E+02 -0.89572474524E+02  0.11756415149E+03  0.00000000000E+00 0. -1.
         21    1    1    2  506  501 -0.12303581837E+02 -0.30882902895E+02  0.88855311325E+03  0.88917476734E+03  0.00000000000E+00 0. -1.
<scales pt_clust_3="77.93590" pt_clust_4="36.65852" pt_clust_5="14000.00000" pt_clust_6="33.24352"></scales>
<clustering>
<clus scale="   33.244">  1  6  2 -1</clus>
<clus scale="   36.659">  1  4  2 -1</clus>
<clus scale="   77.936">  1  3  2 -1</clus>
<clus scale="   33.244">  1  3  2 -1</clus>
</clustering>
</event>
<event>
 6    0  0.8991567E+002  0.1035816E+03  0.7546771E-02  0.1272940E+00
         21   -1    0    0  504  501  0.00000000000E+00  0.00000000000E+00  0.16132145385E+04  0.16132145385E+04  0.00000000000E+00 0.  1.
         21   -1    0    0  506  502 -0.00000000000E+00 -0.00000000000E+00 -0.39875645852E+02  0.39875645852E+02  0.00000000000E+00 0. -1.
         21    1    1    2  503  501  0.81666940342E+02  0.87703264739E+01  0.59052068498E+03  0.59620557458E+03  0.00000000000E+00 0.  1.
         21    1    1    2  504  505 -0.10568227505E+02 -0.11536359012E+03  0.46473136787E+03  0.47895270084E+03  0.00000000000E+00 0. -1.
         21    1    1    2  505  502 -0.48628040993E+02  0.13849375242E+02 -0.57439171470E+00  0.50565022409E+02  0.00000000000E+00 0. -1.
         21    1    1    2  506  503 -0.22470671845E+02  0.92743888403E+02  0.51866123153E+03  0.52736688654E+03  0.00000000000E+00 0.  1.
<scales pt_clust_3="72.92108" pt_clust_4="103.58156" pt_clust_5="50.56176" pt_clust_6="14000.00000"></scales>
<clustering>
<clus scale="   50.562">  2  5  1 -1</clus>
<clus scale="   72.921">  1  3  2 -1</clus>
<clus scale="  103.582">  2  4  1 -1</clus>
<clus scale="   72.921">  1  3  2 -1</clus>
</clustering>
</event>
<event>
 6    0  0.8991567E+002  0.8578115E+02  0.7546771E-02  0.1313402E+00
         21   -1    0    0  503  501  0.00000000000E+00  0.00000000000E+00  0.27726123969E+03  0.27726123969E+03  0.00000000000E+00 0.  1.
         21   -1    0    0  506  502 -0.00000000000E+00 -0.00000000000E+00 -0.13335271480E+03  0.13335271480E+03  0.00000000000E+00 0.  1.
         21    1    1    2  503  502 -0.27889554510E+02 -0.58220795182E+02 -0.40684076925E+02  0.76306502721E+02  0.00000000000E+00 0.  1.
         21    1    1    2  504  505  0.12523398300E+02 -0.89117406043E+02  0.26554037250E+02  0.93828910572E+02  0.00000000000E+00 0.  1.
         21    1    1    2  505  501  0.18613330808E+02  0.49885262197E+02  0.12770811361E+03  0.13836313725E+03  0.00000000000E+00 0.  1.
         21    1    1    2  506  504 -0.32471745982E+01  0.97452939027E+02  0.30330450953E+02  0.10211540395E+03  0.00000000000E+00 0.  1.
<scales pt_clust_3="58.00997" pt_clust_4="14000.00000" pt_clust_5="53.24468" pt_clust_6="85.78115"></scales>
<clustering>
<clus scale="   53.245">  1  5  2 -1</clus>
<clus scale="   58.010">  2  3  1 -1</clus>
<clus scale="   85.781">  2  6  1 -1</clus>
<clus scale="   53.245">  1  3  2 -1</clus>
</clustering>
</event>
<event>
 6    0  0.8991567E+002  0.3002572E+03  0.7546771E-02  0.1085112E+00
         21   -1    0    0  504  501  0.00000000000E+00  0.00000000000E+00  0.10230629130E+03  0.10230629130E+03  0.00000000000E+00 0. -1.
         21   -1    0    0  505  502 -0.00000000000E+00 -0.00000000000E+00 -0.14569945007E+04  0.14569945007E+04  0.00000000000E+00 0. -1.
         21    1    1    2  503  501  0.41695683810E+02  0.33138154792E+03 -0.41048283940E+03  0.52919601453E+03  0.00000000000E+00 0. -1.
         21    1    1    2  504  506 -0.74395365306E+02 -0.25132210862E+03 -0.52982274186E+03  0.59110879748E+03  0.00000000000E+00 0. -1.
         21    1    1    2  505  503 -0.37524863930E+02 -0.68943918913E+01 -0.17332797321E+03  0.17747741927E+03  0.00000000000E+00 0. -1.
         21    1    1    2  506  502  0.70224545426E+02 -0.73165047414E+02 -0.24105465489E+03  0.26151856070E+03  0.00000000000E+00 0. -1.
<scales pt_clust_3="14000.00000" pt_clust_4="300.25723" pt_clust_5="38.15296" pt_clust_6="97.49364"></scales>
<clustering>
<clus scale="   38.153">  2  5  1 -1</clus>
<clus scale="   97.494">  2  6  1 -1</clus>
<clus scale="  300.257">  2  4  1 -1</clus>
<clus scale="  300.257">  1  3  2 -1</clus>
</clustering>
</event>
<event>
 6    0  0.8991567E+002  0.7912435E+02  0.7546771E-02  0.1331555E+00
         21   -1    0    0  505  501  0.00000000000E+00  0.00000000000E+00  0.20446485883E+04  0.20446485883E+04  0.00000000000E+00 0.  1.
         21   -1    0    0  504  502 -0.00000000000E+00 -0.00000000000E+00 -0.92532405719E+02  0.92532405719E+02  0.00000000000E+00 0. -1.
         21    1    1    2  503  501 -0.16366522375E+02 -0.35865620656E+02  0.17873826523E+03  0.18303434994E+03  0.00000000000E+00 0. -1.
         21    1    1    2  504  503 -0.60542276590E+02  0.67540208550E+01 -0.51437739478E+02  0.79729700206E+02  0.00000000000E+00 0. -1.
         21    1    1    2  505  506 -0.31728651056E+02 -0.26302567165E+02  0.16979154489E+04  0.16984155569E+04  0.00000000000E+00 0.  1.
         21    1    1    2  506  502  0.10863745002E+03  0.55414166965E+02  0.12690020799E+03  0.17600138703E+03  0.00000000000E+00 0. -1.
<scales pt_clust_3="39.42342" pt_clust_4="61.01178" pt_clust_5="79.12435" pt_clust_6="14000.00000"></scales>
<clustering>
<clus scale="   39.423">  1  3  2 -1</clus>
<clus scale="   61.012">  2  4  1 -1</clus>
<clus scale="   79.124">  1  5  2 -1</clus>
<clus scale="   39.423">  1  3  2 -1</clus>
</clustering>
</event>
<event>
 6    0  0.8991567E+002  0.1077106E+03  0.7546771E-02  0.1264869E+00
         21   -1    0    0  503  501  0.00000000000E+00  0.00000000000E+00  0.12956664988E+03  0.12956664988E+03  0.00000000000E+00 0.  1.
         21   -1    0    0  501  502 -0.00000000000E+00 -0.00000000000E+00 -0.33648472868E+03  0.33648472868E+03  0.00000000000E+00 0. -1.
         21    1    1    2  503  505  0.15098938392E+02  0.42059866451E+02  0.57357521413E+02  0.72711041589E+02  0.00000000000E+00 0.  1.
         21    1    1    2  504  502 -0.72400767893E+02 -0.40915076321E+01 -0.12779656851E+03  0.14693731503E+03  0.00000000000E+00 0. -1.
         21    1    1    2  505  506  0.44876900741E+02  0.43209775763E+02  0.23494962100E+02  0.66581034729E+02  0.00000000000E+00 0.  1.
         21    1    1    2  506  504  0.12424928760E+02 -0.81178134582E+02 -0.15997399380E+03  0.17982198720E+03  0.00000000000E+00 0. -1.
<scales pt_clust_3="37.84978" pt_clust_4="72.51629" pt_clust_5="37.84978" pt_clust_6="98.00219"></scales>
<clustering>
<clus scale="   37.850">  3  5 -1 -1</clus>
<clus scale="   72.516">  2  4  1 -1</clus>
<clus scale="   98.002">  2  6  1 -1</clus>
<clus scale="  107.711">  1  3  2 -1</clus>
</clustering>
</event>
<event>
 6    0  0.8991567E+002  0.2264514E+03  0.7546771E-02  0.1129163E+00
         21   -1    0    0  506  501  0.00000000000E+00  0.00000000000E+00  0.10055136681E+03  0.10055136681E+03  0.00000000000E+00 0.  1.
         21   -1    0    0  503  502 -0.00000000000E+00 -0.00000000000E+00 -0.11638331684E+04  0.11638331684E+04  0.00000000000E+00 0.  1.
         21    1    1    2  503  505 -0.31006856563E+02 -0.26227943206E+02 -0.66761394094E+03  0.66884804276E+03  0.00000000000E+00 0.  1.
         21    1    1    2  504  502  0.78201841026E+02 -0.11723606816E+03 -0.14728796774E+03  0.20384692556E+03  0.00000000000E+00 0.  1.
         21    1    1    2  505  501 -0.81911642664E+02  0.19630882512E+03 -0.25024402121E+03  0.32843377137E+03  0.00000000000E+00 0.  1.
         21    1    1    2  506  504  0.34716658201E+02 -0.52844813758E+02  0.18641282664E+01  0.63255795560E+02  0.00000000000E+00 0.  1.
<scales pt_clust_3="40.61195" pt_clust_4="61.48080" pt_clust_5="206.79106" pt_clust_6="61.48080"></scales>
<clustering>
<clus scale="   40.612">  2  3  1 -1</clus>
<clus scale="   61.481">  4  6 -1 -1</clus>
<clus scale="  206.791">  2  5  1 -1</clus>
<clus scale="  226.451">  1  3  2 -1</clus>
</clustering>
</event>
<event>
 6    0  0.8991567E+002  0.1195631E+03  0.7546771E-02  0.1243820E+00
         21   -1    0    0  506  501  0.00000000000E+00  0.00000000000E+00  0.15121464596E+03  0.15121464596E+03  0.00000000000E+00 0.  1.
         21   -1    0    0  501  502 -0.00000000000E+00 -0.00000000000E+00 -0.38761250714E+03  0.38761250714E+03  0.00000000000E+00 0.  1.
         21    1    1    2  503  502 -0.39203095318E+02 -0.20407379079E+02 -0.15085970357E+03  0.15720048971E+03  0.00000000000E+00 0. -1.
         21    1    1    2  504  503  0.31994766690E+02 -0.10996883893E+03 -0.17227366887E+03  0.20686959085E+03  0.00000000000E+00 0.  1.
         21    1    1    2  505  504 -0.53410904158E+01  0.90095154938E+02  0.95784683390E+02  0.13160687582E+03  0.00000000000E+00 0.  1.
         21    1    1    2  506  505  0.12549419044E+02  0.40281063074E+02 -0.90491721314E+01  0.43150196721E+02  0.00000000000E+00 0. -1.
<scales pt_clust_3="43.49984" pt_clust_4="119.56305" pt_clust_5="14000.00000" pt_clust_6="42.19066"></scales>
<clustering>
<clus scale="   42.191">  1  6  2 -1</clus>
<clus scale="   43.500">  2  3  1 -1</clus>
<clus scale="  119.563">  2  4  1 -1</clus>
<clus scale="   42.191">  1  3  2 -1</clus>
</clustering>
</event>
<event>
 6    0  0.8991567E+002  0.7828281E+02  0.7546771E-02  0.1333996E+00
         21   -1    0    0  506  501  0.00000000000E+00  0.00000000000E+00  0.30648457794E+02  0.30648457794E+02  0.00000000000E+00 0. -1.
         21   -1    0    0  505  502 -0.00000000000E+00 -0.00000000000E+00 -0.96106665630E+03  0.96106665630E+03  0.00000000000E+00 0. -1.
         21    1    1    2  503  501  0.91762217730E+02  0.31549616682E+02 -0.24006478884E+03  0.25893394091E+03  0.00000000000E+00 0. -1.
         21    1    1    2  504  502 -0.69506245316E+02  0.53043839118E+02 -0.22268623931E+03  0.23923613478E+03  0.00000000000E+00 0. -1.
         21    1    1    2  505  503  0.16744439472E+02 -0.55888551977E+02 -0.42505613841E+03  0.42904152164E+03  0.00000000000E+00 0. -1.
         21    1    1    2  506  504 -0.39000411886E+02 -0.28704903823E+02 -0.42611031947E+02  0.64503516759E+02  0.00000000000E+00 0. -1.
<scales pt_clust_3="78.28281" pt_clust_4="14000.00000" pt_clust_5="60.16902" pt_clust_6="48.42524"></scales>
<clustering>
<clus scale="   48.425">  1  6  2 -1</clus>
<clus scale="   60.169">  2  5  1 -1</clus>
<clus scale="   78.283">  1  3  2 -1</clus>
<clus scale="   48.425">  1  3  2 -1</clus>
</clustering>
</event>
<event>
 6    0  0.8991567E+002  0.7593102E+02  0.7546771E-02  0.1341012E+00
         21   -1    0    0  505  501  0.00000000000E+00  0.00000000000E+00  0.41104415725E+03  0.41104415725E+03  0.00000000000E+00 0. -1.
         21   -1    0    0  503  502 -0.00000000000E+00 -0.00000000000E+00 -0.48147162994E+03  0.48147162994E+03  0.00000000000E+00 0.  1.
         21    1    1    2  503  504  0.44123041082E+02  0.27943027236E+02 -0.79938909635E+02  0.95487615946E+02  0.00000000000E+00 0.  1.
         21    1    1    2  504  501 -0.11871858621E+03 -0.10372675054E+02 -0.16945489148E+03  0.20716335425E+03  0.00000000000E+00 0.  1.
         21    1    1    2  505  506  0.73176072891E+02  0.16923450174E+02  0.37925602405E+03  0.38662161422E+03  0.00000000000E+00 0. -1.
         21    1    1    2  506  502  0.14194722389E+01 -0.34493802355E+02 -0.20028969562E+03  0.20324320277E+03  0.00000000000E+00 0.  1.
<scales pt_clust_3="47.74541" pt_clust_4="14000.00000" pt_clust_5="75.93102" pt_clust_6="34.52300"></scales>
<clustering>
<clus scale="   34.523">  2  6  1 -1</clus>
<clus scale="   47.745">  2  3  1 -1</clus>
<clus scale="   75.931">  1  5  2 -1</clus>
<clus scale="   75.931">  1  3  2 -1</clus>
</clustering>
</event>
<event>
 6    0  0.8991567E+002  0.8861424E+02  0.7546771E-02  0.1306243E+00
         21   -1    0    0  505  501  0.00000000000E+00  0.00000000000E+00  0.12629277665E+04  0.12629277665E+04  0.00000000000E+00 0.  1.
         21   -1    0    0  504  502 -0.00000000000E+00 -0.00000000000E+00 -0.52089146657E+02  0.52089146657E+02  0.00000000000E+00 0. -1.
         21    1    1    2  503  506 -0.49620306886E+02  0.68887941742E+02  0.24248021398E+03  0.25691317121E+03  0.00000000000E+00 0. -1.
         21    1    1    2  504  501 -0.25976074953E+02 -0.15833066682E+02  0.12246227830E+03  0.12618419900E+03  0.00000000000E+00 0. -1.
         21    1    1    2  505  503  0.15637067321E+02 -0.86626729334E+02  0.85769109064E+03  0.86219644808E+03  0.00000000000E+00 0.  1.
         21    1    1    2  506  502  0.59959314517E+02  0.33571854274E+02 -0.11794963119E+02  0.69723094824E+02  0.00000000000E+00 0. -1.
<scales pt_clust_3="14000.00000" pt_clust_4="30.42109" pt_clust_5="88.61424" pt_clust_6="67.94486"></scales>
<clustering>
<clus scale="   30.421">  1  4  2 -1</clus>
<clus scale="   67.945">  2  6  1 -1</clus>
<clus scale="   88.614">  1  5  2 -1</clus>
<clus scale="   30.421">  1  3  2 -1</clus>
</clustering>
</event>
<event>
 6    0  0.8991567E+002  0.9238606E+02  0.7546771E-02  0.1297174E+00
         21   -1    0    0  504  501  0.00000000000E+00  0.00000000000E+00  0.39366692756E+03  0.39366692756E+03  0.00000000000E+00 0.  1.
         21   -1    0    0  503  502 -0.00000000000E+00 -0.00000000000E+00 -0.15350898312E+03  0.15350898312E+03  0.00000000000E+00 0. -1.
         21    1    1    2  503  506  0.24798940110E+02 -0.24521798704E+02 -0.45210761051E+02  0.57099202771E+02  0.00000000000E+00 0. -1.
         21    1    1    2  504  502  0.66362590893E+02 -0.21223932480E+02  0.95690019488E+02  0.11836819087E+03  0.00000000000E+00 0.  1.
         21    1    1    2  505  501  0.28751295812E+02  0.16649751462E+02  0.23717491340E+03  0.23949069038E+03  0.00000000000E+00 0.  1.
         21    1    1    2  506  505 -0.11991282681E+03  0.29095979722E+02 -0.47496227394E+02  0.13221782666E+03  0.00000000000E+00 0. -1.
<scales pt_clust_3="35.23129" pt_clust_4="92.38606" pt_clust_5="33.22426" pt_clust_6="14000.00000"></scales>
<clustering>
<clus scale="   33.224">  1  5  2 -1</clus>
<clus scale="   35.231">  2  3  1 -1</clus>
<clus scale="   92.386">  1  4  2 -1</clus>
<clus scale="   33.224">  1  3  2 -1</clus>
</clustering>
</event>
<event>
 6    0  0.8991567E+002  0.1218118E+03  0.7546771E-02  0.1240138E+00
         21   -1    0    0  504  501  0.00000000000E+00  0.00000000000E+00  0.58778838827E+03  0.58778838827E+03  0.00000000000E+00 0.  1.
         21   -1    0    0  503  502 -0.00000000000E+00 -0.00000000000E+00 -0.32907587671E+03  0.32907587671E+03  0.00000000000E+00 0.  1.
         21    1    1    2  503  501 -0.17611874890E+03 -0.30853895828E+02  0.99864756621E+02  0.20479928276E+03  0.00000000000E+00 0.  1.
         21    1    1    2  504  506  0.13485685328E+02  0.47103335383E+02  0.31516453691E+03  0.31895026766E+03  0.00000000000E+00 0.  1.
         21    1    1    2  505  502  0.74268943014E+02 -0.31230554064E+02 -0.25047907955E+03  0.26311783044E+03  0.00000000000E+00 0.  1.
         21    1    1    2  506  505  0.88364120561E+02  0.14981114509E+02  0.94162297590E+02  0.12999688412E+03  0.00000000000E+00 0.  1.
<scales pt_clust_3="121.81177" pt_clust_4="48.99579" pt_clust_5="80.44012" pt_clust_6="14000.00000"></scales>
<clustering>
<clus scale="   48.996">  1  4  2 -1</clus>
<clus scale="   80.440">  2  5  1 -1</clus>
<clus scale="  121.812">  2  3  1 -1</clus>
<clus scale="   48.996">  1  3  2 -1</clus>
</clustering>
</event>
<event>
 6    0  0.8991567E+002  0.8917581E+02  0.7546771E-02  0.1304860E+00
         21   -1    0    0  506  501  0.00000000000E+00  0.00000000000E+00  0.53114506165E+03  0.53114506165E+03  0.00000000000E+00 0. -1.
         21   -1    0    0  505  502 -0.00000000000E+00 -0.00000000000E+00 -0.20030399860E+03  0.20030399860E+03  0.00000000000E+00 0. -1.
         21    1    1    2  503  501  0.41746693160E+02 -0.11001682247E+02  0.22152179222E+03  0.22568944998E+03  0.00000000000E+00 0. -1.
         21    1    1    2  504  503 -0.61679265145E+01 -0.10730200605E+03  0.11861434669E+03  0.16006600845E+03  0.00000000000E+00 0. -1.
         21    1    1    2  505  504  0.73448284869E+01  0.37051533220E+02 -0.16261494562E+03  0.16694425165E+03  0.00000000000E+00 0. -1.
         21    1    1    2  506  502 -0.42923595132E+02  0.81252155075E+02  0.15331986977E+03  0.17874935018E+03  0.00000000000E+00 0. -1.
<scales pt_clust_3="43.09156" pt_clust_4="89.17581" pt_clust_5="37.77251" pt_clust_6="14000.00000"></scales>
<clustering>
<clus scale="   37.773">  2  5  1 -1</clus>
<clus scale="   43.092">  1  3  2 -1</clus>
<clus scale="   89.176">  2  4  1 -1</clus>
<clus scale="   43.092">  1  3  2 -1</clus>
</clustering>
</event>
<event>
 6    0  0.8991567E+002  0.1569327E+03  0.7546771E-02  0.1192204E+00
         21   -1    0    0  504  501  0.00000000000E+00  0.00000000000E+00  0.63421224142E+02  0.63421224142E+02  0.00000000000E+00 0.  1.
         21   -1    0    0  505  502 -0.00000000000E+00 -0.00000000000E+00 -0.18353879238E+04  0.18353879238E+04  0.00000000000E+00 0.  1.
         21    1    1    2  503  502  0.22793189166E+02 -0.45338157523E+02 -0.36706449790E+03  0.37055556077E+03  0.00000000000E+00 0.  1.
         21    1    1    2  504  503  0.10305797115E+03  0.80584658367E+02 -0.19262393190E+03  0.23284933266E+03  0.00000000000E+00 0.  1.
         21    1    1    2  505  506  0.64706721392E+02  0.31968316058E+01 -0.10197421982E+04  0.10217980868E+04  0.00000000000E+00 0.  1.
         21    1    1    2  506  501 -0.19055788170E+03 -0.38443332450E+02 -0.19253607169E+03  0.27360616768E+03  0.00000000000E+00 0.  1.
<scales pt_clust_3="50.74523" pt_clust_4="14000.00000" pt_clust_5="85.41658" pt_clust_6="156.93266"></scales>
<clustering>
<clus scale="   50.745">  2  3  1 -1</clus>
<clus scale="   85.417">  2  5  1 -1</clus>
<clus scale="  156.933">  2  6  1 -1</clus>
<clus scale="  156.933">  1  3  2 -1</clus>
</clustering>
</event>
<event>
 6    0  0.8991567E+002  0.8896342E+02  0.7546771E-02  0.1305382E+00
         21   -1    0    0  504  501  0.00000000000E+00  0.00000000000E+00  0.41665433835E+03  0.41665433835E+03  0.00000000000E+00 0. -1.
         21   -1    0    0  505  502 -0.00000000000E+00 -0.00000000000E+00 -0.87491551086E+02  0.87491551086E+02  0.00000000000E+00 0. -1.
         21    1    1    2  503  502 -0.83453463930E+02  0.48221673759E+02  0.53416961028E+01  0.96531570894E+02  0.00000000000E+00 0. -1.
         21    1    1    2  504  506 -0.30416119353E+02 -0.58836026167E+02  0.17280591909E+03  0.18506405368E+03  0.00000000000E+00 0. -1.
         21    1    1    2  505  501  0.57430701152E+02  0.53373119593E+02  0.33302400354E+02  0.85182305670E+02  0.00000000000E+00 0. -1.
         21    1    1    2  506  503  0.56438882131E+02 -0.42758767185E+02  0.11771277171E+03  0.13736795919E+03  0.00000000000E+00 0. -1.
<scales pt_clust_3="88.96342" pt_clust_4="66.23306" pt_clust_5="63.11571" pt_clust_6="14000.00000"></scales>
<clustering>
<clus scale="   66.233">  1  4  2 -1</clus>
<clus scale="   63.116">  1  5  2 -1</clus>
<clus scale="   88.963">  2  3  1 -1</clus>
<clus scale="   66.233">  1  3  2 -1</clus>
</clustering>
</event>
<event>
 6    0  0.8991567E+002  0.8533598E+02  0.7546771E-02  0.1314556E+00
         21   -1    0    0  505  501  0.00000000000E+00  0.00000000000E+00  0.63786224803E+03  0.63786224803E+03  0.00000000000E+00 0. -1.
         21   -1    0    0  506  502 -0.00000000000E+00 -0.00000000000E+00 -0.13790092154E+03  0.13790092154E+03  0.00000000000E+00 0. -1.
         21    1    1    2  503  502  0.90035869421E+02 -0.25060751650E+01 -0.70784196756E+02  0.11455627746E+03  0.00000000000E+00 0. -1.
         21    1    1    2  504  501 -0.27512629948E+02  0.33839671390E+02  0.45889673589E+03  0.46096451314E+03  0.00000000000E+00 0. -1.
         21    1    1    2  505  503  0.57410727879E+01  0.32409596609E+02  0.10098623032E+03  0.10621469099E+03  0.00000000000E+00 0. -1.
         21    1    1    2  506  504 -0.68264312261E+02 -0.63743192833E+02  0.10862557045E+02  0.94027687979E+02  0.00000000000E+00 0. -1.
<scales pt_clust_3="14000.00000" pt_clust_4="65.73634" pt_clust_5="32.91416" pt_clust_6="85.33598"></scales>
<clustering>
<clus scale="   32.914">  1  5  2 -1</clus>
<clus scale="   65.736">  1  4  2 -1</clus>
<clus scale="   85.336">  1  6  2 -1</clus>
<clus scale="   32.914">  1  3  2 -1</clus>
</clustering>
</event>
<event>
 6    0  0.8991567E+002  0.1474069E+03  0.7546771E-02  0.1203696E+00
         21   -1    0    0  505  501  0.00000000000E+00  0.00000000000E+00  0.13241214088E+03  0.13241214088E+03  0.00000000000E+00 0. -1.
         21   -1    0    0  504  502 -0.00000000000E+00 -0.00000000000E+00 -0.22758614808E+03  0.22758614808E+03  0.00000000000E+00 0. -1.
         21    1    1    2  503  501  0.57316175317E+02 -0.49548216929E+02  0.20544216105E+02  0.78499901714E+02  0.00000000000E+00 0. -1.
         21    1    1    2  504  506  0.29231618289E+02 -0.15419793132E+02 -0.48271450542E+02  0.58501200547E+02  0.00000000000E+00 0. -1.
         21    1    1    2  505  502 -0.10780832322E+03  0.11532012830E+03 -0.48428016306E+02  0.16512613152E+03  0.00000000000E+00 0. -1.
         21    1    1    2  506  503  0.21260529613E+02 -0.50352118242E+02 -0.19018756458E+02  0.57871055184E+02  0.00000000000E+00 0.  1.
<scales pt_clust_3="42.65140" pt_clust_4="33.04932" pt_clust_5="138.88285" pt_clust_6="42.65140"></scales>
<clustering>
<clus scale="   33.049">  2  4  1 -1</clus>
<clus scale="   42.651">  3  6 -1 -1</clus>
<clus scale="  138.883">  2  5  1 -1</clus>
<clus scale="  147.407">  1  3  2 -1</clus>
</clustering>
</event>
<event>
 6    0  0.8991567E+002  0.1132127E+03  0.7546771E-02  0.1254733E+00
         21   -1    0    0  503  501  0.00000000000E+00  0.00000000000E+00  0.11940544229E+03  0.11940544229E+03  0.00000000000E+00 0.  1.
         21   -1    0    0  505  502 -0.00000000000E+00 -0.00000000000E+00 -0.19086316985E+04  0.19086316985E+04  0.00000000000E+00 0.  1.
         21    1    1    2  503  506  0.13092260394E+03 -0.14502578608E+02 -0.21545115683E+02  0.13347376153E+03  0.00000000000E+00 0.  1.
         21    1    1    2  504  502 -0.26205228074E+02 -0.16492062408E+02 -0.13114609861E+04  0.13118264444E+04  0.00000000000E+00 0.  1.
         21    1    1    2  505  501 -0.16380103983E+02  0.30418467743E+02  0.54448221412E+02  0.64484105028E+02  0.00000000000E+00 0. -1.
         21    1    1    2  506  504 -0.88337271879E+02  0.57617327267E+00 -0.51066837581E+03  0.51825282983E+03  0.00000000000E+00 0. -1.
<scales pt_clust_3="14000.00000" pt_clust_4="30.96291" pt_clust_5="34.53174" pt_clust_6="113.21274"></scales>
<clustering>
<clus scale="   30.963">  2  4  1 -1</clus>
<clus scale="   34.532">  1  5  2 -1</clus>
<clus scale="  113.213">  2  6  1 -1</clus>
<clus scale="   34.532">  1  3  2 -1</clus>
</clustering>
</event>
<event>
 6    0  0.8991567E+002  0.1087518E+03  0.7546771E-02  0.1262899E+00
         21   -1    0    0  506  501  0.00000000000E+00  0.00000000000E+00  0.26338559544E+04  0.26338559544E+04  0.00000000000E+00 0.  1.
         21   -1    0    0  504  502 -0.00000000000E+00 -0.00000000000E+00 -0.74611935865E+03  0.74611935865E+03  0.00000000000E+00 0. -1.
         21    1    1    2  503  502 -0.81520720391E+02 -0.29339705628E+02 -0.46402576850E+03  0.47204487076E+03  0.00000000000E+00 0. -1.
         21    1    1    2  504  505  0.11310721134E+03 -0.74959590816E+02 -0.25900157245E+03  0.29239356361E+03  0.00000000000E+00 0. -1.
         21    1    1    2  505  501 -0.34622386299E+02  0.93599400042E+00  0.13805912346E+04  0.13810256126E+04  0.00000000000E+00 0.  1.
         21    1    1    2  506  503  0.30358953503E+01  0.10336330244E+03  0.12301727021E+04  0.12345112660E+04  0.00000000000E+00 0.  1.
<scales pt_clust_3="86.74298" pt_clust_4="108.75177" pt_clust_5="34.63504" pt_clust_6="14000.00000"></scales>
<clustering>
<clus scale="   34.635">  1  5  2 -1</clus>
<clus scale="   86.743">  2  3  1 -1</clus>
<clus scale="  108.752">  2  4  1 -1</clus>
<clus scale="   34.635">  1  3  2 -1</clus>
</clustering>
</event>
<event>
 6    0  0.8991567E+002  0.1067794E+03  0.7546771E-02  0.1266653E+00
         21   -1    0    0  504  501  0.00000000000E+00  0.00000000000E+00  0.32756950345E+03  0.32756950345E+03  0.00000000000E+00 0.  1.
         21   -1    0    0  505  502 -0.00000000000E+00 -0.00000000000E+00 -0.11938075114E+03  0.11938075114E+03  0.00000000000E+00 0.  1.
         21    1    1    2  503  501  0.20728686938E+02 -0.27934127027E+02  0.59539125684E+02  0.68955793101E+02  0.00000000000E+00 0. -1.
         21    1    1    2  504  506 -0.84446681955E+02 -0.49721288310E+02  0.14270844980E+03  0.17311600229E+03  0.00000000000E+00 0.  1.
         21    1    1    2  505  503  0.12145534190E+03  0.62229587405E+02  0.31210971158E+02  0.13999302249E+03  0.00000000000E+00 0.  1.
         21    1    1    2  506  502 -0.57737346881E+02  0.15425827932E+02 -0.25269794335E+02  0.64885436717E+02  0.00000000000E+00 0.  1.
<scales pt_clust_3="34.78497" pt_clust_4="106.77936" pt_clust_5="14000.00000" pt_clust_6="57.73664"></scales>
<clustering>
<clus scale="   34.785">  1  3  2 -1</clus>
<clus scale="   57.737">  2  6  1 -1</clus>
<clus scale="  106.779">  1  4  2 -1</clus>
<clus scale="   34.785">  1  3  2 -1</clus>
</clustering>
</event>
<event>
 6    0  0.8991567E+002  0.8909878E+02  0.7546771E-02  0.1305049E+00
         21   -1    0    0  506  501  0.00000000000E+00  0.00000000000E+00  0.66753856434E+03  0.66753856434E+03  0.00000000000E+00 0.  1.
         21   -1    0    0  504  502 -0.00000000000E+00 -0.00000000000E+00 -0.71537824626E+02  0.71537824626E+02  0.00000000000E+00 0.  1.
         21    1    1    2  503  501 -0.47014710884E+02  0.63592853779E+02  0.31421662579E+03  0.32401623727E+03  0.00000000000E+00 0.  1.
         21    1    1    2  504  503 -0.31854049438E+02 -0.22976910354E+02 -0.36440309414E+02  0.53577187545E+02  0.00000000000E+00 0.  1.
         21    1    1    2  505  502 -0.67832143490E+01  0.29251369246E+02  0.64745431261E+01  0.30717654669E+02  0.00000000000E+00 0.  1.
         21    1    1    2  506  505  0.85651974671E+02 -0.69867312670E+02  0.31174988021E+03  0.33076530948E+03  0.00000000000E+00 0.  1.
<scales pt_clust_3="14000.00000" pt_clust_4="37.00149" pt_clust_5="30.02756" pt_clust_6="89.09878"></scales>
<clustering>
<clus scale="   30.028">  2  5  1 -1</clus>
<clus scale="   37.001">  2  4  1 -1</clus>
<clus scale="   89.099">  2  6  1 -1</clus>
<clus scale="   89.099">  1  3  2 -1</clus>
</clustering>
</event>
<event>
 6    0  0.8991567E+002  0.8927843E+02  0.7546771E-02  0.1304609E+00
         21   -1    0    0  506  501  0.00000000000E+00  0.00000000000E+00  0.51748822131E+03  0.51748822131E+03  0.00000000000E+00 0.  1.
         21   -1    0    0  504  502 -0.00000000000E+00 -0.00000000000E+00 -0.48023371924E+03  0.48023371924E+03  0.00000000000E+00 0. -1.
         21    1    1    2  503  502 -0.58754484728E+02 -0.82270601500E+01 -0.34006703127E+03  0.34520335999E+03  0.00000000000E+00 0. -1.
         21    1    1    2  504  501 -0.59171179958E+02 -0.31727332035E+02 -0.96928588659E+02  0.11791099794E+03  0.00000000000E+00 0. -1.
         21    1    1    2  505  503  0.78095422589E+02 -0.41672950729E+02  0.51921012977E+02  0.10262222683E+03  0.00000000000E+00 0. -1.
         21    1    1    2  506  505  0.39830242098E+02  0.81627342914E+02  0.42232910901E+03  0.43198535579E+03  0.00000000000E+00 0.  1.
<scales pt_clust_3="59.32768" pt_clust_4="89.27843" pt_clust_5="79.94131" pt_clust_6="14000.00000"></scales>
<clustering>
<clus scale="   59.328">  2  3  1 -1</clus>
<clus scale="   79.941">  2  5  1 -1</clus>
<clus scale="   89.278">  2  4  1 -1</clus>
<clus scale="   89.278">  1  3  2 -1</clus>
</clustering>
</event>
<event>
 6    0  0.8991567E+002  0.9407315E+02  0.7546771E-02  0.1293277E+00
         21   -1    0    0  506  501  0.00000000000E+00  0.00000000000E+00  0.70024964683E+03  0.70024964683E+03  0.00000000000E+00 0.  1.
         21   -1    0    0  504  502 -0.00000000000E+00 -0.00000000000E+00 -0.11269725070E+03  0.11269725070E+03  0.00000000000E+00 0. -1.
         21    1    1    2  503  502  0.20575308463E+02  0.32258713644E+02 -0.82594011243E+00  0.38270747332E+02  0.00000000000E+00 0. -1.
         21    1    1    2  504  501 -0.57110097627E+02  0.57573941057E+02 -0.48921979246E+02  0.94708405082E+02  0.00000000000E+00 0. -1.
         21    1    1    2  505  503  0.91067873168E+02 -0.67099129698E+02  0.14387682501E+03  0.18301964786E+03  0.00000000000E+00 0.  1.
         21    1    1    2  506  505 -0.54533084004E+02 -0.22733525003E+02  0.49342349047E+03  0.49694809725E+03  0.00000000000E+00 0.  1.
<scales pt_clust_3="38.26183" pt_clust_4="14000.00000" pt_clust_5="94.07315" pt_clust_6="58.48922"></scales>
<clustering>
<clus scale="   38.262">  2  3  1 -1</clus>
<clus scale="   58.489">  1  6  2 -1</clus>
<clus scale="   94.073">  1  5  2 -1</clus>
<clus scale="   58.489">  1  3  2 -1</clus>
</clustering>
</event>
<event>
 6    0  0.8991567E+002  0.7325218E+02  0.7546771E-02  0.1349370E+00
         21   -1    0    0  505  501  0.00000000000E+00  0.00000000000E+00  0.29074616312E+03  0.29074616312E+03  0.00000000000E+00 0. -1.
         21   -1    0    0  506  502 -0.00000000000E+00 -0.00000000000E+00 -0.62676510028E+03  0.62676510028E+03  0.00000000000E+00 0. -1.
         21    1    1    2  503  502 -0.97617639941E+02 -0.13763344242E+02 -0.20606663184E+03  0.22843399491E+03  0.00000000000E+00 0. -1.
         21    1    1    2  504  501  0.24861951030E+02  0.86958302855E+02 -0.27263480717E+02  0.94462481575E+02  0.00000000000E+00 0. -1.
         21    1    1    2  505  503  0.30495125839E+02 -0.46798161475E+02  0.24097170549E+03  0.24736083656E+03  0.00000000000E+00 0. -1.
         21    1    1    2  506  504  0.42260563072E+02 -0.26396797139E+02 -0.34366053009E+03  0.34725395035E+03  0.00000000000E+00 0. -1.
<scales pt_clust_3="73.25218" pt_clust_4="14000.00000" pt_clust_5="56.37081" pt_clust_6="49.82716"></scales>
<clustering>
<clus scale="   49.827">  2  6  1 -1</clus>
<clus scale="   56.371">  1  5  2 -1</clus>
<clus scale="   73.252">  2  3  1 -1</clus>
<clus scale="   56.371">  1  3  2 -1</clus>
</clustering>
</event>
<event>
 6    0  0.8991567E+002  0.1670716E+03  0.7546771E-02  0.1180937E+00
         21   -1    0    0  505  501  0.00000000000E+00  0.00000000000E+00  0.35227724707E+02  0.35227724707E+02  0.00000000000E+00 0. -1.
         21   -1    0    0  504  502 -0.00000000000E+00 -0.00000000000E+00 -0.24183315282E+04  0.24183315282E+04  0.00000000000E+00 0. -1.
         21    1    1    2  503  501  0.16170794169E+03 -0.59721121631E+02 -0.83535841799E+03  0.85295941128E+03  0.00000000000E+00 0. -1.
         21    1    1    2  504  503  0.37707124870E+02  0.53642943320E+02 -0.83342018389E+03  0.83599557149E+03  0.00000000000E+00 0.  1.
         21    1    1    2  505  506 -0.16763580996E+03  0.34083123674E+01 -0.26137164920E+03  0.31052941951E+03  0.00000000000E+00 0. -1.
         21    1    1    2  506  502 -0.31779256599E+02  0.26698659427E+01 -0.45295355245E+03  0.45407485067E+03  0.00000000000E+00 0. -1.
<scales pt_clust_3="167.07156" pt_clust_4="59.88731" pt_clust_5="14000.00000" pt_clust_6="31.89121"></scales>
<clustering>
<clus scale="   31.891">  2  6  1 -1</clus>
<clus scale="   59.887">  2  4  1 -1</clus>
<clus scale="  167.072">  2  3  1 -1</clus>
<clus scale="  167.072">  1  3  2 -1</clus>
</clustering>
</event>
<event>
 6    0  0.8991567E+002  0.1419171E+03  0.7546771E-02  0.1210772E+00
         21   -1    0    0  504  501  0.00000000000E+00  0.00000000000E+00  0.12717749171E+03  0.12717749171E+03  0.00000000000E+00 0.  1.
         21   -1    0    0  506  502 -0.00000000000E+00 -0.00000000000E+00 -0.30341314455E+04  0.30341314455E+04  0.00000000000E+00 0.  1.
         21    1    1    2  503  505 -0.64721655504E+02 -0.40874981499E+02 -0.52864191192E+02  0.93028380154E+02  0.00000000000E+00 0.  1.
         21    1    1    2  504  502  0.15359354812E+03  0.45151064598E+02 -0.12889133385E+03  0.20552997981E+03  0.00000000000E+00 0.  1.
         21    1    1    2  505  501  0.48280497003E+02  0.28770668380E+02  0.55199072720E+02  0.78776236132E+02  0.00000000000E+00 0.  1.
         21    1    1    2  506  503 -0.13715238962E+03 -0.33046751480E+02 -0.27803975015E+04  0.27839743411E+04  0.00000000000E+00 0.  1.
<scales pt_clust_3="57.80487" pt_clust_4="141.91711" pt_clust_5="56.20283" pt_clust_6="14000.00000"></scales>
<clustering>
<clus scale="   56.203">  1  5  2 -1</clus>
<clus scale="   57.805">  1  3  2 -1</clus>
<clus scale="  141.917">  1  4  2 -1</clus>
<clus scale="   56.203">  1  3  2 -1</clus>
</clustering>
</event>
<event>
 6    0  0.8991567E+002  0.1015868E+03  0.7546771E-02  0.1276994E+00
         21   -1    0    0  504  501  0.00000000000E+00  0.00000000000E+00  0.11681274961E+04  0.11681274961E+04  0.00000000000E+00 0. -1.
         21   -1    0    0  506  502 -0.00000000000E+00 -0.00000000000E+00 -0.19157833992E+04  0.19157833992E+04  0.00000000000E+00 0. -1.
         21    1    1    2  503  501 -0.68507045943E+01 -0.48676559572E+02  0.10603960882E+04  0.10615348338E+04  0.00000000000E+00 0. -1.
         21    1    1    2  504  505  0.14596199786E+02 -0.37915983128E+02 -0.45744811391E+01  0.40885164821E+02  0.00000000000E+00 0.  1.
         21    1    1    2  505  502 -0.32677939696E+02 -0.71929424374E+02 -0.18185944789E+04  0.18203097453E+04  0.00000000000E+00 0. -1.
         21    1    1    2  506  503  0.24932444504E+02  0.15852196707E+03  0.15116968816E+02  0.16118115144E+03  0.00000000000E+00 0.  1.
<scales pt_clust_3="101.58679" pt_clust_4="40.62845" pt_clust_5="79.02561" pt_clust_6="14000.00000"></scales>
<clustering>
<clus scale="   40.628">  1  4  2 -1</clus>
<clus scale="   79.026">  2  5  1 -1</clus>
<clus scale="  101.587">  1  3  2 -1</clus>
<clus scale="   40.628">  1  3  2 -1</clus>
</clustering>
</event>
<event>
 6    0  0.8991567E+002  0.9264017E+02  0.7546771E-02  0.1296581E+00
         21   -1    0    0  506  501  0.00000000000E+00  0.00000000000E+00  0.18270507899E+04  0.18270507899E+04  0.00000000000E+00 0.  1.
         21   -1    0    0  504  502 -0.00000000000E+00 -0.00000000000E+00 -0.15937780052E+02  0.15937780052E+02  0.00000000000E+00 0.  1.
         21    1    1    2  503  505 -0.73146590395E+02  0.51813974255E+02  0.38174284211E+03  0.39212588427E+03  0.00000000000E+00 0.  1.
         21    1    1    2  504  501  0.65655353968E+02  0.17489581272E+02  0.23377856946E+03  0.24345211130E+03  0.00000000000E+00 0.  1.
         21    1    1    2  505  502 -0.71628717298E+02 -0.17651525000E+02  0.49072461662E+03  0.49623875185E+03  0.00000000000E+00 0.  1.
         21    1    1    2  506  503  0.79119953724E+02 -0.51652030527E+02  0.70486698170E+03  0.71117182258E+03  0.00000000000E+00 0.  1.
<scales pt_clust_3="92.64017" pt_clust_4="67.94491" pt_clust_5="56.90051" pt_clust_6="14000.00000"></scales>
<clustering>
<clus scale="   67.945">  2  4  1 -1</clus>
<clus scale="   56.901">  2  5  1 -1</clus>
<clus scale="   92.640">  2  3  1 -1</clus>
<clus scale="   92.640">  1  3  2 -1</clus>
</clustering>
</event>
<event>
 6    0  0.1040304E+003  0.1645751E+03  0.7546771E-02  0.1183626E+00
         21   -1    0    0  505  501  0.00000000000E+00  0.00000000000E+00  0.31677760998E+03  0.31677760998E+03  0.00000000000E+00 0.  1.
         21   -1    0    0  503  502 -0.00000000000E+00 -0.00000000000E+00 -0.72863438643E+03  0.72863438643E+03  0.00000000000E+00 0.  1.
         21    1    1    2  503  504  0.46364668147E+02  0.82638200521E+01 -0.24636534524E+02  0.53150089441E+02  0.00000000000E+00 0. -1.
         21    1    1    2  504  501  0.33703024496E+02  0.78913534398E+02 -0.53802249786E+02  0.10128139935E+03  0.00000000000E+00 0.  1.
         21    1    1    2  505  506 -0.11057903885E+03 -0.11535541379E+03  0.25509072139E+03  0.30100809202E+03  0.00000000000E+00 0.  1.
         21    1    1    2  506  502  0.30511346210E+02  0.28178059340E+02 -0.58850871352E+03  0.58997241560E+03  0.00000000000E+00 0.  1.
<scales pt_clust_3="44.32368" pt_clust_4="44.32368" pt_clust_5="152.96816" pt_clust_6="41.53246"></scales>
<clustering>
<clus scale="   41.532">  2  6  1 -1</clus>
<clus scale="   44.324">  3  4 -1 -1</clus>
<clus scale="  152.968">  1  5  2 -1</clus>
<clus scale="  152.968">  1  3  2 -1</clus>
</clustering>
</event>
<event>
 6    0  0.8991567E+002  0.6404353E+02  0.7546771E-02  0.1381606E+00
         21   -1    0    0  505  501  0.00000000000E+00  0.00000000000E+00  0.20264919653E+03  0.20264919653E+03  0.00000000000E+00 0.  1.
         21   -1    0    0  506  502 -0.00000000000E+00 -0.00000000000E+00 -0.71778684674E+03  0.71778684674E+03  0.00000000000E+00 0.  1.
         21    1    1    2  503  504  0.58418355024E+02 -0.20219471227E+02  0.59957212587E+02  0.86118514627E+02  0.00000000000E+00 0.  1.
         21    1    1    2  504  501 -0.41335329818E+02 -0.45894282630E+02  0.11095617928E+03  0.12698885144E+03  0.00000000000E+00 0.  1.
         21    1    1    2  505  502 -0.73918821872E+02  0.38232042472E+02 -0.19229153143E+03  0.20952735945E+03  0.00000000000E+00 0.  1.
         21    1    1    2  506  503  0.56835796665E+02  0.27881711385E+02 -0.49375951064E+03  0.49780131776E+03  0.00000000000E+00 0.  1.
<scales pt_clust_3="14000.00000" pt_clust_4="61.76483" pt_clust_5="64.04353" pt_clust_6="61.92443"></scales>
<clustering>
<clus scale="   61.765">  1  4  2 -1</clus>
<clus scale="   61.924">  2  6  1 -1</clus>
<clus scale="   64.044">  2  5  1 -1</clus>
<clus scale="   61.765">  1  3  2 -1</clus>
</clustering>
</event>
<event>
 6    0  0.8991567E+002  0.1292185E+03  0.7546771E-02  0.1228620E+00
         21   -1    0    0  503  501  0.00000000000E+00  0.00000000000E+00  0.14128880276E+03  0.14128880276E+03  0.00000000000E+00 0.  1.
         21   -1    0    0  504  502 -0.00000000000E+00 -0.00000000000E+00 -0.16755844660E+04  0.16755844660E+04  0.00000000000E+00 0.  1.
         21    1    1    2  503  506  0.64482523905E+02 -0.29351201746E+02  0.24451646394E+02  0.74949129044E+02  0.00000000000E+00 0.  1.
         21    1    1    2  504  505 -0.13725954467E+03  0.72955645898E+02 -0.70940925355E+03  0.72623976612E+03  0.00000000000E+00 0.  1.
         21    1    1    2  505  501 -0.39594267248E+02 -0.70892016792E+01  0.74316130432E+02  0.84503550350E+02  0.00000000000E+00 0. -1.
         21    1    1    2  506  502  0.11237128801E+03 -0.36515242472E+02 -0.92365418652E+03  0.93118082324E+03  0.00000000000E+00 0.  1.
<scales pt_clust_3="47.91874" pt_clust_4="129.21848" pt_clust_5="40.22391" pt_clust_6="14000.00000"></scales>
<clustering>
<clus scale="   40.224">  1  5  2 -1</clus>
<clus scale="   47.919">  1  3  2 -1</clus>
<clus scale="  129.218">  1  4  2 -1</clus>
<clus scale="   40.224">  1  3  2 -1</clus>
</clustering>
</event>
<event>
 6    0  0.8991567E+002  0.1025733E+03  0.7546771E-02  0.1274976E+00
         21   -1    0    0  503  501  0.00000000000E+00  0.00000000000E+00  0.17544167122E+04  0.17544167122E+04  0.00000000000E+00 0. -1.
         21   -1    0    0  504  502 -0.00000000000E+00 -0.00000000000E+00 -0.29995227394E+03  0.29995227394E+03  0.00000000000E+00 0. -1.
         21    1    1    2  503  502  0.47574131258E+01 -0.39443409578E+02  0.16054520662E+02  0.42850474589E+02  0.00000000000E+00 0. -1.
         21    1    1    2  504  506  0.22691353562E+02 -0.65177071479E+02 -0.27603940556E+03  0.28453594078E+03  0.00000000000E+00 0. -1.
         21    1    1    2  505  501  0.47488970043E+02  0.63211215004E+02  0.13616338847E+04  0.13639273059E+04  0.00000000000E+00 0. -1.
         21    1    1    2  506  505 -0.74937736730E+02  0.41409266053E+02  0.35281543846E+03  0.36305526482E+03  0.00000000000E+00 0.  1.
<scales pt_clust_3="39.72928" pt_clust_4="102.57335" pt_clust_5="78.94770" pt_clust_6="14000.00000"></scales>
<clustering>
<clus scale="   39.729">  2  3  1 -1</clus>
<clus scale="   78.948">  1  5  2 -1</clus>
<clus scale="  102.573">  2  4  1 -1</clus>
<clus scale="   78.948">  1  3  2 -1</clus>
</clustering>
</event>
<event>
 6    0  0.8991567E+002  0.7063575E+02  0.7546771E-02  0.1357944E+00
         21   -1    0    0  504  501  0.00000000000E+00  0.00000000000E+00  0.40558658515E+03  0.40558658515E+03  0.00000000000E+00 0. -1.
         21   -1    0    0  503  502 -0.00000000000E+00 -0.00000000000E+00 -0.56856989152E+03  0.56856989152E+03  0.00000000000E+00 0.  1.
         21    1    1    2  503  505 -0.30463027892E+02  0.40195282861E+02 -0.36855089605E+03  0.37198577905E+03  0.00000000000E+00 0.  1.
         21    1    1    2  504  506  0.40230400327E+02 -0.59300023069E+02  0.35922480847E+03  0.36630238993E+03  0.00000000000E+00 0. -1.
         21    1    1    2  505  501  0.54545761979E+02  0.35385758903E+02  0.36736938987E+01  0.65122101547E+02  0.00000000000E+00 0.  1.
         21    1    1    2  506  502 -0.64313134415E+02 -0.16281018695E+02 -0.15733091268E+03  0.17074620614E+03  0.00000000000E+00 0.  1.
<scales pt_clust_3="50.43468" pt_clust_4="70.63575" pt_clust_5="64.91767" pt_clust_6="14000.00000"></scales>
<clustering>
<clus scale="   50.435">  2  3  1 -1</clus>
<clus scale="   64.918">  2  5  1 -1</clus>
<clus scale="   70.636">  1  4  2 -1</clus>
<clus scale="   70.636">  1  3  2 -1</clus>
</clustering>
</event>
<event>
 6    0  0.8991567E+002  0.1144629E+03  0.7546771E-02  0.1252522E+00
         21   -1    0    0  506  501  0.00000000000E+00  0.00000000000E+00  0.50647461087E+02  0.50647461087E+02  0.00000000000E+00 0.  1.
         21   -1    0    0  505  502 -0.00000000000E+00 -0.00000000000E+00 -0.60320545174E+03  0.60320545174E+03  0.00000000000E+00 0.  1.
         21    1    1    2  503  504 -0.42537754372E+02 -0.33994469768E+02 -0.82030284095E+02  0.98458377148E+02  0.00000000000E+00 0.  1.
         21    1    1    2  504  501 -0.33984861543E+02 -0.39519808349E+02 -0.22702726877E+02  0.56852439470E+02  0.00000000000E+00 0.  1.
         21    1    1    2  505  503 -0.21895252938E+02  0.27899623499E+02 -0.35206481802E+03  0.35384661533E+03  0.00000000000E+00 0.  1.
         21    1    1    2  506  502  0.98417868853E+02  0.45614654618E+02 -0.95760161656E+02  0.14469548088E+03  0.00000000000E+00 0.  1.
<scales pt_clust_3="41.71307" pt_clust_4="41.71307" pt_clust_5="35.46535" pt_clust_6="105.87429"></scales>
<clustering>
<clus scale="   35.465">  2  5  1 -1</clus>
<clus scale="   41.713">  3  4 -1 -1</clus>
<clus scale="  105.874">  1  6  2 -1</clus>
<clus scale="  105.874">  1  3  2 -1</clus>
</clustering>
</event>
<event>
 6    0  0.8991567E+002  0.8769839E+02  0.7546771E-02  0.1308523E+00
         21   -1    0    0  506  501  0.00000000000E+00  0.00000000000E+00  0.32152530535E+03  0.32152530535E+03  0.00000000000E+00 0. -1.
         21   -1    0    0  504  502 -0.00000000000E+00 -0.00000000000E+00 -0.88712752768E+02  0.88712752768E+02  0.00000000000E+00 0. -1.
         21    1    1    2  503  501  0.54320712639E+01  0.32495872756E+02  0.12850681984E+03  0.13266307659E+03  0.00000000000E+00 0. -1.
         21    1    1    2  504  505  0.24100584710E+02  0.18602886957E+02 -0.30477323069E+02  0.43078681595E+02  0.00000000000E+00 0. -1.
         21    1    1    2  505  503  0.72716988448E+02  0.13503796636E+01  0.76826443587E+02  0.10579171219E+03  0.00000000000E+00 0. -1.
         21    1    1    2  506  502 -0.10224964442E+03 -0.52449139376E+02  0.57956612225E+02  0.12870458774E+03  0.00000000000E+00 0. -1.
<scales pt_clust_3="33.85009" pt_clust_4="30.44512" pt_clust_5="14000.00000" pt_clust_6="87.69839"></scales>
<clustering>
<clus scale="   30.445">  2  4  1 -1</clus>
<clus scale="   33.850">  1  3  2 -1</clus>
<clus scale="   87.698">  2  6  1 -1</clus>
<clus scale="   33.850">  1  3  2 -1</clus>
</clustering>
</event>
<event>
 6    0  0.8991567E+002  0.2368173E+03  0.7546771E-02  0.1121931E+00
         21   -1    0    0  506  501  0.00000000000E+00  0.00000000000E+00  0.29261387890E+03  0.29261387890E+03  0.00000000000E+00 0.  1.
         21   -1    0    0  504  502 -0.00000000000E+00 -0.00000000000E+00 -0.48821044247E+03  0.48821044247E+03  0.00000000000E+00 0.  1.
         21    1    1    2  503  502  0.50169125864E+02 -0.11303051756E+02 -0.14362058136E+02  0.53394464909E+02  0.00000000000E+00 0.  1.
         21    1    1    2  504  505 -0.11468543086E+03 -0.20538813510E+03 -0.31171829175E+03  0.39051930490E+03  0.00000000000E+00 0.  1.
         21    1    1    2  505  501  0.36593041568E+02  0.25529055898E+03  0.86357776565E+02  0.27197423733E+03  0.00000000000E+00 0.  1.
         21    1    1    2  506  503  0.27923263428E+02 -0.38599372129E+02  0.44126009752E+02  0.64936314231E+02  0.00000000000E+00 0.  1.
<scales pt_clust_3="54.41641" pt_clust_4="236.81727" pt_clust_5="14000.00000" pt_clust_6="47.64053"></scales>
<clustering>
<clus scale="   47.641">  1  6  2 -1</clus>
<clus scale="   54.416">  1  3  2 -1</clus>
<clus scale="  236.817">  2  4  1 -1</clus>
<clus scale="   47.641">  1  3  2 -1</clus>
</clustering>
</event>
<event>
 6    0  0.8991567E+002  0.1581150E+03  0.7546771E-02  0.1190841E+00
         21   -1    0    0  506  501  0.00000000000E+00  0.00000000000E+00  0.10513807328E+04  0.10513807328E+04  0.00000000000E+00 0.  1.
         21   -1    0    0  503  502 -0.00000000000E+00 -0.00000000000E+00 -0.24161750533E+03  0.24161750533E+03  0.00000000000E+00 0.  1.
         21    1    1    2  503  501  0.10266504900E+03  0.12783604199E+03  0.14291282612E+03  0.21749998112E+03  0.00000000000E+00 0.  1.
         21    1    1    2  504  502  0.42708499045E+02 -0.11092278245E+03 -0.15007345633E+03  0.19144169309E+03  0.00000000000E+00 0.  1.
         21    1    1    2  505  504 -0.15964109439E+03 -0.68069204382E+02  0.19978589359E+03  0.26463767472E+03  0.00000000000E+00 0.  1.
         21    1    1    2  506  505  0.14267546343E+02  0.51155944841E+02  0.61713796408E+03  0.61941888918E+03  0.00000000000E+00 0.  1.
<scales pt_clust_3="14000.00000" pt_clust_4="116.83545" pt_clust_5="158.11505" pt_clust_6="53.10832"></scales>
<clustering>
<clus scale="   53.108">  1  6  2 -1</clus>
<clus scale="  116.835">  2  4  1 -1</clus>
<clus scale="  158.115">  1  5  2 -1</clus>
<clus scale="   53.108">  1  3  2 -1</clus>
</clustering>
</event>
<event>
 6    0  0.8991567E+002  0.1180470E+03  0.7546771E-02  0.1246354E+00
         21   -1    0    0  504  501  0.00000000000E+00  0.00000000000E+00  0.15882176716E+04  0.15882176716E+04  0.00000000000E+00 0.  1.
         21   -1    0    0  505  502 -0.00000000000E+00 -0.00000000000E+00 -0.76801435735E+02  0.76801435735E+02  0.00000000000E+00 0.  1.
         21    1    1    2  503  501  0.83968653087E+02 -0.89102734073E+01  0.35779255119E+02  0.91707593854E+02  0.00000000000E+00 0. -1.
         21    1    1    2  504  506 -0.11042640681E+03 -0.52727766934E+02  0.14032826507E+04  0.14086079676E+04  0.00000000000E+00 0.  1.
         21    1    1    2  505  503  0.34690900603E+02  0.90684925610E+01 -0.31682782692E+02  0.47848666241E+02  0.00000000000E+00 0.  1.
         21    1    1    2  506  502 -0.82331468803E+01  0.52569547781E+02  0.10403711275E+03  0.11685487962E+03  0.00000000000E+00 0.  1.
<scales pt_clust_3="118.04703" pt_clust_4="14000.00000" pt_clust_5="35.85661" pt_clust_6="54.18472"></scales>
<clustering>
<clus scale="   35.857">  2  5  1 -1</clus>
<clus scale="   54.185">  2  6  1 -1</clus>
<clus scale="  118.047">  2  3  1 -1</clus>
<clus scale="  118.047">  1  3  2 -1</clus>
</clustering>
</event>
<event>
 6    0  0.8991567E+002  0.7614702E+02  0.7546771E-02  0.1340355E+00
         21   -1    0    0  504  501  0.00000000000E+00  0.00000000000E+00  0.32299364176E+03  0.32299364176E+03  0.00000000000E+00 0. -1.
         21   -1    0    0  505  502 -0.00000000000E+00 -0.00000000000E+00 -0.22204907692E+04  0.22204907692E+04  0.00000000000E+00 0. -1.
         21    1    1    2  503  501 -0.34800690146E+02  0.17250932596E+02  0.38876750073E+02  0.54955294616E+02  0.00000000000E+00 0.  1.
         21    1    1    2  504  506 -0.22580689412E+01  0.32083719220E+02  0.26919100444E+03  0.27110562662E+03  0.00000000000E+00 0. -1.
         21    1    1    2  505  503 -0.39240963838E+02  0.55061060166E+02 -0.13925115382E+04  0.13941520569E+04  0.00000000000E+00 0. -1.
         21    1    1    2  506  502  0.76299722926E+02 -0.10439571198E+03 -0.81305334377E+03  0.82327143290E+03  0.00000000000E+00 0.  1.
<scales pt_clust_3="58.70529" pt_clust_4="32.16308" pt_clust_5="14000.00000" pt_clust_6="76.14702"></scales>
<clustering>
<clus scale="   32.163">  1  4  2 -1</clus>
<clus scale="   58.705">  1  3  2 -1</clus>
<clus scale="   76.147">  1  6  2 -1</clus>
<clus scale="   32.163">  1  3  2 -1</clus>
</clustering>
</event>
<event>
 6    0  0.8991567E+002  0.1224786E+03  0.7546771E-02  0.1239063E+00
         21   -1    0    0  506  501  0.00000000000E+00  0.00000000000E+00  0.27874428804E+04  0.27874428804E+04  0.00000000000E+00 0.  1.
         21   -1    0    0  505  502 -0.00000000000E+00 -0.00000000000E+00 -0.10016431362E+04  0.10016431362E+04  0.00000000000E+00 0.  1.
         21    1    1    2  503  502  0.16419326000E+02  0.41320742691E+02 -0.23147967749E+03  0.23571134706E+03  0.00000000000E+00 0. -1.
         21    1    1    2  504  503  0.73744770734E+02 -0.54623902182E+02  0.24939649360E+03  0.26574550405E+03  0.00000000000E+00 0.  1.
         21    1    1    2  505  501  0.20807383078E+02 -0.51936623349E+02 -0.75720143244E+03  0.75926567770E+03  0.00000000000E+00 0.  1.
         21    1    1    2  506  504 -0.11097147981E+03  0.65239782840E+02  0.25250843606E+04  0.25283634878E+04  0.00000000000E+00 0.  1.
<scales pt_clust_3="44.46345" pt_clust_4="122.47861" pt_clust_5="38.65795" pt_clust_6="14000.00000"></scales>
<clustering>
<clus scale="   44.463">  2  3  1 -1</clus>
<clus scale="   38.658">  2  5  1 -1</clus>
<clus scale="  122.479">  2  4  1 -1</clus>
<clus scale="  122.479">  1  3  2 -1</clus>
</clustering>
</event>
<event>
 6    0  0.8991567E+002  0.1185774E+03  0.7546771E-02  0.1245462E+00
         21   -1    0    0  504  501  0.00000000000E+00  0.00000000000E+00  0.18872250961E+03  0.18872250961E+03  0.00000000000E+00 0.  1.
         21   -1    0    0  505  502 -0.00000000000E+00 -0.00000000000E+00 -0.54574282254E+03  0.54574282254E+03  0.00000000000E+00 0.  1.
         21    1    1    2  503  502 -0.39642955915E+02 -0.19798759147E+02 -0.69920146766E+02  0.82779114160E+02  0.00000000000E+00 0.  1.
         21    1    1    2  504  503  0.13697978449E+03 -0.29612781117E+02  0.11308244520E+03  0.18007780978E+03  0.00000000000E+00 0.  1.
         21    1    1    2  505  506 -0.66323215733E+02  0.75350133039E+02 -0.41618970050E+03  0.42812413889E+03  0.00000000000E+00 0.  1.
         21    1    1    2  506  501 -0.31013612837E+02 -0.25938592775E+02  0.16007089136E+02  0.43484269328E+02  0.00000000000E+00 0.  1.
<scales pt_clust_3="45.90440" pt_clust_4="14000.00000" pt_clust_5="118.57744" pt_clust_6="40.43086"></scales>
<clustering>
<clus scale="   40.431">  1  6  2 -1</clus>
<clus scale="   45.904">  2  3  1 -1</clus>
<clus scale="  118.577">  2  5  1 -1</clus>
<clus scale="   40.431">  1  3  2 -1</clus>
</clustering>
</event>
<event>
 6    0  0.8991567E+002  0.1436708E+03  0.7546771E-02  0.1208473E+00
         21   -1    0    0  503  501  0.00000000000E+00  0.00000000000E+00  0.23872329947E+04  0.23872329947E+04  0.00000000000E+00 0. -1.
         21   -1    0    0  505  502 -0.00000000000E+00 -0.00000000000E+00 -0.24180481286E+03  0.24180481286E+03  0.00000000000E+00 0. -1.
         21    1    1    2  503  506 -0.38550122170E+02  0.91648138041E+02 -0.21454765262E+03  0.23646604063E+03  0.00000000000E+00 0. -1.
         21    1    1    2  504  501  0.13188647818E+02 -0.28527754953E+02  0.10259085209E+04  0.10263898219E+04  0.00000000000E+00 0.  1.
         21    1    1    2  505  504  0.24243096184E+02 -0.99121053388E+02  0.13251544667E+04  0.13290775265E+04  0.00000000000E+00 0. -1.
         21    1    1    2  506  502  0.11183781675E+01  0.36000670300E+02  0.89128468418E+01  0.37104418478E+02  0.00000000000E+00 0. -1.
<scales pt_clust_3="132.69288" pt_clust_4="30.56851" pt_clust_5="30.56851" pt_clust_6="36.01804"></scales>
<clustering>
<clus scale="   30.569">  4  5 -1 -1</clus>
<clus scale="   36.018">  2  6  1 -1</clus>
<clus scale="  132.693">  2  3  1 -1</clus>
<clus scale="  143.671">  1  3  2 -1</clus>
</clustering>
</event>
<event>
 6    0  0.8991567E+002  0.1086158E+03  0.7546771E-02  0.1263155E+00
         21   -1    0    0  504  501  0.00000000000E+00  0.00000000000E+00  0.72284463784E+03  0.72284463784E+03  0.00000000000E+00 0. -1.
         21   -1    0    0  503  502 -0.00000000000E+00 -0.00000000000E+00 -0.75471448408E+02  0.75471448408E+02  0.00000000000E+00 0. -1.
         21    1    1    2  503  506  0.42933689031E+02  0.99459754088E+01  0.72097130795E+02  0.84499824554E+02  0.00000000000E+00 0. -1.
         21    1    1    2  504  505 -0.13633922279E+02 -0.13199461737E+03  0.49375966533E+03  0.51127983528E+03  0.00000000000E+00 0. -1.
         21    1    1    2  505  502  0.80596399598E+01  0.10590038438E+03 -0.56285724750E+01  0.10635567702E+03  0.00000000000E+00 0. -1.
         21    1    1    2  506  501 -0.37359406713E+02  0.16148257587E+02  0.87144965777E+02  0.96180749391E+02  0.00000000000E+00 0. -1.
<scales pt_clust_3="40.12000" pt_clust_4="108.61579" pt_clust_5="14000.00000" pt_clust_6="40.70002"></scales>
<clustering>
<clus scale="   40.700">  1  6  2 -1</clus>
<clus scale="   40.120">  1  3  2 -1</clus>
<clus scale="  108.616">  1  4  2 -1</clus>
<clus scale="   40.700">  1  3  2 -1</clus>
</clustering>
</event>
<event>
 6    0  0.8991567E+002  0.9200304E+02  0.7546771E-02  0.1298072E+00
         21   -1    0    0  504  501  0.00000000000E+00  0.00000000000E+00  0.64639017236E+02  0.64639017236E+02  0.00000000000E+00 0.  1.
         21   -1    0    0  506  502 -0.00000000000E+00 -0.00000000000E+00 -0.69024807719E+03  0.69024807719E+03  0.00000000000E+00 0.  1.
         21    1    1    2  503  502 -0.10426525793E+03  0.52247854995E+02 -0.51988924208E+03  0.53280944661E+03  0.00000000000E+00 0.  1.
         21    1    1    2  504  505  0.19275620479E+02 -0.34468552886E+02 -0.16846730580E+02  0.42935335263E+02  0.00000000000E+00 0.  1.
         21    1    1    2  505  503  0.48123620704E+02 -0.39890307378E+02 -0.11351875785E+03  0.12959023063E+03  0.00000000000E+00 0.  1.
         21    1    1    2  506  501  0.36866016752E+02  0.22111005270E+02  0.24645670558E+02  0.49552081918E+02  0.00000000000E+00 0.  1.
<scales pt_clust_3="14000.00000" pt_clust_4="39.49216" pt_clust_5="92.00304" pt_clust_6="50.79644"></scales>
<clustering>
<clus scale="   39.492">  1  4  2 -1</clus>
<clus scale="   50.796">  1  6  2 -1</clus>
<clus scale="   92.003">  1  5  2 -1</clus>
<clus scale="   39.492">  1  3  2 -1</clus>
</clustering>
</event>
<event>
 6    0  0.8991567E+002  0.6858745E+02  0.7546771E-02  0.1364963E+00
         21   -1    0    0  506  501  0.00000000000E+00  0.00000000000E+00  0.27853756853E+03  0.27853756853E+03  0.00000000000E+00 0.  1.
         21   -1    0    0  505  502 -0.00000000000E+00 -0.00000000000E+00 -0.14399856393E+04  0.14399856393E+04  0.00000000000E+00 0.  1.
         21    1    1    2  503  502  0.42927411866E+02  0.34012983385E+02 -0.74887858807E+03  0.75087867555E+03  0.00000000000E+00 0. -1.
         21    1    1    2  504  503 -0.89081360492E+02 -0.28617250094E+02 -0.63754757024E+03  0.64437670668E+03  0.00000000000E+00 0.  1.
         21    1    1    2  505  501 -0.67200323566E+01  0.38487294049E+02 -0.36163590357E+02  0.53237542258E+02  0.00000000000E+00 0.  1.
         21    1    1    2  506  504  0.52873980982E+02 -0.43883027341E+02  0.26114167793E+03  0.27003028331E+03  0.00000000000E+00 0.  1.
<scales pt_clust_3="67.36134" pt_clust_4="68.58745" pt_clust_5="39.06956" pt_clust_6="14000.00000"></scales>
<clustering>
<clus scale="   39.070">  2  5  1 -1</clus>
<clus scale="   67.361">  2  3  1 -1</clus>
<clus scale="   68.587">  2  4  1 -1</clus>
<clus scale="   68.587">  1  3  2 -1</clus>
</clustering>
</event>
<event>
 6    0  0.8991567E+002  0.8776467E+02  0.7546771E-02  0.1308357E+00
         21   -1    0    0  504  501  0.00000000000E+00  0.00000000000E+00  0.47166337055E+03  0.47166337055E+03  0.00000000000E+00 0.  1.
         21   -1    0    0  505  502 -0.00000000000E+00 -0.00000000000E+00 -0.54395834640E+02  0.54395834640E+02  0.00000000000E+00 0.  1.
         21    1    1    2  503  506  0.40202281812E+02  0.33375103273E+01  0.18688124783E+02  0.44459064835E+02  0.00000000000E+00 0.  1.
         21    1    1    2  504  503 -0.15916615475E+02 -0.74206849952E+02  0.23016494093E+03  0.24235489527E+03  0.00000000000E+00 0.  1.
         21    1    1    2  505  501 -0.57789058171E+02  0.98016082835E+02  0.15830613271E+03  0.19495527536E+03  0.00000000000E+00 0.  1.
         21    1    1    2  506  502  0.33503391833E+02 -0.27146743210E+02  0.10108337490E+02  0.44289969723E+02  0.00000000000E+00 0.  1.
<scales pt_clust_3="31.30799" pt_clust_4="75.89463" pt_clust_5="81.57750" pt_clust_6="31.30799"></scales>
<clustering>
<clus scale="   31.308">  3  6 -1 -1</clus>
<clus scale="   75.895">  1  4  2 -1</clus>
<clus scale="   81.577">  1  5  2 -1</clus>
<clus scale="   75.895">  1  3  2 -1</clus>
</clustering>
</event>
<event>
 6    0  0.8991567E+002  0.1050867E+03  0.7546771E-02  0.1269949E+00
         21   -1    0    0  503  501  0.00000000000E+00  0.00000000000E+00  0.15294287087E+03  0.15294287087E+03  0.00000000000E+00 0.  1.
         21   -1    0    0  505  502 -0.00000000000E+00 -0.00000000000E+00 -0.99596918100E+03  0.99596918100E+03  0.00000000000E+00 0.  1.
         21    1    1    2  503  504  0.38022348018E+01 -0.53177374716E+02  0.89836725498E+02  0.10446495785E+03  0.00000000000E+00 0.  1.
         21    1    1    2  504  502 -0.97822301882E+02 -0.11361958861E+03 -0.45321149782E+03  0.47736702381E+03  0.00000000000E+00 0.  1.
         21    1    1    2  505  506  0.92127493935E+01  0.82883260024E+02 -0.42973719210E+03  0.43775399920E+03  0.00000000000E+00 0.  1.
         21    1    1    2  506  501  0.84807317687E+02  0.83913703306E+02 -0.49914345708E+02  0.12932607101E+03  0.00000000000E+00 0.  1.
<scales pt_clust_3="53.31313" pt_clust_4="14000.00000" pt_clust_5="79.62973" pt_clust_6="105.08670"></scales>
<clustering>
<clus scale="   53.313">  1  3  2 -1</clus>
<clus scale="   79.630">  2  5  1 -1</clus>
<clus scale="  105.087">  1  6  2 -1</clus>
<clus scale="   53.313">  1  3  2 -1</clus>
</clustering>
</event>
<event>
 6    0  0.8991567E+002  0.9209525E+02  0.7546771E-02  0.1297856E+00
         21   -1    0    0  504  501  0.00000000000E+00  0.00000000000E+00  0.87944911232E+02  0.87944911232E+02  0.00000000000E+00 0. -1.
         21   -1    0    0  503  502 -0.00000000000E+00 -0.00000000000E+00 -0.11405203813E+04  0.11405203813E+04  0.00000000000E+00 0.  1.
         21    1    1    2  503  505  0.22447135162E+01  0.83687358035E+02 -0.57324690485E+03  0.57932773674E+03  0.00000000000E+00 0.  1.
         21    1    1    2  504  502  0.52000933596E+02 -0.12064154981E+03 -0.37644790370E+03  0.39871230836E+03  0.00000000000E+00 0.  1.
         21    1    1    2  505  506 -0.45654090578E+02 -0.23005759046E+01 -0.16788845515E+03  0.17400035060E+03  0.00000000000E+00 0.  1.
         21    1    1    2  506  501 -0.85915565342E+01  0.39254767680E+02  0.65007793612E+02  0.76424896857E+02  0.00000000000E+00 0. -1.
<scales pt_clust_3="92.09525" pt_clust_4="14000.00000" pt_clust_5="47.40785" pt_clust_6="40.18397"></scales>
<clustering>
<clus scale="   40.184">  1  6  2 -1</clus>
<clus scale="   47.408">  1  5  2 -1</clus>
<clus scale="   92.095">  2  3  1 -1</clus>
<clus scale="   40.184">  1  3  2 -1</clus>
</clustering>
</event>
<event>
 6    0  0.8991567E+002  0.1167639E+03  0.7546771E-02  0.1248533E+00
         21   -1    0    0  504  501  0.00000000000E+00  0.00000000000E+00  0.64459609645E+03  0.64459609645E+03  0.00000000000E+00 0. -1.
         21   -1    0    0  503  502 -0.00000000000E+00 -0.00000000000E+00 -0.10073735053E+03  0.10073735053E+03  0.00000000000E+00 0. -1.
         21    1    1    2  503  506 -0.84873188070E+02 -0.49950646008E+02 -0.44788017797E+02  0.10818729883E+03  0.00000000000E+00 0. -1.
         21    1    1    2  504  505  0.60073137069E+02  0.79004550682E+02  0.22197168430E+03  0.24315001430E+03  0.00000000000E+00 0. -1.
         21    1    1    2  505  502 -0.69891387661E+01 -0.41825846809E+02  0.22282265298E+02  0.47903537122E+02  0.00000000000E+00 0. -1.
         21    1    1    2  506  501  0.31789189768E+02  0.12771942135E+02  0.34439281412E+03  0.34609259672E+03  0.00000000000E+00 0. -1.
<scales pt_clust_3="14000.00000" pt_clust_4="116.76386" pt_clust_5="40.46036" pt_clust_6="34.25894"></scales>
<clustering>
<clus scale="   34.259">  1  6  2 -1</clus>
<clus scale="   40.460">  2  5  1 -1</clus>
<clus scale="  116.764">  1  4  2 -1</clus>
<clus scale="   34.259">  1  3  2 -1</clus>
</clustering>
</event>
<event>
 6    0  0.8991567E+002  0.9742706E+02  0.7546771E-02  0.1285801E+00
         21   -1    0    0  505  501  0.00000000000E+00  0.00000000000E+00  0.19077666557E+04  0.19077666557E+04  0.00000000000E+00 0. -1.
         21   -1    0    0  506  502 -0.00000000000E+00 -0.00000000000E+00 -0.40545833884E+02  0.40545833884E+02  0.00000000000E+00 0. -1.
         21    1    1    2  503  504 -0.63752713456E+02 -0.94217634869E+02  0.48387123052E+03  0.49706411952E+03  0.00000000000E+00 0. -1.
         21    1    1    2  504  501  0.66052193527E+02 -0.12127147036E+02  0.12803434464E+04  0.12821034672E+04  0.00000000000E+00 0. -1.
         21    1    1    2  505  502 -0.21537283688E+02  0.74273010900E+02  0.22761121674E+02  0.80612675161E+02  0.00000000000E+00 0. -1.
         21    1    1    2  506  503  0.19237803616E+02  0.32071771006E+02  0.80245023262E+02  0.88532227701E+02  0.00000000000E+00 0. -1.
<scales pt_clust_3="14000.00000" pt_clust_4="67.47896" pt_clust_5="97.42706" pt_clust_6="37.39909"></scales>
<clustering>
<clus scale="   37.399">  2  6  1 -1</clus>
<clus scale="   67.479">  1  4  2 -1</clus>
<clus scale="   97.427">  2  5  1 -1</clus>
<clus scale="   67.479">  1  3  2 -1</clus>
</clustering>
</event>
<event>
 6    0  0.8991567E+002  0.9849345E+02  0.7546771E-02  0.1283496E+00
         21   -1    0    0  505  501  0.00000000000E+00  0.00000000000E+00  0.40468813770E+03  0.40468813770E+03  0.00000000000E+00 0.  1.
         21   -1    0    0  506  502 -0.00000000000E+00 -0.00000000000E+00 -0.24485568237E+03  0.24485568237E+03  0.00000000000E+00 0.  1.
         21    1    1    2  503  502  0.28665545900E+02 -0.59092320249E+02 -0.11842095138E+03  0.13541468739E+03  0.00000000000E+00 0.  1.
         21    1    1    2  504  501  0.79175946706E+02 -0.87603631399E+02  0.24571072545E+03  0.27261142194E+03  0.00000000000E+00 0.  1.
         21    1    1    2  505  503 -0.41906301117E+01  0.44853615844E+02  0.77300671488E+02  0.89469559335E+02  0.00000000000E+00 0.  1.
         21    1    1    2  506  504 -0.10365086249E+03  0.10184233580E+03 -0.44757990233E+02  0.15204815141E+03  0.00000000000E+00 0.  1.
<scales pt_clust_3="64.56389" pt_clust_4="14000.00000" pt_clust_5="45.04895" pt_clust_6="98.49345"></scales>
<clustering>
<clus scale="   45.049">  1  5  2 -1</clus>
<clus scale="   64.564">  2  3  1 -1</clus>
<clus scale="   98.493">  2  6  1 -1</clus>
<clus scale="   45.049">  1  3  2 -1</clus>
</clustering>
</event>
<event>
 6    0  0.8991567E+002  0.1291564E+03  0.7546771E-02  0.1228713E+00
         21   -1    0    0  503  501  0.00000000000E+00  0.00000000000E+00  0.51411778675E+03  0.51411778675E+03  0.00000000000E+00 0.  1.
         21   -1    0    0  505  502 -0.00000000000E+00 -0.00000000000E+00 -0.20745616246E+03  0.20745616246E+03  0.00000000000E+00 0. -1.
         21    1    1    2  503  506  0.74407927035E+02  0.11041035710E+03  0.30130608367E+03  0.32941211668E+03  0.00000000000E+00 0.  1.
         21    1    1    2  504  501 -0.60058769062E+02 -0.29114521621E+02  0.11276763568E+03  0.13103911922E+03  0.00000000000E+00 0.  1.
         21    1    1    2  505  504 -0.24471844325E+02 -0.45487047652E+02  0.65973920327E+02  0.83788428987E+02  0.00000000000E+00 0.  1.
         21    1    1    2  506  502  0.10122686351E+02 -0.35808787828E+02 -0.17338601538E+03  0.17733428432E+03  0.00000000000E+00 0. -1.
<scales pt_clust_3="123.24714" pt_clust_4="33.97447" pt_clust_5="33.97447" pt_clust_6="37.21207"></scales>
<clustering>
<clus scale="   33.974">  4  5 -1 -1</clus>
<clus scale="   37.212">  2  6  1 -1</clus>
<clus scale="  123.247">  1  3  2 -1</clus>
<clus scale="  123.247">  1  3  2 -1</clus>
</clustering>
</event>
<event>
 6    0  0.8991567E+002  0.8934932E+02  0.7546771E-02  0.1304435E+00
         21   -1    0    0  505  501  0.00000000000E+00  0.00000000000E+00  0.10337166570E+04  0.10337166570E+04  0.00000000000E+00 0.  1.
         21   -1    0    0  503  502 -0.00000000000E+00 -0.00000000000E+00 -0.22021994974E+03  0.22021994974E+03  0.00000000000E+00 0.  1.
         21    1    1    2  503  506 -0.27387816648E+02 -0.69448017969E+02  0.12450620550E+03  0.14517201834E+03  0.00000000000E+00 0.  1.
         21    1    1    2  504  502 -0.38748860034E+02  0.68371514119E+01 -0.20194262513E+03  0.20574023582E+03  0.00000000000E+00 0.  1.
         21    1    1    2  505  504  0.66305343285E+02  0.92931374464E+02  0.62222505877E+03  0.63261098842E+03  0.00000000000E+00 0.  1.
         21    1    1    2  506  501 -0.16866660286E+00 -0.30320507907E+02  0.26870806808E+03  0.27041336413E+03  0.00000000000E+00 0.  1.
<scales pt_clust_3="14000.00000" pt_clust_4="39.33483" pt_clust_5="89.34932" pt_clust_6="30.32098"></scales>
<clustering>
<clus scale="   30.321">  1  6  2 -1</clus>
<clus scale="   39.335">  2  4  1 -1</clus>
<clus scale="   89.349">  1  5  2 -1</clus>
<clus scale="   30.321">  1  3  2 -1</clus>
</clustering>
</event>
<event>
 6    0  0.8991567E+002  0.8992032E+02  0.7546771E-02  0.1303045E+00
         21   -1    0    0  504  501  0.00000000000E+00  0.00000000000E+00  0.66398185131E+02  0.66398185131E+02  0.00000000000E+00 0.  1.
         21   -1    0    0  506  502 -0.00000000000E+00 -0.00000000000E+00 -0.15850741143E+04  0.15850741143E+04  0.00000000000E+00 0. -1.
         21    1    1    2  503  505 -0.11224212133E+03 -0.48102616498E+02 -0.13074111684E+03  0.17890051746E+03  0.00000000000E+00 0.  1.
         21    1    1    2  504  502  0.81369814140E+02  0.38698752945E+02 -0.51184856589E+03  0.51971876485E+03  0.00000000000E+00 0.  1.
         21    1    1    2  505  501  0.71578455439E+02 -0.32030277533E+02 -0.36686385840E+01  0.78503967230E+02  0.00000000000E+00 0.  1.
         21    1    1    2  506  503 -0.40706148248E+02  0.41434141087E+02 -0.87241760786E+03  0.87434904989E+03  0.00000000000E+00 0. -1.
<scales pt_clust_3="14000.00000" pt_clust_4="89.92032" pt_clust_5="75.30609" pt_clust_6="58.08424"></scales>
<clustering>
<clus scale="   58.084">  2  6  1 -1</clus>
<clus scale="   75.306">  1  5  2 -1</clus>
<clus scale="   89.920">  2  4  1 -1</clus>
<clus scale="   75.306">  1  3  2 -1</clus>
</clustering>
</event>
<event>
 6    0  0.8991567E+002  0.7020655E+02  0.7546771E-02  0.1359392E+00
         21   -1    0    0  506  501  0.00000000000E+00  0.00000000000E+00  0.75366925588E+03  0.75366925588E+03  0.00000000000E+00 0. -1.
         21   -1    0    0  504  502 -0.00000000000E+00 -0.00000000000E+00 -0.79265555696E+03  0.79265555696E+03  0.00000000000E+00 0.  1.
         21    1    1    2  503  502  0.33993003393E+02  0.29715233807E+02 -0.34124088836E+03  0.34421485047E+03  0.00000000000E+00 0.  1.
         21    1    1    2  504  505 -0.36581192401E+02 -0.98588680656E+02 -0.42221840548E+03  0.43511641375E+03  0.00000000000E+00 0.  1.
         21    1    1    2  505  501  0.52932531723E+02  0.41102411841E+02  0.70211083582E+03  0.70530198280E+03  0.00000000000E+00 0. -1.
         21    1    1    2  506  503 -0.50344342715E+02  0.27771035009E+02  0.22362156934E+02  0.61691565806E+02  0.00000000000E+00 0.  1.
<scales pt_clust_3="45.14997" pt_clust_4="70.20655" pt_clust_5="14000.00000" pt_clust_6="56.85260"></scales>
<clustering>
<clus scale="   45.150">  2  3  1 -1</clus>
<clus scale="   56.853">  1  6  2 -1</clus>
<clus scale="   70.207">  2  4  1 -1</clus>
<clus scale="   56.853">  1  3  2 -1</clus>
</clustering>
</event>
<event>
 6    0  0.8991567E+002  0.9721170E+02  0.7546771E-02  0.1286271E+00
         21   -1    0    0  503  501  0.00000000000E+00  0.00000000000E+00  0.38542197182E+02  0.38542197182E+02  0.00000000000E+00 0.  1.
         21   -1    0    0  504  502 -0.00000000000E+00 -0.00000000000E+00 -0.23507815326E+04  0.23507815326E+04  0.00000000000E+00 0. -1.
         21    1    1    2  503  502 -0.15287624973E+02 -0.47847174349E+02 -0.85129439192E+02  0.98843740255E+02  0.00000000000E+00 0.  1.
         21    1    1    2  504  505 -0.41504528071E+02  0.16993343016E+02 -0.18661480356E+04  0.18666868753E+04  0.00000000000E+00 0. -1.
         21    1    1    2  505  506 -0.55309382986E+02  0.17244120694E+01 -0.27247097366E+03  0.27803333061E+03  0.00000000000E+00 0.  1.
         21    1    1    2  506  501  0.11210153603E+03  0.29129419263E+02 -0.88490886933E+02  0.14575978361E+03  0.00000000000E+00 0.  1.
<scales pt_clust_3="50.27703" pt_clust_4="44.84863" pt_clust_5="14000.00000" pt_clust_6="97.21170"></scales>
<clustering>
<clus scale="   44.849">  2  4  1 -1</clus>
<clus scale="   50.277">  2  3  1 -1</clus>
<clus scale="   97.212">  1  6  2 -1</clus>
<clus scale="   97.212">  1  3  2 -1</clus>
</clustering>
</event>
<event>
 6    0  0.8991567E+002  0.1031702E+03  0.7546771E-02  0.1273767E+00
         21   -1    0    0  506  501  0.00000000000E+00  0.00000000000E+00  0.19547477346E+04  0.19547477346E+04  0.00000000000E+00 0. -1.
         21   -1    0    0  504  502 -0.00000000000E+00 -0.00000000000E+00 -0.17559988097E+03  0.17559988097E+03  0.00000000000E+00 0.  1.
         21    1    1    2  503  502  0.90097518107E+02 -0.51207540516E+02 -0.14683726985E+03  0.17972467497E+03  0.00000000000E+00 0.  1.
         21    1    1    2  504  505 -0.10294538881E+03 -0.99107602890E+01  0.64060849330E+03  0.64890308824E+03  0.00000000000E+00 0. -1.
         21    1    1    2  505  501 -0.22900711328E+02  0.20649730291E+02  0.12019373290E+04  0.12023328145E+04  0.00000000000E+00 0. -1.
         21    1    1    2  506  503  0.35748582028E+02  0.40468570514E+02  0.83439301184E+02  0.99387037880E+02  0.00000000000E+00 0.  1.
<scales pt_clust_3="14000.00000" pt_clust_4="103.17022" pt_clust_5="30.83592" pt_clust_6="54.16478"></scales>
<clustering>
<clus scale="   30.836">  1  5  2 -1</clus>
<clus scale="   54.165">  1  6  2 -1</clus>
<clus scale="  103.170">  1  4  2 -1</clus>
<clus scale="   30.836">  1  3  2 -1</clus>
</clustering>
</event>
<event>
 6    0  0.8991567E+002  0.7328434E+02  0.7546771E-02  0.1349268E+00
         21   -1    0    0  505  501  0.00000000000E+00  0.00000000000E+00  0.28092162552E+02  0.28092162552E+02  0.00000000000E+00 0.  1.
         21   -1    0    0  504  502 -0.00000000000E+00 -0.00000000000E+00 -0.12817792732E+04  0.12817792732E+04  0.00000000000E+00 0.  1.
         21    1    1    2  503  501 -0.74652919534E+02  0.32405810076E+02 -0.38705690185E+03  0.39552021464E+03  0.00000000000E+00 0.  1.
         21    1    1    2  504  503 -0.16372758184E+02 -0.55867271177E+02 -0.24457709644E+03  0.25141037231E+03  0.00000000000E+00 0.  1.
         21    1    1    2  505  506  0.36437926602E+02 -0.65005789345E+02 -0.73659997776E+02  0.10478201380E+03  0.00000000000E+00 0.  1.
         21    1    1    2  506  502  0.54587751116E+02  0.88467250446E+02 -0.54839311462E+03  0.55815883504E+03  0.00000000000E+00 0.  1.
<scales pt_clust_3="73.28434" pt_clust_4="58.21700" pt_clust_5="14000.00000" pt_clust_6="74.36455"></scales>
<clustering>
<clus scale="   58.217">  2  4  1 -1</clus>
<clus scale="   74.365">  2  6  1 -1</clus>
<clus scale="   73.284">  2  3  1 -1</clus>
<clus scale="   73.284">  1  3  2 -1</clus>
</clustering>
</event>
<event>
 6    0  0.8991567E+002  0.8532043E+02  0.7546771E-02  0.1314597E+00
         21   -1    0    0  504  501  0.00000000000E+00  0.00000000000E+00  0.12574882752E+03  0.12574882752E+03  0.00000000000E+00 0.  1.
         21   -1    0    0  503  502 -0.00000000000E+00 -0.00000000000E+00 -0.99145775534E+03  0.99145775534E+03  0.00000000000E+00 0.  1.
         21    1    1    2  503  505  0.72476464902E+02  0.29824147011E+01 -0.28217582708E+03  0.29135018474E+03  0.00000000000E+00 0.  1.
         21    1    1    2  504  506 -0.62906994177E+02  0.56522113297E+01 -0.64162477489E+01  0.63485475855E+02  0.00000000000E+00 0.  1.
         21    1    1    2  505  501 -0.23246906844E+02  0.53390117642E+02  0.81794464004E+02  0.10040546639E+03  0.00000000000E+00 0.  1.
         21    1    1    2  506  502  0.13677436119E+02 -0.62024743673E+02 -0.65891131700E+03  0.66196545586E+03  0.00000000000E+00 0.  1.
<scales pt_clust_3="85.32043" pt_clust_4="14000.00000" pt_clust_5="58.23164" pt_clust_6="60.99842"></scales>
<clustering>
<clus scale="   58.232">  1  5  2 -1</clus>
<clus scale="   60.998">  2  6  1 -1</clus>
<clus scale="   85.320">  2  3  1 -1</clus>
<clus scale="   58.232">  1  3  2 -1</clus>
</clustering>
</event>
<event>
 6    0  0.8991567E+002  0.1321015E+03  0.7546771E-02  0.1224370E+00
         21   -1    0    0  506  501  0.00000000000E+00  0.00000000000E+00  0.62975616869E+03  0.62975616869E+03  0.00000000000E+00 0.  1.
         21   -1    0    0  504  502 -0.00000000000E+00 -0.00000000000E+00 -0.14689659188E+03  0.14689659188E+03  0.00000000000E+00 0.  1.
         21    1    1    2  503  501  0.35477872271E+02 -0.19620473832E+02  0.21279312239E+03  0.21662076389E+03  0.00000000000E+00 0.  1.
         21    1    1    2  504  503 -0.13767948602E+03  0.20121071555E+02 -0.45780914826E+02  0.14648000052E+03  0.00000000000E+00 0.  1.
         21    1    1    2  505  502  0.11956116521E+03  0.67175683214E+02  0.62433320178E+02  0.15068299210E+03  0.00000000000E+00 0.  1.
         21    1    1    2  506  505 -0.17359551461E+02 -0.67676280938E+02  0.25341404907E+03  0.26286900406E+03  0.00000000000E+00 0.  1.
<scales pt_clust_3="40.54186" pt_clust_4="132.10147" pt_clust_5="14000.00000" pt_clust_6="80.01782"></scales>
<clustering>
<clus scale="   40.542">  1  3  2 -1</clus>
<clus scale="   80.018">  1  6  2 -1</clus>
<clus scale="  132.101">  2  4  1 -1</clus>
<clus scale="   40.542">  1  3  2 -1</clus>
</clustering>
</event>
<event>
 6    0  0.8991567E+002  0.9712048E+02  0.7546771E-02  0.1286470E+00
         21   -1    0    0  506  501  0.00000000000E+00  0.00000000000E+00  0.82204908102E+03  0.82204908102E+03  0.00000000000E+00 0. -1.
         21   -1    0    0  503  502 -0.00000000000E+00 -0.00000000000E+00 -0.46217694453E+02  0.46217694453E+02  0.00000000000E+00 0. -1.
         21    1    1    2  503  504  0.21631693901E+02  0.11967666938E+03  0.14258452645E+03  0.18740539629E+03  0.00000000000E+00 0. -1.
         21    1    1    2  504  501  0.20854830394E+02  0.28475109708E+02  0.12820863397E+03  0.13297822997E+03  0.00000000000E+00 0. -1.
         21    1    1    2  505  502 -0.22920405539E+02 -0.80170555436E+02  0.75267334042E+02  0.11232913479E+03  0.00000000000E+00 0. -1.
         21    1    1    2  506  505 -0.19566118756E+02 -0.67981223652E+02  0.42977089211E+03  0.43555401442E+03  0.00000000000E+00 0. -1.
<scales pt_clust_3="14000.00000" pt_clust_4="35.29527" pt_clust_5="97.12048" pt_clust_6="50.58510"></scales>
<clustering>
<clus scale="   35.295">  1  4  2 -1</clus>
<clus scale="   50.585">  1  6  2 -1</clus>
<clus scale="   97.120">  2  5  1 -1</clus>
<clus scale="   35.295">  1  3  2 -1</clus>
</clustering>
</event>
<event>
 6    0  0.8991567E+002  0.1244697E+03  0.7546771E-02  0.1235900E+00
         21   -1    0    0  505  501  0.00000000000E+00  0.00000000000E+00  0.47226825328E+03  0.47226825328E+03  0.00000000000E+00 0.  1.
         21   -1    0    0  506  502 -0.00000000000E+00 -0.00000000000E+00 -0.13175825828E+03  0.13175825828E+03  0.00000000000E+00 0. -1.
         21    1    1    2  503  501 -0.35642218508E+02 -0.55939705026E+02  0.30577706285E+03  0.31288852728E+03  0.00000000000E+00 0.  1.
         21    1    1    2  504  502  0.58090041759E+02 -0.12783252801E+02  0.27785025285E+02  0.65649616403E+02  0.00000000000E+00 0.  1.
         21    1    1    2  505  504  0.80816134738E+02  0.49296691304E+02  0.55503857929E+02  0.10973645544E+03  0.00000000000E+00 0.  1.
         21    1    1    2  506  503 -0.10326395799E+03  0.19426266522E+02 -0.48555951064E+02  0.11575191244E+03  0.00000000000E+00 0. -1.
<scales pt_clust_3="66.32962" pt_clust_4="44.80557" pt_clust_5="44.80557" pt_clust_6="110.89466"></scales>
<clustering>
<clus scale="   44.806">  4  5 -1 -1</clus>
<clus scale="   66.330">  1  3  2 -1</clus>
<clus scale="  110.895">  2  6  1 -1</clus>
<clus scale="   66.330">  1  3  2 -1</clus>
</clustering>
</event>
<event>
 6    0  0.8991567E+002  0.1574414E+03  0.7546771E-02  0.1191616E+00
         21   -1    0    0  503  501  0.00000000000E+00  0.00000000000E+00  0.35417250896E+03  0.35417250896E+03  0.00000000000E+00 0.  1.
         21   -1    0    0  504  502 -0.00000000000E+00 -0.00000000000E+00 -0.15224414137E+03  0.15224414137E+03  0.00000000000E+00 0.  1.
         21    1    1    2  503  506  0.14324248432E+03  0.11237231971E+03  0.80901171167E+02  0.19922586942E+03  0.00000000000E+00 0.  1.
         21    1    1    2  504  505 -0.85809888928E+02 -0.11668514076E+03  0.34447691079E+02  0.14888049749E+03  0.00000000000E+00 0.  1.
         21    1    1    2  505  501 -0.19977084555E+02 -0.48085156793E+02  0.77350917745E+02  0.93243931101E+02  0.00000000000E+00 0.  1.
         21    1    1    2  506  502 -0.37455510840E+02  0.52397977849E+02  0.92285875946E+01  0.65066352317E+02  0.00000000000E+00 0.  1.
<scales pt_clust_3="14000.00000" pt_clust_4="157.44141" pt_clust_5="52.06982" pt_clust_6="60.91609"></scales>
<clustering>
<clus scale="   52.070">  1  5  2 -1</clus>
<clus scale="   60.916">  2  6  1 -1</clus>
<clus scale="  157.441">  2  4  1 -1</clus>
<clus scale="   52.070">  1  3  2 -1</clus>
</clustering>
</event>
<event>
 6    0  0.8991567E+002  0.7837210E+02  0.7546771E-02  0.1333736E+00
         21   -1    0    0  505  501  0.00000000000E+00  0.00000000000E+00  0.55094683274E+02  0.55094683274E+02  0.00000000000E+00 0.  1.
         21   -1    0    0  504  502 -0.00000000000E+00 -0.00000000000E+00 -0.14187751864E+04  0.14187751864E+04  0.00000000000E+00 0. -1.
         21    1    1    2  503  502 -0.11504501671E+03 -0.43895424937E+02 -0.21585316317E+03  0.24850503466E+03  0.00000000000E+00 0.  1.
         21    1    1    2  504  506  0.51131783464E+02  0.16283876258E+02 -0.10787077548E+04  0.10800416863E+04  0.00000000000E+00 0. -1.
         21    1    1    2  505  503  0.49798092446E+02 -0.89778648582E+01  0.14775699304E+02  0.52714071733E+02  0.00000000000E+00 0.  1.
         21    1    1    2  506  501  0.14115140798E+02  0.36589413537E+02 -0.83895284447E+02  0.92609076959E+02  0.00000000000E+00 0. -1.
<scales pt_clust_3="14000.00000" pt_clust_4="53.98638" pt_clust_5="78.37210" pt_clust_6="39.21763"></scales>
<clustering>
<clus scale="   39.218">  1  6  2 -1</clus>
<clus scale="   53.986">  2  4  1 -1</clus>
<clus scale="   78.372">  1  5  2 -1</clus>
<clus scale="   39.218">  1  3  2 -1</clus>
</clustering>
</event>
<event>
 6    0  0.8991567E+002  0.1060432E+03  0.7546771E-02  0.1268078E+00
         21   -1    0    0  505  501  0.00000000000E+00  0.00000000000E+00  0.23534706625E+04  0.23534706625E+04  0.00000000000E+00 0. -1.
         21   -1    0    0  503  502 -0.00000000000E+00 -0.00000000000E+00 -0.21937873024E+04  0.21937873024E+04  0.00000000000E+00 0.  1.
         21    1    1    2  503  504  0.29408278162E+02  0.23733895872E+02 -0.13323602074E+04  0.13328960450E+04  0.00000000000E+00 0.  1.
         21    1    1    2  504  506 -0.36213484941E+02  0.14553495858E+02 -0.85565417523E+03  0.85654380409E+03  0.00000000000E+00 0.  1.
         21    1    1    2  505  502 -0.10118682725E+03 -0.36576385579E+02  0.13539165321E+04  0.13581850323E+04  0.00000000000E+00 0. -1.
         21    1    1    2  506  501  0.10799203403E+03 -0.17110061507E+01  0.99378121064E+03  0.99963308348E+03  0.00000000000E+00 0. -1.
<scales pt_clust_3="37.79080" pt_clust_4="38.78089" pt_clust_5="106.04325" pt_clust_6="14000.00000"></scales>
<clustering>
<clus scale="   37.791">  2  3  1 -1</clus>
<clus scale="   38.781">  2  4  1 -1</clus>
<clus scale="  106.043">  1  5  2 -1</clus>
<clus scale="  106.043">  1  3  2 -1</clus>
</clustering>
</event>
<event>
 6    0  0.8991567E+002  0.7924918E+02  0.7546771E-02  0.1331196E+00
         21   -1    0    0  503  501  0.00000000000E+00  0.00000000000E+00  0.17074748471E+03  0.17074748471E+03  0.00000000000E+00 0. -1.
         21   -1    0    0  506  502 -0.00000000000E+00 -0.00000000000E+00 -0.30153137118E+03  0.30153137118E+03  0.00000000000E+00 0. -1.
         21    1    1    2  503  502  0.37263907521E+02  0.82477711405E+02 -0.89231298532E+02  0.12709601221E+03  0.00000000000E+00 0. -1.
         21    1    1    2  504  505  0.53443158094E+02 -0.71322504141E+02 -0.14575520192E+03  0.17084393355E+03  0.00000000000E+00 0. -1.
         21    1    1    2  505  501 -0.64038030439E+02  0.15628332963E+02  0.11712004626E+03  0.13439575651E+03  0.00000000000E+00 0. -1.
         21    1    1    2  506  504 -0.26669035176E+02 -0.26783540227E+02 -0.12917432276E+02  0.39943153617E+02  0.00000000000E+00 0. -1.
<scales pt_clust_3="79.24918" pt_clust_4="14000.00000" pt_clust_5="66.53935" pt_clust_6="37.79677"></scales>
<clustering>
<clus scale="   37.797">  2  6  1 -1</clus>
<clus scale="   66.539">  1  5  2 -1</clus>
<clus scale="   79.249">  1  3  2 -1</clus>
<clus scale="   66.539">  1  3  2 -1</clus>
</clustering>
</event>
<event>
 6    0  0.8991567E+002  0.1436622E+03  0.7546771E-02  0.1208484E+00
         21   -1    0    0  503  501  0.00000000000E+00  0.00000000000E+00  0.11292315167E+03  0.11292315167E+03  0.00000000000E+00 0.  1.
         21   -1    0    0  505  502 -0.00000000000E+00 -0.00000000000E+00 -0.84913503076E+03  0.84913503076E+03  0.00000000000E+00 0. -1.
         21    1    1    2  503  506 -0.29300716737E+02  0.70333492459E+02  0.52025257526E+02  0.92260281722E+02  0.00000000000E+00 0.  1.
         21    1    1    2  504  502 -0.30808652463E+02  0.13244361023E+02 -0.23911956577E+03  0.24145962996E+03  0.00000000000E+00 0. -1.
         21    1    1    2  505  501  0.57051332104E+02 -0.18666170523E+03 -0.41961066117E+03  0.46278564548E+03  0.00000000000E+00 0. -1.
         21    1    1    2  506  504  0.30580370968E+01  0.10308385174E+03 -0.12950690968E+03  0.16555262528E+03  0.00000000000E+00 0.  1.
<scales pt_clust_3="76.99204" pt_clust_4="33.53485" pt_clust_5="143.66224" pt_clust_6="14000.00000"></scales>
<clustering>
<clus scale="   33.535">  2  4  1 -1</clus>
<clus scale="   76.992">  1  3  2 -1</clus>
<clus scale="  143.662">  2  5  1 -1</clus>
<clus scale="   76.992">  1  3  2 -1</clus>
</clustering>
</event>
<event>
 6    0  0.8991567E+002  0.9393694E+02  0.7546771E-02  0.1293588E+00
         21   -1    0    0  506  501  0.00000000000E+00  0.00000000000E+00  0.25674811589E+04  0.25674811589E+04  0.00000000000E+00 0. -1.
         21   -1    0    0  504  502 -0.00000000000E+00 -0.00000000000E+00 -0.53989128355E+02  0.53989128355E+02  0.00000000000E+00 0. -1.
         21    1    1    2  503  501  0.36911246350E+02  0.83083175098E+01  0.72680463334E+03  0.72778873534E+03  0.00000000000E+00 0. -1.
         21    1    1    2  504  503  0.28404734757E+02 -0.49436469617E+02 -0.30405988187E+02  0.64616697551E+02  0.00000000000E+00 0. -1.
         21    1    1    2  505  502  0.58856046481E+02  0.57728433525E+02  0.62726082393E+03  0.63265531491E+03  0.00000000000E+00 0. -1.
         21    1    1    2  506  505 -0.12417202759E+03 -0.16600281418E+02  0.11898325615E+04  0.11964095395E+04  0.00000000000E+00 0. -1.
<scales pt_clust_3="37.83475" pt_clust_4="57.12069" pt_clust_5="14000.00000" pt_clust_6="93.93694"></scales>
<clustering>
<clus scale="   37.835">  1  3  2 -1</clus>
<clus scale="   57.121">  2  4  1 -1</clus>
<clus scale="   93.937">  1  6  2 -1</clus>
<clus scale="   37.835">  1  3  2 -1</clus>
</clustering>
</event>
<event>
 6    0  0.8991567E+002  0.9699652E+02  0.7546771E-02  0.1286742E+00
         21   -1    0    0  506  501  0.00000000000E+00  0.00000000000E+00  0.70060537909E+02  0.70060537909E+02  0.00000000000E+00 0. -1.
         21   -1    0    0  504  502 -0.00000000000E+00 -0.00000000000E+00 -0.48890547370E+03  0.48890547370E+03  0.00000000000E+00 0.  1.
         21    1    1    2  503  502  0.40547292083E+02  0.20505683760E+02 -0.43842948679E+02  0.63140875117E+02  0.00000000000E+00 0. -1.
         21    1    1    2  504  501  0.17654123469E+02 -0.26695012018E+02 -0.26039667011E+03  0.26235608921E+03  0.00000000000E+00 0.  1.
         21    1    1    2  505  503  0.43162417812E+02 -0.58239603683E+02 -0.81101866531E+02  0.10877664503E+03  0.00000000000E+00 0. -1.
         21    1    1    2  506  505 -0.10136383336E+03  0.64428931941E+02 -0.33503450467E+02  0.12469240225E+03  0.00000000000E+00 0. -1.
<scales pt_clust_3="46.90815" pt_clust_4="32.00456" pt_clust_5="14000.00000" pt_clust_6="96.99652"></scales>
<clustering>
<clus scale="   32.005">  2  4  1 -1</clus>
<clus scale="   46.908">  2  3  1 -1</clus>
<clus scale="   96.997">  1  6  2 -1</clus>
<clus scale="   96.997">  1  3  2 -1</clus>
</clustering>
</event>
<event>
 6    0  0.8991567E+002  0.8405876E+02  0.7546771E-02  0.1317912E+00
         21   -1    0    0  503  501  0.00000000000E+00  0.00000000000E+00  0.19639790780E+03  0.19639790780E+03  0.00000000000E+00 0.  1.
         21   -1    0    0  505  502 -0.00000000000E+00 -0.00000000000E+00 -0.73331191681E+03  0.73331191681E+03  0.00000000000E+00 0. -1.
         21    1    1    2  503  504 -0.42699482889E+02  0.44512478129E+02  0.13967524749E+03  0.15268851073E+03  0.00000000000E+00 0.  1.
         21    1    1    2  504  502  0.11182219709E+03 -0.13122745930E+02 -0.55442173725E+03  0.56573834319E+03  0.00000000000E+00 0. -1.
         21    1    1    2  505  506 -0.57833277189E+02  0.47610984881E+00 -0.15421328405E+03  0.16470170493E+03  0.00000000000E+00 0.  1.
         21    1    1    2  506  501 -0.11289437010E+02 -0.31865842048E+02  0.32045764802E+02  0.46581265753E+02  0.00000000000E+00 0.  1.
<scales pt_clust_3="55.24111" pt_clust_4="14000.00000" pt_clust_5="84.05876" pt_clust_6="33.80656"></scales>
<clustering>
<clus scale="   33.807">  1  6  2 -1</clus>
<clus scale="   55.241">  1  3  2 -1</clus>
<clus scale="   84.059">  2  5  1 -1</clus>
<clus scale="   33.807">  1  3  2 -1</clus>
</clustering>
</event>
<event>
 6    0  0.8991567E+002  0.7166859E+02  0.7546771E-02  0.1354509E+00
         21   -1    0    0  505  501  0.00000000000E+00  0.00000000000E+00  0.11624755501E+04  0.11624755501E+04  0.00000000000E+00 0. -1.
         21   -1    0    0  506  502 -0.00000000000E+00 -0.00000000000E+00 -0.52723775807E+02  0.52723775807E+02  0.00000000000E+00 0.  1.
         21    1    1    2  503  502 -0.10579882904E+03  0.18806091198E+01  0.49960250830E+02  0.11701690296E+03  0.00000000000E+00 0.  1.
         21    1    1    2  504  501  0.67163777370E+02  0.39029641907E+02  0.87268030859E+03  0.87613081611E+03  0.00000000000E+00 0. -1.
         21    1    1    2  505  503 -0.41789654920E+00 -0.47585922970E+02  0.17389062212E+03  0.18028461711E+03  0.00000000000E+00 0. -1.
         21    1    1    2  506  504  0.39052948217E+02  0.66756719433E+01  0.13220592791E+02  0.41766989766E+02  0.00000000000E+00 0. -1.
<scales pt_clust_3="14000.00000" pt_clust_4="71.66859" pt_clust_5="47.11589" pt_clust_6="39.61941"></scales>
<clustering>
<clus scale="   39.619">  2  6  1 -1</clus>
<clus scale="   47.116">  1  5  2 -1</clus>
<clus scale="   71.669">  1  4  2 -1</clus>
<clus scale="   47.116">  1  3  2 -1</clus>
</clustering>
</event>
<event>
 6    0  0.8991567E+002  0.9663958E+02  0.7546771E-02  0.1287525E+00
         21   -1    0    0  503  501  0.00000000000E+00  0.00000000000E+00  0.59903258705E+02  0.59903258705E+02  0.00000000000E+00 0. -1.
         21   -1    0    0  504  502 -0.00000000000E+00 -0.00000000000E+00 -0.17349036983E+04  0.17349036983E+04  0.00000000000E+00 0. -1.
         21    1    1    2  503  506  0.61809553200E+02  0.22288273273E+02  0.12063845625E+02  0.66803625378E+02  0.00000000000E+00 0. -1.
         21    1    1    2  504  501  0.29045491007E+02 -0.27185557511E+02 -0.16692251784E+03  0.17159784978E+03  0.00000000000E+00 0. -1.
         21    1    1    2  505  502 -0.12249251081E+03  0.70622704744E+02 -0.14442049634E+04  0.14511099056E+04  0.00000000000E+00 0. -1.
         21    1    1    2  506  505  0.31637466600E+02 -0.65725420506E+02 -0.75936803975E+02  0.10529557631E+03  0.00000000000E+00 0. -1.
<scales pt_clust_3="66.02466" pt_clust_4="39.78310" pt_clust_5="96.63958" pt_clust_6="14000.00000"></scales>
<clustering>
<clus scale="   39.783">  2  4  1 -1</clus>
<clus scale="   66.025">  1  3  2 -1</clus>
<clus scale="   96.640">  2  5  1 -1</clus>
<clus scale="   66.025">  1  3  2 -1</clus>
</clustering>
</event>
<event>
 6    0  0.8991567E+002  0.1140754E+03  0.7546771E-02  0.1253204E+00
         21   -1    0    0  504  501  0.00000000000E+00  0.00000000000E+00  0.13659750994E+04  0.13659750994E+04  0.00000000000E+00 0.  1.
         21   -1    0    0  505  502 -0.00000000000E+00 -0.00000000000E+00 -0.56541250874E+02  0.56541250874E+02  0.00000000000E+00 0. -1.
         21    1    1    2  503  501  0.29413622990E+01  0.52507980970E+02  0.37876489367E+03  0.38239846280E+03  0.00000000000E+00 0.  1.
         21    1    1    2  504  502  0.14927079774E+03  0.15295034892E+02  0.96321488592E+02  0.17830742642E+03  0.00000000000E+00 0. -1.
         21    1    1    2  505  506 -0.45555010585E+02  0.56644636806E+01  0.54388603677E+02  0.71172082646E+02  0.00000000000E+00 0. -1.
         21    1    1    2  506  503 -0.10665714946E+03 -0.73467479542E+02  0.77995886259E+03  0.79063837841E+03  0.00000000000E+00 0.  1.
<scales pt_clust_3="52.73588" pt_clust_4="14000.00000" pt_clust_5="45.90583" pt_clust_6="114.07540"></scales>
<clustering>
<clus scale="   45.906">  2  5  1 -1</clus>
<clus scale="   52.736">  1  3  2 -1</clus>
<clus scale="  114.075">  1  6  2 -1</clus>
<clus scale="   52.736">  1  3  2 -1</clus>
</clustering>
</event>
<event>
 6    0  0.8991567E+002  0.9570618E+02  0.7546771E-02  0.1289593E+00
         21   -1    0    0  503  501  0.00000000000E+00  0.00000000000E+00  0.28901185151E+04  0.28901185151E+04  0.00000000000E+00 0.  1.
         21   -1    0    0  504  502 -0.00000000000E+00 -0.00000000000E+00 -0.41462299042E+02  0.41462299042E+02  0.00000000000E+00 0. -1.
         21    1    1    2  503  506  0.28311540258E+02  0.38368610464E+02  0.25196890548E+03  0.25644107103E+03  0.00000000000E+00 0. -1.
         21    1    1    2  504  505 -0.38748298344E+02 -0.17094577657E+03  0.20050030860E+04  0.20126503084E+04  0.00000000000E+00 0.  1.
         21    1    1    2  505  501  0.54061657513E+01  0.39417125400E+02  0.56367855897E+03  0.56508092716E+03  0.00000000000E+00 0.  1.
         21    1    1    2  506  502  0.50305923344E+01  0.93160040704E+02  0.28005665693E+02  0.97408507607E+02  0.00000000000E+00 0. -1.
<scales pt_clust_3="51.54291" pt_clust_4="95.70618" pt_clust_5="39.78613" pt_clust_6="14000.00000"></scales>
<clustering>
<clus scale="   39.786">  1  5  2 -1</clus>
<clus scale="   51.543">  1  3  2 -1</clus>
<clus scale="   95.706">  1  4  2 -1</clus>
<clus scale="   39.786">  1  3  2 -1</clus>
</clustering>
</event>
<event>
 6    0  0.8991567E+002  0.1062812E+03  0.7546771E-02  0.1267616E+00
         21   -1    0    0  503  501  0.00000000000E+00  0.00000000000E+00  0.19366200242E+03  0.19366200242E+03  0.00000000000E+00 0. -1.
         21   -1    0    0  506  502 -0.00000000000E+00 -0.00000000000E+00 -0.10544873400E+04  0.10544873400E+04  0.00000000000E+00 0. -1.
         21    1    1    2  503  502 -0.30868918523E+02  0.59431762233E+01 -0.84064266817E+03  0.84123023425E+03  0.00000000000E+00 0. -1.
         21    1    1    2  504  505  0.86107849174E+02 -0.54258944590E+02 -0.11092569376E+03  0.15054269924E+03  0.00000000000E+00 0. -1.
         21    1    1    2  505  501 -0.10625067909E+03  0.18499692785E+02  0.14189177926E+03  0.17822660424E+03  0.00000000000E+00 0. -1.
         21    1    1    2  506  504  0.51011748440E+02  0.29816075582E+02 -0.51148754880E+02  0.78149804656E+02  0.00000000000E+00 0.  1.
<scales pt_clust_3="31.43583" pt_clust_4="106.28124" pt_clust_5="14000.00000" pt_clust_6="52.30331"></scales>
<clustering>
<clus scale="   31.436">  2  3  1 -1</clus>
<clus scale="   52.303">  2  6  1 -1</clus>
<clus scale="  106.281">  2  4  1 -1</clus>
<clus scale="  106.281">  1  3  2 -1</clus>
</clustering>
</event>
<event>
 6    0  0.8991567E+002  0.1022293E+03  0.7546771E-02  0.1275677E+00
         21   -1    0    0  506  501  0.00000000000E+00  0.00000000000E+00  0.45931581670E+03  0.45931581670E+03  0.00000000000E+00 0.  1.
         21   -1    0    0  505  502 -0.00000000000E+00 -0.00000000000E+00 -0.13086513902E+04  0.13086513902E+04  0.00000000000E+00 0. -1.
         21    1    1    2  503  501 -0.48411489510E+02 -0.70966503467E+01  0.41273891233E+03  0.41562897458E+03  0.00000000000E+00 0.  1.
         21    1    1    2  504  502  0.96550900034E+02  0.72785649376E+02 -0.26230764292E+03  0.28883408141E+03  0.00000000000E+00 0.  1.
         21    1    1    2  505  503  0.10017113488E+02 -0.29288963974E+02 -0.99418723841E+03  0.99466901580E+03  0.00000000000E+00 0. -1.
         21    1    1    2  506  504 -0.58156524012E+02 -0.36400035055E+02 -0.55796044941E+01  0.68835135095E+02  0.00000000000E+00 0. -1.
<scales pt_clust_3="48.90303" pt_clust_4="14000.00000" pt_clust_5="30.95458" pt_clust_6="102.22929"></scales>
<clustering>
<clus scale="   30.955">  2  5  1 -1</clus>
<clus scale="   48.903">  1  3  2 -1</clus>
<clus scale="  102.229">  1  6  2 -1</clus>
<clus scale="   48.903">  1  3  2 -1</clus>
</clustering>
</event>
<event>
 6    0  0.8991567E+002  0.8178935E+02  0.7546771E-02  0.1324049E+00
         21   -1    0    0  505  501  0.00000000000E+00  0.00000000000E+00  0.57039427480E+03  0.57039427480E+03  0.00000000000E+00 0.  1.
         21   -1    0    0  504  502 -0.00000000000E+00 -0.00000000000E+00 -0.93465049962E+02  0.93465049962E+02  0.00000000000E+00 0. -1.
         21    1    1    2  503  506  0.11554807749E+03 -0.33813753969E+02  0.35596104996E+03  0.37576987274E+03  0.00000000000E+00 0.  1.
         21    1    1    2  504  501 -0.43888019745E+02  0.18846426734E+01 -0.57374537704E+02  0.72260277690E+02  0.00000000000E+00 0. -1.
         21    1    1    2  505  503 -0.44827314502E+02 -0.28816066719E+02  0.98387616232E+02  0.11189270242E+03  0.00000000000E+00 0.  1.
         21    1    1    2  506  502 -0.26832743242E+02  0.60745178015E+02  0.79955096353E+02  0.10393647192E+03  0.00000000000E+00 0.  1.
<scales pt_clust_3="14000.00000" pt_clust_4="43.92847" pt_clust_5="62.03974" pt_clust_6="81.78935"></scales>
<clustering>
<clus scale="   43.928">  2  4  1 -1</clus>
<clus scale="   62.040">  1  5  2 -1</clus>
<clus scale="   81.789">  2  6  1 -1</clus>
<clus scale="   62.040">  1  3  2 -1</clus>
</clustering>
</event>
<event>
 6    0  0.8991567E+002  0.1036240E+03  0.7546771E-02  0.1272855E+00
         21   -1    0    0  503  501  0.00000000000E+00  0.00000000000E+00  0.39765972999E+03  0.39765972999E+03  0.00000000000E+00 0. -1.
         21   -1    0    0  506  502 -0.00000000000E+00 -0.00000000000E+00 -0.14097771125E+03  0.14097771125E+03  0.00000000000E+00 0. -1.
         21    1    1    2  503  504 -0.25409512748E+02  0.14506430733E+03  0.16070085374E+03  0.21797720292E+03  0.00000000000E+00 0. -1.
         21    1    1    2  504  502 -0.49258547370E+01 -0.31374718950E+02 -0.57585364405E+02  0.65762536658E+02  0.00000000000E+00 0. -1.
         21    1    1    2  505  501  0.39146428004E+02 -0.38200183082E+02  0.16875091881E+03  0.17739382575E+03  0.00000000000E+00 0. -1.
         21    1    1    2  506  505 -0.88110605191E+01 -0.75489405302E+02 -0.15184389400E+02  0.77503875914E+02  0.00000000000E+00 0. -1.
<scales pt_clust_3="103.62401" pt_clust_4="31.75905" pt_clust_5="55.71622" pt_clust_6="14000.00000"></scales>
<clustering>
<clus scale="   31.759">  2  4  1 -1</clus>
<clus scale="   55.716">  1  5  2 -1</clus>
<clus scale="  103.624">  1  3  2 -1</clus>
<clus scale="   55.716">  1  3  2 -1</clus>
</clustering>
</event>
<event>
 6    0  0.8991567E+002  0.1311860E+03  0.7546771E-02  0.1225706E+00
         21   -1    0    0  505  501  0.00000000000E+00  0.00000000000E+00  0.96132498638E+03  0.96132498638E+03  0.00000000000E+00 0.  1.
         21   -1    0    0  503  502 -0.00000000000E+00 -0.00000000000E+00 -0.72843686786E+02  0.72843686786E+02  0.00000000000E+00 0. -1.
         21    1    1    2  503  504 -0.16288436929E+02 -0.26126834492E+02 -0.42730243462E+02  0.52666862109E+02  0.00000000000E+00 0. -1.
         21    1    1    2  504  501 -0.10974359095E+03  0.31937117541E+02  0.14867191118E+03  0.18752859090E+03  0.00000000000E+00 0.  1.
         21    1    1    2  505  506  0.63977307051E+02  0.18468529679E+01  0.26259011501E+03  0.27027777412E+03  0.00000000000E+00 0.  1.
         21    1    1    2  506  502  0.62054720827E+02 -0.76571360176E+01  0.51994951687E+03  0.52369544604E+03  0.00000000000E+00 0.  1.
<scales pt_clust_3="30.78839" pt_clust_4="122.89186" pt_clust_5="45.88004" pt_clust_6="45.88004"></scales>
<clustering>
<clus scale="   30.788">  2  3  1 -1</clus>
<clus scale="   45.880">  5  6 -1 -1</clus>
<clus scale="  122.892">  2  4  1 -1</clus>
<clus scale="  131.186">  1  3  2 -1</clus>
</clustering>
</event>
<event>
 6    0  0.8991567E+002  0.1037811E+03  0.7546771E-02  0.1272540E+00
         21   -1    0    0  503  501  0.00000000000E+00  0.00000000000E+00  0.42591761294E+03  0.42591761294E+03  0.00000000000E+00 0. -1.
         21   -1    0    0  504  502 -0.00000000000E+00 -0.00000000000E+00 -0.90105255082E+03  0.90105255082E+03  0.00000000000E+00 0. -1.
         21    1    1    2  503  505  0.23103984444E+02 -0.10078445484E+03  0.39662200138E+03  0.40987841174E+03  0.00000000000E+00 0. -1.
         21    1    1    2  504  501  0.22043554361E+02 -0.42482577905E+02 -0.51358414039E+02  0.70202381775E+02  0.00000000000E+00 0.  1.
         21    1    1    2  505  506 -0.80993631179E+02  0.11114168315E+03 -0.38473777247E+03  0.40857752702E+03  0.00000000000E+00 0. -1.
         21    1    1    2  506  502  0.35846092374E+02  0.32125349596E+02 -0.43566075274E+03  0.43831184322E+03  0.00000000000E+00 0. -1.
<scales pt_clust_3="14000.00000" pt_clust_4="47.86113" pt_clust_5="103.78107" pt_clust_6="48.36189"></scales>
<clustering>
<clus scale="   47.861">  2  4  1 -1</clus>
<clus scale="   48.362">  2  6  1 -1</clus>
<clus scale="  103.781">  2  5  1 -1</clus>
<clus scale="  103.781">  1  3  2 -1</clus>
</clustering>
</event>
<event>
 6    0  0.8991567E+002  0.1036650E+03  0.7546771E-02  0.1272773E+00
         21   -1    0    0  505  501  0.00000000000E+00  0.00000000000E+00  0.60794765085E+03  0.60794765085E+03  0.00000000000E+00 0.  1.
         21   -1    0    0  504  502 -0.00000000000E+00 -0.00000000000E+00 -0.53013664079E+03  0.53013664079E+03  0.00000000000E+00 0.  1.
         21    1    1    2  503  501  0.62952626563E+02  0.13547044685E+02  0.51760460144E+03  0.52159474599E+03  0.00000000000E+00 0.  1.
         21    1    1    2  504  503  0.63807591523E+02  0.22358452749E+02 -0.59164112778E+01  0.67869824427E+02  0.00000000000E+00 0. -1.
         21    1    1    2  505  506 -0.27677199074E+02  0.14498417627E+02  0.46236810783E+02  0.55803889951E+02  0.00000000000E+00 0.  1.
         21    1    1    2  506  502 -0.99083019012E+02 -0.50403915061E+02 -0.48011399089E+03  0.49281583127E+03  0.00000000000E+00 0.  1.
<scales pt_clust_3="45.95278" pt_clust_4="103.66496" pt_clust_5="31.24470" pt_clust_6="14000.00000"></scales>
<clustering>
<clus scale="   31.245">  1  5  2 -1</clus>
<clus scale="   45.953">  1  3  2 -1</clus>
<clus scale="  103.665">  1  4  2 -1</clus>
<clus scale="   31.245">  1  3  2 -1</clus>
</clustering>
</event>
<event>
 6    0  0.8991567E+002  0.8379433E+02  0.7546771E-02  0.1318616E+00
         21   -1    0    0  506  501  0.00000000000E+00  0.00000000000E+00  0.30154017759E+03  0.30154017759E+03  0.00000000000E+00 0.  1.
         21   -1    0    0  505  502 -0.00000000000E+00 -0.00000000000E+00 -0.18521729391E+03  0.18521729391E+03  0.00000000000E+00 0. -1.
         21    1    1    2  503  502  0.63650378616E+02 -0.75074494353E+01 -0.34207335077E+02  0.72648979814E+02  0.00000000000E+00 0.  1.
         21    1    1    2  504  501  0.52355086877E+01  0.50471871008E+02  0.98182195569E+02  0.11051951792E+03  0.00000000000E+00 0.  1.
         21    1    1    2  505  504 -0.10940342877E+03  0.14738401427E+02 -0.91505139419E+02  0.14338591717E+03  0.00000000000E+00 0. -1.
         21    1    1    2  506  503  0.40517541469E+02 -0.57702822999E+02  0.14385316261E+03  0.16020305660E+03  0.00000000000E+00 0.  1.
<scales pt_clust_3="83.79433" pt_clust_4="50.74269" pt_clust_5="14000.00000" pt_clust_6="48.35423"></scales>
<clustering>
<clus scale="   50.743">  1  4  2 -1</clus>
<clus scale="   48.354">  1  6  2 -1</clus>
<clus scale="   83.794">  2  3  1 -1</clus>
<clus scale="   50.743">  1  3  2 -1</clus>
</clustering>
</event>
<event>
 6    0  0.8991567E+002  0.1084307E+03  0.7546771E-02  0.1263504E+00
         21   -1    0    0  506  501  0.00000000000E+00  0.00000000000E+00  0.37721560296E+03  0.37721560296E+03  0.00000000000E+00 0.  1.
         21   -1    0    0  504  502 -0.00000000000E+00 -0.00000000000E+00 -0.48304612442E+03  0.48304612442E+03  0.00000000000E+00 0. -1.
         21    1    1    2  503  502  0.41820358280E+02  0.43183701065E+02 -0.47096300744E+02  0.76366458266E+02  0.00000000000E+00 0. -1.
         21    1    1    2  504  505 -0.83083133742E+02  0.72739203944E+02 -0.29533816387E+03  0.31530688217E+03  0.00000000000E+00 0. -1.
         21    1    1    2  505  501  0.88455713724E+02 -0.59774362963E+02 -0.86413116517E+02  0.13734851461E+03  0.00000000000E+00 0. -1.
         21    1    1    2  506  503 -0.47192938262E+02 -0.56148542047E+02  0.32301705966E+03  0.33123987234E+03  0.00000000000E+00 0.  1.
<scales pt_clust_3="60.11468" pt_clust_4="14000.00000" pt_clust_5="108.43069" pt_clust_6="72.76217"></scales>
<clustering>
<clus scale="   60.115">  2  3  1 -1</clus>
<clus scale="   72.762">  1  6  2 -1</clus>
<clus scale="  108.431">  1  5  2 -1</clus>
<clus scale="   72.762">  1  3  2 -1</clus>
</clustering>
</event>
<event>
 6    0  0.1037645E+003  0.1429004E+03  0.7546771E-02  0.1209479E+00
         21   -1    0    0  505  501  0.00000000000E+00  0.00000000000E+00  0.73741926046E+03  0.73741926046E+03  0.00000000000E+00 0. -1.
         21   -1    0    0  503  502 -0.00000000000E+00 -0.00000000000E+00 -0.56077453231E+03  0.56077453231E+03  0.00000000000E+00 0. -1.
         21    1    1    2  503  506  0.70357681494E+02  0.13368650366E+03 -0.48502091692E+03  0.50800351816E+03  0.00000000000E+00 0. -1.
         21    1    1    2  504  501 -0.13665443224E+02 -0.66087770993E+02  0.61904105480E+03  0.62270873235E+03  0.00000000000E+00 0. -1.
         21    1    1    2  505  502 -0.42308288544E+02  0.22465841827E+02 -0.24911113953E+02  0.53993230380E+02  0.00000000000E+00 0. -1.
         21    1    1    2  506  504 -0.14383949727E+02 -0.90064574497E+02  0.67535704220E+02  0.11348831188E+03  0.00000000000E+00 0. -1.
<scales pt_clust_3="14000.00000" pt_clust_4="67.43877" pt_clust_5="47.90308" pt_clust_6="142.90035"></scales>
<clustering>
<clus scale="   47.903">  2  5  1 -1</clus>
<clus scale="   67.439">  1  4  2 -1</clus>
<clus scale="  142.900">  1  6  2 -1</clus>
<clus scale="   67.439">  1  3  2 -1</clus>
</clustering>
</event>
<event>
 6    0  0.8991567E+002  0.1769021E+03  0.7546771E-02  0.1170835E+00
         21   -1    0    0  506  501  0.00000000000E+00  0.00000000000E+00  0.68392733417E+02  0.68392733417E+02  0.00000000000E+00 0.  1.
         21   -1    0    0  501  502 -0.00000000000E+00 -0.00000000000E+00 -0.11327677415E+04  0.11327677415E+04  0.00000000000E+00 0.  1.
         21    1    1    2  503  502 -0.25122162116E+02 -0.23376920980E+02 -0.18155191439E+03  0.18476661247E+03  0.00000000000E+00 0. -1.
         21    1    1    2  504  503  0.54330623170E+02 -0.17779392851E+03 -0.69014744413E+03  0.71474890155E+03  0.00000000000E+00 0.  1.
         21    1    1    2  505  504  0.28464908261E+02  0.14494767203E+03 -0.14988009877E+03  0.21043793060E+03  0.00000000000E+00 0.  1.
         21    1    1    2  506  505 -0.57673369314E+02  0.56223177454E+02 -0.42795550831E+02  0.91207030333E+02  0.00000000000E+00 0.  1.
<scales pt_clust_3="34.31623" pt_clust_4="176.90214" pt_clust_5="14000.00000" pt_clust_6="80.69767"></scales>
<clustering>
<clus scale="   34.316">  2  3  1 -1</clus>
<clus scale="   80.698">  1  6  2 -1</clus>
<clus scale="  176.902">  2  4  1 -1</clus>
<clus scale="   80.698">  1  3  2 -1</clus>
</clustering>
</event>
<event>
 6    0  0.8991567E+002  0.1196650E+03  0.7546771E-02  0.1243651E+00
         21   -1    0    0  506  501  0.00000000000E+00  0.00000000000E+00  0.24461531237E+02  0.24461531237E+02  0.00000000000E+00 0. -1.
         21   -1    0    0  505  502 -0.00000000000E+00 -0.00000000000E+00 -0.26740783997E+04  0.26740783997E+04  0.00000000000E+00 0. -1.
         21    1    1    2  503  501 -0.38720573107E+01  0.39806301305E+02 -0.32019535980E+02  0.51232656926E+02  0.00000000000E+00 0. -1.
         21    1    1    2  504  502 -0.38368666752E+02 -0.46233683234E+02 -0.15425005384E+04  0.15436701782E+04  0.00000000000E+00 0. -1.
         21    1    1    2  505  503 -0.65279063647E+02  0.90507030390E+02 -0.53968402891E+03  0.55110047156E+03  0.00000000000E+00 0. -1.
         21    1    1    2  506  504  0.10751978771E+03 -0.84079648460E+02 -0.53541276512E+03  0.55253662420E+03  0.00000000000E+00 0. -1.
<scales pt_clust_3="39.99418" pt_clust_4="58.98286" pt_clust_5="119.66502" pt_clust_6="14000.00000"></scales>
<clustering>
<clus scale="   39.994">  1  3  2 -1</clus>
<clus scale="   58.983">  2  4  1 -1</clus>
<clus scale="  119.665">  2  5  1 -1</clus>
<clus scale="   39.994">  1  3  2 -1</clus>
</clustering>
</event>
<event>
 6    0  0.8991567E+002  0.1697844E+03  0.7546771E-02  0.1178073E+00
         21   -1    0    0  505  501  0.00000000000E+00  0.00000000000E+00  0.81137096702E+03  0.81137096702E+03  0.00000000000E+00 0.  1.
         21   -1    0    0  504  502 -0.00000000000E+00 -0.00000000000E+00 -0.56722053552E+03  0.56722053552E+03  0.00000000000E+00 0. -1.
         21    1    1    2  503  501  0.30431087137E+02 -0.21111794829E+02  0.20559207803E+02  0.42360830619E+02  0.00000000000E+00 0. -1.
         21    1    1    2  504  503  0.23629793486E+01 -0.48175017179E+02 -0.14437337638E+03  0.15221723871E+03  0.00000000000E+00 0. -1.
         21    1    1    2  505  506  0.13835044743E+03 -0.23265849056E+01  0.74822375536E+03  0.76091066978E+03  0.00000000000E+00 0.  1.
         21    1    1    2  506  502 -0.17114451392E+03  0.71613396913E+02 -0.38025915527E+03  0.42310276344E+03  0.00000000000E+00 0. -1.
<scales pt_clust_3="37.03726" pt_clust_4="48.34669" pt_clust_5="169.78445" pt_clust_6="14000.00000"></scales>
<clustering>
<clus scale="   37.037">  1  3  2 -1</clus>
<clus scale="   48.347">  2  4  1 -1</clus>
<clus scale="  169.784">  1  5  2 -1</clus>
<clus scale="   37.037">  1  3  2 -1</clus>
</clustering>
</event>
<event>
 6    0  0.8991567E+002  0.1197381E+03  0.7546771E-02  0.1243530E+00
         21   -1    0    0  503  501  0.00000000000E+00  0.00000000000E+00  0.31263235071E+03  0.31263235071E+03  0.00000000000E+00 0.  1.
         21   -1    0    0  506  502 -0.00000000000E+00 -0.00000000000E+00 -0.26621479254E+03  0.26621479254E+03  0.00000000000E+00 0.  1.
         21    1    1    2  503  504  0.12639459874E+03 -0.70260112579E+01  0.93162427968E+02  0.15717568963E+03  0.00000000000E+00 0.  1.
         21    1    1    2  504  505 -0.10824955498E+02  0.41990005833E+02 -0.25491999797E+01  0.43437756294E+02  0.00000000000E+00 0. -1.
         21    1    1    2  505  502 -0.33830909010E-01 -0.32538277088E+02 -0.18967277470E+03  0.19244350361E+03  0.00000000000E+00 0.  1.
         21    1    1    2  506  501 -0.11553581233E+03 -0.24257174870E+01  0.14547710489E+03  0.18579019372E+03  0.00000000000E+00 0.  1.
<scales pt_clust_3="14000.00000" pt_clust_4="33.81803" pt_clust_5="32.53829" pt_clust_6="119.73807"></scales>
<clustering>
<clus scale="   32.538">  2  5  1 -1</clus>
<clus scale="   33.818">  2  4  1 -1</clus>
<clus scale="  119.738">  1  6  2 -1</clus>
<clus scale="  119.738">  1  3  2 -1</clus>
</clustering>
</event>
<event>
 6    0  0.8991567E+002  0.1872771E+03  0.7546771E-02  0.1160940E+00
         21   -1    0    0  506  501  0.00000000000E+00  0.00000000000E+00  0.30149739650E+03  0.30149739650E+03  0.00000000000E+00 0.  1.
         21   -1    0    0  503  502 -0.00000000000E+00 -0.00000000000E+00 -0.36080412501E+03  0.36080412501E+03  0.00000000000E+00 0.  1.
         21    1    1    2  503  505  0.62753733144E+02  0.90176978588E+02 -0.13688848884E+03  0.17552315194E+03  0.00000000000E+00 0.  1.
         21    1    1    2  504  502 -0.13597686464E+03 -0.72933522754E+02 -0.71088774326E+01  0.15446534433E+03  0.00000000000E+00 0.  1.
         21    1    1    2  505  501  0.84085014367E+02  0.15885702209E+02 -0.10726512176E+03  0.13721680481E+03  0.00000000000E+00 0.  1.
         21    1    1    2  506  504 -0.10861882870E+02 -0.33129158043E+02  0.19195575953E+03  0.19509622043E+03  0.00000000000E+00 0.  1.
<scales pt_clust_3="65.71996" pt_clust_4="172.30304" pt_clust_5="65.71996" pt_clust_6="34.86433"></scales>
<clustering>
<clus scale="   34.864">  1  6  2 -1</clus>
<clus scale="   65.720">  3  5 -1 -1</clus>
<clus scale="  172.303">  1  4  2 -1</clus>
<clus scale="   34.864">  1  3  2 -1</clus>
</clustering>
</event>
<event>
 6    0  0.8991567E+002  0.6909891E+02  0.7546771E-02  0.1363184E+00
         21   -1    0    0  505  501  0.00000000000E+00  0.00000000000E+00  0.63414523553E+03  0.63414523553E+03  0.00000000000E+00 0. -1.
         21   -1    0    0  504  502 -0.00000000000E+00 -0.00000000000E+00 -0.14617514752E+03  0.14617514752E+03  0.00000000000E+00 0.  1.
         21    1    1    2  503  506 -0.65906718213E+02  0.36802248687E+02  0.85398223455E+02  0.11397788199E+03  0.00000000000E+00 0.  1.
         21    1    1    2  504  501  0.83446728155E+02 -0.14204387998E+02 -0.42668680525E+02  0.94793129371E+02  0.00000000000E+00 0.  1.
         21    1    1    2  505  503  0.43259676086E+02 -0.17339327271E+02  0.49229026081E+03  0.49449140815E+03  0.00000000000E+00 0. -1.
         21    1    1    2  506  502 -0.60799686028E+02 -0.52585334181E+01 -0.47049715732E+02  0.77057963542E+02  0.00000000000E+00 0.  1.
<scales pt_clust_3="42.95559" pt_clust_4="14000.00000" pt_clust_5="46.60528" pt_clust_6="69.09891"></scales>
<clustering>
<clus scale="   46.605">  1  5  2 -1</clus>
<clus scale="   42.956">  1  3  2 -1</clus>
<clus scale="   69.099">  2  6  1 -1</clus>
<clus scale="   46.605">  1  3  2 -1</clus>
</clustering>
</event>
<event>
 6    0  0.8991567E+002  0.1389659E+03  0.7546771E-02  0.1214727E+00
         21   -1    0    0  504  501  0.00000000000E+00  0.00000000000E+00  0.29906787598E+03  0.29906787598E+03  0.00000000000E+00 0. -1.
         21   -1    0    0  503  502 -0.00000000000E+00 -0.00000000000E+00 -0.31927650316E+03  0.31927650316E+03  0.00000000000E+00 0. -1.
         21    1    1    2  503  505 -0.36032168822E+01 -0.34397438531E+02 -0.84812492829E+02  0.91593263340E+02  0.00000000000E+00 0. -1.
         21    1    1    2  504  502 -0.13803704080E+03  0.10250057692E+03  0.22370361420E+03  0.28214163094E+03  0.00000000000E+00 0. -1.
         21    1    1    2  505  506  0.10878454251E+03 -0.56473287708E+02 -0.16863705247E+03  0.20847485311E+03  0.00000000000E+00 0. -1.
         21    1    1    2  506  501  0.32855715173E+02 -0.11629850686E+02  0.95373039134E+01  0.36134631760E+02  0.00000000000E+00 0.  1.
<scales pt_clust_3="34.58565" pt_clust_4="138.96594" pt_clust_5="14000.00000" pt_clust_6="35.37135"></scales>
<clustering>
<clus scale="   34.586">  2  3  1 -1</clus>
<clus scale="   35.371">  1  6  2 -1</clus>
<clus scale="  138.966">  1  4  2 -1</clus>
<clus scale="   35.371">  1  3  2 -1</clus>
</clustering>
</event>
<event>
 6    0  0.8991567E+002  0.6646648E+02  0.7546771E-02  0.1372539E+00
         21   -1    0    0  503  501  0.00000000000E+00  0.00000000000E+00  0.91770019252E+03  0.91770019252E+03  0.00000000000E+00 0.  1.
         21   -1    0    0  504  502 -0.00000000000E+00 -0.00000000000E+00 -0.16439439296E+03  0.16439439296E+03  0.00000000000E+00 0.  1.
         21    1    1    2  503  506 -0.31673061981E+02  0.21958104541E+02  0.36917635855E+03  0.37118260320E+03  0.00000000000E+00 0.  1.
         21    1    1    2  504  505 -0.24584852298E+02 -0.58449798028E+02 -0.12067205624E+03  0.13631778684E+03  0.00000000000E+00 0.  1.
         21    1    1    2  505  501  0.85795929973E+02  0.76161590602E+02  0.64676263168E+02  0.13169870349E+03  0.00000000000E+00 0.  1.
         21    1    1    2  506  502 -0.29538015694E+02 -0.39669897115E+02  0.44012523408E+03  0.44289549194E+03  0.00000000000E+00 0.  1.
<scales pt_clust_3="38.54012" pt_clust_4="14000.00000" pt_clust_5="66.46648" pt_clust_6="59.29617"></scales>
<clustering>
<clus scale="   38.540">  1  3  2 -1</clus>
<clus scale="   59.296">  1  6  2 -1</clus>
<clus scale="   66.466">  1  5  2 -1</clus>
<clus scale="   38.540">  1  3  2 -1</clus>
</clustering>
</event>
<event>
 6    0  0.8991567E+002  0.6232478E+02  0.7546771E-02  0.1388327E+00
         21   -1    0    0  504  501  0.00000000000E+00  0.00000000000E+00  0.83371069925E+03  0.83371069925E+03  0.00000000000E+00 0. -1.
         21   -1    0    0  506  502 -0.00000000000E+00 -0.00000000000E+00 -0.96834866942E+03  0.96834866942E+03  0.00000000000E+00 0. -1.
         21    1    1    2  503  502 -0.41674448792E+02  0.79534346188E+01 -0.21030788052E+02  0.47353044786E+02  0.00000000000E+00 0. -1.
         21    1    1    2  504  503 -0.61875172484E+02 -0.50436836466E+01  0.80534951011E+03  0.80773870104E+03  0.00000000000E+00 0. -1.
         21    1    1    2  505  501  0.12296617172E+03  0.35426879630E+02 -0.29533697176E+03  0.32186902628E+03  0.00000000000E+00 0. -1.
         21    1    1    2  506  505 -0.19416550448E+02 -0.38336630602E+02 -0.62361972047E+03  0.62509859657E+03  0.00000000000E+00 0. -1.
<scales pt_clust_3="42.42660" pt_clust_4="14000.00000" pt_clust_5="62.32478" pt_clust_6="57.66161"></scales>
<clustering>
<clus scale="   42.427">  2  3  1 -1</clus>
<clus scale="   57.662">  2  6  1 -1</clus>
<clus scale="   62.325">  2  5  1 -1</clus>
<clus scale="   62.325">  1  3  2 -1</clus>
</clustering>
</event>
<event>
 6    0  0.8991567E+002  0.1496454E+03  0.7546771E-02  0.1200909E+00
         21   -1    0    0  504  501  0.00000000000E+00  0.00000000000E+00  0.22144163491E+03  0.22144163491E+03  0.00000000000E+00 0.  1.
         21   -1    0    0  503  502 -0.00000000000E+00 -0.00000000000E+00 -0.15563929597E+04  0.15563929597E+04  0.00000000000E+00 0. -1.
         21    1    1    2  503  505  0.23361872735E+02  0.24885369341E+02 -0.82941392951E+03  0.83011597092E+03  0.00000000000E+00 0. -1.
         21    1    1    2  504  502 -0.38516116290E+02 -0.15101506318E+03  0.98066448413E+02  0.18413600632E+03  0.00000000000E+00 0.  1.
         21    1    1    2  505  506 -0.10350641813E+03  0.23774091026E+02 -0.59738581279E+03  0.60675249923E+03  0.00000000000E+00 0.  1.
         21    1    1    2  506  501  0.11866066168E+03  0.10235560281E+03 -0.62180309292E+01  0.15683011817E+03  0.00000000000E+00 0.  1.
<scales pt_clust_3="34.13296" pt_clust_4="14000.00000" pt_clust_5="95.14141" pt_clust_6="149.64542"></scales>
<clustering>
<clus scale="   34.133">  2  3  1 -1</clus>
<clus scale="   95.141">  2  5  1 -1</clus>
<clus scale="  149.645">  2  6  1 -1</clus>
<clus scale="  149.645">  1  3  2 -1</clus>
</clustering>
</event>
<event>
 6    0  0.8991567E+002  0.1429812E+03  0.7546771E-02  0.1209373E+00
         21   -1    0    0  505  501  0.00000000000E+00  0.00000000000E+00  0.11263230251E+04  0.11263230251E+04  0.00000000000E+00 0. -1.
         21   -1    0    0  506  502 -0.00000000000E+00 -0.00000000000E+00 -0.11712763867E+03  0.11712763867E+03  0.00000000000E+00 0. -1.
         21    1    1    2  503  504 -0.57746580562E+02  0.11718115684E+03  0.28612692988E+03  0.31453888644E+03  0.00000000000E+00 0. -1.
         21    1    1    2  504  502 -0.32518130881E+02  0.65985481891E+02 -0.62455797716E+02  0.96499944688E+02  0.00000000000E+00 0. -1.
         21    1    1    2  505  503  0.57774682154E+02 -0.83036161242E+01  0.43945864735E+03  0.44331790700E+03  0.00000000000E+00 0. -1.
         21    1    1    2  506  501  0.32490029289E+02 -0.17486302260E+03  0.34606560687E+03  0.38909392560E+03  0.00000000000E+00 0. -1.
<scales pt_clust_3="142.98122" pt_clust_4="72.75302" pt_clust_5="58.36835" pt_clust_6="14000.00000"></scales>
<clustering>
<clus scale="   58.368">  1  5  2 -1</clus>
<clus scale="   72.753">  2  4  1 -1</clus>
<clus scale="  142.981">  1  3  2 -1</clus>
<clus scale="   58.368">  1  3  2 -1</clus>
</clustering>
</event>
<event>
 6    0  0.8991567E+002  0.1729732E+03  0.7546771E-02  0.1174782E+00
         21   -1    0    0  503  501  0.00000000000E+00  0.00000000000E+00  0.48080996036E+03  0.48080996036E+03  0.00000000000E+00 0. -1.
         21   -1    0    0  504  502 -0.00000000000E+00 -0.00000000000E+00 -0.35539682145E+03  0.35539682145E+03  0.00000000000E+00 0.  1.
         21    1    1    2  503  502 -0.38978081699E+02 -0.14670475024E+03  0.20295447587E+03  0.25344051347E+03  0.00000000000E+00 0.  1.
         21    1    1    2  504  506  0.33189521573E+02  0.43029477986E+02 -0.19995075797E+03  0.20720373049E+03  0.00000000000E+00 0.  1.
         21    1    1    2  505  501 -0.37700974024E+01 -0.40869078389E+02  0.20482658816E+03  0.20889812450E+03  0.00000000000E+00 0. -1.
         21    1    1    2  506  505  0.95586575284E+01  0.14454435064E+03 -0.82417167158E+02  0.16666441335E+03  0.00000000000E+00 0.  1.
<scales pt_clust_3="14000.00000" pt_clust_4="53.88416" pt_clust_5="41.04260" pt_clust_6="172.97322"></scales>
<clustering>
<clus scale="   41.043">  1  5  2 -1</clus>
<clus scale="   53.884">  2  4  1 -1</clus>
<clus scale="  172.973">  2  6  1 -1</clus>
<clus scale="   41.043">  1  3  2 -1</clus>
</clustering>
</event>
<event>
 6    0  0.8991567E+002  0.7665694E+02  0.7546771E-02  0.1338815E+00
         21   -1    0    0  506  501  0.00000000000E+00  0.00000000000E+00  0.22334553618E+03  0.22334553618E+03  0.00000000000E+00 0. -1.
         21   -1    0    0  505  502 -0.00000000000E+00 -0.00000000000E+00 -0.73495199621E+03  0.73495199621E+03  0.00000000000E+00 0. -1.
         21    1    1    2  503  504  0.65123217289E+02  0.12487958209E+02  0.18744193768E+03  0.19882520597E+03  0.00000000000E+00 0. -1.
         21    1    1    2  504  502 -0.69836286940E+02  0.38872080536E+02 -0.40957819564E+03  0.41730377900E+03  0.00000000000E+00 0. -1.
         21    1    1    2  505  501  0.40977376626E+02 -0.66554716075E+02 -0.29247208601E+03  0.30273519241E+03  0.00000000000E+00 0. -1.
         21    1    1    2  506  503 -0.36264306975E+02  0.15194677330E+02  0.30018839490E+01  0.39433355003E+02  0.00000000000E+00 0.  1.
<scales pt_clust_3="40.71770" pt_clust_4="14000.00000" pt_clust_5="76.65694" pt_clust_6="39.31893"></scales>
<clustering>
<clus scale="   39.319">  1  6  2 -1</clus>
<clus scale="   40.718">  1  3  2 -1</clus>
<clus scale="   76.657">  1  5  2 -1</clus>
<clus scale="   39.319">  1  3  2 -1</clus>
</clustering>
</event>
<event>
 6    0  0.8991567E+002  0.8234871E+02  0.7546771E-02  0.1322515E+00
         21   -1    0    0  503  501  0.00000000000E+00  0.00000000000E+00  0.69188080235E+02  0.69188080235E+02  0.00000000000E+00 0. -1.
         21   -1    0    0  506  502 -0.00000000000E+00 -0.00000000000E+00 -0.13799428926E+04  0.13799428926E+04  0.00000000000E+00 0. -1.
         21    1    1    2  503  504  0.51060322073E+02  0.35493699021E+02 -0.28758650397E+02  0.68512912163E+02  0.00000000000E+00 0. -1.
         21    1    1    2  504  502  0.30481026541E+02 -0.26789816804E+02 -0.18845786541E+03  0.19277747353E+03  0.00000000000E+00 0. -1.
         21    1    1    2  505  501 -0.94161911998E+02 -0.54582667973E+02 -0.16889428725E+02  0.11014075593E+03  0.00000000000E+00 0. -1.
         21    1    1    2  506  505  0.12620563384E+02  0.45878785757E+02 -0.10766488678E+04  0.10776998312E+04  0.00000000000E+00 0. -1.
<scales pt_clust_3="82.34871" pt_clust_4="40.58063" pt_clust_5="14000.00000" pt_clust_6="45.66675"></scales>
<clustering>
<clus scale="   40.581">  2  4  1 -1</clus>
<clus scale="   45.667">  2  6  1 -1</clus>
<clus scale="   82.349">  1  3  2 -1</clus>
<clus scale="   82.349">  1  3  2 -1</clus>
</clustering>
</event>
<event>
 6    0  0.8991567E+002  0.2024295E+03  0.7546771E-02  0.1147705E+00
         21   -1    0    0  506  501  0.00000000000E+00  0.00000000000E+00  0.63582952365E+02  0.63582952365E+02  0.00000000000E+00 0.  1.
         21   -1    0    0  503  502 -0.00000000000E+00 -0.00000000000E+00 -0.20993405140E+04  0.20993405140E+04  0.00000000000E+00 0. -1.
         21    1    1    2  503  504 -0.13123401623E+01  0.30318259581E+02 -0.70108210323E+03  0.70173857994E+03  0.00000000000E+00 0. -1.
         21    1    1    2  504  505 -0.83516605409E+02  0.69148720433E+01 -0.10659614908E+03  0.13559342843E+03  0.00000000000E+00 0.  1.
         21    1    1    2  505  501 -0.95004642690E+02  0.32709021675E+02 -0.20315167518E+02  0.10251082022E+03  0.00000000000E+00 0.  1.
         21    1    1    2  506  502  0.17983358826E+03 -0.69942153299E+02 -0.12077641418E+04  0.12230806378E+04  0.00000000000E+00 0.  1.
<scales pt_clust_3="30.34665" pt_clust_4="77.18844" pt_clust_5="77.18844" pt_clust_6="183.93053"></scales>
<clustering>
<clus scale="   30.347">  2  3  1 -1</clus>
<clus scale="   77.188">  4  5 -1 -1</clus>
<clus scale="  183.931">  2  6  1 -1</clus>
<clus scale="  202.429">  1  3  2 -1</clus>
</clustering>
</event>
<event>
 6    0  0.8991567E+002  0.7488117E+02  0.7546771E-02  0.1344239E+00
         21   -1    0    0  503  501  0.00000000000E+00  0.00000000000E+00  0.74105527943E+03  0.74105527943E+03  0.00000000000E+00 0. -1.
         21   -1    0    0  506  502 -0.00000000000E+00 -0.00000000000E+00 -0.30256014079E+02  0.30256014079E+02  0.00000000000E+00 0. -1.
         21    1    1    2  503  504  0.67492201282E+02 -0.10363443963E+02  0.17527789000E+03  0.18810884330E+03  0.00000000000E+00 0. -1.
         21    1    1    2  504  502 -0.82121943726E+01  0.76967134237E+02  0.88771955674E+02  0.11777877569E+03  0.00000000000E+00 0. -1.
         21    1    1    2  505  501  0.21701368605E+02 -0.25824819610E+02  0.19382969771E+03  0.19674303652E+03  0.00000000000E+00 0. -1.
         21    1    1    2  506  505 -0.80981375514E+02 -0.40778870664E+02  0.25291972197E+03  0.26868063800E+03  0.00000000000E+00 0. -1.
<scales pt_clust_3="74.88117" pt_clust_4="72.19716" pt_clust_5="33.73234" pt_clust_6="14000.00000"></scales>
<clustering>
<clus scale="   33.732">  1  5  2 -1</clus>
<clus scale="   72.197">  2  4  1 -1</clus>
<clus scale="   74.881">  2  3  1 -1</clus>
<clus scale="   33.732">  1  3  2 -1</clus>
</clustering>
</event>
<event>
 6    0  0.8991567E+002  0.7193308E+02  0.7546771E-02  0.1353640E+00
         21   -1    0    0  505  501  0.00000000000E+00  0.00000000000E+00  0.43295595093E+03  0.43295595093E+03  0.00000000000E+00 0.  1.
         21   -1    0    0  503  502 -0.00000000000E+00 -0.00000000000E+00 -0.37882170960E+03  0.37882170960E+03  0.00000000000E+00 0.  1.
         21    1    1    2  503  501 -0.13649439542E+02 -0.28820866338E+02 -0.67248936632E+02  0.74426937425E+02  0.00000000000E+00 0. -1.
         21    1    1    2  504  506  0.10320686352E+03 -0.39105937682E+02 -0.11478489833E+01  0.11037322409E+03  0.00000000000E+00 0.  1.
         21    1    1    2  505  504 -0.63814037424E+02  0.28018009227E+02  0.36922945170E+03  0.37574942211E+03  0.00000000000E+00 0.  1.
         21    1    1    2  506  502 -0.25743386551E+02  0.39908794794E+02 -0.24669842475E+03  0.25122807691E+03  0.00000000000E+00 0.  1.
<scales pt_clust_3="31.88965" pt_clust_4="14000.00000" pt_clust_5="71.93308" pt_clust_6="40.35446"></scales>
<clustering>
<clus scale="   31.890">  2  3  1 -1</clus>
<clus scale="   40.354">  2  6  1 -1</clus>
<clus scale="   71.933">  1  5  2 -1</clus>
<clus scale="   71.933">  1  3  2 -1</clus>
</clustering>
</event>
<event>
 6    0  0.8991567E+002  0.1037040E+03  0.7546771E-02  0.1272694E+00
         21   -1    0    0  505  501  0.00000000000E+00  0.00000000000E+00  0.11958784808E+03  0.11958784808E+03  0.00000000000E+00 0.  1.
         21   -1    0    0  506  502 -0.00000000000E+00 -0.00000000000E+00 -0.48619659913E+03  0.48619659913E+03  0.00000000000E+00 0.  1.
         21    1    1    2  503  502 -0.50856599430E+02  0.14727091975E+02 -0.16657786301E+03  0.17478977484E+03  0.00000000000E+00 0.  1.
         21    1    1    2  504  503 -0.60935700261E+02  0.42285732265E+02 -0.38781328212E+02  0.83697276762E+02  0.00000000000E+00 0.  1.
         21    1    1    2  505  504 -0.39311561217E+02 -0.10706179506E+02  0.61746401518E+02  0.73977288578E+02  0.00000000000E+00 0.  1.
         21    1    1    2  506  501  0.15110386091E+03 -0.46306644733E+02 -0.22299596135E+03  0.27332010703E+03  0.00000000000E+00 0.  1.
<scales pt_clust_3="55.73245" pt_clust_4="103.70398" pt_clust_5="40.74336" pt_clust_6="14000.00000"></scales>
<clustering>
<clus scale="   40.743">  1  5  2 -1</clus>
<clus scale="   55.732">  2  3  1 -1</clus>
<clus scale="  103.704">  1  4  2 -1</clus>
<clus scale="   40.743">  1  3  2 -1</clus>
</clustering>
</event>
<event>
 6    0  0.8991567E+002  0.1065059E+03  0.7546771E-02  0.1267181E+00
         21   -1    0    0  503  501  0.00000000000E+00  0.00000000000E+00  0.20075915195E+04  0.20075915195E+04  0.00000000000E+00 0.  1.
         21   -1    0    0  505  502 -0.00000000000E+00 -0.00000000000E+00 -0.26364675622E+03  0.26364675622E+03  0.00000000000E+00 0. -1.
         21    1    1    2  503  504 -0.94301444500E+02  0.20504489481E+02  0.17171571657E+04  0.17198668345E+04  0.00000000000E+00 0.  1.
         21    1    1    2  504  502 -0.48753412757E+02  0.58558309693E+02 -0.11102174762E+03  0.13465436991E+03  0.00000000000E+00 0. -1.
         21    1    1    2  505  506  0.97395532257E+02 -0.14884235372E+03 -0.71268698514E+02  0.19162245002E+03  0.00000000000E+00 0. -1.
         21    1    1    2  506  501  0.45659325000E+02  0.69779554545E+02  0.20907804371E+03  0.22509462134E+03  0.00000000000E+00 0.  1.
<scales pt_clust_3="14000.00000" pt_clust_4="76.19692" pt_clust_5="106.50591" pt_clust_6="84.76039"></scales>
<clustering>
<clus scale="   76.197">  2  4  1 -1</clus>
<clus scale="   84.760">  1  6  2 -1</clus>
<clus scale="  106.506">  2  5  1 -1</clus>
<clus scale="   84.760">  1  3  2 -1</clus>
</clustering>
</event>
<event>
 6    0  0.8991567E+002  0.1031858E+03  0.7546771E-02  0.1273736E+00
         21   -1    0    0  504  501  0.00000000000E+00  0.00000000000E+00  0.39121559645E+02  0.39121559645E+02  0.00000000000E+00 0. -1.
         21   -1    0    0  503  502 -0.00000000000E+00 -0.00000000000E+00 -0.20698037924E+04  0.20698037924E+04  0.00000000000E+00 0.  1.
         21    1    1    2  503  501  0.29909618184E+02  0.18245437588E+02  0.34795699539E+01  0.35207792600E+02  0.00000000000E+00 0. -1.
         21    1    1    2  504  506 -0.43118207322E+02  0.52425183428E+02 -0.20202266357E+03  0.21312141201E+03  0.00000000000E+00 0. -1.
         21    1    1    2  505  502 -0.48218403171E+02  0.81791650770E+02 -0.13044122086E+04  0.13078631803E+04  0.00000000000E+00 0.  1.
         21    1    1    2  506  505  0.61426992309E+02 -0.15246227179E+03 -0.52772693055E+03  0.55273296711E+03  0.00000000000E+00 0. -1.
<scales pt_clust_3="35.03543" pt_clust_4="67.21068" pt_clust_5="103.18584" pt_clust_6="14000.00000"></scales>
<clustering>
<clus scale="   35.035">  1  3  2 -1</clus>
<clus scale="   67.211">  1  4  2 -1</clus>
<clus scale="  103.186">  2  5  1 -1</clus>
<clus scale="   35.035">  1  3  2 -1</clus>
</clustering>
</event>
<event>
 6    0  0.8991567E+002  0.7477550E+02  0.7546771E-02  0.1344568E+00
         21   -1    0    0  505  501  0.00000000000E+00  0.00000000000E+00  0.47752634555E+03  0.47752634555E+03  0.00000000000E+00 0.  1.
         21   -1    0    0  506  502 -0.00000000000E+00 -0.00000000000E+00 -0.19008665655E+03  0.19008665655E+03  0.00000000000E+00 0.  1.
         21    1    1    2  503  502 -0.76343557500E+01 -0.59079191779E+02  0.16170915797E+02  0.61726273229E+02  0.00000000000E+00 0.  1.
         21    1    1    2  504  501  0.53693568638E+01 -0.81538592606E+02 -0.11844202440E+03  0.14389539680E+03  0.00000000000E+00 0.  1.
         21    1    1    2  505  503 -0.39567275887E+00  0.74590809480E+02  0.38881432353E+03  0.39590469004E+03  0.00000000000E+00 0.  1.
         21    1    1    2  506  504  0.26606716451E+01  0.66026974904E+02  0.89647407518E+00  0.66086642027E+02  0.00000000000E+00 0.  1.
<scales pt_clust_3="59.57041" pt_clust_4="14000.00000" pt_clust_5="74.77550" pt_clust_6="54.52981"></scales>
<clustering>
<clus scale="   59.570">  2  3  1 -1</clus>
<clus scale="   54.530">  2  6  1 -1</clus>
<clus scale="   74.776">  1  5  2 -1</clus>
<clus scale="   74.776">  1  3  2 -1</clus>
</clustering>
</event>
<event>
 6    0  0.8991567E+002  0.5626566E+02  0.7546771E-02  0.1414207E+00
         21   -1    0    0  503  501  0.00000000000E+00  0.00000000000E+00  0.15303707727E+04  0.15303707727E+04  0.00000000000E+00 0.  1.
         21   -1    0    0  501  502 -0.00000000000E+00 -0.00000000000E+00 -0.30645301450E+03  0.30645301450E+03  0.00000000000E+00 0. -1.
         21    1    1    2  503  504 -0.34612765275E+02 -0.33550842450E+02  0.43068822898E+03  0.43337749496E+03  0.00000000000E+00 0.  1.
         21    1    1    2  504  506  0.56569034980E+02  0.76189382824E+02  0.98977421101E+03  0.99431276094E+03  0.00000000000E+00 0.  1.
         21    1    1    2  505  502  0.31617425991E+02 -0.47249343146E+02 -0.29312814908E+03  0.29859047848E+03  0.00000000000E+00 0. -1.
         21    1    1    2  506  505 -0.53573695696E+02  0.46108027716E+01  0.96583467267E+02  0.11054305280E+03  0.00000000000E+00 0.  1.
<scales pt_clust_3="48.20480" pt_clust_4="52.40109" pt_clust_5="14000.00000" pt_clust_6="56.26566"></scales>
<clustering>
<clus scale="   48.205">  1  3  2 -1</clus>
<clus scale="   52.401">  1  4  2 -1</clus>
<clus scale="   56.266">  1  6  2 -1</clus>
<clus scale="   48.205">  1  3  2 -1</clus>
</clustering>
</event>
<event>
 6    0  0.1134231E+003  0.1050642E+03  0.7546771E-02  0.1269993E+00
         21   -1    0    0  502  501  0.00000000000E+00  0.00000000000E+00  0.16094679550E+04  0.16094679550E+04  0.00000000000E+00 0. -1.
         21   -1    0    0  504  502 -0.00000000000E+00 -0.00000000000E+00 -0.26569508197E+03  0.26569508197E+03  0.00000000000E+00 0.  1.
         21    1    1    2  503  505 -0.17669376578E+02  0.71842846964E+02  0.51804470431E+03  0.52330098145E+03  0.00000000000E+00 0. -1.
         21    1    1    2  504  506  0.41500508073E+02 -0.50111786618E+02 -0.22434826472E+03  0.23359286635E+03  0.00000000000E+00 0.  1.
         21    1    1    2  505  501  0.22926810265E+02  0.47487446443E+02  0.10313078792E+04  0.10326551399E+04  0.00000000000E+00 0.  1.
         21    1    1    2  506  503 -0.46757941760E+02 -0.69218506788E+02  0.18768554183E+02  0.85614049231E+02  0.00000000000E+00 0. -1.
<scales pt_clust_3="105.06417" pt_clust_4="64.89066" pt_clust_5="52.73231" pt_clust_6="14000.00000"></scales>
<clustering>
<clus scale="   52.732">  1  5  2 -1</clus>
<clus scale="   64.891">  2  4  1 -1</clus>
<clus scale="  105.064">  1  3  2 -1</clus>
<clus scale="   52.732">  1  3  2 -1</clus>
</clustering>
</event>
<event>
 6    0  0.8991567E+002  0.1142384E+03  0.7546771E-02  0.1252916E+00
         21   -1    0    0  503  501  0.00000000000E+00  0.00000000000E+00  0.12578488966E+04  0.12578488966E+04  0.00000000000E+00 0. -1.
         21   -1    0    0  504  502 -0.00000000000E+00 -0.00000000000E+00 -0.34218412060E+03  0.34218412060E+03  0.00000000000E+00 0. -1.
         21    1    1    2  503  506  0.11067211579E+03  0.59419271853E+02  0.76873054365E+03  0.77892593731E+03  0.00000000000E+00 0. -1.
         21    1    1    2  504  505  0.11780444310E+02  0.52881907133E+02 -0.27460335089E+03  0.27989690118E+03  0.00000000000E+00 0. -1.
         21    1    1    2  505  501 -0.79152389166E+01 -0.13484984426E+03  0.40040506517E+03  0.42257703169E+03  0.00000000000E+00 0. -1.
         21    1    1    2  506  502 -0.11453732119E+03  0.22548665274E+02  0.21132518080E+02  0.11863314701E+03  0.00000000000E+00 0. -1.
<scales pt_clust_3="114.23835" pt_clust_4="54.17818" pt_clust_5="14000.00000" pt_clust_6="122.66273"></scales>
<clustering>
<clus scale="   54.178">  2  4  1 -1</clus>
<clus scale="  122.663">  2  6  1 -1</clus>
<clus scale="  114.238">  1  3  2 -1</clus>
<clus scale="  114.238">  1  3  2 -1</clus>
</clustering>
</event>
<event>
 6    0  0.8991567E+002  0.8766901E+02  0.7546771E-02  0.1308597E+00
         21   -1    0    0  506  501  0.00000000000E+00  0.00000000000E+00  0.54296719240E+03  0.54296719240E+03  0.00000000000E+00 0.  1.
         21   -1    0    0  505  502 -0.00000000000E+00 -0.00000000000E+00 -0.84129848339E+03  0.84129848339E+03  0.00000000000E+00 0.  1.
         21    1    1    2  503  504  0.60817451681E+02  0.68002587049E+02 -0.25493010904E+03  0.27076276474E+03  0.00000000000E+00 0.  1.
         21    1    1    2  504  502 -0.29640296349E+02  0.10835777200E+02 -0.53565901110E+03  0.53658786550E+03  0.00000000000E+00 0.  1.
         21    1    1    2  505  501 -0.65786122210E+02 -0.95982311912E+02  0.40052687749E+02  0.12306354404E+03  0.00000000000E+00 0.  1.
         21    1    1    2  506  503  0.34608966878E+02  0.17143947663E+02  0.45220514139E+03  0.45385150152E+03  0.00000000000E+00 0.  1.
<scales pt_clust_3="14000.00000" pt_clust_4="31.55885" pt_clust_5="87.66901" pt_clust_6="38.56385"></scales>
<clustering>
<clus scale="   31.559">  2  4  1 -1</clus>
<clus scale="   38.564">  1  6  2 -1</clus>
<clus scale="   87.669">  1  5  2 -1</clus>
<clus scale="   38.564">  1  3  2 -1</clus>
</clustering>
</event>
<event>
 6    0  0.8991567E+002  0.8338065E+02  0.7546771E-02  0.1319722E+00
         21   -1    0    0  503  501  0.00000000000E+00  0.00000000000E+00  0.18007814245E+03  0.18007814245E+03  0.00000000000E+00 0.  1.
         21   -1    0    0  504  502 -0.00000000000E+00 -0.00000000000E+00 -0.39702880108E+03  0.39702880108E+03  0.00000000000E+00 0. -1.
         21    1    1    2  503  506 -0.24867863940E+02 -0.21171985007E+02  0.11027829666E+03  0.11501289632E+03  0.00000000000E+00 0.  1.
         21    1    1    2  504  501 -0.51893314691E+02  0.44896973773E+02  0.50385504172E+01  0.68804370166E+02  0.00000000000E+00 0. -1.
         21    1    1    2  505  502 -0.40722357023E+02 -0.27602357795E+01 -0.23727354155E+03  0.24075851549E+03  0.00000000000E+00 0. -1.
         21    1    1    2  506  505  0.11748353565E+03 -0.20964752986E+02 -0.94993964151E+02  0.15253116155E+03  0.00000000000E+00 0. -1.
<scales pt_clust_3="32.65982" pt_clust_4="83.38065" pt_clust_5="41.49696" pt_clust_6="14000.00000"></scales>
<clustering>
<clus scale="   32.660">  1  3  2 -1</clus>
<clus scale="   41.497">  2  5  1 -1</clus>
<clus scale="   83.381">  1  4  2 -1</clus>
<clus scale="   32.660">  1  3  2 -1</clus>
</clustering>
</event>
<event>
 6    0  0.8991567E+002  0.8640568E+02  0.7546771E-02  0.1311797E+00
         21   -1    0    0  504  501  0.00000000000E+00  0.00000000000E+00  0.53959009117E+02  0.53959009117E+02  0.00000000000E+00 0.  1.
         21   -1    0    0  505  502 -0.00000000000E+00 -0.00000000000E+00 -0.80914417091E+03  0.80914417091E+03  0.00000000000E+00 0.  1.
         21    1    1    2  503  502 -0.28210591283E+02  0.55044935396E+02 -0.26154754666E+03  0.26876179330E+03  0.00000000000E+00 0.  1.
         21    1    1    2  504  503 -0.48515409482E+02 -0.54512946313E+02 -0.52671504450E+02  0.89998298061E+02  0.00000000000E+00 0.  1.
         21    1    1    2  505  506  0.10696419370E+03 -0.84141856959E+00 -0.45752739873E+03  0.46986526506E+03  0.00000000000E+00 0.  1.
         21    1    1    2  506  501 -0.30238192938E+02  0.30942948705E+00  0.16561288050E+02  0.34477823606E+02  0.00000000000E+00 0.  1.
<scales pt_clust_3="63.72758" pt_clust_4="86.40568" pt_clust_5="14000.00000" pt_clust_6="30.23978"></scales>
<clustering>
<clus scale="   30.240">  1  6  2 -1</clus>
<clus scale="   63.728">  2  3  1 -1</clus>
<clus scale="   86.406">  1  4  2 -1</clus>
<clus scale="   30.240">  1  3  2 -1</clus>
</clustering>
</event>
<event>
 6    0  0.8991567E+002  0.9241962E+02  0.7546771E-02  0.1297096E+00
         21   -1    0    0  503  501  0.00000000000E+00  0.00000000000E+00  0.11407739722E+03  0.11407739722E+03  0.00000000000E+00 0.  1.
         21   -1    0    0  504  502 -0.00000000000E+00 -0.00000000000E+00 -0.22532593565E+03  0.22532593565E+03  0.00000000000E+00 0.  1.
         21    1    1    2  503  505  0.81680954597E+02 -0.28331791752E+02  0.62768085022E+01  0.86682565103E+02  0.00000000000E+00 0.  1.
         21    1    1    2  504  506 -0.17030678601E+02  0.48032878304E+02 -0.35289120047E+02  0.61988090836E+02  0.00000000000E+00 0.  1.
         21    1    1    2  505  502  0.45565113330E+02  0.82827941407E+01 -0.58425252105E+02  0.74553969143E+02  0.00000000000E+00 0.  1.
         21    1    1    2  506  501 -0.11021538933E+03 -0.27983880692E+02 -0.23810974787E+02  0.11617870779E+03  0.00000000000E+00 0.  1.
<scales pt_clust_3="14000.00000" pt_clust_4="50.66280" pt_clust_5="46.31182" pt_clust_6="92.41962"></scales>
<clustering>
<clus scale="   46.312">  2  5  1 -1</clus>
<clus scale="   50.663">  2  4  1 -1</clus>
<clus scale="   92.420">  2  6  1 -1</clus>
<clus scale="   92.420">  1  3  2 -1</clus>
</clustering>
</event>
<event>
 6    0  0.8991567E+002  0.9499502E+02  0.7546771E-02  0.1291187E+00
         21   -1    0    0  504  501  0.00000000000E+00  0.00000000000E+00  0.97578062635E+03  0.97578062635E+03  0.00000000000E+00 0. -1.
         21   -1    0    0  503  502 -0.00000000000E+00 -0.00000000000E+00 -0.54503626494E+02  0.54503626494E+02  0.00000000000E+00 0. -1.
         21    1    1    2  503  505 -0.24278456444E+02  0.26303531719E+02  0.52736805987E+02  0.63737664955E+02  0.00000000000E+00 0.  1.
         21    1    1    2  504  506 -0.30787524510E+02 -0.11367591205E+02  0.18573228424E+03  0.18860958407E+03  0.00000000000E+00 0. -1.
         21    1    1    2  505  501  0.37148757490E+02  0.10139257581E+03  0.64549358783E+03  0.65446348755E+03  0.00000000000E+00 0. -1.
         21    1    1    2  506  502  0.17917223463E+02 -0.11632851633E+03  0.37314321805E+02  0.12347351627E+03  0.00000000000E+00 0. -1.
<scales pt_clust_3="36.78899" pt_clust_4="32.81911" pt_clust_5="94.99502" pt_clust_6="14000.00000"></scales>
<clustering>
<clus scale="   32.819">  1  4  2 -1</clus>
<clus scale="   36.789">  2  3  1 -1</clus>
<clus scale="   94.995">  1  5  2 -1</clus>
<clus scale="   32.819">  1  3  2 -1</clus>
</clustering>
</event>
<event>
 6    0  0.8991567E+002  0.1232405E+03  0.7546771E-02  0.1237845E+00
         21   -1    0    0  504  501  0.00000000000E+00  0.00000000000E+00  0.24496583366E+03  0.24496583366E+03  0.00000000000E+00 0. -1.
         21   -1    0    0  506  502 -0.00000000000E+00 -0.00000000000E+00 -0.10869927810E+04  0.10869927810E+04  0.00000000000E+00 0. -1.
         21    1    1    2  503  502  0.29621071534E+02  0.10364129163E+02 -0.10122639771E+04  0.10127503060E+04  0.00000000000E+00 0. -1.
         21    1    1    2  504  503 -0.68302453536E+02 -0.10756152177E+03  0.21294044097E+02  0.12918259340E+03  0.00000000000E+00 0. -1.
         21    1    1    2  505  501  0.24312342341E+02  0.51316523152E+02  0.12281364906E+03  0.13530583112E+03  0.00000000000E+00 0. -1.
         21    1    1    2  506  505  0.14369039661E+02  0.45880869456E+02  0.26129336604E+02  0.54719884084E+02  0.00000000000E+00 0. -1.
<scales pt_clust_3="31.38189" pt_clust_4="110.48102" pt_clust_5="51.36539" pt_clust_6="51.36539"></scales>
<clustering>
<clus scale="   31.382">  2  3  1 -1</clus>
<clus scale="   51.365">  5  6 -1 -1</clus>
<clus scale="  110.481">  2  4  1 -1</clus>
<clus scale="  123.241">  1  3  2 -1</clus>
</clustering>
</event>
<event>
 6    0  0.8991567E+002  0.6792383E+02  0.7546771E-02  0.1367299E+00
         21   -1    0    0  504  501  0.00000000000E+00  0.00000000000E+00  0.33783648595E+03  0.33783648595E+03  0.00000000000E+00 0. -1.
         21   -1    0    0  505  502 -0.00000000000E+00 -0.00000000000E+00 -0.29213027228E+03  0.29213027228E+03  0.00000000000E+00 0. -1.
         21    1    1    2  503  501 -0.95021921496E+01 -0.67395119095E+02  0.28074449014E+03  0.28887689848E+03  0.00000000000E+00 0. -1.
         21    1    1    2  504  502 -0.11650075720E+02 -0.66917278840E+02 -0.50833162569E+02  0.84839005701E+02  0.00000000000E+00 0. -1.
         21    1    1    2  505  506  0.53822362899E+02  0.67960132933E+02 -0.15325818149E+03  0.17607809804E+03  0.00000000000E+00 0. -1.
         21    1    1    2  506  503 -0.32670095030E+02  0.66352265002E+02 -0.30946932415E+02  0.80172756009E+02  0.00000000000E+00 0. -1.
<scales pt_clust_3="14000.00000" pt_clust_4="67.92383" pt_clust_5="49.03017" pt_clust_6="67.64930"></scales>
<clustering>
<clus scale="   67.924">  2  4  1 -1</clus>
<clus scale="   49.030">  2  5  1 -1</clus>
<clus scale="   67.649">  2  6  1 -1</clus>
<clus scale="   67.924">  1  3  2 -1</clus>
</clustering>
</event>
<event>
 6    0  0.8991567E+002  0.8693006E+02  0.7546771E-02  0.1310461E+00
         21   -1    0    0  504  501  0.00000000000E+00  0.00000000000E+00  0.55803720013E+03  0.55803720013E+03  0.00000000000E+00 0.  1.
         21   -1    0    0  506  502 -0.00000000000E+00 -0.00000000000E+00 -0.81258578495E+03  0.81258578495E+03  0.00000000000E+00 0.  1.
         21    1    1    2  503  501 -0.89441338473E+02 -0.20254182785E+02  0.27179110321E+03  0.28684558343E+03  0.00000000000E+00 0.  1.
         21    1    1    2  504  505  0.10720457180E+02  0.34453391775E+02  0.18300267108E+03  0.18652598219E+03  0.00000000000E+00 0.  1.
         21    1    1    2  505  502 -0.29082727907E+02 -0.30514553845E+02 -0.77089418460E+03  0.77204584508E+03  0.00000000000E+00 0.  1.
         21    1    1    2  506  503  0.10780360920E+03  0.16315344855E+02  0.61551825487E+02  0.12520557438E+03  0.00000000000E+00 0.  1.
<scales pt_clust_3="14000.00000" pt_clust_4="36.08274" pt_clust_5="42.10393" pt_clust_6="86.93006"></scales>
<clustering>
<clus scale="   36.083">  1  4  2 -1</clus>
<clus scale="   42.104">  2  5  1 -1</clus>
<clus scale="   86.930">  2  6  1 -1</clus>
<clus scale="   36.083">  1  3  2 -1</clus>
</clustering>
</event>
<event>
 6    0  0.8991567E+002  0.1027596E+03  0.7546771E-02  0.1274598E+00
         21   -1    0    0  506  501  0.00000000000E+00  0.00000000000E+00  0.12592171356E+04  0.12592171356E+04  0.00000000000E+00 0.  1.
         21   -1    0    0  504  502 -0.00000000000E+00 -0.00000000000E+00 -0.76989169059E+02  0.76989169059E+02  0.00000000000E+00 0.  1.
         21    1    1    2  503  502 -0.45794846398E+02 -0.98953828000E+02  0.10222918238E+03  0.14946515903E+03  0.00000000000E+00 0.  1.
         21    1    1    2  504  501  0.83283669977E+00  0.10290857076E+03  0.11524099573E+02  0.10355516609E+03  0.00000000000E+00 0.  1.
         21    1    1    2  505  503  0.61884874490E+02  0.23145105618E+02  0.14709493624E+03  0.16125245385E+03  0.00000000000E+00 0.  1.
         21    1    1    2  506  505 -0.16922864792E+02 -0.27099848380E+02  0.92137974832E+03  0.92193352567E+03  0.00000000000E+00 0.  1.
<scales pt_clust_3="102.75960" pt_clust_4="14000.00000" pt_clust_5="55.21582" pt_clust_6="31.94973"></scales>
<clustering>
<clus scale="   31.950">  1  6  2 -1</clus>
<clus scale="   55.216">  1  5  2 -1</clus>
<clus scale="  102.760">  1  3  2 -1</clus>
<clus scale="   31.950">  1  3  2 -1</clus>
</clustering>
</event>
<event>
 6    0  0.8991567E+002  0.6183918E+02  0.7546771E-02  0.1390272E+00
         21   -1    0    0  504  501  0.00000000000E+00  0.00000000000E+00  0.20925656161E+04  0.20925656161E+04  0.00000000000E+00 0.  1.
         21   -1    0    0  505  502 -0.00000000000E+00 -0.00000000000E+00 -0.12493162649E+02  0.12493162649E+02  0.00000000000E+00 0.  1.
         21    1    1    2  503  502 -0.28034392936E+02 -0.48049961313E+02  0.15856755508E+03  0.16804283827E+03  0.00000000000E+00 0.  1.
         21    1    1    2  504  506 -0.34234923349E+02 -0.32151471471E+02  0.10509748728E+04  0.10520237309E+04  0.00000000000E+00 0.  1.
         21    1    1    2  505  501 -0.27150348381E+02  0.58231772741E+02  0.27640563051E+03  0.28377482861E+03  0.00000000000E+00 0.  1.
         21    1    1    2  506  503  0.89419664666E+02  0.21969660043E+02  0.59412439506E+03  0.60121738098E+03  0.00000000000E+00 0.  1.
<scales pt_clust_3="14000.00000" pt_clust_4="46.96538" pt_clust_5="61.48548" pt_clust_6="61.83918"></scales>
<clustering>
<clus scale="   46.965">  1  4  2 -1</clus>
<clus scale="   61.485">  2  5  1 -1</clus>
<clus scale="   61.839">  1  6  2 -1</clus>
<clus scale="   46.965">  1  3  2 -1</clus>
</clustering>
</event>
<event>
 6    0  0.8991567E+002  0.1316196E+03  0.7546771E-02  0.1225072E+00
         21   -1    0    0  506  501  0.00000000000E+00  0.00000000000E+00  0.43271275027E+03  0.43271275027E+03  0.00000000000E+00 0.  1.
         21   -1    0    0  505  502 -0.00000000000E+00 -0.00000000000E+00 -0.86989060017E+03  0.86989060017E+03  0.00000000000E+00 0.  1.
         21    1    1    2  503  502 -0.89255298877E+02 -0.12998786070E+03 -0.70545113819E+03  0.72285867269E+03  0.00000000000E+00 0.  1.
         21    1    1    2  504  501  0.53837355906E+02 -0.75079061051E+00 -0.10217659733E+02  0.54803514011E+02  0.00000000000E+00 0.  1.
         21    1    1    2  505  504  0.35219642405E+02  0.10880878703E+02 -0.11124390317E+03  0.11719224686E+03  0.00000000000E+00 0. -1.
         21    1    1    2  506  503  0.19830056616E+00  0.11985777261E+03  0.38973485119E+03  0.40774891687E+03  0.00000000000E+00 0.  1.
<scales pt_clust_3="131.61960" pt_clust_4="55.35330" pt_clust_5="36.86213" pt_clust_6="14000.00000"></scales>
<clustering>
<clus scale="   36.862">  2  5  1 -1</clus>
<clus scale="   55.353">  1  4  2 -1</clus>
<clus scale="  131.620">  2  3  1 -1</clus>
<clus scale="   55.353">  1  3  2 -1</clus>
</clustering>
</event>
<event>
 6    0  0.8991567E+002  0.3579717E+03  0.7546771E-02  0.1059390E+00
         21   -1    0    0  505  501  0.00000000000E+00  0.00000000000E+00  0.20572166093E+04  0.20572166093E+04  0.00000000000E+00 0.  1.
         21   -1    0    0  503  502 -0.00000000000E+00 -0.00000000000E+00 -0.34626582390E+03  0.34626582390E+03  0.00000000000E+00 0. -1.
         21    1    1    2  503  501  0.63310504109E+02 -0.36928511631E+03 -0.19347351982E+03  0.42167726988E+03  0.00000000000E+00 0. -1.
         21    1    1    2  504  506 -0.27763086232E+02  0.10738299502E+03  0.66322609012E+03  0.67243642316E+03  0.00000000000E+00 0. -1.
         21    1    1    2  505  504  0.53886614024E+02  0.34344556349E+00  0.69613823010E+03  0.69822082505E+03  0.00000000000E+00 0.  1.
         21    1    1    2  506  502 -0.89434031901E+02  0.26155867572E+03  0.54505998504E+03  0.61114791516E+03  0.00000000000E+00 0. -1.
<scales pt_clust_3="14000.00000" pt_clust_4="107.55953" pt_clust_5="53.88771" pt_clust_6="357.97169"></scales>
<clustering>
<clus scale="   53.888">  1  5  2 -1</clus>
<clus scale="  107.560">  1  4  2 -1</clus>
<clus scale="  357.972">  1  6  2 -1</clus>
<clus scale="   53.888">  1  3  2 -1</clus>
</clustering>
</event>
<event>
 6    0  0.8991567E+002  0.8133434E+02  0.7546771E-02  0.1325307E+00
         21   -1    0    0  506  501  0.00000000000E+00  0.00000000000E+00  0.36079943843E+03  0.36079943843E+03  0.00000000000E+00 0. -1.
         21   -1    0    0  503  502 -0.00000000000E+00 -0.00000000000E+00 -0.73038860440E+02  0.73038860440E+02  0.00000000000E+00 0. -1.
         21    1    1    2  503  505 -0.33209538150E+02 -0.27361647573E+02  0.10045440544E+03  0.10928229845E+03  0.00000000000E+00 0. -1.
         21    1    1    2  504  502 -0.50709460140E+02  0.80826337205E+02  0.10947979873E+02  0.96042721728E+02  0.00000000000E+00 0. -1.
         21    1    1    2  505  501  0.93391816070E+01 -0.32993567967E+02  0.13797851890E+03  0.14217548142E+03  0.00000000000E+00 0. -1.
         21    1    1    2  506  504  0.74579816682E+02 -0.20471121665E+02  0.38379673784E+02  0.86337797275E+02  0.00000000000E+00 0. -1.
<scales pt_clust_3="51.76932" pt_clust_4="81.33434" pt_clust_5="34.28988" pt_clust_6="14000.00000"></scales>
<clustering>
<clus scale="   34.290">  1  5  2 -1</clus>
<clus scale="   51.769">  1  3  2 -1</clus>
<clus scale="   81.334">  2  4  1 -1</clus>
<clus scale="   34.290">  1  3  2 -1</clus>
</clustering>
</event>
<event>
 6    0  0.8991567E+002  0.9140372E+02  0.7546771E-02  0.1299488E+00
         21   -1    0    0  506  501  0.00000000000E+00  0.00000000000E+00  0.10264855565E+04  0.10264855565E+04  0.00000000000E+00 0. -1.
         21   -1    0    0  505  502 -0.00000000000E+00 -0.00000000000E+00 -0.21879080736E+03  0.21879080736E+03  0.00000000000E+00 0.  1.
         21    1    1    2  503  501 -0.73743752359E+01  0.53858563038E+02  0.82979567786E+03  0.83157440630E+03  0.00000000000E+00 0. -1.
         21    1    1    2  504  502 -0.88454322193E+01 -0.65728431006E+02 -0.16179419846E+03  0.17485946062E+03  0.00000000000E+00 0.  1.
         21    1    1    2  505  503 -0.13770272630E+02 -0.86248645322E+02  0.41019522816E+02  0.96493784672E+02  0.00000000000E+00 0.  1.
         21    1    1    2  506  504  0.29990080086E+02  0.98118513290E+02  0.98673746961E+02  0.14234871230E+03  0.00000000000E+00 0.  1.
<scales pt_clust_3="54.36107" pt_clust_4="64.57471" pt_clust_5="14000.00000" pt_clust_6="91.40372"></scales>
<clustering>
<clus scale="   54.361">  1  3  2 -1</clus>
<clus scale="   64.575">  2  4  1 -1</clus>
<clus scale="   91.404">  2  6  1 -1</clus>
<clus scale="   54.361">  1  3  2 -1</clus>
</clustering>
</event>
<event>
 6    0  0.8991567E+002  0.9217474E+02  0.7546771E-02  0.1297669E+00
         21   -1    0    0  503  501  0.00000000000E+00  0.00000000000E+00  0.39584711663E+03  0.39584711663E+03  0.00000000000E+00 0.  1.
         21   -1    0    0  506  502 -0.00000000000E+00 -0.00000000000E+00 -0.66259125107E+02  0.66259125107E+02  0.00000000000E+00 0.  1.
         21    1    1    2  503  504 -0.49100790706E+02  0.10818212314E+03  0.19664901183E+03  0.22975006696E+03  0.00000000000E+00 0.  1.
         21    1    1    2  504  502  0.67222293599E+02 -0.35575263220E+02  0.32903284411E+01  0.76126620647E+02  0.00000000000E+00 0.  1.
         21    1    1    2  505  501 -0.66058365374E+01 -0.33205338023E+02  0.10004577467E+03  0.10561907299E+03  0.00000000000E+00 0.  1.
         21    1    1    2  506  505 -0.11515666356E+02 -0.39401521895E+02  0.29602876580E+02  0.50610481139E+02  0.00000000000E+00 0.  1.
<scales pt_clust_3="92.17474" pt_clust_4="14000.00000" pt_clust_5="33.85604" pt_clust_6="45.66783"></scales>
<clustering>
<clus scale="   33.856">  1  5  2 -1</clus>
<clus scale="   45.668">  2  6  1 -1</clus>
<clus scale="   92.175">  1  3  2 -1</clus>
<clus scale="   33.856">  1  3  2 -1</clus>
</clustering>
</event>
<event>
 6    0  0.8991567E+002  0.8131217E+02  0.7546771E-02  0.1325368E+00
         21   -1    0    0  504  501  0.00000000000E+00  0.00000000000E+00  0.38756268624E+03  0.38756268624E+03  0.00000000000E+00 0. -1.
         21   -1    0    0  503  502 -0.00000000000E+00 -0.00000000000E+00 -0.46935422389E+03  0.46935422389E+03  0.00000000000E+00 0.  1.
         21    1    1    2  503  506  0.12924762695E+02 -0.34058605602E+02 -0.28107312420E+03  0.28342395674E+03  0.00000000000E+00 0.  1.
         21    1    1    2  504  505  0.72746406694E+02 -0.19341325212E+02  0.31592337952E+03  0.32476716010E+03  0.00000000000E+00 0. -1.
         21    1    1    2  505  502 -0.69715262074E+02  0.89873251473E+02 -0.15578855733E+03  0.19289244073E+03  0.00000000000E+00 0.  1.
         21    1    1    2  506  501 -0.15955907315E+02 -0.36473320660E+02  0.39146764363E+02  0.55833352562E+02  0.00000000000E+00 0. -1.
<scales pt_clust_3="36.42853" pt_clust_4="14000.00000" pt_clust_5="81.31217" pt_clust_6="40.98691"></scales>
<clustering>
<clus scale="   36.429">  2  3  1 -1</clus>
<clus scale="   40.987">  1  6  2 -1</clus>
<clus scale="   81.312">  2  5  1 -1</clus>
<clus scale="   40.987">  1  3  2 -1</clus>
</clustering>
</event>
<event>
 6    0  0.8991567E+002  0.1322243E+03  0.7546771E-02  0.1224192E+00
         21   -1    0    0  504  501  0.00000000000E+00  0.00000000000E+00  0.31557489185E+04  0.31557489185E+04  0.00000000000E+00 0.  1.
         21   -1    0    0  506  502 -0.00000000000E+00 -0.00000000000E+00 -0.14344275171E+03  0.14344275171E+03  0.00000000000E+00 0.  1.
         21    1    1    2  503  502 -0.42566076805E+02 -0.49875197268E+02  0.11701840383E+03  0.13413691897E+03  0.00000000000E+00 0.  1.
         21    1    1    2  504  503 -0.67275603449E+02  0.10303540210E+03  0.29965886852E+04  0.29991142107E+04  0.00000000000E+00 0.  1.
         21    1    1    2  505  501  0.84291912205E+02 -0.23833453966E+02 -0.47783376427E+02  0.99781817251E+02  0.00000000000E+00 0.  1.
         21    1    1    2  506  505  0.25549768048E+02 -0.29326750867E+02 -0.53517545756E+02  0.66158723291E+02  0.00000000000E+00 0. -1.
<scales pt_clust_3="65.56986" pt_clust_4="122.88237" pt_clust_5="32.53000" pt_clust_6="32.53000"></scales>
<clustering>
<clus scale="   32.530">  5  6 -1 -1</clus>
<clus scale="   65.570">  2  3  1 -1</clus>
<clus scale="  122.882">  1  4  2 -1</clus>
<clus scale="  122.882">  1  3  2 -1</clus>
</clustering>
</event>
<event>
 6    0  0.8991567E+002  0.1216333E+03  0.7546771E-02  0.1240427E+00
         21   -1    0    0  503  501  0.00000000000E+00  0.00000000000E+00  0.57318261469E+03  0.57318261469E+03  0.00000000000E+00 0.  1.
         21   -1    0    0  506  502 -0.00000000000E+00 -0.00000000000E+00 -0.29814510757E+03  0.29814510757E+03  0.00000000000E+00 0. -1.
         21    1    1    2  503  504 -0.11846809297E+03 -0.10471485934E+03  0.43518445794E+03  0.46301771376E+03  0.00000000000E+00 0.  1.
         21    1    1    2  504  502 -0.71296374893E+02 -0.83021143418E+01  0.85378152289E+01  0.72284109349E+02  0.00000000000E+00 0. -1.
         21    1    1    2  505  501  0.64314688548E+02  0.63518903256E+01  0.35484208306E+02  0.73728249083E+02  0.00000000000E+00 0.  1.
         21    1    1    2  506  505  0.12544977931E+03  0.10666508336E+03 -0.20416897436E+03  0.26229765006E+03  0.00000000000E+00 0. -1.
<scales pt_clust_3="14000.00000" pt_clust_4="66.74273" pt_clust_5="64.62759" pt_clust_6="121.63334"></scales>
<clustering>
<clus scale="   64.628">  1  5  2 -1</clus>
<clus scale="   66.743">  2  4  1 -1</clus>
<clus scale="  121.633">  2  6  1 -1</clus>
<clus scale="   64.628">  1  3  2 -1</clus>
</clustering>
</event>
<event>
 6    0  0.8991567E+002  0.7060576E+02  0.7546771E-02  0.1358045E+00
         21   -1    0    0  503  501  0.00000000000E+00  0.00000000000E+00  0.80143326941E+03  0.80143326941E+03  0.00000000000E+00 0. -1.
         21   -1    0    0  506  502 -0.00000000000E+00 -0.00000000000E+00 -0.44063753351E+02  0.44063753351E+02  0.00000000000E+00 0. -1.
         21    1    1    2  503  505  0.79729501679E+01  0.29294724314E+02  0.43893210606E+03  0.43998084337E+03  0.00000000000E+00 0. -1.
         21    1    1    2  504  502 -0.10868966648E+03 -0.17293711432E+02  0.18481472918E+03  0.21510230165E+03  0.00000000000E+00 0. -1.
         21    1    1    2  505  504  0.48358784301E+02 -0.45122637598E+02  0.10008213492E+03  0.11996273661E+03  0.00000000000E+00 0. -1.
         21    1    1    2  506  501  0.52357932007E+02  0.33121624715E+02  0.33540545902E+02  0.70451141135E+02  0.00000000000E+00 0. -1.
<scales pt_clust_3="30.36032" pt_clust_4="14000.00000" pt_clust_5="62.37475" pt_clust_6="70.60576"></scales>
<clustering>
<clus scale="   30.360">  1  3  2 -1</clus>
<clus scale="   62.375">  1  5  2 -1</clus>
<clus scale="   70.606">  2  6  1 -1</clus>
<clus scale="   30.360">  1  3  2 -1</clus>
</clustering>
</event>
<event>
 6    0  0.8991567E+002  0.1262730E+03  0.7546771E-02  0.1233093E+00
         21   -1    0    0  506  501  0.00000000000E+00  0.00000000000E+00  0.58840816370E+03  0.58840816370E+03  0.00000000000E+00 0. -1.
         21   -1    0    0  505  502 -0.00000000000E+00 -0.00000000000E+00 -0.15540541110E+03  0.15540541110E+03  0.00000000000E+00 0. -1.
         21    1    1    2  503  502  0.35760287801E+02 -0.22601454433E+01 -0.45180482057E+02  0.57664394560E+02  0.00000000000E+00 0. -1.
         21    1    1    2  504  503  0.58711651783E+02  0.66030214602E+02 -0.68720694688E+02  0.11193561173E+03  0.00000000000E+00 0. -1.
         21    1    1    2  505  501 -0.12648728930E+03 -0.36303864563E+02  0.44109238730E+03  0.46030370308E+03  0.00000000000E+00 0. -1.
         21    1    1    2  506  504  0.32015349712E+02 -0.27466204596E+02  0.10581154205E+03  0.11390986543E+03  0.00000000000E+00 0.  1.
<scales pt_clust_3="33.69163" pt_clust_4="33.69163" pt_clust_5="114.65498" pt_clust_6="42.18264"></scales>
<clustering>
<clus scale="   33.692">  3  4 -1 -1</clus>
<clus scale="   42.183">  1  6  2 -1</clus>
<clus scale="  114.655">  1  5  2 -1</clus>
<clus scale="   42.183">  1  3  2 -1</clus>
</clustering>
</event>
<event>
 6    0  0.8991567E+002  0.1026206E+03  0.7546771E-02  0.1274880E+00
         21   -1    0    0  506  501  0.00000000000E+00  0.00000000000E+00  0.48474513505E+02  0.48474513505E+02  0.00000000000E+00 0.  1.
         21   -1    0    0  501  502 -0.00000000000E+00 -0.00000000000E+00 -0.12382472908E+04  0.12382472908E+04  0.00000000000E+00 0.  1.
         21    1    1    2  503  504  0.24971006389E+02 -0.81081315501E+02 -0.43886435963E+03  0.44698954914E+03  0.00000000000E+00 0.  1.
         21    1    1    2  504  502 -0.17187496779E+01  0.74016619489E+02 -0.62289426864E+03  0.62727879285E+03  0.00000000000E+00 0.  1.
         21    1    1    2  505  503  0.31238733513E+02 -0.47668621114E+02 -0.12239764843E+03  0.13501607405E+03  0.00000000000E+00 0. -1.
         21    1    1    2  506  505 -0.54490990224E+02  0.54733317126E+02 -0.56165005726E+01  0.77437388243E+02  0.00000000000E+00 0.  1.
<scales pt_clust_3="51.70355" pt_clust_4="74.03657" pt_clust_5="51.70355" pt_clust_6="80.94178"></scales>
<clustering>
<clus scale="   51.704">  3  5 -1 -1</clus>
<clus scale="   74.037">  2  4  1 -1</clus>
<clus scale="   80.942">  1  6  2 -1</clus>
<clus scale="   80.942">  1  3  2 -1</clus>
</clustering>
</event>
<event>
 6    0  0.8991567E+002  0.1461941E+03  0.7546771E-02  0.1205229E+00
         21   -1    0    0  506  501  0.00000000000E+00  0.00000000000E+00  0.14448111633E+03  0.14448111633E+03  0.00000000000E+00 0.  1.
         21   -1    0    0  504  502 -0.00000000000E+00 -0.00000000000E+00 -0.33723570410E+03  0.33723570410E+03  0.00000000000E+00 0.  1.
         21    1    1    2  503  502 -0.95905729136E+02 -0.18507396122E+02 -0.13317508680E+03  0.16515458315E+03  0.00000000000E+00 0.  1.
         21    1    1    2  504  501  0.22670710801E+02  0.30409545486E+02 -0.82040373004E+02  0.90384314942E+02  0.00000000000E+00 0.  1.
         21    1    1    2  505  503 -0.54092281905E+02  0.25546864437E+02 -0.47280045404E+02  0.76249720903E+02  0.00000000000E+00 0.  1.
         21    1    1    2  506  505  0.12732730024E+03 -0.37449013801E+02  0.69740917439E+02  0.14992820144E+03  0.00000000000E+00 0.  1.
<scales pt_clust_3="47.45453" pt_clust_4="37.93022" pt_clust_5="47.45453" pt_clust_6="134.94328"></scales>
<clustering>
<clus scale="   37.930">  2  4  1 -1</clus>
<clus scale="   47.455">  3  5 -1 -1</clus>
<clus scale="  134.943">  1  6  2 -1</clus>
<clus scale="  134.943">  1  3  2 -1</clus>
</clustering>
</event>
<event>
 6    0  0.8991567E+002  0.7617846E+02  0.7546771E-02  0.1340260E+00
         21   -1    0    0  504  501  0.00000000000E+00  0.00000000000E+00  0.95525059359E+02  0.95525059359E+02  0.00000000000E+00 0.  1.
         21   -1    0    0  505  502 -0.00000000000E+00 -0.00000000000E+00 -0.52467832423E+03  0.52467832423E+03  0.00000000000E+00 0.  1.
         21    1    1    2  503  502  0.19188470764E+02 -0.54916078215E+02 -0.13085859605E+03  0.14320595385E+03  0.00000000000E+00 0.  1.
         21    1    1    2  504  503  0.45798613143E+02  0.15534312429E+02  0.13822801920E+01  0.48381179471E+02  0.00000000000E+00 0.  1.
         21    1    1    2  505  506 -0.28611416360E+02  0.90871158250E+02 -0.34045612599E+03  0.35353437495E+03  0.00000000000E+00 0.  1.
         21    1    1    2  506  501 -0.36375667547E+02 -0.51489392463E+02  0.40779176982E+02  0.75081875317E+02  0.00000000000E+00 0.  1.
<scales pt_clust_3="76.17846" pt_clust_4="48.36143" pt_clust_5="14000.00000" pt_clust_6="38.76859"></scales>
<clustering>
<clus scale="   48.361">  1  4  2 -1</clus>
<clus scale="   38.769">  1  6  2 -1</clus>
<clus scale="   76.178">  2  3  1 -1</clus>
<clus scale="   48.361">  1  3  2 -1</clus>
</clustering>
</event>
<event>
 6    0  0.8991567E+002  0.8534424E+02  0.7546771E-02  0.1314535E+00
         21   -1    0    0  505  501  0.00000000000E+00  0.00000000000E+00  0.58096425699E+03  0.58096425699E+03  0.00000000000E+00 0. -1.
         21   -1    0    0  506  502 -0.00000000000E+00 -0.00000000000E+00 -0.54894060217E+02  0.54894060217E+02  0.00000000000E+00 0.  1.
         21    1    1    2  503  501  0.12642402258E+02 -0.60501144887E+02  0.25234702384E+03  0.25980615718E+03  0.00000000000E+00 0. -1.
         21    1    1    2  504  502 -0.82284151441E+02 -0.15059108120E+02  0.10194953823E+03  0.13187557265E+03  0.00000000000E+00 0.  1.
         21    1    1    2  505  504  0.52390853627E+02  0.10011020840E+03  0.18048215790E+03  0.21293347480E+03  0.00000000000E+00 0. -1.
         21    1    1    2  506  503  0.17250895556E+02 -0.24549955397E+02 -0.87085231966E+01  0.31243112580E+02  0.00000000000E+00 0.  1.
<scales pt_clust_3="64.76390" pt_clust_4="85.34424" pt_clust_5="14000.00000" pt_clust_6="30.00489"></scales>
<clustering>
<clus scale="   30.005">  2  6  1 -1</clus>
<clus scale="   64.764">  1  3  2 -1</clus>
<clus scale="   85.344">  2  4  1 -1</clus>
<clus scale="   64.764">  1  3  2 -1</clus>
</clustering>
</event>
<event>
 6    0  0.8991567E+002  0.8680836E+02  0.7546771E-02  0.1310770E+00
         21   -1    0    0  505  501  0.00000000000E+00  0.00000000000E+00  0.10279098449E+03  0.10279098449E+03  0.00000000000E+00 0.  1.
         21   -1    0    0  504  502 -0.00000000000E+00 -0.00000000000E+00 -0.22868047380E+04  0.22868047380E+04  0.00000000000E+00 0. -1.
         21    1    1    2  503  502 -0.96883481945E+01  0.11131731236E+03 -0.18076153274E+04  0.18110655924E+04  0.00000000000E+00 0. -1.
         21    1    1    2  504  501  0.45082970744E+02 -0.28332699189E+02  0.78694244390E+02  0.95015789185E+02  0.00000000000E+00 0.  1.
         21    1    1    2  505  506 -0.21806489880E+02 -0.24670944218E+02 -0.99993632601E+01  0.34411709564E+02  0.00000000000E+00 0.  1.
         21    1    1    2  506  503 -0.13588132669E+02 -0.58313668956E+02 -0.44509330724E+03  0.44910263135E+03  0.00000000000E+00 0. -1.
<scales pt_clust_3="14000.00000" pt_clust_4="57.33353" pt_clust_5="32.92687" pt_clust_6="86.80836"></scales>
<clustering>
<clus scale="   32.927">  1  5  2 -1</clus>
<clus scale="   57.334">  1  4  2 -1</clus>
<clus scale="   86.808">  1  6  2 -1</clus>
<clus scale="   32.927">  1  3  2 -1</clus>
</clustering>
</event>
<event>
 6    0  0.8991567E+002  0.1047650E+03  0.7546771E-02  0.1270583E+00
         21   -1    0    0  503  501  0.00000000000E+00  0.00000000000E+00  0.23219059066E+03  0.23219059066E+03  0.00000000000E+00 0. -1.
         21   -1    0    0  504  502 -0.00000000000E+00 -0.00000000000E+00 -0.84848023247E+03  0.84848023247E+03  0.00000000000E+00 0.  1.
         21    1    1    2  503  505 -0.89223381136E+02 -0.47934121618E+02  0.11850359579E+03  0.15588968526E+03  0.00000000000E+00 0. -1.
         21    1    1    2  504  506  0.21075548026E+02 -0.25694759349E+02 -0.74443504176E+03  0.74517644272E+03  0.00000000000E+00 0.  1.
         21    1    1    2  505  502  0.93702984297E+02  0.26286756608E+02 -0.41107875777E+02  0.10564610873E+03  0.00000000000E+00 0.  1.
         21    1    1    2  506  501 -0.25555151187E+02  0.47342124359E+02  0.50749679946E+02  0.73958586423E+02  0.00000000000E+00 0. -1.
<scales pt_clust_3="104.76505" pt_clust_4="33.23250" pt_clust_5="14000.00000" pt_clust_6="50.15268"></scales>
<clustering>
<clus scale="   33.233">  2  4  1 -1</clus>
<clus scale="   50.153">  1  6  2 -1</clus>
<clus scale="  104.765">  1  3  2 -1</clus>
<clus scale="   50.153">  1  3  2 -1</clus>
</clustering>
</event>
<event>
 6    0  0.8991567E+002  0.1031681E+03  0.7546771E-02  0.1273772E+00
         21   -1    0    0  504  501  0.00000000000E+00  0.00000000000E+00  0.16850813306E+03  0.16850813306E+03  0.00000000000E+00 0. -1.
         21   -1    0    0  505  502 -0.00000000000E+00 -0.00000000000E+00 -0.10466974740E+04  0.10466974740E+04  0.00000000000E+00 0. -1.
         21    1    1    2  503  506  0.60310685476E+02 -0.86316874000E+02 -0.58975036772E+03  0.59907718847E+03  0.00000000000E+00 0. -1.
         21    1    1    2  504  502 -0.38578528849E+01 -0.33837595392E+02 -0.54596193156E+02  0.64347573365E+02  0.00000000000E+00 0.  1.
         21    1    1    2  505  503  0.17644892307E+02  0.48379549431E+02 -0.37412412807E+03  0.37765167315E+03  0.00000000000E+00 0. -1.
         21    1    1    2  506  501 -0.74097724897E+02  0.71774919960E+02  0.14028134800E+03  0.17412917207E+03  0.00000000000E+00 0. -1.
<scales pt_clust_3="103.16805" pt_clust_4="34.05680" pt_clust_5="39.00791" pt_clust_6="14000.00000"></scales>
<clustering>
<clus scale="   34.057">  2  4  1 -1</clus>
<clus scale="   39.008">  2  5  1 -1</clus>
<clus scale="  103.168">  2  3  1 -1</clus>
<clus scale="  103.168">  1  3  2 -1</clus>
</clustering>
</event>
<event>
 6    0  0.8991567E+002  0.7383016E+02  0.7546771E-02  0.1347532E+00
         21   -1    0    0  503  501  0.00000000000E+00  0.00000000000E+00  0.87906732395E+03  0.87906732395E+03  0.00000000000E+00 0.  1.
         21   -1    0    0  505  502 -0.00000000000E+00 -0.00000000000E+00 -0.90936102808E+02  0.90936102808E+02  0.00000000000E+00 0.  1.
         21    1    1    2  503  504 -0.40505543485E+02 -0.22293473174E+02  0.26712367695E+03  0.27109547541E+03  0.00000000000E+00 0.  1.
         21    1    1    2  504  502 -0.31059476888E+02 -0.39291500305E+02 -0.60712555918E+02  0.78705320957E+02  0.00000000000E+00 0.  1.
         21    1    1    2  505  506  0.92832578309E+02 -0.79447163538E+01  0.11573277647E+03  0.14857685439E+03  0.00000000000E+00 0.  1.
         21    1    1    2  506  501 -0.21267557936E+02  0.69529689833E+02  0.46598732364E+03  0.47162577599E+03  0.00000000000E+00 0.  1.
<scales pt_clust_3="46.23525" pt_clust_4="50.71418" pt_clust_5="14000.00000" pt_clust_6="73.83016"></scales>
<clustering>
<clus scale="   46.235">  1  3  2 -1</clus>
<clus scale="   50.714">  2  4  1 -1</clus>
<clus scale="   73.830">  1  6  2 -1</clus>
<clus scale="   46.235">  1  3  2 -1</clus>
</clustering>
</event>
<event>
 6    0  0.8991567E+002  0.1450167E+03  0.7546771E-02  0.1206734E+00
         21   -1    0    0  506  501  0.00000000000E+00  0.00000000000E+00  0.77330237730E+03  0.77330237730E+03  0.00000000000E+00 0. -1.
         21   -1    0    0  504  502 -0.00000000000E+00 -0.00000000000E+00 -0.36117696169E+02  0.36117696169E+02  0.00000000000E+00 0. -1.
         21    1    1    2  503  501  0.78163440674E+02 -0.15016326964E+02  0.16877677400E+03  0.18660282145E+03  0.00000000000E+00 0. -1.
         21    1    1    2  504  503  0.64793811457E+02 -0.39757796598E+02  0.99978358658E+02  0.12559694500E+03  0.00000000000E+00 0. -1.
         21    1    1    2  505  502 -0.13144327612E+02  0.28760604825E+02  0.59324157450E+02  0.67225749497E+02  0.00000000000E+00 0. -1.
         21    1    1    2  506  505 -0.12981292452E+03  0.26013518737E+02  0.40910539103E+03  0.42999455752E+03  0.00000000000E+00 0. -1.
<scales pt_clust_3="39.84767" pt_clust_4="39.84767" pt_clust_5="31.62192" pt_clust_6="138.66309"></scales>
<clustering>
<clus scale="   31.622">  2  5  1 -1</clus>
<clus scale="   39.848">  3  4 -1 -1</clus>
<clus scale="  138.663">  1  6  2 -1</clus>
<clus scale="  138.663">  1  3  2 -1</clus>
</clustering>
</event>
<event>
 6    0  0.8991567E+002  0.1117090E+03  0.7546771E-02  0.1257437E+00
         21   -1    0    0  504  501  0.00000000000E+00  0.00000000000E+00  0.34849061436E+02  0.34849061436E+02  0.00000000000E+00 0. -1.
         21   -1    0    0  503  502 -0.00000000000E+00 -0.00000000000E+00 -0.24029107267E+04  0.24029107267E+04  0.00000000000E+00 0. -1.
         21    1    1    2  503  506 -0.39658562594E+02 -0.18799251387E+02 -0.97607170863E+03  0.97705792757E+03  0.00000000000E+00 0. -1.
         21    1    1    2  504  505  0.10446863344E+03  0.43791674756E+02 -0.10486962972E+03  0.15436659414E+03  0.00000000000E+00 0. -1.
         21    1    1    2  505  502  0.58254421356E+02 -0.61963106787E+02 -0.71042777744E+03  0.71550026637E+03  0.00000000000E+00 0. -1.
         21    1    1    2  506  501 -0.12306449220E+03  0.36970683418E+02 -0.57669254948E+03  0.59083500006E+03  0.00000000000E+00 0. -1.
<scales pt_clust_3="43.88865" pt_clust_4="14000.00000" pt_clust_5="81.05051" pt_clust_6="111.70898"></scales>
<clustering>
<clus scale="   43.889">  2  3  1 -1</clus>
<clus scale="   81.051">  2  5  1 -1</clus>
<clus scale="  111.709">  2  6  1 -1</clus>
<clus scale="  111.709">  1  3  2 -1</clus>
</clustering>
</event>
<event>
 6    0  0.8991567E+002  0.9615544E+02  0.7546771E-02  0.1288595E+00
         21   -1    0    0  505  501  0.00000000000E+00  0.00000000000E+00  0.33479300944E+03  0.33479300944E+03  0.00000000000E+00 0.  1.
         21   -1    0    0  506  502 -0.00000000000E+00 -0.00000000000E+00 -0.11534142886E+04  0.11534142886E+04  0.00000000000E+00 0.  1.
         21    1    1    2  503  501 -0.42482208864E+02  0.55828920043E+02  0.30364286877E+03  0.31164177855E+03  0.00000000000E+00 0.  1.
         21    1    1    2  504  503  0.13785710330E+03 -0.34117694809E+02 -0.18691565642E+03  0.23474680114E+03  0.00000000000E+00 0. -1.
         21    1    1    2  505  502 -0.65197509515E+02 -0.95202917130E+00 -0.75363002603E+03  0.75644552860E+03  0.00000000000E+00 0.  1.
         21    1    1    2  506  504 -0.30177384926E+02 -0.20759196062E+02 -0.18171846547E+03  0.18537318974E+03  0.00000000000E+00 0.  1.
<scales pt_clust_3="70.16156" pt_clust_4="14000.00000" pt_clust_5="96.15544" pt_clust_6="36.62811"></scales>
<clustering>
<clus scale="   36.628">  2  6  1 -1</clus>
<clus scale="   70.162">  1  3  2 -1</clus>
<clus scale="   96.155">  2  5  1 -1</clus>
<clus scale="   70.162">  1  3  2 -1</clus>
</clustering>
</event>
<event>
 6    0  0.8991567E+002  0.8121197E+02  0.7546771E-02  0.1325647E+00
         21   -1    0    0  504  501  0.00000000000E+00  0.00000000000E+00  0.99627853272E+02  0.99627853272E+02  0.00000000000E+00 0. -1.
         21   -1    0    0  506  502 -0.00000000000E+00 -0.00000000000E+00 -0.44700938298E+03  0.44700938298E+03  0.00000000000E+00 0.  1.
         21    1    1    2  503  502 -0.38073961070E+01  0.76369686367E+02 -0.32384176775E+03  0.33274662402E+03  0.00000000000E+00 0.  1.
         21    1    1    2  504  503  0.30794146648E+02  0.20672778021E+02  0.17100203618E+02  0.40841892496E+02  0.00000000000E+00 0. -1.
         21    1    1    2  505  501 -0.12549701007E+02  0.27652747424E+02  0.17129586914E+02  0.34865343585E+02  0.00000000000E+00 0. -1.
         21    1    1    2  506  505 -0.14437049533E+02 -0.12469521181E+03 -0.57769552489E+02  0.13818337615E+03  0.00000000000E+00 0. -1.
<scales pt_clust_3="14000.00000" pt_clust_4="40.79400" pt_clust_5="30.36724" pt_clust_6="81.21197"></scales>
<clustering>
<clus scale="   30.367">  1  5  2 -1</clus>
<clus scale="   40.794">  1  4  2 -1</clus>
<clus scale="   81.212">  1  6  2 -1</clus>
<clus scale="   30.367">  1  3  2 -1</clus>
</clustering>
</event>
<event>
 6    0  0.8991567E+002  0.9219636E+02  0.7546771E-02  0.1297618E+00
         21   -1    0    0  506  501  0.00000000000E+00  0.00000000000E+00  0.56436866959E+03  0.56436866959E+03  0.00000000000E+00 0. -1.
         21   -1    0    0  503  502 -0.00000000000E+00 -0.00000000000E+00 -0.91192158990E+02  0.91192158990E+02  0.00000000000E+00 0. -1.
         21    1    1    2  503  501  0.69949546543E+01  0.84300145688E+02  0.38774106761E+02  0.93053077911E+02  0.00000000000E+00 0. -1.
         21    1    1    2  504  505  0.35962698529E+02  0.30408707716E+02 -0.40914477903E+01  0.47273091030E+02  0.00000000000E+00 0.  1.
         21    1    1    2  505  502 -0.18812880049E+02 -0.24168403810E+02 -0.26740021274E+02  0.40657901276E+02  0.00000000000E+00 0. -1.
         21    1    1    2  506  504 -0.24144773134E+02 -0.90540449594E+02  0.46523387291E+03  0.47457675837E+03  0.00000000000E+00 0. -1.
<scales pt_clust_3="92.19636" pt_clust_4="33.82533" pt_clust_5="30.62738" pt_clust_6="14000.00000"></scales>
<clustering>
<clus scale="   30.627">  2  5  1 -1</clus>
<clus scale="   33.825">  2  4  1 -1</clus>
<clus scale="   92.196">  2  3  1 -1</clus>
<clus scale="   92.196">  1  3  2 -1</clus>
</clustering>
</event>
<event>
 6    0  0.8991567E+002  0.9452637E+02  0.7546771E-02  0.1292246E+00
         21   -1    0    0  504  501  0.00000000000E+00  0.00000000000E+00  0.31758172082E+03  0.31758172082E+03  0.00000000000E+00 0.  1.
         21   -1    0    0  505  502 -0.00000000000E+00 -0.00000000000E+00 -0.76072583917E+02  0.76072583917E+02  0.00000000000E+00 0.  1.
         21    1    1    2  503  502 -0.60840476731E+02  0.50417479505E+02 -0.62539934024E+00  0.79018206591E+02  0.00000000000E+00 0.  1.
         21    1    1    2  504  506  0.35583798581E+02  0.37040749133E+02  0.10007663781E+03  0.11248803160E+03  0.00000000000E+00 0.  1.
         21    1    1    2  505  501 -0.19690887812E+02 -0.95979346626E+02  0.93464662780E+02  0.13540830562E+03  0.00000000000E+00 0.  1.
         21    1    1    2  506  503  0.44947565963E+02  0.85211179878E+01  0.48593235661E+02  0.66739760935E+02  0.00000000000E+00 0. -1.
<scales pt_clust_3="79.01573" pt_clust_4="36.04456" pt_clust_5="86.46703" pt_clust_6="36.04456"></scales>
<clustering>
<clus scale="   36.045">  4  6 -1 -1</clus>
<clus scale="   79.016">  2  3  1 -1</clus>
<clus scale="   86.467">  2  5  1 -1</clus>
<clus scale="   94.526">  1  3  2 -1</clus>
</clustering>
</event>
<event>
 6    0  0.8991567E+002  0.1101427E+03  0.7546771E-02  0.1260306E+00
         21   -1    0    0  506  501  0.00000000000E+00  0.00000000000E+00  0.60972160746E+03  0.60972160746E+03  0.00000000000E+00 0.  1.
         21   -1    0    0  505  502 -0.00000000000E+00 -0.00000000000E+00 -0.39270197894E+03  0.39270197894E+03  0.00000000000E+00 0.  1.
         21    1    1    2  503  502 -0.65432037258E+01 -0.45153298762E+02 -0.18687366167E+03  0.19236267655E+03  0.00000000000E+00 0. -1.
         21    1    1    2  504  503  0.66301709656E+00  0.14840657617E+03 -0.14369591139E+03  0.20657557066E+03  0.00000000000E+00 0.  1.
         21    1    1    2  505  501  0.31399098703E+02  0.28260363137E+01 -0.11719795973E+02  0.33633963463E+02  0.00000000000E+00 0.  1.
         21    1    1    2  506  504 -0.25518912074E+02 -0.10607931373E+03  0.55930899755E+03  0.56985137572E+03  0.00000000000E+00 0.  1.
<scales pt_clust_3="44.73572" pt_clust_4="14000.00000" pt_clust_5="31.52602" pt_clust_6="110.14268"></scales>
<clustering>
<clus scale="   31.526">  2  5  1 -1</clus>
<clus scale="   44.736">  2  3  1 -1</clus>
<clus scale="  110.143">  1  6  2 -1</clus>
<clus scale="  110.143">  1  3  2 -1</clus>
</clustering>
</event>
<event>
 6    0  0.8991567E+002  0.1485027E+03  0.7546771E-02  0.1202325E+00
         21   -1    0    0  506  501  0.00000000000E+00  0.00000000000E+00  0.71719063336E+03  0.71719063336E+03  0.00000000000E+00 0.  1.
         21   -1    0    0  505  502 -0.00000000000E+00 -0.00000000000E+00 -0.68090693816E+03  0.68090693816E+03  0.00000000000E+00 0. -1.
         21    1    1    2  503  501  0.81291848850E+02  0.12507041492E+03  0.61168078571E+03  0.62960650964E+03  0.00000000000E+00 0.  1.
         21    1    1    2  504  503 -0.44179064882E+02 -0.14186059906E+03  0.19946193117E+02  0.14991354161E+03  0.00000000000E+00 0.  1.
         21    1    1    2  505  504  0.19759651820E+02  0.37391965351E+02 -0.52109531386E+03  0.52280869258E+03  0.00000000000E+00 0. -1.
         21    1    1    2  506  502 -0.56872435788E+02 -0.20601781215E+02 -0.74247969770E+02  0.95768827688E+02  0.00000000000E+00 0.  1.
<scales pt_clust_3="14000.00000" pt_clust_4="148.50270" pt_clust_5="42.29188" pt_clust_6="46.30901"></scales>
<clustering>
<clus scale="   42.292">  2  5  1 -1</clus>
<clus scale="   46.309">  2  6  1 -1</clus>
<clus scale="  148.503">  2  4  1 -1</clus>
<clus scale="  148.503">  1  3  2 -1</clus>
</clustering>
</event>
<event>
 6    0  0.8991567E+002  0.8213418E+02  0.7546771E-02  0.1323102E+00
         21   -1    0    0  504  501  0.00000000000E+00  0.00000000000E+00  0.36818545394E+03  0.36818545394E+03  0.00000000000E+00 0. -1.
         21   -1    0    0  506  502 -0.00000000000E+00 -0.00000000000E+00 -0.44244316915E+03  0.44244316915E+03  0.00000000000E+00 0.  1.
         21    1    1    2  503  502 -0.34873473717E+02 -0.71571267498E+02 -0.33354836873E+03  0.34291853228E+03  0.00000000000E+00 0.  1.
         21    1    1    2  504  505 -0.29578164398E+02  0.65297984217E+02  0.18524574974E+03  0.19863202750E+03  0.00000000000E+00 0.  1.
         21    1    1    2  505  503 -0.48438000320E+02 -0.55245666813E+02  0.11296089690E+03  0.13475343337E+03  0.00000000000E+00 0. -1.
         21    1    1    2  506  501  0.11288963844E+03  0.61518950094E+02 -0.38915993115E+02  0.13432462993E+03  0.00000000000E+00 0. -1.
<scales pt_clust_3="14000.00000" pt_clust_4="71.68469" pt_clust_5="69.85364" pt_clust_6="82.13418"></scales>
<clustering>
<clus scale="   71.685">  1  4  2 -1</clus>
<clus scale="   69.854">  1  5  2 -1</clus>
<clus scale="   82.134">  1  6  2 -1</clus>
<clus scale="   71.685">  1  3  2 -1</clus>
</clustering>
</event>
<event>
 6    0  0.8991567E+002  0.1666704E+03  0.7546771E-02  0.1181365E+00
         21   -1    0    0  503  501  0.00000000000E+00  0.00000000000E+00  0.70603690165E+03  0.70603690165E+03  0.00000000000E+00 0. -1.
         21   -1    0    0  505  502 -0.00000000000E+00 -0.00000000000E+00 -0.47328322893E+03  0.47328322893E+03  0.00000000000E+00 0.  1.
         21    1    1    2  503  504  0.23026988229E+02  0.24815730273E+02  0.23707987656E+03  0.23948471877E+03  0.00000000000E+00 0. -1.
         21    1    1    2  504  502  0.12502987369E+03 -0.75243728197E+02  0.44083014074E+03  0.46435471456E+03  0.00000000000E+00 0. -1.
         21    1    1    2  505  506 -0.26707821438E+02  0.26934745423E+02 -0.16442768990E+03  0.16874612127E+03  0.00000000000E+00 0.  1.
         21    1    1    2  506  501 -0.12134904048E+03  0.23493252500E+02 -0.28072865469E+03  0.30673457598E+03  0.00000000000E+00 0.  1.
<scales pt_clust_3="33.85355" pt_clust_4="155.96514" pt_clust_5="32.55676" pt_clust_6="32.55676"></scales>
<clustering>
<clus scale="   32.557">  5  6 -1 -1</clus>
<clus scale="   33.854">  1  3  2 -1</clus>
<clus scale="  155.965">  1  4  2 -1</clus>
<clus scale="   33.854">  1  3  2 -1</clus>
</clustering>
</event>
<event>
 6    0  0.8991567E+002  0.6600969E+02  0.7546771E-02  0.1374213E+00
         21   -1    0    0  506  501  0.00000000000E+00  0.00000000000E+00  0.29867316009E+02  0.29867316009E+02  0.00000000000E+00 0.  1.
         21   -1    0    0  503  502 -0.00000000000E+00 -0.00000000000E+00 -0.10394711735E+04  0.10394711735E+04  0.00000000000E+00 0.  1.
         21    1    1    2  503  501 -0.90516117958E+01  0.74175202535E+02 -0.89638583704E+02  0.11670033434E+03  0.00000000000E+00 0.  1.
         21    1    1    2  504  505  0.91743997157E+02 -0.15338059747E+02 -0.18821225820E+03  0.20994301900E+03  0.00000000000E+00 0.  1.
         21    1    1    2  505  502 -0.50073020690E+02 -0.23619501120E+02 -0.59857579461E+03  0.60113074296E+03  0.00000000000E+00 0.  1.
         21    1    1    2  506  504 -0.32619364671E+02 -0.35217641668E+02 -0.13317722095E+03  0.14156439318E+03  0.00000000000E+00 0. -1.
<scales pt_clust_3="14000.00000" pt_clust_4="66.00969" pt_clust_5="57.58661" pt_clust_6="48.00318"></scales>
<clustering>
<clus scale="   48.003">  1  6  2 -1</clus>
<clus scale="   57.587">  2  5  1 -1</clus>
<clus scale="   66.010">  2  4  1 -1</clus>
<clus scale="   48.003">  1  3  2 -1</clus>
</clustering>
</event>
<event>
 6    0  0.8991567E+002  0.1579136E+03  0.7546771E-02  0.1191073E+00
         21   -1    0    0  503  501  0.00000000000E+00  0.00000000000E+00  0.16130795187E+04  0.16130795187E+04  0.00000000000E+00 0. -1.
         21   -1    0    0  501  502 -0.00000000000E+00 -0.00000000000E+00 -0.29371617736E+02  0.29371617736E+02  0.00000000000E+00 0. -1.
         21    1    1    2  503  505  0.89572747496E+02 -0.49202609099E+02  0.11697279690E+04  0.11741838422E+04  0.00000000000E+00 0. -1.
         21    1    1    2  504  502 -0.35895454313E+02  0.13507344296E+01  0.26424262098E+02  0.44593158122E+02  0.00000000000E+00 0. -1.
         21    1    1    2  505  506  0.37921161579E+02 -0.20177327770E+02  0.19651564765E+03  0.20115550905E+03  0.00000000000E+00 0.  1.
         21    1    1    2  506  504 -0.91598454762E+02  0.68029202440E+02  0.19104002224E+03  0.22251862708E+03  0.00000000000E+00 0. -1.
<scales pt_clust_3="40.32335" pt_clust_4="30.67965" pt_clust_5="40.32335" pt_clust_6="155.10639"></scales>
<clustering>
<clus scale="   30.680">  4  6 -1 -1</clus>
<clus scale="   40.323">  3  5 -1 -1</clus>
<clus scale="  155.106">  2  4  1 -1</clus>
<clus scale="  157.914">  1  3  2 -1</clus>
</clustering>
</event>
<event>
 6    0  0.8991567E+002  0.7860168E+02  0.7546771E-02  0.1333067E+00
         21   -1    0    0  506  501  0.00000000000E+00  0.00000000000E+00  0.90727358371E+03  0.90727358371E+03  0.00000000000E+00 0. -1.
         21   -1    0    0  505  502 -0.00000000000E+00 -0.00000000000E+00 -0.85414471044E+02  0.85414471044E+02  0.00000000000E+00 0. -1.
         21    1    1    2  503  501  0.11151180748E+03  0.24748690731E+01  0.12863698475E+03  0.17026004237E+03  0.00000000000E+00 0. -1.
         21    1    1    2  504  502 -0.37443620634E+02 -0.53047807631E+02  0.56819569058E+02  0.86281852371E+02  0.00000000000E+00 0.  1.
         21    1    1    2  505  503 -0.35865892221E+02 -0.21000406092E+02 -0.38339155794E+02  0.56544408635E+02  0.00000000000E+00 0. -1.
         21    1    1    2  506  504 -0.38202294623E+02  0.71573344650E+02  0.67474171465E+03  0.67960175138E+03  0.00000000000E+00 0. -1.
<scales pt_clust_3="78.60168" pt_clust_4="79.88980" pt_clust_5="41.56175" pt_clust_6="14000.00000"></scales>
<clustering>
<clus scale="   41.562">  2  5  1 -1</clus>
<clus scale="   79.890">  2  4  1 -1</clus>
<clus scale="   78.602">  2  3  1 -1</clus>
<clus scale="   78.602">  1  3  2 -1</clus>
</clustering>
</event>
<event>
 6    0  0.8991567E+002  0.1081261E+03  0.7546771E-02  0.1264080E+00
         21   -1    0    0  506  501  0.00000000000E+00  0.00000000000E+00  0.33356295811E+04  0.33356295811E+04  0.00000000000E+00 0.  1.
         21   -1    0    0  504  502 -0.00000000000E+00 -0.00000000000E+00 -0.47103410125E+03  0.47103410125E+03  0.00000000000E+00 0. -1.
         21    1    1    2  503  501  0.85429432074E+02 -0.77385389377E+01  0.98310842419E+03  0.98684357756E+03  0.00000000000E+00 0.  1.
         21    1    1    2  504  505  0.29189079125E+02 -0.18512507854E+02 -0.42718198400E+03  0.42857807077E+03  0.00000000000E+00 0. -1.
         21    1    1    2  505  503  0.15546463706E+02  0.32878475658E+02 -0.31095701801E+02  0.47850071743E+02  0.00000000000E+00 0.  1.
         21    1    1    2  506  502 -0.13016497491E+03 -0.66274288663E+01  0.23397647414E+04  0.23433919623E+04  0.00000000000E+00 0.  1.
<scales pt_clust_3="108.12605" pt_clust_4="34.56465" pt_clust_5="45.15462" pt_clust_6="14000.00000"></scales>
<clustering>
<clus scale="   34.565">  2  4  1 -1</clus>
<clus scale="   45.155">  2  5  1 -1</clus>
<clus scale="  108.126">  2  3  1 -1</clus>
<clus scale="  108.126">  1  3  2 -1</clus>
</clustering>
</event>
<event>
 6    0  0.8991567E+002  0.7959768E+02  0.7546771E-02  0.1330197E+00
         21   -1    0    0  506  501  0.00000000000E+00  0.00000000000E+00  0.25081444730E+03  0.25081444730E+03  0.00000000000E+00 0. -1.
         21   -1    0    0  504  502 -0.00000000000E+00 -0.00000000000E+00 -0.42099031591E+03  0.42099031591E+03  0.00000000000E+00 0. -1.
         21    1    1    2  503  502 -0.56581199471E+01 -0.78309501773E+02 -0.33161928115E+03  0.34078694227E+03  0.00000000000E+00 0. -1.
         21    1    1    2  504  501  0.11031978043E+03  0.10552928841E+03  0.11160393482E+03  0.18910928833E+03  0.00000000000E+00 0. -1.
         21    1    1    2  505  503 -0.53380427122E+02 -0.43655218958E+02  0.63149881719E+00  0.68961198748E+02  0.00000000000E+00 0. -1.
         21    1    1    2  506  505 -0.51281233356E+02  0.16435432326E+02  0.49207978904E+02  0.72947333865E+02  0.00000000000E+00 0. -1.
<scales pt_clust_3="14000.00000" pt_clust_4="79.59768" pt_clust_5="74.79076" pt_clust_6="53.85061"></scales>
<clustering>
<clus scale="   53.851">  1  6  2 -1</clus>
<clus scale="   74.791">  1  5  2 -1</clus>
<clus scale="   79.598">  1  4  2 -1</clus>
<clus scale="   53.851">  1  3  2 -1</clus>
</clustering>
</event>
<event>
 6    0  0.8991567E+002  0.8088016E+02  0.7546771E-02  0.1326572E+00
         21   -1    0    0  504  501  0.00000000000E+00  0.00000000000E+00  0.30142780261E+03  0.30142780261E+03  0.00000000000E+00 0. -1.
         21   -1    0    0  506  502 -0.00000000000E+00 -0.00000000000E+00 -0.10643682669E+03  0.10643682669E+03  0.00000000000E+00 0. -1.
         21    1    1    2  503  502  0.61998461562E+02 -0.21145217209E+02  0.31488973007E+01  0.65580827999E+02  0.00000000000E+00 0. -1.
         21    1    1    2  504  503  0.22133620945E+02 -0.25623394144E+02  0.98305210162E+02  0.10397292844E+03  0.00000000000E+00 0. -1.
         21    1    1    2  505  501  0.19519481141E+02  0.59600578439E+02  0.11564287804E+03  0.13155422584E+03  0.00000000000E+00 0. -1.
         21    1    1    2  506  505 -0.10365156365E+03 -0.12831967087E+02 -0.22106009581E+02  0.10675664703E+03  0.00000000000E+00 0. -1.
<scales pt_clust_3="14000.00000" pt_clust_4="33.85935" pt_clust_5="54.93824" pt_clust_6="80.88016"></scales>
<clustering>
<clus scale="   33.859">  1  4  2 -1</clus>
<clus scale="   54.938">  1  5  2 -1</clus>
<clus scale="   80.880">  1  6  2 -1</clus>
<clus scale="   33.859">  1  3  2 -1</clus>
</clustering>
</event>
<event>
 6    0  0.8991567E+002  0.9144721E+02  0.7546771E-02  0.1299384E+00
         21   -1    0    0  504  501  0.00000000000E+00  0.00000000000E+00  0.73477699810E+02  0.73477699810E+02  0.00000000000E+00 0.  1.
         21   -1    0    0  505  502 -0.00000000000E+00 -0.00000000000E+00 -0.21626986226E+04  0.21626986226E+04  0.00000000000E+00 0. -1.
         21    1    1    2  503  501 -0.30376249244E+02  0.13064176430E+02 -0.57414696977E+02  0.66255842405E+02  0.00000000000E+00 0. -1.
         21    1    1    2  504  506  0.32678236651E+02 -0.10273466459E+03  0.19499125934E+02  0.10955589610E+03  0.00000000000E+00 0.  1.
         21    1    1    2  505  503  0.35286888770E+02 -0.16464732320E+02 -0.12861757744E+03  0.13438278594E+03  0.00000000000E+00 0.  1.
         21    1    1    2  506  502 -0.37588876177E+02  0.10613522048E+03 -0.19226877743E+04  0.19259817979E+04  0.00000000000E+00 0. -1.
<scales pt_clust_3="33.06644" pt_clust_4="91.44721" pt_clust_5="37.55947" pt_clust_6="14000.00000"></scales>
<clustering>
<clus scale="   33.066">  1  3  2 -1</clus>
<clus scale="   37.559">  2  5  1 -1</clus>
<clus scale="   91.447">  1  4  2 -1</clus>
<clus scale="   33.066">  1  3  2 -1</clus>
</clustering>
</event>
<event>
 6    0  0.8991567E+002  0.1600728E+03  0.7546771E-02  0.1188615E+00
         21   -1    0    0  504  501  0.00000000000E+00  0.00000000000E+00  0.14781469975E+03  0.14781469975E+03  0.00000000000E+00 0.  1.
         21   -1    0    0  506  502 -0.00000000000E+00 -0.00000000000E+00 -0.95266318103E+03  0.95266318103E+03  0.00000000000E+00 0. -1.
         21    1    1    2  503  505 -0.18765624946E+03 -0.38278995702E+02 -0.10833474714E+02  0.19182678032E+03  0.00000000000E+00 0.  1.
         21    1    1    2  504  502  0.66795980634E+02 -0.79119656749E+01 -0.71594158093E+03  0.71909432589E+03  0.00000000000E+00 0. -1.
         21    1    1    2  505  501  0.13969347699E+02 -0.33044251752E+02 -0.12118732628E+01  0.35896154192E+02  0.00000000000E+00 0. -1.
         21    1    1    2  506  503  0.10689092113E+03  0.79235213129E+02 -0.76861552376E+02  0.15366062037E+03  0.00000000000E+00 0.  1.
<scales pt_clust_3="14000.00000" pt_clust_4="67.47855" pt_clust_5="35.87569" pt_clust_6="160.07284"></scales>
<clustering>
<clus scale="   35.876">  1  5  2 -1</clus>
<clus scale="   67.479">  2  4  1 -1</clus>
<clus scale="  160.073">  2  6  1 -1</clus>
<clus scale="   35.876">  1  3  2 -1</clus>
</clustering>
</event>
<event>
 6    0  0.8991567E+002  0.7356695E+02  0.7546771E-02  0.1348367E+00
         21   -1    0    0  503  501  0.00000000000E+00  0.00000000000E+00  0.55235942902E+03  0.55235942902E+03  0.00000000000E+00 0. -1.
         21   -1    0    0  506  502 -0.00000000000E+00 -0.00000000000E+00 -0.20411401554E+03  0.20411401554E+03  0.00000000000E+00 0. -1.
         21    1    1    2  503  504 -0.24526781337E+02 -0.42442854868E+02  0.22231684752E+03  0.22765706584E+03  0.00000000000E+00 0. -1.
         21    1    1    2  504  505  0.57670104505E+02  0.76849275460E+01  0.29332816953E+03  0.29904232829E+03  0.00000000000E+00 0. -1.
         21    1    1    2  505  502 -0.41764148758E+01  0.92599064683E+02 -0.97100949038E+02  0.13424091599E+03  0.00000000000E+00 0. -1.
         21    1    1    2  506  501 -0.28966908293E+02 -0.57841137361E+02 -0.70298654545E+02  0.95533134452E+02  0.00000000000E+00 0. -1.
<scales pt_clust_3="49.01999" pt_clust_4="46.92769" pt_clust_5="14000.00000" pt_clust_6="73.56695"></scales>
<clustering>
<clus scale="   49.020">  1  3  2 -1</clus>
<clus scale="   46.928">  1  4  2 -1</clus>
<clus scale="   73.567">  2  6  1 -1</clus>
<clus scale="   49.020">  1  3  2 -1</clus>
</clustering>
</event>
<event>
 6    0  0.8991567E+002  0.7737253E+02  0.7546771E-02  0.1336678E+00
         21   -1    0    0  504  501  0.00000000000E+00  0.00000000000E+00  0.85648821962E+03  0.85648821962E+03  0.00000000000E+00 0.  1.
         21   -1    0    0  505  502 -0.00000000000E+00 -0.00000000000E+00 -0.10439299881E+03  0.10439299881E+03  0.00000000000E+00 0. -1.
         21    1    1    2  503  506  0.10195878751E+03  0.10170757588E+03  0.45419218302E+03  0.47647724443E+03  0.00000000000E+00 0. -1.
         21    1    1    2  504  502 -0.27535720390E+02 -0.20220044575E+02  0.89005291698E+02  0.95336289262E+02  0.00000000000E+00 0.  1.
         21    1    1    2  505  503 -0.51290735452E+02 -0.54864729179E+02 -0.73139123313E+02  0.10483419962E+03  0.00000000000E+00 0. -1.
         21    1    1    2  506  501 -0.23132331668E+02 -0.26622802127E+02  0.28203686940E+03  0.28423348511E+03  0.00000000000E+00 0.  1.
<scales pt_clust_3="77.37253" pt_clust_4="34.16235" pt_clust_5="14000.00000" pt_clust_6="47.69462"></scales>
<clustering>
<clus scale="   34.162">  1  4  2 -1</clus>
<clus scale="   47.695">  1  6  2 -1</clus>
<clus scale="   77.373">  1  3  2 -1</clus>
<clus scale="   34.162">  1  3  2 -1</clus>
</clustering>
</event>
<event>
 6    0  0.8991567E+002  0.1187270E+03  0.7546771E-02  0.1245212E+00
         21   -1    0    0  503  501  0.00000000000E+00  0.00000000000E+00  0.33675382346E+04  0.33675382346E+04  0.00000000000E+00 0. -1.
         21   -1    0    0  506  502 -0.00000000000E+00 -0.00000000000E+00 -0.35932783874E+02  0.35932783874E+02  0.00000000000E+00 0. -1.
         21    1    1    2  503  502 -0.55359968504E+02 -0.68449825115E+02  0.21931360333E+04  0.21949022223E+04  0.00000000000E+00 0. -1.
         21    1    1    2  504  501  0.11045678783E+02 -0.61346286780E+02  0.87190329997E+03  0.87412855943E+03  0.00000000000E+00 0. -1.
         21    1    1    2  505  504  0.45263533681E+02  0.84892341153E+02  0.27264147374E+03  0.28911739877E+03  0.00000000000E+00 0. -1.
         21    1    1    2  506  505 -0.94924396073E+00  0.44903770741E+02 -0.60753563000E+01  0.45322838007E+02  0.00000000000E+00 0. -1.
<scales pt_clust_3="118.72696" pt_clust_4="57.51477" pt_clust_5="14000.00000" pt_clust_6="44.91380"></scales>
<clustering>
<clus scale="   44.914">  2  6  1 -1</clus>
<clus scale="   57.515">  1  4  2 -1</clus>
<clus scale="  118.727">  1  3  2 -1</clus>
<clus scale="   57.515">  1  3  2 -1</clus>
</clustering>
</event>
<event>
 6    0  0.8991567E+002  0.9873385E+02  0.7546771E-02  0.1282981E+00
         21   -1    0    0  505  501  0.00000000000E+00  0.00000000000E+00  0.91877632890E+02  0.91877632890E+02  0.00000000000E+00 0.  1.
         21   -1    0    0  503  502 -0.00000000000E+00 -0.00000000000E+00 -0.67756946717E+03  0.67756946717E+03  0.00000000000E+00 0.  1.
         21    1    1    2  503  506  0.66781792185E+02 -0.41642395543E+02 -0.50529248155E+03  0.51138477567E+03  0.00000000000E+00 0.  1.
         21    1    1    2  504  501 -0.38588723074E+02  0.19487278605E+01 -0.15524581274E+02  0.41640121427E+02  0.00000000000E+00 0.  1.
         21    1    1    2  505  502 -0.41129541157E+02 -0.76580184569E+02 -0.10990676189E+02  0.87618256018E+02  0.00000000000E+00 0.  1.
         21    1    1    2  506  504  0.12936472047E+02  0.11627385225E+03 -0.53884095267E+02  0.12880394695E+03  0.00000000000E+00 0.  1.
<scales pt_clust_3="77.39939" pt_clust_4="38.63790" pt_clust_5="14000.00000" pt_clust_6="98.73385"></scales>
<clustering>
<clus scale="   38.638">  1  4  2 -1</clus>
<clus scale="   77.399">  2  3  1 -1</clus>
<clus scale="   98.734">  2  6  1 -1</clus>
<clus scale="   38.638">  1  3  2 -1</clus>
</clustering>
</event>
<event>
 6    0  0.8991567E+002  0.7003976E+02  0.7546771E-02  0.1359958E+00
         21   -1    0    0  503  501  0.00000000000E+00  0.00000000000E+00  0.21103556679E+04  0.21103556679E+04  0.00000000000E+00 0.  1.
         21   -1    0    0  504  502 -0.00000000000E+00 -0.00000000000E+00 -0.55582032316E+02  0.55582032316E+02  0.00000000000E+00 0. -1.
         21    1    1    2  503  505 -0.51536592533E+02  0.34701241966E+02  0.13359037448E+04  0.13373477528E+04  0.00000000000E+00 0.  1.
         21    1    1    2  504  506 -0.36071208977E+02  0.54259435234E+01  0.50557326012E+02  0.62342731683E+02  0.00000000000E+00 0. -1.
         21    1    1    2  505  502  0.16211958967E+02  0.58174553073E+02 -0.22788900638E+02  0.64547968450E+02  0.00000000000E+00 0. -1.
         21    1    1    2  506  501  0.71395842544E+02 -0.98301738562E+02  0.69110146533E+03  0.70169924720E+03  0.00000000000E+00 0.  1.
<scales pt_clust_3="62.60969" pt_clust_4="36.47702" pt_clust_5="70.03976" pt_clust_6="14000.00000"></scales>
<clustering>
<clus scale="   36.477">  2  4  1 -1</clus>
<clus scale="   62.610">  1  3  2 -1</clus>
<clus scale="   70.040">  2  5  1 -1</clus>
<clus scale="   62.610">  1  3  2 -1</clus>
</clustering>
</event>
<event>
 6    0  0.8991567E+002  0.1289272E+03  0.7546771E-02  0.1229056E+00
         21   -1    0    0  506  501  0.00000000000E+00  0.00000000000E+00  0.36041636706E+02  0.36041636706E+02  0.00000000000E+00 0. -1.
         21   -1    0    0  503  502 -0.00000000000E+00 -0.00000000000E+00 -0.12014439401E+04  0.12014439401E+04  0.00000000000E+00 0. -1.
         21    1    1    2  503  504 -0.37422834115E+02 -0.17952313638E+02 -0.36890438259E+03  0.37123199966E+03  0.00000000000E+00 0. -1.
         21    1    1    2  504  505  0.51907012301E+02  0.81649305642E+02 -0.46703927344E+03  0.47695558491E+03  0.00000000000E+00 0. -1.
         21    1    1    2  505  501  0.58217672922E+02  0.21506955145E+02 -0.23413236075E+03  0.24221851480E+03  0.00000000000E+00 0. -1.
         21    1    1    2  506  502 -0.72701851108E+02 -0.85203947149E+02 -0.95326286608E+02  0.14707947744E+03  0.00000000000E+00 0. -1.
<scales pt_clust_3="41.50607" pt_clust_4="42.54027" pt_clust_5="42.54027" pt_clust_6="117.56343"></scales>
<clustering>
<clus scale="   41.506">  2  3  1 -1</clus>
<clus scale="   42.540">  4  5 -1 -1</clus>
<clus scale="  117.563">  1  6  2 -1</clus>
<clus scale="  117.563">  1  3  2 -1</clus>
</clustering>
</event>
<event>
 6    0  0.8991567E+002  0.3303185E+03  0.7546771E-02  0.1070996E+00
         21   -1    0    0  504  501  0.00000000000E+00  0.00000000000E+00  0.26201233586E+03  0.26201233586E+03  0.00000000000E+00 0.  1.
         21   -1    0    0  505  502 -0.00000000000E+00 -0.00000000000E+00 -0.16820000212E+04  0.16820000212E+04  0.00000000000E+00 0.  1.
         21    1    1    2  503  502  0.90501617725E+02  0.42219802570E+03 -0.14159394424E+03  0.45441232461E+03  0.00000000000E+00 0.  1.
         21    1    1    2  504  503  0.13539792023E+02 -0.94999711362E+02  0.47064259915E+02  0.10687991246E+03  0.00000000000E+00 0.  1.
         21    1    1    2  505  506 -0.32497297386E+02 -0.14172404823E+03 -0.25140064040E+03  0.29042049201E+03  0.00000000000E+00 0.  1.
         21    1    1    2  506  501 -0.71544112363E+02 -0.18547426611E+03 -0.10740573607E+04  0.10922996280E+04  0.00000000000E+00 0.  1.
<scales pt_clust_3="330.31846" pt_clust_4="95.95974" pt_clust_5="154.88864" pt_clust_6="14000.00000"></scales>
<clustering>
<clus scale="   95.960">  1  4  2 -1</clus>
<clus scale="  154.889">  2  5  1 -1</clus>
<clus scale="  330.318">  1  3  2 -1</clus>
<clus scale="   95.960">  1  3  2 -1</clus>
</clustering>
</event>
<event>
 6    0  0.8991567E+002  0.9503748E+02  0.7546771E-02  0.1291092E+00
         21   -1    0    0  506  501  0.00000000000E+00  0.00000000000E+00  0.19162406036E+03  0.19162406036E+03  0.00000000000E+00 0. -1.
         21   -1    0    0  505  502 -0.00000000000E+00 -0.00000000000E+00 -0.54318976329E+03  0.54318976329E+03  0.00000000000E+00 0. -1.
         21    1    1    2  503  502  0.11633944331E+02 -0.90899312791E+02 -0.41803785819E+03  0.42796458336E+03  0.00000000000E+00 0. -1.
         21    1    1    2  504  501  0.51021346644E+01 -0.51849323930E+02  0.40610760982E+02  0.66057687499E+02  0.00000000000E+00 0. -1.
         21    1    1    2  505  504 -0.30057189954E+02  0.11499504507E+03 -0.71481212624E+02  0.13869700364E+03  0.00000000000E+00 0. -1.
         21    1    1    2  506  503  0.13321110959E+02  0.27753591646E+02  0.97342606914E+02  0.10209454916E+03  0.00000000000E+00 0.  1.
<scales pt_clust_3="14000.00000" pt_clust_4="37.97724" pt_clust_5="95.03748" pt_clust_6="30.78496"></scales>
<clustering>
<clus scale="   30.785">  1  6  2 -1</clus>
<clus scale="   37.977">  1  4  2 -1</clus>
<clus scale="   95.037">  1  5  2 -1</clus>
<clus scale="   30.785">  1  3  2 -1</clus>
</clustering>
</event>
<event>
 6    0  0.8991567E+002  0.6268620E+02  0.7546771E-02  0.1386893E+00
         21   -1    0    0  505  501  0.00000000000E+00  0.00000000000E+00  0.11290268599E+03  0.11290268599E+03  0.00000000000E+00 0.  1.
         21   -1    0    0  503  502 -0.00000000000E+00 -0.00000000000E+00 -0.26383470204E+03  0.26383470204E+03  0.00000000000E+00 0.  1.
         21    1    1    2  503  506 -0.50999213530E+02 -0.20678267137E+02 -0.12603433160E+03  0.13752513681E+03  0.00000000000E+00 0.  1.
         21    1    1    2  504  501 -0.13492482898E+02 -0.44073220307E+02  0.19374357522E+02  0.49998615705E+02  0.00000000000E+00 0.  1.
         21    1    1    2  505  502  0.11578227408E+03  0.64754731098E+02 -0.32840188555E+02  0.13666450957E+03  0.00000000000E+00 0.  1.
         21    1    1    2  506  504 -0.51290577652E+02 -0.32436529887E-02 -0.11431853420E+02  0.52549125958E+02  0.00000000000E+00 0.  1.
<scales pt_clust_3="14000.00000" pt_clust_4="46.09225" pt_clust_5="62.68620" pt_clust_6="56.04791"></scales>
<clustering>
<clus scale="   46.092">  1  4  2 -1</clus>
<clus scale="   56.048">  1  6  2 -1</clus>
<clus scale="   62.686">  1  5  2 -1</clus>
<clus scale="   46.092">  1  3  2 -1</clus>
</clustering>
</event>
<event>
 6    0  0.8991567E+002  0.2578117E+03  0.7546771E-02  0.1108465E+00
         21   -1    0    0  506  501  0.00000000000E+00  0.00000000000E+00  0.48212388933E+03  0.48212388933E+03  0.00000000000E+00 0.  1.
         21   -1    0    0  503  502 -0.00000000000E+00 -0.00000000000E+00 -0.26355705648E+03  0.26355705648E+03  0.00000000000E+00 0.  1.
         21    1    1    2  503  505 -0.32222206218E+02  0.55566771404E+02 -0.94388546936E+02  0.11417151331E+03  0.00000000000E+00 0. -1.
         21    1    1    2  504  501 -0.40874677199E+02 -0.20273833570E+03  0.30004500859E+03  0.36441813783E+03  0.00000000000E+00 0.  1.
         21    1    1    2  505  504 -0.12683172450E+02 -0.48724872542E+02  0.17166855761E+02  0.53194708424E+02  0.00000000000E+00 0.  1.
         21    1    1    2  506  502  0.85780055866E+02  0.19589643684E+03 -0.42564845577E+01  0.21389658625E+03  0.00000000000E+00 0.  1.
<scales pt_clust_3="64.23345" pt_clust_4="43.22519" pt_clust_5="43.22519" pt_clust_6="242.47049"></scales>
<clustering>
<clus scale="   43.225">  4  5 -1 -1</clus>
<clus scale="   64.233">  2  3  1 -1</clus>
<clus scale="  242.470">  2  6  1 -1</clus>
<clus scale="  257.812">  1  3  2 -1</clus>
</clustering>
</event>
<event>
 6    0  0.8991567E+002  0.1029729E+03  0.7546771E-02  0.1274166E+00
         21   -1    0    0  504  501  0.00000000000E+00  0.00000000000E+00  0.37796934820E+03  0.37796934820E+03  0.00000000000E+00 0.  1.
         21   -1    0    0  505  502 -0.00000000000E+00 -0.00000000000E+00 -0.13462392117E+03  0.13462392117E+03  0.00000000000E+00 0. -1.
         21    1    1    2  503  502  0.51837445034E+02  0.18140951322E+02  0.33231272833E+02  0.64191372602E+02  0.00000000000E+00 0. -1.
         21    1    1    2  504  503  0.52404808808E+02  0.25238794699E+02  0.10827226701E+03  0.12290705654E+03  0.00000000000E+00 0.  1.
         21    1    1    2  505  506 -0.88662915922E+02  0.21424847013E+02 -0.86499917191E+02  0.12570748746E+03  0.00000000000E+00 0. -1.
         21    1    1    2  506  501 -0.15579337920E+02 -0.64804593034E+02  0.18834180438E+03  0.19978735277E+03  0.00000000000E+00 0. -1.
<scales pt_clust_3="45.93085" pt_clust_4="45.93085" pt_clust_5="91.48277" pt_clust_6="66.65096"></scales>
<clustering>
<clus scale="   45.931">  3  4 -1 -1</clus>
<clus scale="   66.651">  1  6  2 -1</clus>
<clus scale="   91.483">  2  5  1 -1</clus>
<clus scale="   66.651">  1  3  2 -1</clus>
</clustering>
</event>
<event>
 6    0  0.8991567E+002  0.7510335E+02  0.7546771E-02  0.1343551E+00
         21   -1    0    0  504  501  0.00000000000E+00  0.00000000000E+00  0.14046022066E+04  0.14046022066E+04  0.00000000000E+00 0. -1.
         21   -1    0    0  505  502 -0.00000000000E+00 -0.00000000000E+00 -0.13283305503E+03  0.13283305503E+03  0.00000000000E+00 0.  1.
         21    1    1    2  503  506  0.88929876453E+02  0.64137370420E+02  0.58373824740E+02  0.12421605623E+03  0.00000000000E+00 0.  1.
         21    1    1    2  504  503 -0.63968471984E+01 -0.65151538244E+02  0.46976804323E+03  0.47430755532E+03  0.00000000000E+00 0. -1.
         21    1    1    2  505  501 -0.46005756702E+02  0.11582632369E+02  0.83686988043E+03  0.83821350728E+03  0.00000000000E+00 0. -1.
         21    1    1    2  506  502 -0.36527272553E+02 -0.10568464545E+02 -0.93242596871E+02  0.10069814276E+03  0.00000000000E+00 0.  1.
<scales pt_clust_3="75.10335" pt_clust_4="14000.00000" pt_clust_5="48.05797" pt_clust_6="38.02544"></scales>
<clustering>
<clus scale="   38.025">  2  6  1 -1</clus>
<clus scale="   48.058">  1  5  2 -1</clus>
<clus scale="   75.103">  2  3  1 -1</clus>
<clus scale="   48.058">  1  3  2 -1</clus>
</clustering>
</event>
<event>
 6    0  0.8991567E+002  0.1261464E+03  0.7546771E-02  0.1233288E+00
         21   -1    0    0  506  501  0.00000000000E+00  0.00000000000E+00  0.33918918720E+03  0.33918918720E+03  0.00000000000E+00 0. -1.
         21   -1    0    0  504  502 -0.00000000000E+00 -0.00000000000E+00 -0.14341073394E+03  0.14341073394E+03  0.00000000000E+00 0. -1.
         21    1    1    2  503  501  0.30984203606E+02  0.50897193953E+01  0.80342384042E+02  0.86260215570E+02  0.00000000000E+00 0. -1.
         21    1    1    2  504  505 -0.71143577378E+02  0.99642674306E+02 -0.58874565237E+02  0.13585391263E+03  0.00000000000E+00 0. -1.
         21    1    1    2  505  503  0.47992175828E+02 -0.13371142966E+03  0.83372070646E+02  0.16472066515E+03  0.00000000000E+00 0. -1.
         21    1    1    2  506  502 -0.78328020561E+01  0.28979035962E+02  0.90938563814E+02  0.95765127797E+02  0.00000000000E+00 0.  1.
<scales pt_clust_3="32.01370" pt_clust_4="14000.00000" pt_clust_5="126.14641" pt_clust_6="30.01895"></scales>
<clustering>
<clus scale="   30.019">  1  6  2 -1</clus>
<clus scale="   32.014">  1  3  2 -1</clus>
<clus scale="  126.146">  1  5  2 -1</clus>
<clus scale="   30.019">  1  3  2 -1</clus>
</clustering>
</event>
<event>
 6    0  0.8991567E+002  0.1456092E+03  0.7546771E-02  0.1205975E+00
         21   -1    0    0  502  501  0.00000000000E+00  0.00000000000E+00  0.34143827022E+03  0.34143827022E+03  0.00000000000E+00 0. -1.
         21   -1    0    0  506  502 -0.00000000000E+00 -0.00000000000E+00 -0.17586384803E+03  0.17586384803E+03  0.00000000000E+00 0. -1.
         21    1    1    2  503  501 -0.60954514735E+01  0.34895509470E+02  0.99979007644E+02  0.10606909578E+03  0.00000000000E+00 0. -1.
         21    1    1    2  504  503 -0.11721891059E+03  0.34652424446E+02  0.18414006789E+03  0.22101725753E+03  0.00000000000E+00 0. -1.
         21    1    1    2  505  504  0.83634074484E+02 -0.51864439527E+02 -0.53541699241E+02  0.11203254911E+03  0.00000000000E+00 0. -1.
         21    1    1    2  506  505  0.39680287583E+02 -0.17683494390E+02 -0.65002954105E+02  0.78183215839E+02  0.00000000000E+00 0. -1.
<scales pt_clust_3="35.42388" pt_clust_4="138.26124" pt_clust_5="30.34437" pt_clust_6="30.34437"></scales>
<clustering>
<clus scale="   30.344">  5  6 -1 -1</clus>
<clus scale="   35.424">  1  3  2 -1</clus>
<clus scale="  138.261">  1  4  2 -1</clus>
<clus scale="   35.424">  1  3  2 -1</clus>
</clustering>
</event>
<event>
 6    0  0.8991567E+002  0.1174067E+03  0.7546771E-02  0.1247438E+00
         21   -1    0    0  506  501  0.00000000000E+00  0.00000000000E+00  0.11058151208E+04  0.11058151208E+04  0.00000000000E+00 0.  1.
         21   -1    0    0  504  502 -0.00000000000E+00 -0.00000000000E+00 -0.27065799049E+03  0.27065799049E+03  0.00000000000E+00 0. -1.
         21    1    1    2  503  501 -0.26488275137E+02  0.14650557569E+02  0.23090312461E+03  0.23287876784E+03  0.00000000000E+00 0.  1.
         21    1    1    2  504  503  0.60093573360E+02  0.29900751744E+02  0.48106928591E+02  0.82580682321E+02  0.00000000000E+00 0.  1.
         21    1    1    2  505  502 -0.45892050096E+02 -0.10907853143E+03 -0.23713163904E+03  0.26502003794E+03  0.00000000000E+00 0. -1.
         21    1    1    2  506  505  0.12286751873E+02  0.64527222116E+02  0.79327871613E+03  0.79599362317E+03  0.00000000000E+00 0.  1.
<scales pt_clust_3="30.26991" pt_clust_4="65.86264" pt_clust_5="14000.00000" pt_clust_6="117.40669"></scales>
<clustering>
<clus scale="   30.270">  1  3  2 -1</clus>
<clus scale="   65.863">  1  4  2 -1</clus>
<clus scale="  117.407">  1  6  2 -1</clus>
<clus scale="   30.270">  1  3  2 -1</clus>
</clustering>
</event>
<event>
 6    0  0.8991567E+002  0.8394263E+02  0.7546771E-02  0.1318221E+00
         21   -1    0    0  504  501  0.00000000000E+00  0.00000000000E+00  0.13649885155E+03  0.13649885155E+03  0.00000000000E+00 0. -1.
         21   -1    0    0  503  502 -0.00000000000E+00 -0.00000000000E+00 -0.22936382331E+03  0.22936382331E+03  0.00000000000E+00 0. -1.
         21    1    1    2  503  506  0.64559323644E+02 -0.14489307273E+02 -0.28733019479E+02  0.72134823095E+02  0.00000000000E+00 0. -1.
         21    1    1    2  504  505 -0.68908637729E+02 -0.35822303971E+02 -0.66344689389E+01  0.77946481598E+02  0.00000000000E+00 0. -1.
         21    1    1    2  505  502 -0.17556637953E+02 -0.54094594383E+02 -0.88043577466E+02  0.10481475188E+03  0.00000000000E+00 0. -1.
         21    1    1    2  506  501  0.21905952038E+02  0.10440620563E+03  0.30546094129E+02  0.11096661829E+03  0.00000000000E+00 0. -1.
<scales pt_clust_3="67.66161" pt_clust_4="14000.00000" pt_clust_5="56.87232" pt_clust_6="83.94263"></scales>
<clustering>
<clus scale="   56.872">  2  5  1 -1</clus>
<clus scale="   67.662">  2  3  1 -1</clus>
<clus scale="   83.943">  1  6  2 -1</clus>
<clus scale="   83.943">  1  3  2 -1</clus>
</clustering>
</event>
<event>
 6    0  0.8991567E+002  0.1601626E+03  0.7546771E-02  0.1188513E+00
         21   -1    0    0  503  501  0.00000000000E+00  0.00000000000E+00  0.16357550000E+03  0.16357550000E+03  0.00000000000E+00 0.  1.
         21   -1    0    0  501  502 -0.00000000000E+00 -0.00000000000E+00 -0.19437896313E+04  0.19437896313E+04  0.00000000000E+00 0.  1.
         21    1    1    2  503  504 -0.35260572170E+02  0.16166055038E+02 -0.22181446883E+02  0.44684067306E+02  0.00000000000E+00 0.  1.
         21    1    1    2  504  506 -0.46929563921E+02 -0.14155182642E+03  0.20483207019E+02  0.15052861954E+03  0.00000000000E+00 0.  1.
         21    1    1    2  505  502 -0.46345385058E+02 -0.86169234743E+01 -0.17153826905E+04  0.17160302797E+04  0.00000000000E+00 0.  1.
         21    1    1    2  506  505  0.12853552115E+03  0.13400269485E+03 -0.63133200913E+02  0.19612216469E+03  0.00000000000E+00 0.  1.
<scales pt_clust_3="38.78981" pt_clust_4="160.16256" pt_clust_5="47.20708" pt_clust_6="14000.00000"></scales>
<clustering>
<clus scale="   38.790">  1  3  2 -1</clus>
<clus scale="   47.207">  2  5  1 -1</clus>
<clus scale="  160.163">  1  4  2 -1</clus>
<clus scale="   38.790">  1  3  2 -1</clus>
</clustering>
</event>
<event>
 6    0  0.8991567E+002  0.1015091E+03  0.7546771E-02  0.1277154E+00
         21   -1    0    0  505  501  0.00000000000E+00  0.00000000000E+00  0.37498561443E+03  0.37498561443E+03  0.00000000000E+00 0. -1.
         21   -1    0    0  506  502 -0.00000000000E+00 -0.00000000000E+00 -0.88453713606E+03  0.88453713606E+03  0.00000000000E+00 0. -1.
         21    1    1    2  503  501 -0.39783252432E+02 -0.65339821377E+02 -0.57745389251E+03  0.58249892481E+03  0.00000000000E+00 0. -1.
         21    1    1    2  504  502  0.90930358809E+02 -0.59700489828E+02 -0.96967868095E+02  0.14572318306E+03  0.00000000000E+00 0. -1.
         21    1    1    2  505  504  0.16285872771E+02  0.10060141974E+03  0.33314151511E+03  0.34838074631E+03  0.00000000000E+00 0. -1.
         21    1    1    2  506  503 -0.67432979148E+02  0.24438891459E+02 -0.16827127614E+03  0.18291989631E+03  0.00000000000E+00 0. -1.
<scales pt_clust_3="101.50912" pt_clust_4="96.87454" pt_clust_5="14000.00000" pt_clust_6="71.72493"></scales>
<clustering>
<clus scale="   71.725">  2  6  1 -1</clus>
<clus scale="   96.875">  2  4  1 -1</clus>
<clus scale="  101.509">  2  3  1 -1</clus>
<clus scale="  101.509">  1  3  2 -1</clus>
</clustering>
</event>
<event>
 6    0  0.8991567E+002  0.9631733E+02  0.7546771E-02  0.1288236E+00
         21   -1    0    0  506  501  0.00000000000E+00  0.00000000000E+00  0.13573715041E+04  0.13573715041E+04  0.00000000000E+00 0. -1.
         21   -1    0    0  504  502 -0.00000000000E+00 -0.00000000000E+00 -0.14727878267E+04  0.14727878267E+04  0.00000000000E+00 0. -1.
         21    1    1    2  503  505  0.33572512703E+02 -0.73628283707E+02 -0.58218061263E+02  0.99687413589E+02  0.00000000000E+00 0. -1.
         21    1    1    2  504  503  0.39305849416E+02  0.16179882386E+02 -0.13311704097E+04  0.13318488645E+04  0.00000000000E+00 0. -1.
         21    1    1    2  505  501  0.75458375903E+02 -0.55356224699E+02  0.11909306580E+04  0.11946020719E+04  0.00000000000E+00 0. -1.
         21    1    1    2  506  502 -0.14833673802E+03  0.11280462602E+03  0.83041490326E+02  0.20402098082E+03  0.00000000000E+00 0. -1.
<scales pt_clust_3="85.18155" pt_clust_4="42.50575" pt_clust_5="14000.00000" pt_clust_6="96.31733"></scales>
<clustering>
<clus scale="   42.506">  2  4  1 -1</clus>
<clus scale="   85.182">  2  3  1 -1</clus>
<clus scale="   96.317">  2  6  1 -1</clus>
<clus scale="   96.317">  1  3  2 -1</clus>
</clustering>
</event>
<event>
 6    0  0.8991567E+002  0.1346728E+03  0.7546771E-02  0.1220682E+00
         21   -1    0    0  503  501  0.00000000000E+00  0.00000000000E+00  0.10070959443E+03  0.10070959443E+03  0.00000000000E+00 0. -1.
         21   -1    0    0  501  502 -0.00000000000E+00 -0.00000000000E+00 -0.76806449713E+03  0.76806449713E+03  0.00000000000E+00 0. -1.
         21    1    1    2  503  506 -0.56755956167E+02 -0.26310957297E+00  0.37770027033E+02  0.68175382134E+02  0.00000000000E+00 0. -1.
         21    1    1    2  504  505 -0.74315472201E+02  0.39906885655E+01 -0.24307642744E+03  0.25421421003E+03  0.00000000000E+00 0. -1.
         21    1    1    2  505  502 -0.43029989617E+02  0.10221074293E+02 -0.31493286953E+03  0.31802321090E+03  0.00000000000E+00 0. -1.
         21    1    1    2  506  504  0.17410141799E+03 -0.13948653285E+02 -0.14711563276E+03  0.22836128848E+03  0.00000000000E+00 0. -1.
<scales pt_clust_3="56.75657" pt_clust_4="35.40528" pt_clust_5="35.40528" pt_clust_6="126.59940"></scales>
<clustering>
<clus scale="   35.405">  4  5 -1 -1</clus>
<clus scale="   56.757">  1  3  2 -1</clus>
<clus scale="  126.599">  1  6  2 -1</clus>
<clus scale="   56.757">  1  3  2 -1</clus>
</clustering>
</event>
<event>
 6    0  0.8991567E+002  0.7500893E+02  0.7546771E-02  0.1343843E+00
         21   -1    0    0  504  501  0.00000000000E+00  0.00000000000E+00  0.20430955266E+03  0.20430955266E+03  0.00000000000E+00 0. -1.
         21   -1    0    0  503  502 -0.00000000000E+00 -0.00000000000E+00 -0.18108317693E+03  0.18108317693E+03  0.00000000000E+00 0. -1.
         21    1    1    2  503  505  0.12753856581E+03  0.11222243991E+02 -0.56140165663E+02  0.13979893680E+03  0.00000000000E+00 0. -1.
         21    1    1    2  504  506 -0.36280682343E+02  0.13175831783E+02  0.17846785413E+02  0.42525265478E+02  0.00000000000E+00 0. -1.
         21    1    1    2  505  501 -0.35749081817E+02 -0.30494017907E+01  0.11660769533E+03  0.12200266518E+03  0.00000000000E+00 0. -1.
         21    1    1    2  506  502 -0.55508801654E+02 -0.21348673983E+02 -0.55087939342E+02  0.81065862130E+02  0.00000000000E+00 0.  1.
<scales pt_clust_3="75.00893" pt_clust_4="50.44649" pt_clust_5="35.87890" pt_clust_6="14000.00000"></scales>
<clustering>
<clus scale="   35.879">  1  5  2 -1</clus>
<clus scale="   50.446">  1  4  2 -1</clus>
<clus scale="   75.009">  1  3  2 -1</clus>
<clus scale="   35.879">  1  3  2 -1</clus>
</clustering>
</event>
<event>
 6    0  0.8991567E+002  0.1150350E+03  0.7546771E-02  0.1251520E+00
         21   -1    0    0  504  501  0.00000000000E+00  0.00000000000E+00  0.77219211477E+02  0.77219211477E+02  0.00000000000E+00 0.  1.
         21   -1    0    0  506  502 -0.00000000000E+00 -0.00000000000E+00 -0.64218174553E+03  0.64218174553E+03  0.00000000000E+00 0. -1.
         21    1    1    2  503  502 -0.23138155262E+01  0.43027331639E+02 -0.17554563312E+03  0.18075667157E+03  0.00000000000E+00 0.  1.
         21    1    1    2  504  503 -0.92553235616E+02  0.96714571157E+02 -0.10312785935E+03  0.16898273601E+03  0.00000000000E+00 0.  1.
         21    1    1    2  505  501  0.18463862257E+02 -0.34989293707E+02  0.14486208886E+02  0.42130928443E+02  0.00000000000E+00 0. -1.
         21    1    1    2  506  505  0.76403188886E+02 -0.10475260909E+03 -0.30077525048E+03  0.32753062098E+03  0.00000000000E+00 0. -1.
<scales pt_clust_3="41.18490" pt_clust_4="14000.00000" pt_clust_5="39.56216" pt_clust_6="115.03496"></scales>
<clustering>
<clus scale="   39.562">  1  5  2 -1</clus>
<clus scale="   41.185">  2  3  1 -1</clus>
<clus scale="  115.035">  2  6  1 -1</clus>
<clus scale="   39.562">  1  3  2 -1</clus>
</clustering>
</event>
<event>
 6    0  0.8991567E+002  0.9288209E+02  0.7546771E-02  0.1296019E+00
         21   -1    0    0  504  501  0.00000000000E+00  0.00000000000E+00  0.14556481678E+03  0.14556481678E+03  0.00000000000E+00 0.  1.
         21   -1    0    0  505  502 -0.00000000000E+00 -0.00000000000E+00 -0.33729478411E+03  0.33729478411E+03  0.00000000000E+00 0.  1.
         21    1    1    2  503  502  0.20190154583E+02 -0.26993677427E+02 -0.18274649347E+03  0.18582944287E+03  0.00000000000E+00 0.  1.
         21    1    1    2  504  503  0.24700696944E+02 -0.98492859688E+02  0.64462723211E+02  0.12027639221E+03  0.00000000000E+00 0.  1.
         21    1    1    2  505  506  0.76298048232E+01  0.59555117216E+02 -0.70232312790E+02  0.92399154044E+02  0.00000000000E+00 0.  1.
         21    1    1    2  506  501 -0.52520656351E+02  0.65931419899E+02 -0.32138842821E+01  0.84354611762E+02  0.00000000000E+00 0.  1.
<scales pt_clust_3="33.70906" pt_clust_4="92.88209" pt_clust_5="48.79513" pt_clust_6="14000.00000"></scales>
<clustering>
<clus scale="   33.709">  2  3  1 -1</clus>
<clus scale="   48.795">  2  5  1 -1</clus>
<clus scale="   92.882">  1  4  2 -1</clus>
<clus scale="   92.882">  1  3  2 -1</clus>
</clustering>
</event>
<event>
 6    0  0.8991567E+002  0.2010467E+03  0.7546771E-02  0.1148859E+00
         21   -1    0    0  503  501  0.00000000000E+00  0.00000000000E+00  0.10296037259E+04  0.10296037259E+04  0.00000000000E+00 0.  1.
         21   -1    0    0  506  502 -0.00000000000E+00 -0.00000000000E+00 -0.66673083232E+02  0.66673083232E+02  0.00000000000E+00 0.  1.
         21    1    1    2  503  502  0.86514158546E+02  0.67896214040E+02  0.24389734593E+03  0.26754534356E+03  0.00000000000E+00 0. -1.
         21    1    1    2  504  505 -0.13616283336E+02  0.89085646517E+02  0.33855601718E+03  0.35034530446E+03  0.00000000000E+00 0.  1.
         21    1    1    2  505  501 -0.49195908363E+02  0.54911224744E+02  0.12998985813E+03  0.14944177200E+03  0.00000000000E+00 0. -1.
         21    1    1    2  506  504 -0.23701966848E+02 -0.21189308530E+03  0.25048742141E+03  0.32894438909E+03  0.00000000000E+00 0.  1.
<scales pt_clust_3="109.97543" pt_clust_4="67.51201" pt_clust_5="67.51201" pt_clust_6="186.67718"></scales>
<clustering>
<clus scale="   67.512">  4  5 -1 -1</clus>
<clus scale="  109.975">  1  3  2 -1</clus>
<clus scale="  186.677">  2  6  1 -1</clus>
<clus scale="  109.975">  1  3  2 -1</clus>
</clustering>
</event>
<event>
 6    0  0.8991567E+002  0.7625610E+02  0.7546771E-02  0.1340025E+00
         21   -1    0    0  506  501  0.00000000000E+00  0.00000000000E+00  0.76669680128E+02  0.76669680128E+02  0.00000000000E+00 0.  1.
         21   -1    0    0  503  502 -0.00000000000E+00 -0.00000000000E+00 -0.30237087481E+03  0.30237087481E+03  0.00000000000E+00 0.  1.
         21    1    1    2  503  501 -0.32589385809E+02 -0.88105335520E+02 -0.19368208203E+02  0.95915304845E+02  0.00000000000E+00 0.  1.
         21    1    1    2  504  505  0.40203629442E+02  0.23450080761E+02 -0.41128978033E+02  0.62111439703E+02  0.00000000000E+00 0.  1.
         21    1    1    2  505  502  0.36366534741E+02  0.88884633496E+00 -0.13167249143E+03  0.13660512397E+03  0.00000000000E+00 0.  1.
         21    1    1    2  506  504 -0.43980778374E+02  0.63766408424E+02 -0.33531517024E+02  0.84408686423E+02  0.00000000000E+00 0.  1.
<scales pt_clust_3="14000.00000" pt_clust_4="56.57613" pt_clust_5="36.37740" pt_clust_6="76.25610"></scales>
<clustering>
<clus scale="   36.377">  2  5  1 -1</clus>
<clus scale="   56.576">  2  4  1 -1</clus>
<clus scale="   76.256">  2  6  1 -1</clus>
<clus scale="   76.256">  1  3  2 -1</clus>
</clustering>
</event>
<event>
 6    0  0.8991567E+002  0.1281371E+03  0.7546771E-02  0.1230246E+00
         21   -1    0    0  503  501  0.00000000000E+00  0.00000000000E+00  0.49484029911E+03  0.49484029911E+03  0.00000000000E+00 0.  1.
         21   -1    0    0  504  502 -0.00000000000E+00 -0.00000000000E+00 -0.29838274905E+03  0.29838274905E+03  0.00000000000E+00 0. -1.
         21    1    1    2  503  505 -0.25447653190E+02 -0.75576205773E+02  0.44869843651E+02  0.91502179216E+02  0.00000000000E+00 0. -1.
         21    1    1    2  504  506 -0.31680797060E+01 -0.34600946541E+02 -0.18052880323E+02  0.39155698417E+02  0.00000000000E+00 0. -1.
         21    1    1    2  505  502 -0.11360689903E+02 -0.45351123923E+02 -0.22851360399E+03  0.23324720132E+03  0.00000000000E+00 0. -1.
         21    1    1    2  506  501  0.39976422799E+02  0.15552827624E+03  0.39815419073E+03  0.42931796921E+03  0.00000000000E+00 0.  1.
<scales pt_clust_3="14000.00000" pt_clust_4="34.74568" pt_clust_5="76.27248" pt_clust_6="128.13713"></scales>
<clustering>
<clus scale="   34.746">  2  4  1 -1</clus>
<clus scale="   76.272">  2  5  1 -1</clus>
<clus scale="  128.137">  1  6  2 -1</clus>
<clus scale="  128.137">  1  3  2 -1</clus>
</clustering>
</event>
<event>
 6    0  0.8991567E+002  0.1135625E+03  0.7546771E-02  0.1254111E+00
         21   -1    0    0  506  501  0.00000000000E+00  0.00000000000E+00  0.39845517452E+02  0.39845517452E+02  0.00000000000E+00 0.  1.
         21   -1    0    0  504  502 -0.00000000000E+00 -0.00000000000E+00 -0.20781149755E+04  0.20781149755E+04  0.00000000000E+00 0.  1.
         21    1    1    2  503  501  0.69611133237E+02  0.56516505917E+02 -0.10315041411E+04  0.10353939436E+04  0.00000000000E+00 0.  1.
         21    1    1    2  504  503  0.28846073459E+02 -0.10512547537E+02 -0.37044126775E+03  0.37171136983E+03  0.00000000000E+00 0.  1.
         21    1    1    2  505  502 -0.94811526792E+02 -0.58880208633E+01 -0.65819820904E+03  0.66501787704E+03  0.00000000000E+00 0. -1.
         21    1    1    2  506  505 -0.36456799038E+01 -0.40115937516E+02  0.21874159886E+02  0.45837302446E+02  0.00000000000E+00 0.  1.
<scales pt_clust_3="30.31675" pt_clust_4="30.31675" pt_clust_5="101.05544" pt_clust_6="40.28125"></scales>
<clustering>
<clus scale="   30.317">  3  4 -1 -1</clus>
<clus scale="   40.281">  1  6  2 -1</clus>
<clus scale="  101.055">  1  5  2 -1</clus>
<clus scale="   40.281">  1  3  2 -1</clus>
</clustering>
</event>
<event>
 6    0  0.8991567E+002  0.7722761E+02  0.7546771E-02  0.1337108E+00
         21   -1    0    0  505  501  0.00000000000E+00  0.00000000000E+00  0.74492072766E+02  0.74492072766E+02  0.00000000000E+00 0. -1.
         21   -1    0    0  506  502 -0.00000000000E+00 -0.00000000000E+00 -0.11472108783E+04  0.11472108783E+04  0.00000000000E+00 0.  1.
         21    1    1    2  503  501  0.10168458134E+03 -0.74343420442E+02 -0.27715021671E+03  0.30443216136E+03  0.00000000000E+00 0.  1.
         21    1    1    2  504  502 -0.48650458420E+02  0.26378978638E+02 -0.65933652425E+03  0.66165502328E+03  0.00000000000E+00 0.  1.
         21    1    1    2  505  504 -0.71607742729E+02  0.18341632414E+02  0.34333225463E+02  0.81503709542E+02  0.00000000000E+00 0. -1.
         21    1    1    2  506  503  0.18573619809E+02  0.29622809390E+02 -0.17056529001E+03  0.17411205686E+03  0.00000000000E+00 0. -1.
<scales pt_clust_3="77.22761" pt_clust_4="58.80733" pt_clust_5="14000.00000" pt_clust_6="34.96413"></scales>
<clustering>
<clus scale="   34.964">  2  6  1 -1</clus>
<clus scale="   58.807">  2  4  1 -1</clus>
<clus scale="   77.228">  2  3  1 -1</clus>
<clus scale="   77.228">  1  3  2 -1</clus>
</clustering>
</event>
<event>
 6    0  0.8991567E+002  0.1110813E+03  0.7546771E-02  0.1258580E+00
         21   -1    0    0  506  501  0.00000000000E+00  0.00000000000E+00  0.28892800997E+02  0.28892800997E+02  0.00000000000E+00 0. -1.
         21   -1    0    0  505  502 -0.00000000000E+00 -0.00000000000E+00 -0.10359687118E+04  0.10359687118E+04  0.00000000000E+00 0. -1.
         21    1    1    2  503  501  0.26308355127E+02 -0.47180490471E+02 -0.70752339758E+02  0.89016974852E+02  0.00000000000E+00 0. -1.
         21    1    1    2  504  503  0.11275543950E+02  0.11787816860E+03 -0.40030882618E+03  0.41745605379E+03  0.00000000000E+00 0. -1.
         21    1    1    2  505  504  0.25140562308E+02  0.21105998549E+02 -0.23902321695E+03  0.24126667671E+03  0.00000000000E+00 0.  1.
         21    1    1    2  506  502 -0.62724461385E+02 -0.91803676682E+02 -0.29699152792E+03  0.31712180746E+03  0.00000000000E+00 0. -1.
<scales pt_clust_3="53.49630" pt_clust_4="14000.00000" pt_clust_5="32.82546" pt_clust_6="111.08130"></scales>
<clustering>
<clus scale="   32.825">  2  5  1 -1</clus>
<clus scale="   53.496">  1  3  2 -1</clus>
<clus scale="  111.081">  2  6  1 -1</clus>
<clus scale="   53.496">  1  3  2 -1</clus>
</clustering>
</event>
<event>
 6    0  0.8991567E+002  0.8159468E+02  0.7546771E-02  0.1324586E+00
         21   -1    0    0  503  501  0.00000000000E+00  0.00000000000E+00  0.80019475618E+03  0.80019475618E+03  0.00000000000E+00 0. -1.
         21   -1    0    0  506  502 -0.00000000000E+00 -0.00000000000E+00 -0.58887170613E+03  0.58887170613E+03  0.00000000000E+00 0.  1.
         21    1    1    2  503  502  0.73891623053E+02  0.54990423915E+02 -0.21206615628E+03  0.23120547856E+03  0.00000000000E+00 0.  1.
         21    1    1    2  504  505 -0.88734663354E+02  0.16155476795E+02 -0.22499283088E+03  0.24239763583E+03  0.00000000000E+00 0.  1.
         21    1    1    2  505  501 -0.13592813536E+02 -0.36597427761E+02  0.77767095110E+03  0.77865027098E+03  0.00000000000E+00 0. -1.
         21    1    1    2  506  504  0.28435853837E+02 -0.34548472949E+02 -0.12928891389E+03  0.13681307694E+03  0.00000000000E+00 0.  1.
<scales pt_clust_3="81.59468" pt_clust_4="14000.00000" pt_clust_5="39.04019" pt_clust_6="48.43961"></scales>
<clustering>
<clus scale="   39.040">  1  5  2 -1</clus>
<clus scale="   48.440">  2  6  1 -1</clus>
<clus scale="   81.595">  1  3  2 -1</clus>
<clus scale="   39.040">  1  3  2 -1</clus>
</clustering>
</event>
<event>
 6    0  0.8991567E+002  0.1190579E+03  0.7546771E-02  0.1244659E+00
         21   -1    0    0  504  501  0.00000000000E+00  0.00000000000E+00  0.14929151950E+04  0.14929151950E+04  0.00000000000E+00 0. -1.
         21   -1    0    0  506  502 -0.00000000000E+00 -0.00000000000E+00 -0.16306433025E+03  0.16306433025E+03  0.00000000000E+00 0. -1.
         21    1    1    2  503  501  0.34518872578E+02 -0.61884830642E+02  0.22913684914E+03  0.23984365837E+03  0.00000000000E+00 0. -1.
         21    1    1    2  504  505  0.24642180880E+02  0.45785681776E+02  0.11695943376E+04  0.11707495378E+04  0.00000000000E+00 0. -1.
         21    1    1    2  505  502 -0.99130382819E+02  0.37512625538E+02 -0.13098072109E+03  0.16849326149E+03  0.00000000000E+00 0. -1.
         21    1    1    2  506  503  0.39969329360E+02 -0.21413476672E+02  0.62100399129E+02  0.76893067598E+02  0.00000000000E+00 0. -1.
<scales pt_clust_3="43.93052" pt_clust_4="51.99582" pt_clust_5="105.63553" pt_clust_6="43.93052"></scales>
<clustering>
<clus scale="   43.931">  3  6 -1 -1</clus>
<clus scale="   51.996">  1  4  2 -1</clus>
<clus scale="  105.636">  2  5  1 -1</clus>
<clus scale="   51.996">  1  3  2 -1</clus>
</clustering>
</event>
<event>
 6    0  0.8991567E+002  0.8164995E+02  0.7546771E-02  0.1324433E+00
         21   -1    0    0  505  501  0.00000000000E+00  0.00000000000E+00  0.45146475964E+02  0.45146475964E+02  0.00000000000E+00 0.  1.
         21   -1    0    0  506  502 -0.00000000000E+00 -0.00000000000E+00 -0.18310549255E+04  0.18310549255E+04  0.00000000000E+00 0. -1.
         21    1    1    2  503  502  0.17479006994E+02 -0.27008425888E+02 -0.22384200917E+03  0.22614202578E+03  0.00000000000E+00 0.  1.
         21    1    1    2  504  503 -0.72495021375E+02 -0.55492097076E+02 -0.82479968943E+03  0.82983698920E+03  0.00000000000E+00 0. -1.
         21    1    1    2  505  504 -0.16867954302E+02  0.59473314695E+02  0.15458010763E+02  0.63722469663E+02  0.00000000000E+00 0.  1.
         21    1    1    2  506  501  0.71883968683E+02  0.23027208269E+02 -0.75272476168E+03  0.75649991680E+03  0.00000000000E+00 0. -1.
<scales pt_clust_3="32.17096" pt_clust_4="81.64995" pt_clust_5="61.35720" pt_clust_6="14000.00000"></scales>
<clustering>
<clus scale="   32.171">  2  3  1 -1</clus>
<clus scale="   61.357">  1  5  2 -1</clus>
<clus scale="   81.650">  1  4  2 -1</clus>
<clus scale="   61.357">  1  3  2 -1</clus>
</clustering>
</event>
<event>
 6    0  0.8991567E+002  0.1576464E+03  0.7546771E-02  0.1191380E+00
         21   -1    0    0  506  501  0.00000000000E+00  0.00000000000E+00  0.88463864209E+03  0.88463864209E+03  0.00000000000E+00 0. -1.
         21   -1    0    0  503  502 -0.00000000000E+00 -0.00000000000E+00 -0.64414363127E+02  0.64414363127E+02  0.00000000000E+00 0.  1.
         21    1    1    2  503  501 -0.58012295656E+02  0.68974030669E+02  0.10973552087E+03  0.14200256299E+03  0.00000000000E+00 0.  1.
         21    1    1    2  504  505 -0.13436670185E+03 -0.14007433101E+02  0.15801578719E+03  0.20789326047E+03  0.00000000000E+00 0.  1.
         21    1    1    2  505  502  0.21386840606E+02 -0.42693300160E+02  0.54282213151E+02  0.72295736349E+02  0.00000000000E+00 0. -1.
         21    1    1    2  506  504  0.17099215690E+03 -0.12273297408E+02  0.49819075774E+03  0.52686144540E+03  0.00000000000E+00 0. -1.
<scales pt_clust_3="76.67298" pt_clust_4="157.64637" pt_clust_5="47.75055" pt_clust_6="14000.00000"></scales>
<clustering>
<clus scale="   47.751">  2  5  1 -1</clus>
<clus scale="   76.673">  2  3  1 -1</clus>
<clus scale="  157.646">  2  4  1 -1</clus>
<clus scale="  157.646">  1  3  2 -1</clus>
</clustering>
</event>
<event>
 6    0  0.8991567E+002  0.1043391E+03  0.7546771E-02  0.1271427E+00
         21   -1    0    0  504  501  0.00000000000E+00  0.00000000000E+00  0.66836619517E+03  0.66836619517E+03  0.00000000000E+00 0. -1.
         21   -1    0    0  503  502 -0.00000000000E+00 -0.00000000000E+00 -0.70324990584E+02  0.70324990584E+02  0.00000000000E+00 0.  1.
         21    1    1    2  503  501  0.44148122567E+02  0.30291967560E+02  0.10809218135E+03  0.12062578370E+03  0.00000000000E+00 0. -1.
         21    1    1    2  504  506 -0.34823441372E+02  0.87929956758E+02  0.45635103232E+03  0.46604786671E+03  0.00000000000E+00 0. -1.
         21    1    1    2  505  502  0.60892719792E+01 -0.46862479434E+02  0.58208266496E+02  0.74975819438E+02  0.00000000000E+00 0.  1.
         21    1    1    2  506  505 -0.15413953174E+02 -0.71359444884E+02 -0.24610275573E+02  0.77041715910E+02  0.00000000000E+00 0.  1.
<scales pt_clust_3="51.54292" pt_clust_4="104.33912" pt_clust_5="47.25644" pt_clust_6="14000.00000"></scales>
<clustering>
<clus scale="   47.256">  2  5  1 -1</clus>
<clus scale="   51.543">  1  3  2 -1</clus>
<clus scale="  104.339">  1  4  2 -1</clus>
<clus scale="   51.543">  1  3  2 -1</clus>
</clustering>
</event>
<event>
 6    0  0.8991567E+002  0.1177076E+03  0.7546771E-02  0.1246927E+00
         21   -1    0    0  506  501  0.00000000000E+00  0.00000000000E+00  0.66018534652E+03  0.66018534652E+03  0.00000000000E+00 0. -1.
         21   -1    0    0  504  502 -0.00000000000E+00 -0.00000000000E+00 -0.11151830098E+03  0.11151830098E+03  0.00000000000E+00 0.  1.
         21    1    1    2  503  502  0.45320704947E+02  0.21891709863E+02 -0.52125604996E+02  0.72458898376E+02  0.00000000000E+00 0.  1.
         21    1    1    2  504  501 -0.10384131830E+03  0.92541410769E+02  0.11488383828E+03  0.18040296115E+03  0.00000000000E+00 0.  1.
         21    1    1    2  505  503  0.58689978822E+02 -0.79793646228E+02  0.14166657226E+03  0.17286109246E+03  0.00000000000E+00 0.  1.
         21    1    1    2  506  505 -0.16936546567E+00 -0.34639474405E+02  0.34424223999E+03  0.34598069551E+03  0.00000000000E+00 0. -1.
<scales pt_clust_3="49.85007" pt_clust_4="14000.00000" pt_clust_5="117.70760" pt_clust_6="34.63989"></scales>
<clustering>
<clus scale="   34.640">  1  6  2 -1</clus>
<clus scale="   49.850">  2  3  1 -1</clus>
<clus scale="  117.708">  1  5  2 -1</clus>
<clus scale="   34.640">  1  3  2 -1</clus>
</clustering>
</event>
<event>
 6    0  0.9004523E+002  0.1089348E+03  0.7546771E-02  0.1262555E+00
         21   -1    0    0  503  501  0.00000000000E+00  0.00000000000E+00  0.16760436912E+04  0.16760436912E+04  0.00000000000E+00 0.  1.
         21   -1    0    0  504  502 -0.00000000000E+00 -0.00000000000E+00 -0.11633182016E+03  0.11633182016E+03  0.00000000000E+00 0. -1.
         21    1    1    2  503  502 -0.45359894001E+02 -0.18563729695E+02  0.15009246734E+04  0.15017246776E+04  0.00000000000E+00 0.  1.
         21    1    1    2  504  506 -0.80785326878E+02 -0.22142053267E+02 -0.59375135117E+02  0.10267398031E+03  0.00000000000E+00 0. -1.
         21    1    1    2  505  501  0.36750344899E+02 -0.11034571143E+02  0.12847027218E+02  0.40464746618E+02  0.00000000000E+00 0. -1.
         21    1    1    2  506  505  0.89394875980E+02  0.51740354105E+02  0.10531530559E+03  0.14751210692E+03  0.00000000000E+00 0. -1.
<scales pt_clust_3="49.01155" pt_clust_4="89.79643" pt_clust_5="37.58909" pt_clust_6="37.58909"></scales>
<clustering>
<clus scale="   37.589">  5  6 -1 -1</clus>
<clus scale="   49.012">  1  3  2 -1</clus>
<clus scale="   89.796">  2  4  1 -1</clus>
<clus scale="   49.012">  1  3  2 -1</clus>
</clustering>
</event>
<event>
 6    0  0.8991567E+002  0.7593975E+02  0.7546771E-02  0.1340985E+00
         21   -1    0    0  503  501  0.00000000000E+00  0.00000000000E+00  0.12697484003E+04  0.12697484003E+04  0.00000000000E+00 0. -1.
         21   -1    0    0  506  502 -0.00000000000E+00 -0.00000000000E+00 -0.98914081018E+02  0.98914081018E+02  0.00000000000E+00 0. -1.
         21    1    1    2  503  505 -0.32475156659E+02  0.64855383592E+02  0.19349168334E+03  0.20663951245E+03  0.00000000000E+00 0. -1.
         21    1    1    2  504  501 -0.17776405034E+02  0.50293181493E+02  0.83515782703E+03  0.83685960634E+03  0.00000000000E+00 0. -1.
         21    1    1    2  505  502  0.27716949777E+02 -0.23892758495E+02 -0.77779009314E+02  0.85957358634E+02  0.00000000000E+00 0. -1.
         21    1    1    2  506  504  0.22534611916E+02 -0.91255806590E+02  0.21996381820E+03  0.23920600387E+03  0.00000000000E+00 0. -1.
<scales pt_clust_3="75.93975" pt_clust_4="51.76471" pt_clust_5="36.59362" pt_clust_6="14000.00000"></scales>
<clustering>
<clus scale="   36.594">  2  5  1 -1</clus>
<clus scale="   51.765">  1  4  2 -1</clus>
<clus scale="   75.940">  2  3  1 -1</clus>
<clus scale="   51.765">  1  3  2 -1</clus>
</clustering>
</event>
<event>
 6    0  0.8991567E+002  0.8299447E+02  0.7546771E-02  0.1320762E+00
         21   -1    0    0  503  501  0.00000000000E+00  0.00000000000E+00  0.50694805453E+03  0.50694805453E+03  0.00000000000E+00 0.  1.
         21   -1    0    0  505  502 -0.00000000000E+00 -0.00000000000E+00 -0.99427684944E+02  0.99427684944E+02  0.00000000000E+00 0.  1.
         21    1    1    2  503  504 -0.24736215729E+01 -0.84972137904E+02  0.90350188500E+02  0.12405458309E+03  0.00000000000E+00 0.  1.
         21    1    1    2  504  502  0.32959298953E+02 -0.12525682272E+02 -0.55555565538E+02  0.65799916155E+02  0.00000000000E+00 0.  1.
         21    1    1    2  505  506 -0.90193583759E+02  0.54955467321E+02  0.16182946790E+03  0.19324534308E+03  0.00000000000E+00 0.  1.
         21    1    1    2  506  501  0.59707906378E+02  0.42542352855E+02  0.21089627872E+03  0.22327589715E+03  0.00000000000E+00 0.  1.
<scales pt_clust_3="82.99447" pt_clust_4="35.25916" pt_clust_5="14000.00000" pt_clust_6="76.58376"></scales>
<clustering>
<clus scale="   35.259">  2  4  1 -1</clus>
<clus scale="   76.584">  1  6  2 -1</clus>
<clus scale="   82.994">  2  3  1 -1</clus>
<clus scale="   76.584">  1  3  2 -1</clus>
</clustering>
</event>
<event>
 6    0  0.8991567E+002  0.1727510E+03  0.7546771E-02  0.1175009E+00
         21   -1    0    0  503  501  0.00000000000E+00  0.00000000000E+00  0.72821822433E+03  0.72821822433E+03  0.00000000000E+00 0. -1.
         21   -1    0    0  505  502 -0.00000000000E+00 -0.00000000000E+00 -0.17838937809E+03  0.17838937809E+03  0.00000000000E+00 0. -1.
         21    1    1    2  503  506  0.22563727559E+02  0.36531241595E+02  0.84884213666E+02  0.95126143323E+02  0.00000000000E+00 0. -1.
         21    1    1    2  504  501 -0.19800288534E+03 -0.38469576804E+02  0.49489223945E+03  0.53441873060E+03  0.00000000000E+00 0. -1.
         21    1    1    2  505  504  0.13904111206E+03  0.71849753390E+02  0.50484865279E+02  0.16444920044E+03  0.00000000000E+00 0. -1.
         21    1    1    2  506  502  0.36398045723E+02 -0.69911418181E+02 -0.80432472151E+02  0.11261352805E+03  0.00000000000E+00 0. -1.
<scales pt_clust_3="42.93779" pt_clust_4="172.75098" pt_clust_5="14000.00000" pt_clust_6="78.27023"></scales>
<clustering>
<clus scale="   42.938">  1  3  2 -1</clus>
<clus scale="   78.270">  2  6  1 -1</clus>
<clus scale="  172.751">  1  4  2 -1</clus>
<clus scale="   42.938">  1  3  2 -1</clus>
</clustering>
</event>
<event>
 6    0  0.8991567E+002  0.6248562E+02  0.7546771E-02  0.1387687E+00
         21   -1    0    0  505  501  0.00000000000E+00  0.00000000000E+00  0.87108316290E+02  0.87108316290E+02  0.00000000000E+00 0.  1.
         21   -1    0    0  503  502 -0.00000000000E+00 -0.00000000000E+00 -0.17484680466E+04  0.17484680466E+04  0.00000000000E+00 0.  1.
         21    1    1    2  503  501 -0.28052087595E+02  0.52147418249E+02 -0.10178402950E+04  0.10195612483E+04  0.00000000000E+00 0.  1.
         21    1    1    2  504  506 -0.64427872847E+02 -0.77896441134E+02 -0.84421498415E+02  0.13170343859E+03  0.00000000000E+00 0.  1.
         21    1    1    2  505  504  0.56161712704E+02  0.18493079560E+02  0.47954859988E+02  0.76130155404E+02  0.00000000000E+00 0.  1.
         21    1    1    2  506  502  0.36318247738E+02  0.72559433259E+01 -0.60705279686E+03  0.60818152061E+03  0.00000000000E+00 0.  1.
<scales pt_clust_3="58.78968" pt_clust_4="62.48562" pt_clust_5="14000.00000" pt_clust_6="37.03598"></scales>
<clustering>
<clus scale="   37.036">  2  6  1 -1</clus>
<clus scale="   58.790">  2  3  1 -1</clus>
<clus scale="   62.486">  2  4  1 -1</clus>
<clus scale="   62.486">  1  3  2 -1</clus>
</clustering>
</event>
<event>
 6    0  0.8991567E+002  0.1165829E+03  0.7546771E-02  0.1248843E+00
         21   -1    0    0  506  501  0.00000000000E+00  0.00000000000E+00  0.16045410037E+03  0.16045410037E+03  0.00000000000E+00 0.  1.
         21   -1    0    0  504  502 -0.00000000000E+00 -0.00000000000E+00 -0.29476182090E+03  0.29476182090E+03  0.00000000000E+00 0.  1.
         21    1    1    2  503  501 -0.65791921624E+02  0.31571911577E+00  0.62163502558E+02  0.90515068800E+02  0.00000000000E+00 0.  1.
         21    1    1    2  504  503 -0.36690286331E+02  0.38593718754E+02  0.53143918183E+02  0.75232494829E+02  0.00000000000E+00 0.  1.
         21    1    1    2  505  502  0.31275514978E+02  0.28025096674E+02 -0.12002292997E+03  0.12715764861E+03  0.00000000000E+00 0.  1.
         21    1    1    2  506  505  0.71206692977E+02 -0.66934534544E+02 -0.12959221130E+03  0.16231070904E+03  0.00000000000E+00 0.  1.
<scales pt_clust_3="41.81113" pt_clust_4="41.81113" pt_clust_5="41.99481" pt_clust_6="106.91898"></scales>
<clustering>
<clus scale="   41.811">  3  4 -1 -1</clus>
<clus scale="   41.995">  2  5  1 -1</clus>
<clus scale="  106.919">  2  6  1 -1</clus>
<clus scale="  116.583">  1  3  2 -1</clus>
</clustering>
</event>
<event>
 6    0  0.8991567E+002  0.9177726E+02  0.7546771E-02  0.1298604E+00
         21   -1    0    0  503  501  0.00000000000E+00  0.00000000000E+00  0.25113117981E+03  0.25113117981E+03  0.00000000000E+00 0. -1.
         21   -1    0    0  504  502 -0.00000000000E+00 -0.00000000000E+00 -0.75355810105E+03  0.75355810105E+03  0.00000000000E+00 0.  1.
         21    1    1    2  503  502  0.12855480702E+03 -0.25903853027E+02 -0.37530089253E+03  0.39755264802E+03  0.00000000000E+00 0.  1.
         21    1    1    2  504  505  0.77696566782E+01  0.33435992586E+02 -0.20141840460E+03  0.20432255597E+03  0.00000000000E+00 0.  1.
         21    1    1    2  505  506 -0.46033009932E+02 -0.17953088254E+02 -0.15153238413E+03  0.15938448739E+03  0.00000000000E+00 0.  1.
         21    1    1    2  506  501 -0.90291453768E+02  0.10420948695E+02  0.22582476003E+03  0.24342958948E+03  0.00000000000E+00 0. -1.
<scales pt_clust_3="14000.00000" pt_clust_4="34.32686" pt_clust_5="44.65876" pt_clust_6="91.77726"></scales>
<clustering>
<clus scale="   34.327">  2  4  1 -1</clus>
<clus scale="   44.659">  2  5  1 -1</clus>
<clus scale="   91.777">  1  6  2 -1</clus>
<clus scale="   91.777">  1  3  2 -1</clus>
</clustering>
</event>
<event>
 6    0  0.8991567E+002  0.8311535E+02  0.7546771E-02  0.1320436E+00
         21   -1    0    0  506  501  0.00000000000E+00  0.00000000000E+00  0.20908700191E+02  0.20908700191E+02  0.00000000000E+00 0. -1.
         21   -1    0    0  505  502 -0.00000000000E+00 -0.00000000000E+00 -0.10365208431E+04  0.10365208431E+04  0.00000000000E+00 0. -1.
         21    1    1    2  503  501  0.38268473592E+02  0.48382549465E+01 -0.11310030593E+03  0.11949712960E+03  0.00000000000E+00 0.  1.
         21    1    1    2  504  503 -0.26287506458E+02 -0.43366880954E+02 -0.17120143446E+03  0.17855433493E+03  0.00000000000E+00 0. -1.
         21    1    1    2  505  504 -0.74159504166E+02  0.82065263656E+02 -0.26859677371E+03  0.29047988984E+03  0.00000000000E+00 0. -1.
         21    1    1    2  506  502  0.62178537032E+02 -0.43536637649E+02 -0.46271362885E+03  0.46889818896E+03  0.00000000000E+00 0. -1.
<scales pt_clust_3="38.57311" pt_clust_4="46.16344" pt_clust_5="83.11535" pt_clust_6="14000.00000"></scales>
<clustering>
<clus scale="   38.573">  1  3  2 -1</clus>
<clus scale="   46.163">  1  4  2 -1</clus>
<clus scale="   83.115">  1  5  2 -1</clus>
<clus scale="   38.573">  1  3  2 -1</clus>
</clustering>
</event>
<event>
 6    0  0.8991567E+002  0.6293803E+02  0.7546771E-02  0.1385900E+00
         21   -1    0    0  506  501  0.00000000000E+00  0.00000000000E+00  0.12239367858E+03  0.12239367858E+03  0.00000000000E+00 0.  1.
         21   -1    0    0  504  502 -0.00000000000E+00 -0.00000000000E+00 -0.31074092565E+03  0.31074092565E+03  0.00000000000E+00 0.  1.
         21    1    1    2  503  501  0.66144004513E+02 -0.57029029484E+02  0.32660967998E+02  0.93242041845E+02  0.00000000000E+00 0.  1.
         21    1    1    2  504  503  0.32600455832E+02  0.37025377908E+02 -0.11264361256E+03  0.12297256516E+03  0.00000000000E+00 0.  1.
         21    1    1    2  505  502 -0.85489150723E+02 -0.29769215816E+02 -0.13215305387E+03  0.16018436487E+03  0.00000000000E+00 0.  1.
         21    1    1    2  506  505 -0.13255309622E+02  0.49772867393E+02  0.23788451360E+02  0.56735632364E+02  0.00000000000E+00 0.  1.
<scales pt_clust_3="14000.00000" pt_clust_4="49.33222" pt_clust_5="62.93803" pt_clust_6="53.96013"></scales>
<clustering>
<clus scale="   49.332">  2  4  1 -1</clus>
<clus scale="   53.960">  1  6  2 -1</clus>
<clus scale="   62.938">  2  5  1 -1</clus>
<clus scale="   53.960">  1  3  2 -1</clus>
</clustering>
</event>
<event>
 6    0  0.8991567E+002  0.1196111E+03  0.7546771E-02  0.1243740E+00
         21   -1    0    0  505  501  0.00000000000E+00  0.00000000000E+00  0.11320180398E+04  0.11320180398E+04  0.00000000000E+00 0.  1.
         21   -1    0    0  504  502 -0.00000000000E+00 -0.00000000000E+00 -0.36449463542E+03  0.36449463542E+03  0.00000000000E+00 0.  1.
         21    1    1    2  503  506  0.10819186492E+03 -0.57924033560E+02  0.13803586410E+03  0.18470130773E+03  0.00000000000E+00 0.  1.
         21    1    1    2  504  503 -0.10289416385E+03  0.77199678263E+02 -0.43650071093E+02  0.13583934623E+03  0.00000000000E+00 0.  1.
         21    1    1    2  505  502 -0.22506846609E+02 -0.82834816567E+02 -0.24287412501E+03  0.25759659466E+03  0.00000000000E+00 0.  1.
         21    1    1    2  506  501  0.17209145531E+02  0.63559171863E+02  0.91601173640E+03  0.91837542664E+03  0.00000000000E+00 0.  1.
<scales pt_clust_3="14000.00000" pt_clust_4="119.61115" pt_clust_5="83.58166" pt_clust_6="65.84773"></scales>
<clustering>
<clus scale="   65.848">  1  6  2 -1</clus>
<clus scale="   83.582">  2  5  1 -1</clus>
<clus scale="  119.611">  2  4  1 -1</clus>
<clus scale="   65.848">  1  3  2 -1</clus>
</clustering>
</event>
<event>
 6    0  0.8991567E+002  0.7728447E+02  0.7546771E-02  0.1336939E+00
         21   -1    0    0  503  501  0.00000000000E+00  0.00000000000E+00  0.23917043774E+03  0.23917043774E+03  0.00000000000E+00 0. -1.
         21   -1    0    0  504  502 -0.00000000000E+00 -0.00000000000E+00 -0.34757460640E+03  0.34757460640E+03  0.00000000000E+00 0. -1.
         21    1    1    2  503  505 -0.38109932235E+02  0.62789583751E+02  0.16963111106E+03  0.18485024372E+03  0.00000000000E+00 0. -1.
         21    1    1    2  504  506 -0.18796985202E+02  0.27733261786E+02 -0.17645209489E+03  0.17960457191E+03  0.00000000000E+00 0. -1.
         21    1    1    2  505  502  0.11197540388E+03 -0.77425796680E+02 -0.48013080024E+02  0.14435546723E+03  0.00000000000E+00 0. -1.
         21    1    1    2  506  501 -0.55068486442E+02 -0.13097048857E+02 -0.53570104810E+02  0.77934761288E+02  0.00000000000E+00 0. -1.
<scales pt_clust_3="14000.00000" pt_clust_4="33.50314" pt_clust_5="77.28447" pt_clust_6="62.40217"></scales>
<clustering>
<clus scale="   33.503">  2  4  1 -1</clus>
<clus scale="   62.402">  2  6  1 -1</clus>
<clus scale="   77.284">  2  5  1 -1</clus>
<clus scale="   77.284">  1  3  2 -1</clus>
</clustering>
</event>
<event>
 6    0  0.8991567E+002  0.1007481E+03  0.7546771E-02  0.1278731E+00
         21   -1    0    0  503  501  0.00000000000E+00  0.00000000000E+00  0.10038058464E+04  0.10038058464E+04  0.00000000000E+00 0. -1.
         21   -1    0    0  504  502 -0.00000000000E+00 -0.00000000000E+00 -0.47539779076E+03  0.47539779076E+03  0.00000000000E+00 0.  1.
         21    1    1    2  503  506 -0.69766271271E+02 -0.92376803287E+02  0.53439289367E+03  0.54678750096E+03  0.00000000000E+00 0. -1.
         21    1    1    2  504  505  0.14741562849E+02  0.61778532566E+02  0.82110634520E+02  0.10380778903E+03  0.00000000000E+00 0. -1.
         21    1    1    2  505  501  0.61590983761E+02  0.63311161096E+02  0.36436560612E+03  0.37491872095E+03  0.00000000000E+00 0. -1.
         21    1    1    2  506  502 -0.65662753386E+01 -0.32712890375E+02 -0.45246107870E+03  0.45368962619E+03  0.00000000000E+00 0.  1.
<scales pt_clust_3="14000.00000" pt_clust_4="47.31183" pt_clust_5="100.74811" pt_clust_6="33.36539"></scales>
<clustering>
<clus scale="   33.365">  2  6  1 -1</clus>
<clus scale="   47.312">  2  4  1 -1</clus>
<clus scale="  100.748">  1  5  2 -1</clus>
<clus scale="  100.748">  1  3  2 -1</clus>
</clustering>
</event>
<event>
 6    0  0.8991567E+002  0.1564953E+03  0.7546771E-02  0.1192711E+00
         21   -1    0    0  503  501  0.00000000000E+00  0.00000000000E+00  0.32093999237E+03  0.32093999237E+03  0.00000000000E+00 0. -1.
         21   -1    0    0  504  502 -0.00000000000E+00 -0.00000000000E+00 -0.60983669849E+03  0.60983669849E+03  0.00000000000E+00 0.  1.
         21    1    1    2  503  502  0.21500141968E+03  0.98310892736E+02  0.95913461119E+02  0.25512748601E+03  0.00000000000E+00 0. -1.
         21    1    1    2  504  505 -0.42035424568E+02 -0.97898203014E+02 -0.37670912125E+03  0.39148537278E+03  0.00000000000E+00 0. -1.
         21    1    1    2  505  506 -0.10763252383E+03  0.22062776771E+02 -0.11360944776E+03  0.15804629994E+03  0.00000000000E+00 0.  1.
         21    1    1    2  506  501 -0.65333471282E+02 -0.22475466493E+02  0.10550840178E+03  0.12611753212E+03  0.00000000000E+00 0.  1.
<scales pt_clust_3="14000.00000" pt_clust_4="108.22918" pt_clust_5="156.49530" pt_clust_6="69.09131"></scales>
<clustering>
<clus scale="   69.091">  1  6  2 -1</clus>
<clus scale="  108.229">  2  4  1 -1</clus>
<clus scale="  156.495">  2  5  1 -1</clus>
<clus scale="   69.091">  1  3  2 -1</clus>
</clustering>
</event>
<event>
 6    0  0.8991567E+002  0.5756172E+02  0.7546771E-02  0.1408359E+00
         21   -1    0    0  506  501  0.00000000000E+00  0.00000000000E+00  0.21012371184E+03  0.21012371184E+03  0.00000000000E+00 0.  1.
         21   -1    0    0  503  502 -0.00000000000E+00 -0.00000000000E+00 -0.57215143581E+03  0.57215143581E+03  0.00000000000E+00 0.  1.
         21    1    1    2  503  505  0.47609550927E+02 -0.12385166423E+02 -0.36127885601E+03  0.36461277198E+03  0.00000000000E+00 0.  1.
         21    1    1    2  504  501  0.94172078568E+01 -0.56918483740E+02  0.14741750911E+03  0.15830451537E+03  0.00000000000E+00 0.  1.
         21    1    1    2  505  504 -0.89700231300E+02  0.88526236657E+01 -0.16553191050E+03  0.18848160078E+03  0.00000000000E+00 0.  1.
         21    1    1    2  506  502  0.32673472516E+02  0.60451026497E+02  0.17365533440E+02  0.70876259513E+02  0.00000000000E+00 0.  1.
<scales pt_clust_3="49.19412" pt_clust_4="14000.00000" pt_clust_5="49.44503" pt_clust_6="57.56172"></scales>
<clustering>
<clus scale="   49.194">  2  3  1 -1</clus>
<clus scale="   49.445">  2  5  1 -1</clus>
<clus scale="   57.562">  2  6  1 -1</clus>
<clus scale="   57.562">  1  3  2 -1</clus>
</clustering>
</event>
<event>
 6    0  0.8991567E+002  0.8003759E+02  0.7546771E-02  0.1328945E+00
         21   -1    0    0  503  501  0.00000000000E+00  0.00000000000E+00  0.64370255869E+03  0.64370255869E+03  0.00000000000E+00 0.  1.
         21   -1    0    0  506  502 -0.00000000000E+00 -0.00000000000E+00 -0.13189010590E+03  0.13189010590E+03  0.00000000000E+00 0.  1.
         21    1    1    2  503  504 -0.76679183873E+02  0.26398726287E+02  0.52500892937E+03  0.53123532065E+03  0.00000000000E+00 0.  1.
         21    1    1    2  504  502 -0.23804837687E+02 -0.22340847637E+02 -0.11914846148E+02  0.34752659311E+02  0.00000000000E+00 0.  1.
         21    1    1    2  505  501  0.49811475570E+02 -0.71278107949E+02  0.59854602576E+02  0.10556668613E+03  0.00000000000E+00 0.  1.
         21    1    1    2  506  505  0.50672545989E+02  0.67220229299E+02 -0.61136233010E+02  0.10403799849E+03  0.00000000000E+00 0.  1.
<scales pt_clust_3="14000.00000" pt_clust_4="32.64634" pt_clust_5="80.03759" pt_clust_6="59.85602"></scales>
<clustering>
<clus scale="   32.646">  2  4  1 -1</clus>
<clus scale="   59.856">  2  6  1 -1</clus>
<clus scale="   80.038">  2  5  1 -1</clus>
<clus scale="   80.038">  1  3  2 -1</clus>
</clustering>
</event>
<event>
 6    0  0.8991567E+002  0.1459139E+03  0.7546771E-02  0.1205586E+00
         21   -1    0    0  506  501  0.00000000000E+00  0.00000000000E+00  0.24588479711E+03  0.24588479711E+03  0.00000000000E+00 0. -1.
         21   -1    0    0  505  502 -0.00000000000E+00 -0.00000000000E+00 -0.30581336541E+03  0.30581336541E+03  0.00000000000E+00 0. -1.
         21    1    1    2  503  501  0.10172922484E+03  0.90725858266E+02 -0.26967070852E+02  0.13895049282E+03  0.00000000000E+00 0. -1.
         21    1    1    2  504  502 -0.46250228488E+02  0.86353933347E+02 -0.24649343952E+02  0.10101324466E+03  0.00000000000E+00 0. -1.
         21    1    1    2  505  503 -0.12440448129E+02 -0.17490006876E+03 -0.10604995620E+03  0.20491801290E+03  0.00000000000E+00 0. -1.
         21    1    1    2  506  504 -0.43038548224E+02 -0.21797228513E+01  0.97737802699E+02  0.10681641213E+03  0.00000000000E+00 0. -1.
<scales pt_clust_3="145.91389" pt_clust_4="103.37190" pt_clust_5="14000.00000" pt_clust_6="43.09371"></scales>
<clustering>
<clus scale="   43.094">  1  6  2 -1</clus>
<clus scale="  103.372">  1  4  2 -1</clus>
<clus scale="  145.914">  1  3  2 -1</clus>
<clus scale="   43.094">  1  3  2 -1</clus>
</clustering>
</event>
<event>
 6    0  0.8991567E+002  0.8467918E+02  0.7546771E-02  0.1316274E+00
         21   -1    0    0  503  501  0.00000000000E+00  0.00000000000E+00  0.13385552990E+04  0.13385552990E+04  0.00000000000E+00 0. -1.
         21   -1    0    0  506  502 -0.00000000000E+00 -0.00000000000E+00 -0.67116888589E+02  0.67116888589E+02  0.00000000000E+00 0. -1.
         21    1    1    2  503  505 -0.22475151330E+02 -0.70663489243E+02  0.17229756496E+03  0.18757641651E+03  0.00000000000E+00 0. -1.
         21    1    1    2  504  501  0.16925408283E+01  0.87658883955E+02  0.10986017884E+04  0.11020947482E+04  0.00000000000E+00 0. -1.
         21    1    1    2  505  502  0.49541258122E+02 -0.51187787212E+02 -0.18354008053E+01  0.71259346840E+02  0.00000000000E+00 0. -1.
         21    1    1    2  506  504 -0.28758647621E+02  0.34192392500E+02  0.23744578220E+01  0.44741675961E+02  0.00000000000E+00 0. -1.
<scales pt_clust_3="84.67918" pt_clust_4="14000.00000" pt_clust_5="35.85879" pt_clust_6="44.67862"></scales>
<clustering>
<clus scale="   44.679">  2  6  1 -1</clus>
<clus scale="   35.859">  2  5  1 -1</clus>
<clus scale="   84.679">  2  3  1 -1</clus>
<clus scale="   84.679">  1  3  2 -1</clus>
</clustering>
</event>
<event>
 6    0  0.9336570E+002  0.1101338E+03  0.7546771E-02  0.1260322E+00
         21   -1    0    0  504  501  0.00000000000E+00  0.00000000000E+00  0.87162512375E+03  0.87162512375E+03  0.00000000000E+00 0. -1.
         21   -1    0    0  505  502 -0.00000000000E+00 -0.00000000000E+00 -0.78978076090E+03  0.78978076090E+03  0.00000000000E+00 0.  1.
         21    1    1    2  503  502  0.45716849223E+02  0.38861899794E+02 -0.70176908787E+03  0.70432956082E+03  0.00000000000E+00 0.  1.
         21    1    1    2  504  503  0.43407569880E+02  0.82532813380E+01  0.47535546361E+02  0.64899629764E+02  0.00000000000E+00 0. -1.
         21    1    1    2  505  506 -0.13872114441E+03 -0.90348631023E+02  0.12942237001E+02  0.16605400487E+03  0.00000000000E+00 0. -1.
         21    1    1    2  506  501  0.49596725310E+02  0.43233449891E+02  0.72313566736E+03  0.72612268919E+03  0.00000000000E+00 0. -1.
<scales pt_clust_3="60.06264" pt_clust_4="44.18522" pt_clust_5="110.13380" pt_clust_6="14000.00000"></scales>
<clustering>
<clus scale="   44.185">  1  4  2 -1</clus>
<clus scale="   60.063">  2  3  1 -1</clus>
<clus scale="  110.134">  2  5  1 -1</clus>
<clus scale="   44.185">  1  3  2 -1</clus>
</clustering>
</event>
<event>
 6    0  0.8991567E+002  0.1369921E+03  0.7546771E-02  0.1217435E+00
         21   -1    0    0  506  501  0.00000000000E+00  0.00000000000E+00  0.25391005159E+03  0.25391005159E+03  0.00000000000E+00 0.  1.
         21   -1    0    0  503  502 -0.00000000000E+00 -0.00000000000E+00 -0.26799596153E+03  0.26799596153E+03  0.00000000000E+00 0.  1.
         21    1    1    2  503  504  0.24354197957E+02  0.18782131761E+02 -0.76858891180E+02  0.82783963333E+02  0.00000000000E+00 0.  1.
         21    1    1    2  504  501 -0.15019255013E+03  0.54524175046E+02 -0.12172899754E+02  0.16024627068E+03  0.00000000000E+00 0.  1.
         21    1    1    2  505  502  0.48154230522E+02 -0.13550350796E+03 -0.15193363802E+02  0.14460590891E+03  0.00000000000E+00 0.  1.
         21    1    1    2  506  505  0.77684121651E+02  0.62197201157E+02  0.90139244797E+02  0.13426987019E+03  0.00000000000E+00 0.  1.
<scales pt_clust_3="30.75541" pt_clust_4="136.99209" pt_clust_5="14000.00000" pt_clust_6="103.12120"></scales>
<clustering>
<clus scale="   30.755">  2  3  1 -1</clus>
<clus scale="  103.121">  1  6  2 -1</clus>
<clus scale="  136.992">  1  4  2 -1</clus>
<clus scale="  103.121">  1  3  2 -1</clus>
</clustering>
</event>
<event>
 6    0  0.8991567E+002  0.9154865E+02  0.7546771E-02  0.1299144E+00
         21   -1    0    0  504  501  0.00000000000E+00  0.00000000000E+00  0.73969089079E+03  0.73969089079E+03  0.00000000000E+00 0.  1.
         21   -1    0    0  501  502 -0.00000000000E+00 -0.00000000000E+00 -0.32304225416E+03  0.32304225416E+03  0.00000000000E+00 0.  1.
         21    1    1    2  503  505  0.18438709900E+02  0.11913209604E+03  0.21604897888E+03  0.24740574691E+03  0.00000000000E+00 0.  1.
         21    1    1    2  504  503  0.42658850231E+02 -0.35144670803E+02  0.39710699785E+03  0.40093502357E+03  0.00000000000E+00 0. -1.
         21    1    1    2  505  506 -0.55583653138E+02 -0.52369437324E+02  0.94567772544E+02  0.12155313269E+03  0.00000000000E+00 0.  1.
         21    1    1    2  506  502 -0.55139069933E+01 -0.31617987910E+02 -0.29107511264E+03  0.29283924178E+03  0.00000000000E+00 0.  1.
<scales pt_clust_3="91.54865" pt_clust_4="56.27349" pt_clust_5="14000.00000" pt_clust_6="32.09518"></scales>
<clustering>
<clus scale="   32.095">  2  6  1 -1</clus>
<clus scale="   56.273">  1  4  2 -1</clus>
<clus scale="   91.549">  1  3  2 -1</clus>
<clus scale="   56.273">  1  3  2 -1</clus>
</clustering>
</event>
<event>
 6    0  0.8991567E+002  0.1232336E+03  0.7546771E-02  0.1237856E+00
         21   -1    0    0  505  501  0.00000000000E+00  0.00000000000E+00  0.29301937542E+02  0.29301937542E+02  0.00000000000E+00 0.  1.
         21   -1    0    0  504  502 -0.00000000000E+00 -0.00000000000E+00 -0.25304139844E+04  0.25304139844E+04  0.00000000000E+00 0.  1.
         21    1    1    2  503  501 -0.65837379113E+02  0.14925704922E+02 -0.32952243592E+03  0.33636642658E+03  0.00000000000E+00 0.  1.
         21    1    1    2  504  503 -0.29635577232E+02  0.10481140651E+02 -0.61709652101E+03  0.61789662403E+03  0.00000000000E+00 0.  1.
         21    1    1    2  505  506 -0.11206988073E+03  0.64732277731E+01 -0.16125641167E+03  0.19648203772E+03  0.00000000000E+00 0.  1.
         21    1    1    2  506  502  0.20754283707E+03 -0.31880073347E+02 -0.13932366783E+04  0.14089708336E+04  0.00000000000E+00 0.  1.
<scales pt_clust_3="72.94462" pt_clust_4="31.43440" pt_clust_5="123.23358" pt_clust_6="14000.00000"></scales>
<clustering>
<clus scale="   31.434">  2  4  1 -1</clus>
<clus scale="   72.945">  2  3  1 -1</clus>
<clus scale="  123.234">  1  5  2 -1</clus>
<clus scale="  123.234">  1  3  2 -1</clus>
</clustering>
</event>
<event>
 6    0  0.8991567E+002  0.1238218E+03  0.7546771E-02  0.1236922E+00
         21   -1    0    0  503  501  0.00000000000E+00  0.00000000000E+00  0.38346015424E+03  0.38346015424E+03  0.00000000000E+00 0.  1.
         21   -1    0    0  505  502 -0.00000000000E+00 -0.00000000000E+00 -0.44997112284E+03  0.44997112284E+03  0.00000000000E+00 0. -1.
         21    1    1    2  503  502  0.12411915144E+03  0.99513464817E+02  0.10545175507E+03  0.19086268907E+03  0.00000000000E+00 0.  1.
         21    1    1    2  504  506 -0.70450712637E+02 -0.65990481011E+02  0.18784287207E+02  0.98340713547E+02  0.00000000000E+00 0.  1.
         21    1    1    2  505  504 -0.42831361978E+02  0.32237326300E+01 -0.36413407960E+03  0.36665862317E+03  0.00000000000E+00 0. -1.
         21    1    1    2  506  501 -0.10837076826E+02 -0.36746716436E+02  0.17338706872E+03  0.17756925129E+03  0.00000000000E+00 0.  1.
<scales pt_clust_3="123.82183" pt_clust_4="14000.00000" pt_clust_5="43.00196" pt_clust_6="38.31140"></scales>
<clustering>
<clus scale="   38.311">  1  6  2 -1</clus>
<clus scale="   43.002">  2  5  1 -1</clus>
<clus scale="  123.822">  1  3  2 -1</clus>
<clus scale="   38.311">  1  3  2 -1</clus>
</clustering>
</event>
<event>
 6    0  0.8991567E+002  0.1596928E+03  0.7546771E-02  0.1189044E+00
         21   -1    0    0  506  501  0.00000000000E+00  0.00000000000E+00  0.31211589252E+03  0.31211589252E+03  0.00000000000E+00 0.  1.
         21   -1    0    0  504  502 -0.00000000000E+00 -0.00000000000E+00 -0.22253793191E+03  0.22253793191E+03  0.00000000000E+00 0.  1.
         21    1    1    2  503  501 -0.31568322277E+02  0.29149033489E+02  0.28826417294E+02  0.51741544805E+02  0.00000000000E+00 0.  1.
         21    1    1    2  504  503  0.12821620399E+03  0.15734425285E+03 -0.33033938850E+02  0.20564009820E+03  0.00000000000E+00 0.  1.
         21    1    1    2  505  502  0.44134675391E+00 -0.79625976461E+02 -0.31965269624E+02  0.85803667616E+02  0.00000000000E+00 0. -1.
         21    1    1    2  506  505 -0.97089228463E+02 -0.10686730988E+03  0.12575075179E+03  0.19146851381E+03  0.00000000000E+00 0.  1.
<scales pt_clust_3="42.96772" pt_clust_4="159.69277" pt_clust_5="76.78633" pt_clust_6="14000.00000"></scales>
<clustering>
<clus scale="   42.968">  1  3  2 -1</clus>
<clus scale="   76.786">  2  5  1 -1</clus>
<clus scale="  159.693">  2  4  1 -1</clus>
<clus scale="   42.968">  1  3  2 -1</clus>
</clustering>
</event>
<event>
 6    0  0.8991567E+002  0.9566115E+02  0.7546771E-02  0.1289694E+00
         21   -1    0    0  505  501  0.00000000000E+00  0.00000000000E+00  0.74679605495E+02  0.74679605495E+02  0.00000000000E+00 0.  1.
         21   -1    0    0  506  502 -0.00000000000E+00 -0.00000000000E+00 -0.11930790738E+04  0.11930790738E+04  0.00000000000E+00 0.  1.
         21    1    1    2  503  501 -0.42791700348E+02  0.31164259147E+01 -0.56858195115E+02  0.71229881938E+02  0.00000000000E+00 0.  1.
         21    1    1    2  504  503  0.48258388621E+02 -0.52135463043E+02 -0.60024172326E+02  0.93004730216E+02  0.00000000000E+00 0.  1.
         21    1    1    2  505  502 -0.10067358688E+03  0.40509366812E+02 -0.11750358465E+02  0.10915242012E+03  0.00000000000E+00 0.  1.
         21    1    1    2  506  504  0.95206898607E+02  0.85096703161E+01 -0.98976674237E+03  0.99437164698E+03  0.00000000000E+00 0.  1.
<scales pt_clust_3="42.90503" pt_clust_4="63.78393" pt_clust_5="95.66115" pt_clust_6="14000.00000"></scales>
<clustering>
<clus scale="   42.905">  1  3  2 -1</clus>
<clus scale="   63.784">  1  4  2 -1</clus>
<clus scale="   95.661">  1  5  2 -1</clus>
<clus scale="   42.905">  1  3  2 -1</clus>
</clustering>
</event>
<event>
 6    0  0.8991567E+002  0.2181184E+03  0.7546771E-02  0.1135294E+00
         21   -1    0    0  503  501  0.00000000000E+00  0.00000000000E+00  0.95046668192E+03  0.95046668192E+03  0.00000000000E+00 0. -1.
         21   -1    0    0  504  502 -0.00000000000E+00 -0.00000000000E+00 -0.17099152170E+04  0.17099152170E+04  0.00000000000E+00 0.  1.
         21    1    1    2  503  502 -0.97542890567E+02 -0.18942176557E+03  0.23167943217E+03  0.31475479354E+03  0.00000000000E+00 0. -1.
         21    1    1    2  504  505 -0.10390319123E+03 -0.53482237541E+02 -0.12883307925E+04  0.12936199032E+04  0.00000000000E+00 0.  1.
         21    1    1    2  505  506  0.14570801049E+03  0.26004364255E+03 -0.31694623273E+03  0.43509589149E+03  0.00000000000E+00 0.  1.
         21    1    1    2  506  501  0.55738071314E+02 -0.17139639446E+02  0.61414905802E+03  0.61691131072E+03  0.00000000000E+00 0. -1.
<scales pt_clust_3="218.11835" pt_clust_4="116.53093" pt_clust_5="14000.00000" pt_clust_6="58.31380"></scales>
<clustering>
<clus scale="   58.314">  1  6  2 -1</clus>
<clus scale="  116.531">  2  4  1 -1</clus>
<clus scale="  218.118">  1  3  2 -1</clus>
<clus scale="   58.314">  1  3  2 -1</clus>
</clustering>
</event>
<event>
 6    0  0.8991567E+002  0.1579887E+03  0.7546771E-02  0.1190986E+00
         21   -1    0    0  504  501  0.00000000000E+00  0.00000000000E+00  0.54071763810E+02  0.54071763810E+02  0.00000000000E+00 0. -1.
         21   -1    0    0  503  502 -0.00000000000E+00 -0.00000000000E+00 -0.20207781034E+04  0.20207781034E+04  0.00000000000E+00 0. -1.
         21    1    1    2  503  506 -0.32398466519E+02 -0.91566139612E+01 -0.46352245458E+03  0.46474355307E+03  0.00000000000E+00 0.  1.
         21    1    1    2  504  505 -0.93372154896E+01  0.18763751443E+03 -0.15319444145E+03  0.24241195784E+03  0.00000000000E+00 0. -1.
         21    1    1    2  505  502  0.54835682410E+02 -0.14448917816E+03 -0.12749223193E+04  0.12842550350E+04  0.00000000000E+00 0. -1.
         21    1    1    2  506  501 -0.13100000402E+02 -0.33991722304E+02 -0.75067124262E+02  0.83439321310E+02  0.00000000000E+00 0. -1.
<scales pt_clust_3="33.66755" pt_clust_4="157.98866" pt_clust_5="14000.00000" pt_clust_6="37.48193"></scales>
<clustering>
<clus scale="   33.668">  2  3  1 -1</clus>
<clus scale="   37.482">  1  6  2 -1</clus>
<clus scale="  157.989">  1  4  2 -1</clus>
<clus scale="   37.482">  1  3  2 -1</clus>
</clustering>
</event>
<event>
 6    0  0.8991567E+002  0.1762761E+03  0.7546771E-02  0.1171456E+00
         21   -1    0    0  504  501  0.00000000000E+00  0.00000000000E+00  0.96138200285E+03  0.96138200285E+03  0.00000000000E+00 0.  1.
         21   -1    0    0  503  502 -0.00000000000E+00 -0.00000000000E+00 -0.12769444628E+03  0.12769444628E+03  0.00000000000E+00 0.  1.
         21    1    1    2  503  506  0.55185247213E+02  0.57958786824E+02 -0.71149043275E+02  0.10708323323E+03  0.00000000000E+00 0.  1.
         21    1    1    2  504  502 -0.17485539278E+03 -0.13256527111E+03  0.42740681934E+03  0.48044203470E+03  0.00000000000E+00 0.  1.
         21    1    1    2  505  501  0.40608830533E+02  0.51287767634E+01  0.21388983427E+03  0.21777107859E+03  0.00000000000E+00 0.  1.
         21    1    1    2  506  505  0.79061315035E+02  0.69477707520E+02  0.26353994623E+03  0.28378010261E+03  0.00000000000E+00 0.  1.
<scales pt_clust_3="80.02895" pt_clust_4="165.36608" pt_clust_5="38.07264" pt_clust_6="38.07264"></scales>
<clustering>
<clus scale="   38.073">  5  6 -1 -1</clus>
<clus scale="   80.029">  2  3  1 -1</clus>
<clus scale="  165.366">  2  4  1 -1</clus>
<clus scale="  176.276">  1  3  2 -1</clus>
</clustering>
</event>
<event>
 6    0  0.8991567E+002  0.1374011E+03  0.7546771E-02  0.1216869E+00
         21   -1    0    0  505  501  0.00000000000E+00  0.00000000000E+00  0.23419807363E+03  0.23419807363E+03  0.00000000000E+00 0. -1.
         21   -1    0    0  504  502 -0.00000000000E+00 -0.00000000000E+00 -0.60872361518E+03  0.60872361518E+03  0.00000000000E+00 0. -1.
         21    1    1    2  503  502  0.70450783041E+02 -0.17603944768E+02 -0.39278710730E+03  0.39944326676E+03  0.00000000000E+00 0. -1.
         21    1    1    2  504  506  0.11852417538E+02  0.13636596985E+03 -0.15107583824E+03  0.20386286183E+03  0.00000000000E+00 0. -1.
         21    1    1    2  505  503  0.13121822611E+02 -0.31658126272E+02  0.12651310920E+02  0.36530464761E+02  0.00000000000E+00 0. -1.
         21    1    1    2  506  501 -0.95425023190E+02 -0.87103898811E+02  0.15668609306E+03  0.20308509546E+03  0.00000000000E+00 0. -1.
<scales pt_clust_3="72.94218" pt_clust_4="14000.00000" pt_clust_5="34.26980" pt_clust_6="137.40105"></scales>
<clustering>
<clus scale="   34.270">  1  5  2 -1</clus>
<clus scale="   72.942">  2  3  1 -1</clus>
<clus scale="  137.401">  1  6  2 -1</clus>
<clus scale="   34.270">  1  3  2 -1</clus>
</clustering>
</event>
<event>
 6    0  0.8991567E+002  0.1928067E+03  0.7546771E-02  0.1155954E+00
         21   -1    0    0  503  501  0.00000000000E+00  0.00000000000E+00  0.10404080339E+04  0.10404080339E+04  0.00000000000E+00 0. -1.
         21   -1    0    0  506  502 -0.00000000000E+00 -0.00000000000E+00 -0.58316224326E+03  0.58316224326E+03  0.00000000000E+00 0. -1.
         21    1    1    2  503  505 -0.60768552396E+02 -0.13778082424E+03  0.31260347005E+03  0.34698314365E+03  0.00000000000E+00 0. -1.
         21    1    1    2  504  501  0.84017029194E+02  0.14459188822E+03  0.47942134719E+03  0.50775043424E+03  0.00000000000E+00 0. -1.
         21    1    1    2  505  502  0.45132688082E+01 -0.44273628121E+02  0.21374786073E+03  0.21833156370E+03  0.00000000000E+00 0. -1.
         21    1    1    2  506  504 -0.27761745606E+02  0.37462564137E+02 -0.54852688729E+03  0.55050513559E+03  0.00000000000E+00 0. -1.
<scales pt_clust_3="42.89672" pt_clust_4="175.92016" pt_clust_5="42.89672" pt_clust_6="46.62787"></scales>
<clustering>
<clus scale="   42.897">  3  5 -1 -1</clus>
<clus scale="   46.628">  2  6  1 -1</clus>
<clus scale="  175.920">  1  4  2 -1</clus>
<clus scale="  175.920">  1  3  2 -1</clus>
</clustering>
</event>
<event>
 6    0  0.8991567E+002  0.7203585E+02  0.7546771E-02  0.1353304E+00
         21   -1    0    0  504  501  0.00000000000E+00  0.00000000000E+00  0.56734967208E+03  0.56734967208E+03  0.00000000000E+00 0. -1.
         21   -1    0    0  506  502 -0.00000000000E+00 -0.00000000000E+00 -0.18314197851E+03  0.18314197851E+03  0.00000000000E+00 0.  1.
         21    1    1    2  503  501  0.11812202864E+03  0.19092009034E+01  0.68217549056E+02  0.13641881358E+03  0.00000000000E+00 0. -1.
         21    1    1    2  504  505 -0.67984630359E+02  0.56577117471E+01  0.40478439919E+03  0.41049278861E+03  0.00000000000E+00 0. -1.
         21    1    1    2  505  502 -0.31959766199E+02  0.19441706510E+02  0.49194868641E+02  0.61802440956E+02  0.00000000000E+00 0. -1.
         21    1    1    2  506  503 -0.18177632085E+02 -0.27008619161E+02 -0.13798912332E+03  0.14177760744E+03  0.00000000000E+00 0.  1.
<scales pt_clust_3="14000.00000" pt_clust_4="72.03585" pt_clust_5="37.92352" pt_clust_6="32.55598"></scales>
<clustering>
<clus scale="   32.556">  2  6  1 -1</clus>
<clus scale="   37.924">  2  5  1 -1</clus>
<clus scale="   72.036">  1  4  2 -1</clus>
<clus scale="   72.036">  1  3  2 -1</clus>
</clustering>
</event>
<event>
 6    0  0.8991567E+002  0.8551759E+02  0.7546771E-02  0.1314085E+00
         21   -1    0    0  505  501  0.00000000000E+00  0.00000000000E+00  0.30916524685E+03  0.30916524685E+03  0.00000000000E+00 0. -1.
         21   -1    0    0  503  502 -0.00000000000E+00 -0.00000000000E+00 -0.28649601255E+03  0.28649601255E+03  0.00000000000E+00 0.  1.
         21    1    1    2  503  506  0.89966773545E+02 -0.10997722200E+02 -0.21581046672E+03  0.23407077515E+03  0.00000000000E+00 0.  1.
         21    1    1    2  504  502 -0.29138108632E+02  0.76206009823E+02  0.57695718591E+02  0.99925878788E+02  0.00000000000E+00 0. -1.
         21    1    1    2  505  504 -0.40013150166E+02 -0.83029903394E+01  0.19515755473E+03  0.19939022795E+03  0.00000000000E+00 0. -1.
         21    1    1    2  506  501 -0.20815514748E+02 -0.56905297284E+02 -0.14373572306E+02  0.62274377508E+02  0.00000000000E+00 0. -1.
<scales pt_clust_3="14000.00000" pt_clust_4="85.51759" pt_clust_5="40.86553" pt_clust_6="65.62658"></scales>
<clustering>
<clus scale="   40.866">  1  5  2 -1</clus>
<clus scale="   65.627">  1  6  2 -1</clus>
<clus scale="   85.518">  1  4  2 -1</clus>
<clus scale="   40.866">  1  3  2 -1</clus>
</clustering>
</event>
<event>
 6    0  0.8991567E+002  0.1199772E+03  0.7546771E-02  0.1243135E+00
         21   -1    0    0  504  501  0.00000000000E+00  0.00000000000E+00  0.15507239382E+03  0.15507239382E+03  0.00000000000E+00 0. -1.
         21   -1    0    0  505  502 -0.00000000000E+00 -0.00000000000E+00 -0.21714968109E+04  0.21714968109E+04  0.00000000000E+00 0. -1.
         21    1    1    2  503  501 -0.22987820780E+02  0.21729714260E+02 -0.88591809473E+01  0.32849740838E+02  0.00000000000E+00 0. -1.
         21    1    1    2  504  502 -0.97323392442E+02 -0.52686530049E+01  0.82220362434E+02  0.12751387932E+03  0.00000000000E+00 0. -1.
         21    1    1    2  505  506 -0.13384946987E+02  0.44609120802E+02 -0.19853529428E+04  0.19858991510E+04  0.00000000000E+00 0. -1.
         21    1    1    2  506  503  0.13369616021E+03 -0.61070182057E+02 -0.10443265576E+03  0.18030643355E+03  0.00000000000E+00 0. -1.
<scales pt_clust_3="31.63258" pt_clust_4="119.97720" pt_clust_5="46.62627" pt_clust_6="14000.00000"></scales>
<clustering>
<clus scale="   31.633">  1  3  2 -1</clus>
<clus scale="   46.626">  2  5  1 -1</clus>
<clus scale="  119.977">  1  4  2 -1</clus>
<clus scale="   31.633">  1  3  2 -1</clus>
</clustering>
</event>
<event>
 6    0  0.8991567E+002  0.1639119E+03  0.7546771E-02  0.1184350E+00
         21   -1    0    0  504  501  0.00000000000E+00  0.00000000000E+00  0.37690583626E+03  0.37690583626E+03  0.00000000000E+00 0.  1.
         21   -1    0    0  505  502 -0.00000000000E+00 -0.00000000000E+00 -0.12538652943E+04  0.12538652943E+04  0.00000000000E+00 0.  1.
         21    1    1    2  503  501 -0.43972142585E+02 -0.54351106183E+02  0.28260417284E+03  0.29112318797E+03  0.00000000000E+00 0.  1.
         21    1    1    2  504  502  0.16988963680E+03 -0.88694902296E+02 -0.82377644434E+03  0.84577591869E+03  0.00000000000E+00 0.  1.
         21    1    1    2  505  506 -0.69139913149E+01  0.56788056256E+02 -0.34201171674E+03  0.34676317711E+03  0.00000000000E+00 0.  1.
         21    1    1    2  506  503 -0.11900350290E+03  0.86257952224E+02  0.62245302119E+01  0.14710884678E+03  0.00000000000E+00 0.  1.
<scales pt_clust_3="69.72518" pt_clust_4="14000.00000" pt_clust_5="57.20740" pt_clust_6="163.91194"></scales>
<clustering>
<clus scale="   57.207">  2  5  1 -1</clus>
<clus scale="   69.725">  1  3  2 -1</clus>
<clus scale="  163.912">  1  6  2 -1</clus>
<clus scale="   69.725">  1  3  2 -1</clus>
</clustering>
</event>
<event>
 6    0  0.8991567E+002  0.9339483E+02  0.7546771E-02  0.1294833E+00
         21   -1    0    0  502  501  0.00000000000E+00  0.00000000000E+00  0.17093448975E+03  0.17093448975E+03  0.00000000000E+00 0.  1.
         21   -1    0    0  503  502 -0.00000000000E+00 -0.00000000000E+00 -0.30254246385E+04  0.30254246385E+04  0.00000000000E+00 0.  1.
         21    1    1    2  503  504 -0.16909073858E+02  0.58592242585E+02 -0.26500573499E+04  0.26507589338E+04  0.00000000000E+00 0.  1.
         21    1    1    2  504  505 -0.14246822256E+02 -0.54160169778E+02 -0.20794490140E+03  0.21535407578E+03  0.00000000000E+00 0. -1.
         21    1    1    2  505  506 -0.98362664602E+01 -0.75309401207E+02 -0.14327908802E+03  0.16216397600E+03  0.00000000000E+00 0. -1.
         21    1    1    2  506  501  0.40992162574E+02  0.70877328400E+02  0.14679119051E+03  0.16808214267E+03  0.00000000000E+00 0.  1.
<scales pt_clust_3="60.98334" pt_clust_4="36.62572" pt_clust_5="36.62572" pt_clust_6="83.08652"></scales>
<clustering>
<clus scale="   36.626">  4  5 -1 -1</clus>
<clus scale="   60.983">  2  3  1 -1</clus>
<clus scale="   83.087">  1  6  2 -1</clus>
<clus scale="   83.087">  1  3  2 -1</clus>
</clustering>
</event>
<event>
 6    0  0.8991567E+002  0.1992334E+03  0.7546771E-02  0.1150387E+00
         21   -1    0    0  503  501  0.00000000000E+00  0.00000000000E+00  0.29803547380E+03  0.29803547380E+03  0.00000000000E+00 0.  1.
         21   -1    0    0  505  502 -0.00000000000E+00 -0.00000000000E+00 -0.15640472115E+03  0.15640472115E+03  0.00000000000E+00 0.  1.
         21    1    1    2  503  506 -0.30016462888E+02  0.22712871250E+02  0.18514558016E+02  0.41948199285E+02  0.00000000000E+00 0. -1.
         21    1    1    2  504  502  0.15723079146E+03  0.11667964561E+02  0.21250531564E+02  0.15908880624E+03  0.00000000000E+00 0.  1.
         21    1    1    2  505  501 -0.16003032312E+03 -0.72379007818E+02  0.10217556635E+03  0.20319515607E+03  0.00000000000E+00 0.  1.
         21    1    1    2  506  504  0.32815994548E+02  0.37998172007E+02 -0.30990327619E+00  0.50208033362E+02  0.00000000000E+00 0.  1.
<scales pt_clust_3="37.64123" pt_clust_4="40.18338" pt_clust_5="186.84704" pt_clust_6="40.18338"></scales>
<clustering>
<clus scale="   37.641">  1  3  2 -1</clus>
<clus scale="   40.183">  4  6 -1 -1</clus>
<clus scale="  186.847">  1  5  2 -1</clus>
<clus scale="   37.641">  1  3  2 -1</clus>
</clustering>
</event>
<event>
 6    0  0.8991567E+002  0.1386593E+03  0.7546771E-02  0.1215144E+00
         21   -1    0    0  505  501  0.00000000000E+00  0.00000000000E+00  0.79411572703E+03  0.79411572703E+03  0.00000000000E+00 0.  1.
         21   -1    0    0  506  502 -0.00000000000E+00 -0.00000000000E+00 -0.23286328231E+03  0.23286328231E+03  0.00000000000E+00 0.  1.
         21    1    1    2  503  501  0.15477400147E+02 -0.67689281388E+02  0.68652642349E+03  0.69002892612E+03  0.00000000000E+00 0.  1.
         21    1    1    2  504  502  0.32113179694E+01  0.71220494084E+02 -0.13347266339E+03  0.15131960618E+03  0.00000000000E+00 0.  1.
         21    1    1    2  505  504  0.42954986436E+02  0.55345029967E+02 -0.46738567585E+02  0.84218150667E+02  0.00000000000E+00 0.  1.
         21    1    1    2  506  503 -0.61643704552E+02 -0.58876242663E+02  0.54937252207E+02  0.10141232638E+03  0.00000000000E+00 0.  1.
<scales pt_clust_3="69.43622" pt_clust_4="69.04918" pt_clust_5="69.04918" pt_clust_6="119.89419"></scales>
<clustering>
<clus scale="   69.049">  4  5 -1 -1</clus>
<clus scale="   69.436">  1  3  2 -1</clus>
<clus scale="  119.894">  1  6  2 -1</clus>
<clus scale="   69.436">  1  3  2 -1</clus>
</clustering>
</event>
<event>
 6    0  0.8991567E+002  0.1087735E+03  0.7546771E-02  0.1262858E+00
         21   -1    0    0  503  501  0.00000000000E+00  0.00000000000E+00  0.12456095261E+04  0.12456095261E+04  0.00000000000E+00 0. -1.
         21   -1    0    0  505  502 -0.00000000000E+00 -0.00000000000E+00 -0.34974976414E+03  0.34974976414E+03  0.00000000000E+00 0.  1.
         21    1    1    2  503  504 -0.10273912906E+02 -0.86126353824E+02  0.83125996476E+03  0.83577295429E+03  0.00000000000E+00 0. -1.
         21    1    1    2  504  502 -0.58261231422E+02 -0.39955088656E+02 -0.11630637686E+03  0.13608068744E+03  0.00000000000E+00 0.  1.
         21    1    1    2  505  506 -0.33024405632E+02  0.10610938677E+03 -0.19999253800E+03  0.22879429316E+03  0.00000000000E+00 0.  1.
         21    1    1    2  506  501  0.10155954996E+03  0.19972055709E+02  0.38089871206E+03  0.39471135536E+03  0.00000000000E+00 0. -1.
<scales pt_clust_3="87.20873" pt_clust_4="70.64545" pt_clust_5="14000.00000" pt_clust_6="108.77350"></scales>
<clustering>
<clus scale="   70.645">  2  4  1 -1</clus>
<clus scale="   87.209">  1  3  2 -1</clus>
<clus scale="  108.773">  1  6  2 -1</clus>
<clus scale="   87.209">  1  3  2 -1</clus>
</clustering>
</event>
<event>
 6    0  0.8991567E+002  0.1225563E+03  0.7546771E-02  0.1238939E+00
         21   -1    0    0  503  501  0.00000000000E+00  0.00000000000E+00  0.32688100175E+03  0.32688100175E+03  0.00000000000E+00 0.  1.
         21   -1    0    0  506  502 -0.00000000000E+00 -0.00000000000E+00 -0.15545495009E+03  0.15545495009E+03  0.00000000000E+00 0.  1.
         21    1    1    2  503  502 -0.34580803267E+02 -0.66911756239E+02  0.40061510149E+02  0.85310841474E+02  0.00000000000E+00 0.  1.
         21    1    1    2  504  501 -0.48802917422E+02 -0.43116681489E+02  0.21767346179E+03  0.22720587347E+03  0.00000000000E+00 0.  1.
         21    1    1    2  505  504  0.44450676811E+02  0.88934818259E+02 -0.44531945131E+02  0.10894199697E+03  0.00000000000E+00 0.  1.
         21    1    1    2  506  505  0.38933043879E+02  0.21093619469E+02 -0.41776975144E+02  0.60877239919E+02  0.00000000000E+00 0.  1.
<scales pt_clust_3="112.64899" pt_clust_4="65.12122" pt_clust_5="32.21495" pt_clust_6="32.21495"></scales>
<clustering>
<clus scale="   32.215">  5  6 -1 -1</clus>
<clus scale="   65.121">  1  4  2 -1</clus>
<clus scale="  112.649">  1  3  2 -1</clus>
<clus scale="   65.121">  1  3  2 -1</clus>
</clustering>
</event>
<event>
 6    0  0.8991567E+002  0.8073000E+02  0.7546771E-02  0.1326992E+00
         21   -1    0    0  503  501  0.00000000000E+00  0.00000000000E+00  0.21342557796E+03  0.21342557796E+03  0.00000000000E+00 0.  1.
         21   -1    0    0  504  502 -0.00000000000E+00 -0.00000000000E+00 -0.55189049534E+03  0.55189049534E+03  0.00000000000E+00 0. -1.
         21    1    1    2  503  506  0.59375087030E+02 -0.93813206313E+02  0.14591860136E+03  0.18335363880E+03  0.00000000000E+00 0.  1.
         21    1    1    2  504  505 -0.63625676861E+02  0.81143701285E+02 -0.44076999496E+03  0.45267064790E+03  0.00000000000E+00 0. -1.
         21    1    1    2  505  501 -0.49639409009E+02  0.16894336310E+02  0.97491565476E+01  0.53334187718E+02  0.00000000000E+00 0.  1.
         21    1    1    2  506  502  0.53889998840E+02 -0.42248312820E+01 -0.53362680328E+02  0.75957598870E+02  0.00000000000E+00 0. -1.
<scales pt_clust_3="80.73000" pt_clust_4="14000.00000" pt_clust_5="52.43558" pt_clust_6="50.90586"></scales>
<clustering>
<clus scale="   52.436">  1  5  2 -1</clus>
<clus scale="   50.906">  2  6  1 -1</clus>
<clus scale="   80.730">  1  3  2 -1</clus>
<clus scale="   52.436">  1  3  2 -1</clus>
</clustering>
</event>
<event>
 6    0  0.8991567E+002  0.1316664E+03  0.7546771E-02  0.1225004E+00
         21   -1    0    0  502  501  0.00000000000E+00  0.00000000000E+00  0.95412277890E+02  0.95412277890E+02  0.00000000000E+00 0.  1.
         21   -1    0    0  505  502 -0.00000000000E+00 -0.00000000000E+00 -0.11440127220E+04  0.11440127220E+04  0.00000000000E+00 0. -1.
         21    1    1    2  503  506 -0.67637268843E+02  0.10970867307E+01 -0.15738321483E+03  0.17130522481E+03  0.00000000000E+00 0.  1.
         21    1    1    2  504  501  0.90651725366E+02  0.88065376005E+02  0.27425009003E+02  0.12932662866E+03  0.00000000000E+00 0.  1.
         21    1    1    2  505  503  0.12632478709E+02 -0.60260868925E+02 -0.86903888484E+03  0.87121727210E+03  0.00000000000E+00 0. -1.
         21    1    1    2  506  504 -0.35646935232E+02 -0.28901593811E+02 -0.49603353418E+02  0.67575874294E+02  0.00000000000E+00 0.  1.
<scales pt_clust_3="43.42777" pt_clust_4="120.64834" pt_clust_5="61.57071" pt_clust_6="43.42777"></scales>
<clustering>
<clus scale="   43.428">  3  6 -1 -1</clus>
<clus scale="   61.571">  2  5  1 -1</clus>
<clus scale="  120.648">  1  4  2 -1</clus>
<clus scale="  120.648">  1  3  2 -1</clus>
</clustering>
</event>
<event>
 6    0  0.8991567E+002  0.1156716E+03  0.7546771E-02  0.1250413E+00
         21   -1    0    0  506  501  0.00000000000E+00  0.00000000000E+00  0.12561955516E+04  0.12561955516E+04  0.00000000000E+00 0.  1.
         21   -1    0    0  504  502 -0.00000000000E+00 -0.00000000000E+00 -0.16534886508E+03  0.16534886508E+03  0.00000000000E+00 0. -1.
         21    1    1    2  503  502  0.75661061435E+02 -0.46190797952E+02  0.46770586337E+02  0.10022810873E+03  0.00000000000E+00 0. -1.
         21    1    1    2  504  505  0.46679486844E+02  0.45625497853E+02 -0.11308443850E+03  0.13057086497E+03  0.00000000000E+00 0. -1.
         21    1    1    2  505  501 -0.18811291057E+03  0.40211349046E+02  0.96148495954E+03  0.98053900848E+03  0.00000000000E+00 0.  1.
         21    1    1    2  506  503  0.65772362292E+02 -0.39646048948E+02  0.19567557911E+03  0.21020643448E+03  0.00000000000E+00 0. -1.
<scales pt_clust_3="14000.00000" pt_clust_4="65.27374" pt_clust_5="115.67163" pt_clust_6="80.23523"></scales>
<clustering>
<clus scale="   65.274">  2  4  1 -1</clus>
<clus scale="   80.235">  1  6  2 -1</clus>
<clus scale="  115.672">  1  5  2 -1</clus>
<clus scale="   80.235">  1  3  2 -1</clus>
</clustering>
</event>
<event>
 6    0  0.8991567E+002  0.8008520E+02  0.7546771E-02  0.1328810E+00
         21   -1    0    0  503  501  0.00000000000E+00  0.00000000000E+00  0.12132962252E+04  0.12132962252E+04  0.00000000000E+00 0. -1.
         21   -1    0    0  504  502 -0.00000000000E+00 -0.00000000000E+00 -0.29583638386E+03  0.29583638386E+03  0.00000000000E+00 0. -1.
         21    1    1    2  503  506  0.93219030959E+02  0.49028578290E+02  0.61435998338E+02  0.12193429015E+03  0.00000000000E+00 0. -1.
         21    1    1    2  504  505 -0.29870937987E+02  0.40204341793E+02 -0.76500863571E+01  0.50667404280E+02  0.00000000000E+00 0. -1.
         21    1    1    2  505  501 -0.38711738127E+02 -0.69615728648E+02  0.10976039822E+04  0.11004905498E+04  0.00000000000E+00 0. -1.
         21    1    1    2  506  502 -0.24636354845E+02 -0.19617191435E+02 -0.23393005290E+03  0.23604036483E+03  0.00000000000E+00 0. -1.
<scales pt_clust_3="80.08520" pt_clust_4="51.82473" pt_clust_5="14000.00000" pt_clust_6="31.49261"></scales>
<clustering>
<clus scale="   31.493">  2  6  1 -1</clus>
<clus scale="   51.825">  2  4  1 -1</clus>
<clus scale="   80.085">  2  3  1 -1</clus>
<clus scale="   80.085">  1  3  2 -1</clus>
</clustering>
</event>
<event>
 6    0  0.8991567E+002  0.6882553E+02  0.7546771E-02  0.1364133E+00
         21   -1    0    0  506  501  0.00000000000E+00  0.00000000000E+00  0.19654268170E+04  0.19654268170E+04  0.00000000000E+00 0.  1.
         21   -1    0    0  503  502 -0.00000000000E+00 -0.00000000000E+00 -0.29545031229E+03  0.29545031229E+03  0.00000000000E+00 0. -1.
         21    1    1    2  503  504 -0.58587718421E+02 -0.43572613512E+02 -0.21023103426E+03  0.22254927805E+03  0.00000000000E+00 0. -1.
         21    1    1    2  504  501 -0.61511450596E+01  0.78111189374E+02  0.17966384631E+04  0.17983461740E+04  0.00000000000E+00 0.  1.
         21    1    1    2  505  502  0.67737357809E+02  0.15934545867E+01 -0.60857219682E+02  0.91074090321E+02  0.00000000000E+00 0. -1.
         21    1    1    2  506  505 -0.29984943279E+01 -0.36132030448E+02  0.14442629550E+03  0.14890758686E+03  0.00000000000E+00 0.  1.
<scales pt_clust_3="68.82553" pt_clust_4="43.37023" pt_clust_5="14000.00000" pt_clust_6="36.25624"></scales>
<clustering>
<clus scale="   36.256">  1  6  2 -1</clus>
<clus scale="   43.370">  1  4  2 -1</clus>
<clus scale="   68.826">  2  3  1 -1</clus>
<clus scale="   36.256">  1  3  2 -1</clus>
</clustering>
</event>
<event>
 6    0  0.8991567E+002  0.1197100E+03  0.7546771E-02  0.1243576E+00
         21   -1    0    0  505  501  0.00000000000E+00  0.00000000000E+00  0.38676890012E+03  0.38676890012E+03  0.00000000000E+00 0.  1.
         21   -1    0    0  504  502 -0.00000000000E+00 -0.00000000000E+00 -0.12091990226E+04  0.12091990226E+04  0.00000000000E+00 0. -1.
         21    1    1    2  503  501  0.83224620483E+02  0.89973213599E+02  0.34653828627E+03  0.36757353070E+03  0.00000000000E+00 0.  1.
         21    1    1    2  504  503 -0.51066491611E+02 -0.90619796113E+00 -0.30831181558E+03  0.31251365312E+03  0.00000000000E+00 0.  1.
         21    1    1    2  505  506 -0.14382975807E+02 -0.56507525933E+02 -0.40268157225E+01  0.58448145607E+02  0.00000000000E+00 0. -1.
         21    1    1    2  506  502 -0.17775153065E+02 -0.32559489705E+02 -0.85662977747E+03  0.85743259331E+03  0.00000000000E+00 0. -1.
<scales pt_clust_3="14000.00000" pt_clust_4="119.70997" pt_clust_5="61.50239" pt_clust_6="37.09550"></scales>
<clustering>
<clus scale="   37.096">  2  6  1 -1</clus>
<clus scale="   61.502">  2  5  1 -1</clus>
<clus scale="  119.710">  2  4  1 -1</clus>
<clus scale="  119.710">  1  3  2 -1</clus>
</clustering>
</event>
<event>
 6    0  0.8991567E+002  0.7141299E+02  0.7546771E-02  0.1355353E+00
         21   -1    0    0  506  501  0.00000000000E+00  0.00000000000E+00  0.17397098828E+04  0.17397098828E+04  0.00000000000E+00 0. -1.
         21   -1    0    0  503  502 -0.00000000000E+00 -0.00000000000E+00 -0.24980430197E+02  0.24980430197E+02  0.00000000000E+00 0.  1.
         21    1    1    2  503  505 -0.47427020816E+02  0.38417764539E+01  0.69140204745E+02  0.83931218637E+02  0.00000000000E+00 0.  1.
         21    1    1    2  504  502  0.83258213985E+02 -0.58581479323E+02  0.18667374059E+03  0.21262832676E+03  0.00000000000E+00 0.  1.
         21    1    1    2  505  501 -0.56329930999E+02 -0.28596469940E+02  0.33231699047E+03  0.33826823879E+03  0.00000000000E+00 0. -1.
         21    1    1    2  506  504  0.20498737829E+02  0.83336172809E+02  0.11265985168E+04  0.11298625288E+04  0.00000000000E+00 0. -1.
<scales pt_clust_3="47.58237" pt_clust_4="71.41299" pt_clust_5="70.16125" pt_clust_6="14000.00000"></scales>
<clustering>
<clus scale="   47.582">  2  3  1 -1</clus>
<clus scale="   70.161">  1  5  2 -1</clus>
<clus scale="   71.413">  2  4  1 -1</clus>
<clus scale="   70.161">  1  3  2 -1</clus>
</clustering>
</event>
<event>
 6    0  0.8991567E+002  0.1292895E+03  0.7546771E-02  0.1228514E+00
         21   -1    0    0  503  501  0.00000000000E+00  0.00000000000E+00  0.18627516897E+03  0.18627516897E+03  0.00000000000E+00 0. -1.
         21   -1    0    0  505  502 -0.00000000000E+00 -0.00000000000E+00 -0.32145544548E+03  0.32145544548E+03  0.00000000000E+00 0.  1.
         21    1    1    2  503  502  0.12135622660E+02  0.86703120118E+02  0.61248169391E+02  0.10684588260E+03  0.00000000000E+00 0. -1.
         21    1    1    2  504  506 -0.16483670003E+02 -0.86906898683E+02 -0.20411309042E+03  0.22245600486E+03  0.00000000000E+00 0.  1.
         21    1    1    2  505  504 -0.39953422234E+02 -0.19884865532E+02 -0.72211707709E+02  0.84889425465E+02  0.00000000000E+00 0.  1.
         21    1    1    2  506  501  0.44301469577E+02  0.20088644097E+02  0.79896352230E+02  0.93539301516E+02  0.00000000000E+00 0. -1.
<scales pt_clust_3="114.88939" pt_clust_4="42.11890" pt_clust_5="42.11890" pt_clust_6="48.64333"></scales>
<clustering>
<clus scale="   42.119">  4  5 -1 -1</clus>
<clus scale="   48.643">  1  6  2 -1</clus>
<clus scale="  114.889">  1  3  2 -1</clus>
<clus scale="   48.643">  1  3  2 -1</clus>
</clustering>
</event>
<event>
 6    0  0.8991567E+002  0.2135626E+03  0.7546771E-02  0.1138775E+00
         21   -1    0    0  505  501  0.00000000000E+00  0.00000000000E+00  0.32818039054E+03  0.32818039054E+03  0.00000000000E+00 0. -1.
         21   -1    0    0  506  502 -0.00000000000E+00 -0.00000000000E+00 -0.62062943177E+03  0.62062943177E+03  0.00000000000E+00 0.  1.
         21    1    1    2  503  501  0.64333416955E+02 -0.54307272657E+01  0.25461234680E+03  0.26267037990E+03  0.00000000000E+00 0. -1.
         21    1    1    2  504  502 -0.12378697593E+03 -0.11776937601E+03 -0.18209190504E+03  0.24970042694E+03  0.00000000000E+00 0.  1.
         21    1    1    2  505  504 -0.44944093099E+02 -0.21389897324E+02 -0.14471766767E+03  0.15303823884E+03  0.00000000000E+00 0. -1.
         21    1    1    2  506  503  0.10439765208E+03  0.14459000060E+03 -0.22025181533E+03  0.28340077662E+03  0.00000000000E+00 0.  1.
<scales pt_clust_3="64.56223" pt_clust_4="46.92464" pt_clust_5="46.92464" pt_clust_6="195.06539"></scales>
<clustering>
<clus scale="   46.925">  4  5 -1 -1</clus>
<clus scale="   64.562">  1  3  2 -1</clus>
<clus scale="  195.065">  2  6  1 -1</clus>
<clus scale="   64.562">  1  3  2 -1</clus>
</clustering>
</event>
<event>
 6    0  0.8991567E+002  0.8370906E+02  0.7546771E-02  0.1318843E+00
         21   -1    0    0  506  501  0.00000000000E+00  0.00000000000E+00  0.10645109678E+04  0.10645109678E+04  0.00000000000E+00 0. -1.
         21   -1    0    0  504  502 -0.00000000000E+00 -0.00000000000E+00 -0.52058551226E+03  0.52058551226E+03  0.00000000000E+00 0. -1.
         21    1    1    2  503  505  0.47894434897E+02 -0.38025434825E+02 -0.97315115860E+02  0.11493494840E+03  0.00000000000E+00 0. -1.
         21    1    1    2  504  501  0.36496601902E+02 -0.18841170466E+02  0.24201009234E+03  0.24547072422E+03  0.00000000000E+00 0. -1.
         21    1    1    2  505  502 -0.21940486846E+01 -0.32849246504E+02 -0.40750406447E+03  0.40883181065E+03  0.00000000000E+00 0. -1.
         21    1    1    2  506  503 -0.82196988114E+02  0.89715851795E+02  0.80673454354E+03  0.81585899680E+03  0.00000000000E+00 0. -1.
<scales pt_clust_3="14000.00000" pt_clust_4="41.27755" pt_clust_5="32.92244" pt_clust_6="83.70906"></scales>
<clustering>
<clus scale="   32.922">  2  5  1 -1</clus>
<clus scale="   41.278">  1  4  2 -1</clus>
<clus scale="   83.709">  1  6  2 -1</clus>
<clus scale="   41.278">  1  3  2 -1</clus>
</clustering>
</event>
<event>
 6    0  0.8991567E+002  0.8621975E+02  0.7546771E-02  0.1312273E+00
         21   -1    0    0  505  501  0.00000000000E+00  0.00000000000E+00  0.85826207840E+03  0.85826207840E+03  0.00000000000E+00 0.  1.
         21   -1    0    0  506  502 -0.00000000000E+00 -0.00000000000E+00 -0.17411724502E+03  0.17411724502E+03  0.00000000000E+00 0.  1.
         21    1    1    2  503  502 -0.18576722726E+02 -0.54538041313E+02 -0.10898601549E+03  0.12327791428E+03  0.00000000000E+00 0.  1.
         21    1    1    2  504  501  0.24025948011E+02  0.21524748319E+02  0.64758676754E+03  0.64838968411E+03  0.00000000000E+00 0.  1.
         21    1    1    2  505  503  0.15529671410E+02  0.11870590138E+03  0.47442613713E+02  0.12877524339E+03  0.00000000000E+00 0.  1.
         21    1    1    2  506  504 -0.20978896695E+02 -0.85692608381E+02  0.98101467616E+02  0.13193648163E+03  0.00000000000E+00 0.  1.
<scales pt_clust_3="56.66189" pt_clust_4="32.25773" pt_clust_5="14000.00000" pt_clust_6="86.21975"></scales>
<clustering>
<clus scale="   32.258">  1  4  2 -1</clus>
<clus scale="   56.662">  2  3  1 -1</clus>
<clus scale="   86.220">  1  6  2 -1</clus>
<clus scale="   32.258">  1  3  2 -1</clus>
</clustering>
</event>
<event>
 6    0  0.8991567E+002  0.1544815E+03  0.7546771E-02  0.1195072E+00
         21   -1    0    0  503  501  0.00000000000E+00  0.00000000000E+00  0.12282442911E+03  0.12282442911E+03  0.00000000000E+00 0. -1.
         21   -1    0    0  505  502 -0.00000000000E+00 -0.00000000000E+00 -0.20363126272E+04  0.20363126272E+04  0.00000000000E+00 0.  1.
         21    1    1    2  503  502  0.19137351199E+03  0.22374724717E+02 -0.15364741419E+02  0.19328870809E+03  0.00000000000E+00 0. -1.
         21    1    1    2  504  506 -0.21820364406E+02  0.48614236860E+02 -0.62817037889E+02  0.82373858581E+02  0.00000000000E+00 0. -1.
         21    1    1    2  505  504 -0.14011458168E+03 -0.62484110627E+02 -0.18449752474E+04  0.18513427623E+04  0.00000000000E+00 0.  1.
         21    1    1    2  506  501 -0.29438565898E+02 -0.85048509504E+01  0.96688286360E+01  0.32131727296E+02  0.00000000000E+00 0. -1.
<scales pt_clust_3="154.48151" pt_clust_4="53.77765" pt_clust_5="14000.00000" pt_clust_6="30.64248"></scales>
<clustering>
<clus scale="   30.642">  1  6  2 -1</clus>
<clus scale="   53.778">  1  4  2 -1</clus>
<clus scale="  154.482">  1  3  2 -1</clus>
<clus scale="   30.642">  1  3  2 -1</clus>
</clustering>
</event>
<event>
 6    0  0.8991567E+002  0.9532215E+02  0.7546771E-02  0.1290452E+00
         21   -1    0    0  504  501  0.00000000000E+00  0.00000000000E+00  0.60901002441E+03  0.60901002441E+03  0.00000000000E+00 0.  1.
         21   -1    0    0  506  502 -0.00000000000E+00 -0.00000000000E+00 -0.81514411379E+03  0.81514411379E+03  0.00000000000E+00 0.  1.
         21    1    1    2  503  505 -0.23669331216E+02 -0.50374748282E+02  0.32973619316E+03  0.33440067222E+03  0.00000000000E+00 0.  1.
         21    1    1    2  504  502  0.12429099653E+02  0.11889322469E+03 -0.76068461936E+03  0.77002024098E+03  0.00000000000E+00 0.  1.
         21    1    1    2  505  501  0.22232312566E+02 -0.32459336050E+02  0.26308717158E+03  0.26601267652E+03  0.00000000000E+00 0.  1.
         21    1    1    2  506  503 -0.10992081003E+02 -0.36059140360E+02 -0.38272834761E+02  0.53720548479E+02  0.00000000000E+00 0.  1.
<scales pt_clust_3="39.35542" pt_clust_4="83.02539" pt_clust_5="39.35542" pt_clust_6="37.69731"></scales>
<clustering>
<clus scale="   37.697">  2  6  1 -1</clus>
<clus scale="   39.355">  3  5 -1 -1</clus>
<clus scale="   83.025">  2  4  1 -1</clus>
<clus scale="   95.322">  1  3  2 -1</clus>
</clustering>
</event>
<event>
 6    0  0.8991567E+002  0.9491232E+02  0.7546771E-02  0.1291374E+00
         21   -1    0    0  504  501  0.00000000000E+00  0.00000000000E+00  0.49304341111E+03  0.49304341111E+03  0.00000000000E+00 0. -1.
         21   -1    0    0  503  502 -0.00000000000E+00 -0.00000000000E+00 -0.48174253661E+03  0.48174253661E+03  0.00000000000E+00 0. -1.
         21    1    1    2  503  506 -0.39492369275E+02  0.98548193381E+01 -0.33725091379E+03  0.33969831255E+03  0.00000000000E+00 0. -1.
         21    1    1    2  504  502  0.15108427052E+03  0.66671407371E+02  0.77554021770E+02  0.18244494965E+03  0.00000000000E+00 0.  1.
         21    1    1    2  505  501 -0.61061818703E+02 -0.64217203365E+02  0.34834341699E+03  0.35943779862E+03  0.00000000000E+00 0. -1.
         21    1    1    2  506  505 -0.50530082542E+02 -0.12309023344E+02 -0.77345650471E+02  0.93204886912E+02  0.00000000000E+00 0. -1.
<scales pt_clust_3="40.70337" pt_clust_4="14000.00000" pt_clust_5="94.91232" pt_clust_6="74.31639"></scales>
<clustering>
<clus scale="   40.703">  2  3  1 -1</clus>
<clus scale="   74.316">  2  6  1 -1</clus>
<clus scale="   94.912">  1  5  2 -1</clus>
<clus scale="   94.912">  1  3  2 -1</clus>
</clustering>
</event>
<event>
 6    0  0.8991567E+002  0.1141139E+03  0.7546771E-02  0.1253136E+00
         21   -1    0    0  505  501  0.00000000000E+00  0.00000000000E+00  0.17013345605E+04  0.17013345605E+04  0.00000000000E+00 0.  1.
         21   -1    0    0  504  502 -0.00000000000E+00 -0.00000000000E+00 -0.14649269287E+03  0.14649269287E+03  0.00000000000E+00 0. -1.
         21    1    1    2  503  502 -0.47842218331E+02  0.18786037067E+02 -0.10483973745E+03  0.11676113905E+03  0.00000000000E+00 0. -1.
         21    1    1    2  504  501  0.16786549690E+03 -0.72869739547E+02  0.29882397809E+03  0.35040632682E+03  0.00000000000E+00 0.  1.
         21    1    1    2  505  506 -0.52745214774E+02  0.31025317245E+02  0.12316728327E+04  0.12331920349E+04  0.00000000000E+00 0. -1.
         21    1    1    2  506  503 -0.67278063795E+02  0.23058385235E+02  0.12918479425E+03  0.14746775262E+03  0.00000000000E+00 0. -1.
<scales pt_clust_3="51.39838" pt_clust_4="14000.00000" pt_clust_5="62.27391" pt_clust_6="114.11393"></scales>
<clustering>
<clus scale="   51.398">  2  3  1 -1</clus>
<clus scale="   62.274">  1  5  2 -1</clus>
<clus scale="  114.114">  2  6  1 -1</clus>
<clus scale="   62.274">  1  3  2 -1</clus>
</clustering>
</event>
<event>
 6    0  0.8991567E+002  0.5911479E+02  0.7546771E-02  0.1401585E+00
         21   -1    0    0  506  501  0.00000000000E+00  0.00000000000E+00  0.93254092421E+02  0.93254092421E+02  0.00000000000E+00 0.  1.
         21   -1    0    0  503  502 -0.00000000000E+00 -0.00000000000E+00 -0.40998409865E+03  0.40998409865E+03  0.00000000000E+00 0.  1.
         21    1    1    2  503  504 -0.21323103096E+02  0.57817066483E+02 -0.12718749478E+03  0.14132992157E+03  0.00000000000E+00 0.  1.
         21    1    1    2  504  501  0.86786831314E+02  0.26262764433E+02 -0.67988150400E+02  0.11333170554E+03  0.00000000000E+00 0.  1.
         21    1    1    2  505  502 -0.12534403456E+02 -0.60047325195E+02 -0.16498159586E+03  0.17601624785E+03  0.00000000000E+00 0.  1.
         21    1    1    2  506  505 -0.52929324762E+02 -0.24032505721E+02  0.43427234815E+02  0.72560316115E+02  0.00000000000E+00 0.  1.
<scales pt_clust_3="14000.00000" pt_clust_4="53.85041" pt_clust_5="59.11479" pt_clust_6="58.12981"></scales>
<clustering>
<clus scale="   58.130">  1  6  2 -1</clus>
<clus scale="   53.850">  1  4  2 -1</clus>
<clus scale="   59.115">  2  5  1 -1</clus>
<clus scale="   58.130">  1  3  2 -1</clus>
</clustering>
</event>
<event>
 6    0  0.8991567E+002  0.9623540E+02  0.7546771E-02  0.1288418E+00
         21   -1    0    0  506  501  0.00000000000E+00  0.00000000000E+00  0.37376212973E+03  0.37376212973E+03  0.00000000000E+00 0. -1.
         21   -1    0    0  505  502 -0.00000000000E+00 -0.00000000000E+00 -0.11284552955E+03  0.11284552955E+03  0.00000000000E+00 0. -1.
         21    1    1    2  503  504  0.34428755314E+02 -0.20399152103E+02  0.21413982375E+02  0.45387478892E+02  0.00000000000E+00 0. -1.
         21    1    1    2  504  501  0.28062991624E+01 -0.30390681080E+02  0.17641545235E+03  0.17903597582E+03  0.00000000000E+00 0. -1.
         21    1    1    2  505  503 -0.77930080680E+02 -0.55496713111E+02 -0.44550650926E+02  0.10553550653E+03  0.00000000000E+00 0. -1.
         21    1    1    2  506  502  0.40695026203E+02  0.10628654629E+03  0.10763781638E+03  0.15664869804E+03  0.00000000000E+00 0. -1.
<scales pt_clust_3="43.27448" pt_clust_4="30.51997" pt_clust_5="96.23540" pt_clust_6="14000.00000"></scales>
<clustering>
<clus scale="   30.520">  1  4  2 -1</clus>
<clus scale="   43.274">  1  3  2 -1</clus>
<clus scale="   96.235">  2  5  1 -1</clus>
<clus scale="   30.520">  1  3  2 -1</clus>
</clustering>
</event>
<event>
 6    0  0.8991567E+002  0.9216191E+02  0.7546771E-02  0.1297699E+00
         21   -1    0    0  505  501  0.00000000000E+00  0.00000000000E+00  0.40524680725E+03  0.40524680725E+03  0.00000000000E+00 0. -1.
         21   -1    0    0  506  502 -0.00000000000E+00 -0.00000000000E+00 -0.10787035383E+03  0.10787035383E+03  0.00000000000E+00 0. -1.
         21    1    1    2  503  501  0.22932486990E+02 -0.68512863975E+02  0.17751494452E+03  0.19165455126E+03  0.00000000000E+00 0. -1.
         21    1    1    2  504  503  0.12871260988E+01 -0.53969394494E+02  0.45557701659E+02  0.70638915734E+02  0.00000000000E+00 0. -1.
         21    1    1    2  505  502  0.87765065805E+01  0.62810731117E+02  0.14151743299E+03  0.15507868599E+03  0.00000000000E+00 0. -1.
         21    1    1    2  506  504 -0.32996119669E+02  0.59671527353E+02 -0.67213625743E+02  0.95745008096E+02  0.00000000000E+00 0. -1.
<scales pt_clust_3="50.75760" pt_clust_4="50.75760" pt_clust_5="63.42094" pt_clust_6="71.03417"></scales>
<clustering>
<clus scale="   50.758">  3  4 -1 -1</clus>
<clus scale="   63.421">  1  5  2 -1</clus>
<clus scale="   71.034">  2  6  1 -1</clus>
<clus scale="   63.421">  1  3  2 -1</clus>
</clustering>
</event>
<event>
 6    0  0.8991567E+002  0.1528478E+03  0.7546771E-02  0.1197017E+00
         21   -1    0    0  506  501  0.00000000000E+00  0.00000000000E+00  0.11067275840E+04  0.11067275840E+04  0.00000000000E+00 0.  1.
         21   -1    0    0  504  502 -0.00000000000E+00 -0.00000000000E+00 -0.39448232814E+03  0.39448232814E+03  0.00000000000E+00 0. -1.
         21    1    1    2  503  502 -0.40799149157E+02 -0.60747868910E+02 -0.30920384926E+03  0.31774501498E+03  0.00000000000E+00 0. -1.
         21    1    1    2  504  501 -0.82045438610E+01  0.34554714938E+02 -0.20744820000E+02  0.41130164371E+02  0.00000000000E+00 0.  1.
         21    1    1    2  505  503  0.12314056654E+03  0.15307645127E+03  0.17600512066E+03  0.26376846203E+03  0.00000000000E+00 0.  1.
         21    1    1    2  506  505 -0.74136873521E+02 -0.12688329730E+03  0.86618880450E+03  0.87856627080E+03  0.00000000000E+00 0.  1.
<scales pt_clust_3="57.00821" pt_clust_4="35.51539" pt_clust_5="152.84783" pt_clust_6="14000.00000"></scales>
<clustering>
<clus scale="   35.515">  2  4  1 -1</clus>
<clus scale="   57.008">  2  3  1 -1</clus>
<clus scale="  152.848">  2  5  1 -1</clus>
<clus scale="  152.848">  1  3  2 -1</clus>
</clustering>
</event>
<event>
 6    0  0.8991567E+002  0.9200782E+02  0.7546771E-02  0.1298061E+00
         21   -1    0    0  506  501  0.00000000000E+00  0.00000000000E+00  0.17472089832E+03  0.17472089832E+03  0.00000000000E+00 0.  1.
         21   -1    0    0  505  502 -0.00000000000E+00 -0.00000000000E+00 -0.15668506285E+03  0.15668506285E+03  0.00000000000E+00 0. -1.
         21    1    1    2  503  502 -0.42159415192E+02 -0.77934554108E+01 -0.56929034825E+02  0.71267589005E+02  0.00000000000E+00 0. -1.
         21    1    1    2  504  501  0.77801591898E+02 -0.38956737868E+02  0.43887929224E+02  0.97451862264E+02  0.00000000000E+00 0. -1.
         21    1    1    2  505  504  0.51403733333E+02  0.23563301585E+01 -0.16456911256E+02  0.54025235034E+02  0.00000000000E+00 0. -1.
         21    1    1    2  506  503 -0.87045910040E+02  0.44393863120E+02  0.47533852331E+02  0.10866127486E+03  0.00000000000E+00 0.  1.
<scales pt_clust_3="42.87370" pt_clust_4="92.00782" pt_clust_5="35.36196" pt_clust_6="14000.00000"></scales>
<clustering>
<clus scale="   42.874">  2  3  1 -1</clus>
<clus scale="   35.362">  2  5  1 -1</clus>
<clus scale="   92.008">  1  4  2 -1</clus>
<clus scale="   92.008">  1  3  2 -1</clus>
</clustering>
</event>
<event>
 6    0  0.8991567E+002  0.9507536E+02  0.7546771E-02  0.1291006E+00
         21   -1    0    0  505  501  0.00000000000E+00  0.00000000000E+00  0.12845475215E+04  0.12845475215E+04  0.00000000000E+00 0. -1.
         21   -1    0    0  503  502 -0.00000000000E+00 -0.00000000000E+00 -0.22757335664E+02  0.22757335664E+02  0.00000000000E+00 0. -1.
         21    1    1    2  503  506  0.15503775838E+02  0.71073971127E+02  0.20348172098E+03  0.21609416284E+03  0.00000000000E+00 0. -1.
         21    1    1    2  504  501  0.37721576203E+02  0.49132449875E+01  0.40572944728E+03  0.40750882405E+03  0.00000000000E+00 0. -1.
         21    1    1    2  505  502 -0.94709872310E+02 -0.35785743893E+02  0.17141196041E+03  0.19907948048E+03  0.00000000000E+00 0. -1.
         21    1    1    2  506  504  0.41484520269E+02 -0.40201472222E+02  0.48116705715E+03  0.48462238978E+03  0.00000000000E+00 0. -1.
<scales pt_clust_3="72.74528" pt_clust_4="34.36915" pt_clust_5="85.12048" pt_clust_6="34.36915"></scales>
<clustering>
<clus scale="   34.369">  4  6 -1 -1</clus>
<clus scale="   72.745">  2  3  1 -1</clus>
<clus scale="   85.120">  2  5  1 -1</clus>
<clus scale="   95.075">  1  3  2 -1</clus>
</clustering>
</event>
<event>
 6    0  0.8991567E+002  0.7862743E+02  0.7546771E-02  0.1332992E+00
         21   -1    0    0  504  501  0.00000000000E+00  0.00000000000E+00  0.13853807510E+04  0.13853807510E+04  0.00000000000E+00 0.  1.
         21   -1    0    0  506  502 -0.00000000000E+00 -0.00000000000E+00 -0.19707852032E+02  0.19707852032E+02  0.00000000000E+00 0. -1.
         21    1    1    2  503  501  0.59855346459E+02  0.35876954038E+02  0.58155002788E+03  0.58572199315E+03  0.00000000000E+00 0.  1.
         21    1    1    2  504  505 -0.42270462396E+01  0.39292279074E+02  0.48395361271E+03  0.48556446572E+03  0.00000000000E+00 0.  1.
         21    1    1    2  505  502  0.24252065611E+02 -0.57954825170E+02  0.10734121576E+03  0.12437468009E+03  0.00000000000E+00 0. -1.
         21    1    1    2  506  503 -0.79880365831E+02 -0.17214407942E+02  0.19282804256E+03  0.20942746402E+03  0.00000000000E+00 0. -1.
<scales pt_clust_3="78.62743" pt_clust_4="39.51900" pt_clust_5="57.96992" pt_clust_6="14000.00000"></scales>
<clustering>
<clus scale="   39.519">  1  4  2 -1</clus>
<clus scale="   57.970">  2  5  1 -1</clus>
<clus scale="   78.627">  1  3  2 -1</clus>
<clus scale="   39.519">  1  3  2 -1</clus>
</clustering>
</event>
<event>
 6    0  0.8991567E+002  0.1070295E+03  0.7546771E-02  0.1266172E+00
         21   -1    0    0  505  501  0.00000000000E+00  0.00000000000E+00  0.34336549479E+03  0.34336549479E+03  0.00000000000E+00 0.  1.
         21   -1    0    0  506  502 -0.00000000000E+00 -0.00000000000E+00 -0.35552126387E+03  0.35552126387E+03  0.00000000000E+00 0.  1.
         21    1    1    2  503  501 -0.55649505700E+02  0.68127028439E+02 -0.47505920213E+02  0.99974856558E+02  0.00000000000E+00 0.  1.
         21    1    1    2  504  502 -0.10744611209E+02 -0.96910667843E+02  0.24645856338E+03  0.26504518045E+03  0.00000000000E+00 0.  1.
         21    1    1    2  505  504  0.40026086478E+02 -0.18249865974E+02  0.50376625741E+02  0.66880113844E+02  0.00000000000E+00 0. -1.
         21    1    1    2  506  503  0.26368030430E+02  0.47033505379E+02 -0.26148503799E+03  0.26698660781E+03  0.00000000000E+00 0.  1.
<scales pt_clust_3="107.02949" pt_clust_4="14000.00000" pt_clust_5="43.99029" pt_clust_6="53.95750"></scales>
<clustering>
<clus scale="   43.990">  1  5  2 -1</clus>
<clus scale="   53.957">  2  6  1 -1</clus>
<clus scale="  107.029">  2  3  1 -1</clus>
<clus scale="   43.990">  1  3  2 -1</clus>
</clustering>
</event>
<event>
 6    0  0.8991567E+002  0.9000849E+02  0.7546771E-02  0.1302831E+00
         21   -1    0    0  503  501  0.00000000000E+00  0.00000000000E+00  0.66363901673E+03  0.66363901673E+03  0.00000000000E+00 0. -1.
         21   -1    0    0  506  502 -0.00000000000E+00 -0.00000000000E+00 -0.57462111838E+03  0.57462111838E+03  0.00000000000E+00 0. -1.
         21    1    1    2  503  504  0.86109910865E+01 -0.91992303639E+02  0.51638025714E+03  0.52458107386E+03  0.00000000000E+00 0. -1.
         21    1    1    2  504  502 -0.72219710726E+01  0.76848714845E+02 -0.29978887232E+03  0.30956622846E+03  0.00000000000E+00 0. -1.
         21    1    1    2  505  501 -0.70212808411E+02  0.68908257679E+02  0.11202723463E+03  0.14909154148E+03  0.00000000000E+00 0. -1.
         21    1    1    2  506  505  0.68823788397E+02 -0.53764668885E+02 -0.23960072110E+03  0.25502129131E+03  0.00000000000E+00 0. -1.
<scales pt_clust_3="90.00849" pt_clust_4="77.18732" pt_clust_5="14000.00000" pt_clust_6="64.39465"></scales>
<clustering>
<clus scale="   77.187">  2  4  1 -1</clus>
<clus scale="   64.395">  2  6  1 -1</clus>
<clus scale="   90.008">  1  3  2 -1</clus>
<clus scale="   90.008">  1  3  2 -1</clus>
</clustering>
</event>
<event>
 6    0  0.8991567E+002  0.7504518E+02  0.7546771E-02  0.1343731E+00
         21   -1    0    0  503  501  0.00000000000E+00  0.00000000000E+00  0.18217137628E+03  0.18217137628E+03  0.00000000000E+00 0. -1.
         21   -1    0    0  504  502 -0.00000000000E+00 -0.00000000000E+00 -0.20292204121E+04  0.20292204121E+04  0.00000000000E+00 0.  1.
         21    1    1    2  503  505 -0.56274423077E+02 -0.37290802127E+02  0.67365844087E+02  0.95370706013E+02  0.00000000000E+00 0. -1.
         21    1    1    2  504  501  0.36641718108E+02  0.20916128775E+02 -0.13372083866E+04  0.13378738241E+04  0.00000000000E+00 0.  1.
         21    1    1    2  505  506  0.38772545605E+02  0.87858664989E+02  0.74941437345E+02  0.12181409745E+03  0.00000000000E+00 0. -1.
         21    1    1    2  506  502 -0.19139840637E+02 -0.71483991637E+02 -0.65214793065E+03  0.65633316084E+03  0.00000000000E+00 0. -1.
<scales pt_clust_3="75.04518" pt_clust_4="42.19123" pt_clust_5="14000.00000" pt_clust_6="53.97884"></scales>
<clustering>
<clus scale="   42.191">  2  4  1 -1</clus>
<clus scale="   53.979">  2  6  1 -1</clus>
<clus scale="   75.045">  1  3  2 -1</clus>
<clus scale="   75.045">  1  3  2 -1</clus>
</clustering>
</event>
<event>
 6    0  0.8991567E+002  0.6562996E+02  0.7546771E-02  0.1375617E+00
         21   -1    0    0  503  501  0.00000000000E+00  0.00000000000E+00  0.39981502579E+03  0.39981502579E+03  0.00000000000E+00 0. -1.
         21   -1    0    0  504  502 -0.00000000000E+00 -0.00000000000E+00 -0.84929052104E+02  0.84929052104E+02  0.00000000000E+00 0. -1.
         21    1    1    2  503  502  0.67240063425E+02 -0.32395872847E+02  0.12116931367E+03  0.14231205600E+03  0.00000000000E+00 0. -1.
         21    1    1    2  504  505 -0.26350652509E+02  0.54554180295E+02 -0.37372467750E+02  0.71184386076E+02  0.00000000000E+00 0. -1.
         21    1    1    2  505  506 -0.15803633050E+02 -0.78410190489E+02  0.11972801807E+03  0.14398857976E+03  0.00000000000E+00 0. -1.
         21    1    1    2  506  501 -0.25085777866E+02  0.56251883042E+02  0.11136110970E+03  0.12725905606E+03  0.00000000000E+00 0. -1.
<scales pt_clust_3="59.71639" pt_clust_4="60.58478" pt_clust_5="65.62996" pt_clust_6="14000.00000"></scales>
<clustering>
<clus scale="   60.585">  2  4  1 -1</clus>
<clus scale="   59.716">  2  3  1 -1</clus>
<clus scale="   65.630">  2  5  1 -1</clus>
<clus scale="   65.630">  1  3  2 -1</clus>
</clustering>
</event>
<event>
 6    0  0.8991567E+002  0.2196696E+03  0.7546771E-02  0.1134130E+00
         21   -1    0    0  503  501  0.00000000000E+00  0.00000000000E+00  0.13812470858E+03  0.13812470858E+03  0.00000000000E+00 0. -1.
         21   -1    0    0  501  502 -0.00000000000E+00 -0.00000000000E+00 -0.67450780994E+03  0.67450780994E+03  0.00000000000E+00 0. -1.
         21    1    1    2  503  506 -0.23399526436E+02 -0.34367066694E+02  0.40271751365E+02  0.57883046469E+02  0.00000000000E+00 0. -1.
         21    1    1    2  504  502  0.10721564953E+03  0.16646399974E+03 -0.43708319375E+03  0.47984078294E+03  0.00000000000E+00 0. -1.
         21    1    1    2  505  504 -0.12265759686E+02  0.29439981271E+02 -0.83764009300E+02  0.89630188062E+02  0.00000000000E+00 0. -1.
         21    1    1    2  506  505 -0.71550363404E+02 -0.16153691432E+03 -0.55807649676E+02  0.18527850105E+03  0.00000000000E+00 0. -1.
<scales pt_clust_3="41.57683" pt_clust_4="30.09109" pt_clust_5="30.09109" pt_clust_6="206.47807"></scales>
<clustering>
<clus scale="   30.091">  4  5 -1 -1</clus>
<clus scale="   41.577">  1  3  2 -1</clus>
<clus scale="  206.478">  1  6  2 -1</clus>
<clus scale="   41.577">  1  3  2 -1</clus>
</clustering>
</event>
<event>
 6    0  0.8991567E+002  0.1314438E+03  0.7546771E-02  0.1225329E+00
         21   -1    0    0  504  501  0.00000000000E+00  0.00000000000E+00  0.10963834506E+04  0.10963834506E+04  0.00000000000E+00 0. -1.
         21   -1    0    0  503  502 -0.00000000000E+00 -0.00000000000E+00 -0.56456937991E+03  0.56456937991E+03  0.00000000000E+00 0.  1.
         21    1    1    2  503  505  0.74251877727E+02  0.16638931992E+03  0.40080089404E+03  0.44027276068E+03  0.00000000000E+00 0. -1.
         21    1    1    2  504  506 -0.90308108830E+02 -0.88728247205E+02  0.52690774065E+02  0.13712977082E+03  0.00000000000E+00 0.  1.
         21    1    1    2  505  501  0.29439020393E+02  0.52246853003E+02  0.57085584544E+03  0.57399720021E+03  0.00000000000E+00 0. -1.
         21    1    1    2  506  502 -0.13382789291E+02 -0.12990792572E+03 -0.49253344284E+03  0.50955309883E+03  0.00000000000E+00 0.  1.
<scales pt_clust_3="14000.00000" pt_clust_4="116.20518" pt_clust_5="59.96991" pt_clust_6="131.44376"></scales>
<clustering>
<clus scale="   59.970">  1  5  2 -1</clus>
<clus scale="  116.205">  1  4  2 -1</clus>
<clus scale="  131.444">  2  6  1 -1</clus>
<clus scale="   59.970">  1  3  2 -1</clus>
</clustering>
</event>
<event>
 6    0  0.8991567E+002  0.1176782E+03  0.7546771E-02  0.1246977E+00
         21   -1    0    0  506  501  0.00000000000E+00  0.00000000000E+00  0.94798903189E+03  0.94798903189E+03  0.00000000000E+00 0. -1.
         21   -1    0    0  504  502 -0.00000000000E+00 -0.00000000000E+00 -0.25346981247E+03  0.25346981247E+03  0.00000000000E+00 0. -1.
         21    1    1    2  503  502  0.77599294497E+02 -0.52336851901E+02  0.17932855835E+02  0.95301541917E+02  0.00000000000E+00 0. -1.
         21    1    1    2  504  505  0.42995960411E+02  0.17207364112E+01 -0.20231360178E+03  0.20683908482E+03  0.00000000000E+00 0. -1.
         21    1    1    2  505  501 -0.63655433659E+02 -0.37203517541E+02  0.21673710547E+03  0.22893468248E+03  0.00000000000E+00 0. -1.
         21    1    1    2  506  503 -0.56939821250E+02  0.87819633031E+02  0.66216285988E+03  0.67038353515E+03  0.00000000000E+00 0. -1.
<scales pt_clust_3="14000.00000" pt_clust_4="43.03038" pt_clust_5="69.03743" pt_clust_6="117.67821"></scales>
<clustering>
<clus scale="   43.030">  2  4  1 -1</clus>
<clus scale="   69.037">  1  5  2 -1</clus>
<clus scale="  117.678">  1  6  2 -1</clus>
<clus scale="   69.037">  1  3  2 -1</clus>
</clustering>
</event>
<event>
 6    0  0.8991567E+002  0.1327817E+03  0.7546771E-02  0.1223386E+00
         21   -1    0    0  503  501  0.00000000000E+00  0.00000000000E+00  0.77824341153E+02  0.77824341153E+02  0.00000000000E+00 0.  1.
         21   -1    0    0  505  502 -0.00000000000E+00 -0.00000000000E+00 -0.67453439328E+03  0.67453439328E+03  0.00000000000E+00 0.  1.
         21    1    1    2  503  506 -0.27898019993E+02  0.54424047646E+02 -0.29615022132E+02  0.67950908880E+02  0.00000000000E+00 0.  1.
         21    1    1    2  504  501  0.56046918104E+02 -0.17422789909E+03 -0.15094754150E+03  0.23723780924E+03  0.00000000000E+00 0.  1.
         21    1    1    2  505  504  0.37570322847E+02  0.28117558521E+02 -0.81794090307E+02  0.94299519962E+02  0.00000000000E+00 0.  1.
         21    1    1    2  506  502 -0.65719220959E+02  0.91686292921E+02 -0.33435339819E+03  0.35287049635E+03  0.00000000000E+00 0.  1.
<scales pt_clust_3="61.93317" pt_clust_4="132.78171" pt_clust_5="46.92682" pt_clust_6="14000.00000"></scales>
<clustering>
<clus scale="   46.927">  2  5  1 -1</clus>
<clus scale="   61.933">  1  3  2 -1</clus>
<clus scale="  132.782">  1  4  2 -1</clus>
<clus scale="   61.933">  1  3  2 -1</clus>
</clustering>
</event>
<event>
 6    0  0.8991567E+002  0.9258327E+02  0.7546771E-02  0.1296714E+00
         21   -1    0    0  504  501  0.00000000000E+00  0.00000000000E+00  0.39051248895E+03  0.39051248895E+03  0.00000000000E+00 0.  1.
         21   -1    0    0  505  502 -0.00000000000E+00 -0.00000000000E+00 -0.65677601910E+02  0.65677601910E+02  0.00000000000E+00 0.  1.
         21    1    1    2  503  506  0.57789172051E+02 -0.59327954638E+02  0.45295669799E+02  0.94398582141E+02  0.00000000000E+00 0.  1.
         21    1    1    2  504  502 -0.63574539098E+02  0.80116003636E+02  0.23091514754E+03  0.25255118575E+03  0.00000000000E+00 0.  1.
         21    1    1    2  505  503 -0.28258295266E+02 -0.36610759060E+02 -0.19104166335E+01  0.46287456422E+02  0.00000000000E+00 0.  1.
         21    1    1    2  506  501  0.34043662313E+02  0.15822710062E+02  0.50534486338E+02  0.62952866550E+02  0.00000000000E+00 0.  1.
<scales pt_clust_3="14000.00000" pt_clust_4="92.58327" pt_clust_5="44.04748" pt_clust_6="37.54103"></scales>
<clustering>
<clus scale="   37.541">  1  6  2 -1</clus>
<clus scale="   44.047">  2  5  1 -1</clus>
<clus scale="   92.583">  1  4  2 -1</clus>
<clus scale="   37.541">  1  3  2 -1</clus>
</clustering>
</event>
<event>
 6    0  0.8991567E+002  0.1006232E+03  0.7546771E-02  0.1278991E+00
         21   -1    0    0  505  501  0.00000000000E+00  0.00000000000E+00  0.37594318992E+03  0.37594318992E+03  0.00000000000E+00 0.  1.
         21   -1    0    0  504  502 -0.00000000000E+00 -0.00000000000E+00 -0.19648528413E+03  0.19648528413E+03  0.00000000000E+00 0. -1.
         21    1    1    2  503  502 -0.39279523820E+02  0.69112071583E+02 -0.13551490661E+03  0.15711030947E+03  0.00000000000E+00 0. -1.
         21    1    1    2  504  506 -0.50227555733E+02 -0.22874825105E+02 -0.30539604213E+01  0.55275597263E+02  0.00000000000E+00 0. -1.
         21    1    1    2  505  503  0.98807899512E+02 -0.83654209294E+02  0.25872673394E+03  0.28931047440E+03  0.00000000000E+00 0.  1.
         21    1    1    2  506  501 -0.93008199585E+01  0.37416962816E+02  0.59300038873E+02  0.70732092919E+02  0.00000000000E+00 0.  1.
<scales pt_clust_3="100.62324" pt_clust_4="54.69238" pt_clust_5="14000.00000" pt_clust_6="38.55560"></scales>
<clustering>
<clus scale="   38.556">  1  6  2 -1</clus>
<clus scale="   54.692">  2  4  1 -1</clus>
<clus scale="  100.623">  2  3  1 -1</clus>
<clus scale="   38.556">  1  3  2 -1</clus>
</clustering>
</event>
<event>
 6    0  0.8991567E+002  0.7041808E+02  0.7546771E-02  0.1358677E+00
         21   -1    0    0  504  501  0.00000000000E+00  0.00000000000E+00  0.43774742780E+03  0.43774742780E+03  0.00000000000E+00 0.  1.
         21   -1    0    0  505  502 -0.00000000000E+00 -0.00000000000E+00 -0.75838747502E+02  0.75838747502E+02  0.00000000000E+00 0.  1.
         21    1    1    2  503  501  0.24925045702E+01  0.47284284211E+02  0.21439486906E+03  0.21956132626E+03  0.00000000000E+00 0.  1.
         21    1    1    2  504  506  0.66653221827E+02 -0.53745718132E+02  0.10116918769E+03  0.13253851793E+03  0.00000000000E+00 0.  1.
         21    1    1    2  505  503  0.46440841236E+01  0.61929153242E+02  0.13912346669E+02  0.63642288837E+02  0.00000000000E+00 0. -1.
         21    1    1    2  506  502 -0.73789810521E+02 -0.55467719321E+02  0.32432276875E+02  0.97844042264E+02  0.00000000000E+00 0.  1.
<scales pt_clust_3="47.34993" pt_clust_4="69.86810" pt_clust_5="70.41808" pt_clust_6="14000.00000"></scales>
<clustering>
<clus scale="   47.350">  1  3  2 -1</clus>
<clus scale="   70.418">  2  5  1 -1</clus>
<clus scale="   69.868">  1  4  2 -1</clus>
<clus scale="   47.350">  1  3  2 -1</clus>
</clustering>
</event>
<event>
 6    0  0.8991567E+002  0.9941233E+02  0.7546771E-02  0.1281537E+00
         21   -1    0    0  506  501  0.00000000000E+00  0.00000000000E+00  0.31863560085E+03  0.31863560085E+03  0.00000000000E+00 0.  1.
         21   -1    0    0  505  502 -0.00000000000E+00 -0.00000000000E+00 -0.54544234932E+03  0.54544234932E+03  0.00000000000E+00 0.  1.
         21    1    1    2  503  501 -0.94227570597E+02  0.71410245107E+01  0.27388471447E+03  0.28972860769E+03  0.00000000000E+00 0.  1.
         21    1    1    2  504  502 -0.39066638251E+02 -0.13498890086E+02 -0.52408715737E+02  0.66746503601E+02  0.00000000000E+00 0. -1.
         21    1    1    2  505  503  0.12580980080E+03 -0.32827171134E+02 -0.44926070154E+03  0.46769745252E+03  0.00000000000E+00 0.  1.
         21    1    1    2  506  504  0.74844080500E+01  0.39185036709E+02  0.97795433517E+00  0.39905386359E+02  0.00000000000E+00 0.  1.
<scales pt_clust_3="14000.00000" pt_clust_4="40.86380" pt_clust_5="99.41233" pt_clust_6="39.89340"></scales>
<clustering>
<clus scale="   39.893">  1  6  2 -1</clus>
<clus scale="   40.864">  2  4  1 -1</clus>
<clus scale="   99.412">  2  5  1 -1</clus>
<clus scale="   39.893">  1  3  2 -1</clus>
</clustering>
</event>
<event>
 6    0  0.8991567E+002  0.2245367E+03  0.7546771E-02  0.1130545E+00
         21   -1    0    0  503  501  0.00000000000E+00  0.00000000000E+00  0.77505140957E+02  0.77505140957E+02  0.00000000000E+00 0.  1.
         21   -1    0    0  506  502 -0.00000000000E+00 -0.00000000000E+00 -0.27772648375E+04  0.27772648375E+04  0.00000000000E+00 0.  1.
         21    1    1    2  503  505 -0.10514682898E+03  0.17924367676E+01 -0.63094751901E+02  0.12263774375E+03  0.00000000000E+00 0.  1.
         21    1    1    2  504  501  0.16881111428E+03  0.18076999715E+03 -0.46208546417E+03  0.52411636148E+03  0.00000000000E+00 0.  1.
         21    1    1    2  505  502 -0.50537733397E+02 -0.26212419282E+03 -0.11637612322E+04  0.11939863318E+04  0.00000000000E+00 0.  1.
         21    1    1    2  506  504 -0.13126551910E+02  0.79561758909E+02 -0.10108182483E+04  0.10140295414E+04  0.00000000000E+00 0.  1.
<scales pt_clust_3="106.00630" pt_clust_4="224.53667" pt_clust_5="14000.00000" pt_clust_6="80.63734"></scales>
<clustering>
<clus scale="   80.637">  2  6  1 -1</clus>
<clus scale="  106.006">  1  3  2 -1</clus>
<clus scale="  224.537">  1  4  2 -1</clus>
<clus scale="  106.006">  1  3  2 -1</clus>
</clustering>
</event>
<event>
 6    0  0.8991567E+002  0.8749241E+02  0.7546771E-02  0.1309040E+00
         21   -1    0    0  503  501  0.00000000000E+00  0.00000000000E+00  0.19707777988E+04  0.19707777988E+04  0.00000000000E+00 0. -1.
         21   -1    0    0  506  502 -0.00000000000E+00 -0.00000000000E+00 -0.84681725241E+02  0.84681725241E+02  0.00000000000E+00 0. -1.
         21    1    1    2  503  502 -0.14717337169E+03 -0.50996883925E+01  0.11471404393E+04  0.11565540176E+04  0.00000000000E+00 0. -1.
         21    1    1    2  504  501  0.61541356003E+02  0.35834379171E+01  0.75238121151E+03  0.75490242215E+03  0.00000000000E+00 0. -1.
         21    1    1    2  505  504  0.71548851934E+02  0.34690034824E+02  0.32263223582E+02  0.85811143362E+02  0.00000000000E+00 0. -1.
         21    1    1    2  506  505  0.14083163749E+02 -0.33173784349E+02 -0.45688800827E+02  0.58191940939E+02  0.00000000000E+00 0. -1.
<scales pt_clust_3="87.49241" pt_clust_4="62.12640" pt_clust_5="14000.00000" pt_clust_6="36.03936"></scales>
<clustering>
<clus scale="   36.039">  2  6  1 -1</clus>
<clus scale="   62.126">  1  4  2 -1</clus>
<clus scale="   87.492">  1  3  2 -1</clus>
<clus scale="   62.126">  1  3  2 -1</clus>
</clustering>
</event>
<event>
 6    0  0.8991567E+002  0.1262556E+03  0.7546771E-02  0.1233120E+00
         21   -1    0    0  506  501  0.00000000000E+00  0.00000000000E+00  0.24716880396E+04  0.24716880396E+04  0.00000000000E+00 0. -1.
         21   -1    0    0  504  502 -0.00000000000E+00 -0.00000000000E+00 -0.53791789118E+03  0.53791789118E+03  0.00000000000E+00 0.  1.
         21    1    1    2  503  505 -0.13832606310E+03 -0.44066189983E+02  0.13380877760E+04  0.13459401268E+04  0.00000000000E+00 0. -1.
         21    1    1    2  504  503  0.96196550372E+02  0.81704923189E+02 -0.52122604054E+03  0.53628915345E+03  0.00000000000E+00 0.  1.
         21    1    1    2  505  501 -0.10705006695E+02 -0.51240617691E+02  0.95674802115E+03  0.95817898852E+03  0.00000000000E+00 0. -1.
         21    1    1    2  506  502  0.52834519422E+02  0.13601884485E+02  0.16016039179E+03  0.16919766193E+03  0.00000000000E+00 0.  1.
<scales pt_clust_3="14000.00000" pt_clust_4="126.25561" pt_clust_5="52.34690" pt_clust_6="52.29042"></scales>
<clustering>
<clus scale="   52.347">  1  5  2 -1</clus>
<clus scale="   52.290">  1  6  2 -1</clus>
<clus scale="  126.256">  2  4  1 -1</clus>
<clus scale="   52.347">  1  3  2 -1</clus>
</clustering>
</event>
<event>
 6    0  0.8991567E+002  0.5842637E+02  0.7546771E-02  0.1404557E+00
         21   -1    0    0  503  501  0.00000000000E+00  0.00000000000E+00  0.47436890959E+03  0.47436890959E+03  0.00000000000E+00 0. -1.
         21   -1    0    0  504  502 -0.00000000000E+00 -0.00000000000E+00 -0.23777831344E+03  0.23777831344E+03  0.00000000000E+00 0. -1.
         21    1    1    2  503  502  0.36562537253E+02 -0.37966669183E+02  0.21906486203E+03  0.22531688990E+03  0.00000000000E+00 0. -1.
         21    1    1    2  504  505  0.54393690025E+02 -0.16937518819E+01 -0.16641985664E+03  0.17509172166E+03  0.00000000000E+00 0. -1.
         21    1    1    2  505  506 -0.95167662292E+02 -0.19434845617E+02 -0.20165584934E+02  0.99203064398E+02  0.00000000000E+00 0. -1.
         21    1    1    2  506  501  0.42114350137E+01  0.59095266682E+02  0.20411117569E+03  0.21253554707E+03  0.00000000000E+00 0. -1.
<scales pt_clust_3="52.70946" pt_clust_4="14000.00000" pt_clust_5="58.42637" pt_clust_6="44.19786"></scales>
<clustering>
<clus scale="   52.709">  1  3  2 -1</clus>
<clus scale="   44.198">  1  6  2 -1</clus>
<clus scale="   58.426">  1  5  2 -1</clus>
<clus scale="   52.709">  1  3  2 -1</clus>
</clustering>
</event>
<event>
 6    0  0.8991567E+002  0.1780139E+03  0.7546771E-02  0.1169739E+00
         21   -1    0    0  504  501  0.00000000000E+00  0.00000000000E+00  0.39666599133E+03  0.39666599133E+03  0.00000000000E+00 0.  1.
         21   -1    0    0  506  502 -0.00000000000E+00 -0.00000000000E+00 -0.54246524506E+03  0.54246524506E+03  0.00000000000E+00 0.  1.
         21    1    1    2  503  502 -0.23213198704E+02 -0.22399730392E+02 -0.26023751682E+03  0.26222922353E+03  0.00000000000E+00 0.  1.
         21    1    1    2  504  503  0.11869522050E+03 -0.11990339534E+03 -0.16588205435E+03  0.23660565407E+03  0.00000000000E+00 0.  1.
         21    1    1    2  505  501  0.96466621219E+02  0.73126403728E+01  0.12833329448E+03  0.16071315500E+03  0.00000000000E+00 0. -1.
         21    1    1    2  506  505 -0.19194864302E+03  0.13499048536E+03  0.15198702295E+03  0.27958320378E+03  0.00000000000E+00 0.  1.
<scales pt_clust_3="32.25834" pt_clust_4="14000.00000" pt_clust_5="95.32077" pt_clust_6="178.01388"></scales>
<clustering>
<clus scale="   32.258">  2  3  1 -1</clus>
<clus scale="   95.321">  1  5  2 -1</clus>
<clus scale="  178.014">  1  6  2 -1</clus>
<clus scale="   95.321">  1  3  2 -1</clus>
</clustering>
</event>
<event>
 6    0  0.8991567E+002  0.1115705E+03  0.7546771E-02  0.1257689E+00
         21   -1    0    0  506  501  0.00000000000E+00  0.00000000000E+00  0.13878945206E+03  0.13878945206E+03  0.00000000000E+00 0. -1.
         21   -1    0    0  503  502 -0.00000000000E+00 -0.00000000000E+00 -0.36000025490E+03  0.36000025490E+03  0.00000000000E+00 0. -1.
         21    1    1    2  503  501 -0.56104615300E+02 -0.69500258024E+02  0.57366261449E+02  0.10615508314E+03  0.00000000000E+00 0. -1.
         21    1    1    2  504  502  0.60080516765E+01 -0.40139048129E+02 -0.25384598472E+03  0.25707007571E+03  0.00000000000E+00 0. -1.
         21    1    1    2  505  504  0.31751823622E+02  0.13707213003E+02  0.86844530189E+00  0.34595089086E+02  0.00000000000E+00 0.  1.
         21    1    1    2  506  505  0.18344740001E+02  0.95932093151E+02 -0.25599524877E+02  0.10096945903E+03  0.00000000000E+00 0. -1.
<scales pt_clust_3="95.98077" pt_clust_4="40.58620" pt_clust_5="33.84855" pt_clust_6="33.84855"></scales>
<clustering>
<clus scale="   33.849">  5  6 -1 -1</clus>
<clus scale="   40.586">  2  4  1 -1</clus>
<clus scale="   95.981">  1  3  2 -1</clus>
<clus scale="   95.981">  1  3  2 -1</clus>
</clustering>
</event>
<event>
 6    0  0.8991567E+002  0.2702752E+03  0.7546771E-02  0.1101122E+00
         21   -1    0    0  506  501  0.00000000000E+00  0.00000000000E+00  0.90741270208E+03  0.90741270208E+03  0.00000000000E+00 0.  1.
         21   -1    0    0  501  502 -0.00000000000E+00 -0.00000000000E+00 -0.37616900870E+03  0.37616900870E+03  0.00000000000E+00 0.  1.
         21    1    1    2  503  504  0.27064329602E+02 -0.22246650208E+03  0.23032303305E+03  0.32136042388E+03  0.00000000000E+00 0.  1.
         21    1    1    2  504  505 -0.68372465834E+01  0.35596972350E+03  0.11875891740E+03  0.37531969366E+03  0.00000000000E+00 0.  1.
         21    1    1    2  505  502  0.83553850078E+02 -0.10739675190E+03 -0.17062632376E+03  0.21823989218E+03  0.00000000000E+00 0.  1.
         21    1    1    2  506  503 -0.10378093310E+03 -0.26106469519E+02  0.35278806669E+03  0.36866170106E+03  0.00000000000E+00 0.  1.
<scales pt_clust_3="14000.00000" pt_clust_4="270.27522" pt_clust_5="134.26092" pt_clust_6="107.01416"></scales>
<clustering>
<clus scale="  107.014">  1  6  2 -1</clus>
<clus scale="  134.261">  2  5  1 -1</clus>
<clus scale="  270.275">  2  4  1 -1</clus>
<clus scale="  107.014">  1  3  2 -1</clus>
</clustering>
</event>
<event>
 6    0  0.8991567E+002  0.9744804E+02  0.7546771E-02  0.1285756E+00
         21   -1    0    0  503  501  0.00000000000E+00  0.00000000000E+00  0.16444197170E+04  0.16444197170E+04  0.00000000000E+00 0. -1.
         21   -1    0    0  506  502 -0.00000000000E+00 -0.00000000000E+00 -0.52902091588E+03  0.52902091588E+03  0.00000000000E+00 0. -1.
         21    1    1    2  503  504 -0.53767867705E+01 -0.31720749255E+02  0.13911985994E+04  0.13915705726E+04  0.00000000000E+00 0. -1.
         21    1    1    2  504  505  0.36481839332E+02 -0.59847250239E+02  0.13256328256E+03  0.14995213184E+03  0.00000000000E+00 0.  1.
         21    1    1    2  505  502 -0.30707428308E+02  0.15585119449E+03  0.51958465257E+02  0.16712936034E+03  0.00000000000E+00 0.  1.
         21    1    1    2  506  501 -0.39762425310E+00 -0.64283194996E+02 -0.46032154604E+03  0.46478856807E+03  0.00000000000E+00 0. -1.
<scales pt_clust_3="32.17322" pt_clust_4="14000.00000" pt_clust_5="97.44804" pt_clust_6="64.56472"></scales>
<clustering>
<clus scale="   32.173">  1  3  2 -1</clus>
<clus scale="   64.565">  2  6  1 -1</clus>
<clus scale="   97.448">  2  5  1 -1</clus>
<clus scale="   32.173">  1  3  2 -1</clus>
</clustering>
</event>
<event>
 6    0  0.8991567E+002  0.1139922E+03  0.7546771E-02  0.1253351E+00
         21   -1    0    0  505  501  0.00000000000E+00  0.00000000000E+00  0.58229459658E+02  0.58229459658E+02  0.00000000000E+00 0. -1.
         21   -1    0    0  503  502 -0.00000000000E+00 -0.00000000000E+00 -0.29819991658E+04  0.29819991658E+04  0.00000000000E+00 0. -1.
         21    1    1    2  503  506  0.42447559853E+02 -0.99791078439E+02 -0.24678661560E+04  0.24702476432E+04  0.00000000000E+00 0. -1.
         21    1    1    2  504  502 -0.38743261024E+02 -0.15387397711E+02 -0.35174409148E+03  0.35420575683E+03  0.00000000000E+00 0. -1.
         21    1    1    2  505  504 -0.57830879103E+02  0.10632314467E+03 -0.10601435744E+03  0.16089768691E+03  0.00000000000E+00 0. -1.
         21    1    1    2  506  501  0.54126580275E+02  0.88553314838E+01  0.18548987689E+01  0.54877538551E+02  0.00000000000E+00 0. -1.
<scales pt_clust_3="113.99217" pt_clust_4="41.68708" pt_clust_5="14000.00000" pt_clust_6="54.43564"></scales>
<clustering>
<clus scale="   41.687">  2  4  1 -1</clus>
<clus scale="   54.436">  1  6  2 -1</clus>
<clus scale="  113.992">  2  3  1 -1</clus>
<clus scale="   54.436">  1  3  2 -1</clus>
</clustering>
</event>
<event>
 6    0  0.8991567E+002  0.1276815E+03  0.7546771E-02  0.1230937E+00
         21   -1    0    0  505  501  0.00000000000E+00  0.00000000000E+00  0.16322341486E+03  0.16322341486E+03  0.00000000000E+00 0. -1.
         21   -1    0    0  506  502 -0.00000000000E+00 -0.00000000000E+00 -0.39061741886E+03  0.39061741886E+03  0.00000000000E+00 0.  1.
         21    1    1    2  503  502 -0.35580963345E+01 -0.10751313666E+03 -0.52031827702E+02  0.11949496097E+03  0.00000000000E+00 0. -1.
         21    1    1    2  504  501  0.57744370195E+02  0.15675821593E+03 -0.90775891455E+01  0.16730198198E+03  0.00000000000E+00 0. -1.
         21    1    1    2  505  503 -0.72886545819E+01 -0.48979753410E+02  0.34824866338E+02  0.60538517038E+02  0.00000000000E+00 0. -1.
         21    1    1    2  506  504 -0.46897619279E+02 -0.26532586135E+00 -0.20110945349E+03  0.20650537372E+03  0.00000000000E+00 0.  1.
<scales pt_clust_3="14000.00000" pt_clust_4="127.68146" pt_clust_5="50.11385" pt_clust_6="46.89837"></scales>
<clustering>
<clus scale="   46.898">  2  6  1 -1</clus>
<clus scale="   50.114">  1  5  2 -1</clus>
<clus scale="  127.681">  1  4  2 -1</clus>
<clus scale="   50.114">  1  3  2 -1</clus>
</clustering>
</event>
<event>
 6    0  0.8991567E+002  0.9534268E+02  0.7546771E-02  0.1290406E+00
         21   -1    0    0  503  501  0.00000000000E+00  0.00000000000E+00  0.11457749444E+03  0.11457749444E+03  0.00000000000E+00 0.  1.
         21   -1    0    0  505  502 -0.00000000000E+00 -0.00000000000E+00 -0.22405728935E+04  0.22405728935E+04  0.00000000000E+00 0. -1.
         21    1    1    2  503  504 -0.30196086563E+02 -0.84630413440E+02  0.69591012530E+02  0.11365306660E+03  0.00000000000E+00 0.  1.
         21    1    1    2  504  502  0.14302064757E+03 -0.10937466954E+02 -0.64605418105E+03  0.66178587070E+03  0.00000000000E+00 0. -1.
         21    1    1    2  505  506 -0.62710135583E+02  0.60730335609E+02 -0.14959491487E+04  0.14984941075E+04  0.00000000000E+00 0. -1.
         21    1    1    2  506  501 -0.50114425422E+02  0.34837544785E+02 -0.53583081848E+02  0.81217343113E+02  0.00000000000E+00 0.  1.
<scales pt_clust_3="14000.00000" pt_clust_4="95.34268" pt_clust_5="88.05761" pt_clust_6="61.03368"></scales>
<clustering>
<clus scale="   61.034">  1  6  2 -1</clus>
<clus scale="   88.058">  2  5  1 -1</clus>
<clus scale="   95.343">  2  4  1 -1</clus>
<clus scale="   61.034">  1  3  2 -1</clus>
</clustering>
</event>
<event>
 6    0  0.8991567E+002  0.1412822E+03  0.7546771E-02  0.1211614E+00
         21   -1    0    0  506  501  0.00000000000E+00  0.00000000000E+00  0.43697263510E+03  0.43697263510E+03  0.00000000000E+00 0. -1.
         21   -1    0    0  505  502 -0.00000000000E+00 -0.00000000000E+00 -0.10059043430E+04  0.10059043430E+04  0.00000000000E+00 0. -1.
         21    1    1    2  503  502  0.30315251815E+02 -0.15260559412E+02 -0.65546241154E+03  0.65634051537E+03  0.00000000000E+00 0. -1.
         21    1    1    2  504  503 -0.16064603980E+03 -0.37384848236E+02 -0.30853454865E+03  0.34985474799E+03  0.00000000000E+00 0. -1.
         21    1    1    2  505  501  0.10137096472E+03  0.90153097585E+02  0.32413283496E+03  0.35137693179E+03  0.00000000000E+00 0. -1.
         21    1    1    2  506  504  0.28959823269E+02 -0.37507689937E+02  0.70932417322E+02  0.85304782957E+02  0.00000000000E+00 0.  1.
<scales pt_clust_3="33.93964" pt_clust_4="14000.00000" pt_clust_5="141.28222" pt_clust_6="48.01603"></scales>
<clustering>
<clus scale="   33.940">  2  3  1 -1</clus>
<clus scale="   48.016">  1  6  2 -1</clus>
<clus scale="  141.282">  1  5  2 -1</clus>
<clus scale="   48.016">  1  3  2 -1</clus>
</clustering>
</event>
<event>
 6    0  0.8991567E+002  0.1158235E+03  0.7546771E-02  0.1250150E+00
         21   -1    0    0  504  501  0.00000000000E+00  0.00000000000E+00  0.64610875242E+03  0.64610875242E+03  0.00000000000E+00 0. -1.
         21   -1    0    0  505  502 -0.00000000000E+00 -0.00000000000E+00 -0.84094622208E+02  0.84094622208E+02  0.00000000000E+00 0. -1.
         21    1    1    2  503  506 -0.73987560268E+02 -0.14252628986E+01  0.11705766072E+03  0.13848713436E+03  0.00000000000E+00 0. -1.
         21    1    1    2  504  502  0.21924702265E+02  0.22216485631E+02 -0.49351750897E+02  0.58394007568E+02  0.00000000000E+00 0. -1.
         21    1    1    2  505  503 -0.49639925985E+02  0.76692428160E+01  0.33046920680E+02  0.60125190258E+02  0.00000000000E+00 0. -1.
         21    1    1    2  506  501  0.10170278399E+03 -0.28460465548E+02  0.46126129971E+03  0.47319704245E+03  0.00000000000E+00 0. -1.
<scales pt_clust_3="32.28702" pt_clust_4="31.21322" pt_clust_5="32.28702" pt_clust_6="108.73070"></scales>
<clustering>
<clus scale="   31.213">  2  4  1 -1</clus>
<clus scale="   32.287">  3  5 -1 -1</clus>
<clus scale="  108.731">  1  6  2 -1</clus>
<clus scale="  108.731">  1  3  2 -1</clus>
</clustering>
</event>
<event>
 6    0  0.8991567E+002  0.1293457E+03  0.7546771E-02  0.1228430E+00
         21   -1    0    0  506  501  0.00000000000E+00  0.00000000000E+00  0.27024621185E+03  0.27024621185E+03  0.00000000000E+00 0. -1.
         21   -1    0    0  505  502 -0.00000000000E+00 -0.00000000000E+00 -0.14551235999E+04  0.14551235999E+04  0.00000000000E+00 0.  1.
         21    1    1    2  503  504  0.53669948140E+02 -0.70387813983E+02  0.12606024527E+02  0.89408162631E+02  0.00000000000E+00 0. -1.
         21    1    1    2  504  502  0.50274929153E+02 -0.34155778989E+02 -0.27220966702E+02  0.66597047741E+02  0.00000000000E+00 0.  1.
         21    1    1    2  505  501  0.19244036774E+02  0.12096970922E+03 -0.13474121120E+04  0.13529683674E+04  0.00000000000E+00 0.  1.
         21    1    1    2  506  503 -0.12318891407E+03 -0.16426116249E+02  0.17714966619E+03  0.21639623396E+03  0.00000000000E+00 0. -1.
<scales pt_clust_3="40.51183" pt_clust_4="40.51183" pt_clust_5="122.49083" pt_clust_6="119.75055"></scales>
<clustering>
<clus scale="   40.512">  3  4 -1 -1</clus>
<clus scale="  122.491">  2  5  1 -1</clus>
<clus scale="  119.751">  1  6  2 -1</clus>
<clus scale="  119.751">  1  3  2 -1</clus>
</clustering>
</event>
<event>
 6    0  0.8991567E+002  0.9087864E+02  0.7546771E-02  0.1300738E+00
         21   -1    0    0  505  501  0.00000000000E+00  0.00000000000E+00  0.79990728593E+03  0.79990728593E+03  0.00000000000E+00 0.  1.
         21   -1    0    0  504  502 -0.00000000000E+00 -0.00000000000E+00 -0.43754342003E+02  0.43754342003E+02  0.00000000000E+00 0.  1.
         21    1    1    2  503  502  0.32715302339E+02  0.24488596785E+02  0.10036905090E+02  0.42079945858E+02  0.00000000000E+00 0.  1.
         21    1    1    2  504  501 -0.85396506301E+02 -0.50618166785E+02  0.42100693998E+03  0.43255243105E+03  0.00000000000E+00 0.  1.
         21    1    1    2  505  506  0.88047009924E+02  0.26784152469E+01  0.31262234750E+03  0.32479560037E+03  0.00000000000E+00 0.  1.
         21    1    1    2  506  503 -0.35365805961E+02  0.23451154753E+02  0.12486751357E+02  0.44233650652E+02  0.00000000000E+00 0.  1.
<scales pt_clust_3="40.86542" pt_clust_4="90.87864" pt_clust_5="14000.00000" pt_clust_6="40.99678"></scales>
<clustering>
<clus scale="   40.865">  2  3  1 -1</clus>
<clus scale="   40.997">  2  6  1 -1</clus>
<clus scale="   90.879">  1  4  2 -1</clus>
<clus scale="   90.879">  1  3  2 -1</clus>
</clustering>
</event>
<event>
 6    0  0.8991567E+002  0.9153735E+02  0.7546771E-02  0.1299171E+00
         21   -1    0    0  506  501  0.00000000000E+00  0.00000000000E+00  0.30708771742E+03  0.30708771742E+03  0.00000000000E+00 0.  1.
         21   -1    0    0  505  502 -0.00000000000E+00 -0.00000000000E+00 -0.70923501549E+03  0.70923501549E+03  0.00000000000E+00 0.  1.
         21    1    1    2  503  501 -0.24249395346E+02 -0.11978801808E+03  0.19908899166E+02  0.12382877983E+03  0.00000000000E+00 0.  1.
         21    1    1    2  504  502  0.17838663479E+02  0.57064695039E+02 -0.51296488322E+03  0.51643738125E+03  0.00000000000E+00 0.  1.
         21    1    1    2  505  503 -0.34098118459E+02 -0.14607199472E+02 -0.13176224915E+03  0.13688441204E+03  0.00000000000E+00 0.  1.
         21    1    1    2  506  504  0.40508850327E+02  0.77330522509E+02  0.22267093513E+03  0.23917215979E+03  0.00000000000E+00 0.  1.
<scales pt_clust_3="91.53735" pt_clust_4="45.78076" pt_clust_5="37.09517" pt_clust_6="14000.00000"></scales>
<clustering>
<clus scale="   37.095">  2  5  1 -1</clus>
<clus scale="   45.781">  2  4  1 -1</clus>
<clus scale="   91.537">  2  3  1 -1</clus>
<clus scale="   91.537">  1  3  2 -1</clus>
</clustering>
</event>
<event>
 6    0  0.8991567E+002  0.8441520E+02  0.7546771E-02  0.1316969E+00
         21   -1    0    0  503  501  0.00000000000E+00  0.00000000000E+00  0.62540362125E+02  0.62540362125E+02  0.00000000000E+00 0. -1.
         21   -1    0    0  505  502 -0.00000000000E+00 -0.00000000000E+00 -0.68962086833E+03  0.68962086833E+03  0.00000000000E+00 0. -1.
         21    1    1    2  503  502  0.61250077464E+02 -0.46105690799E+02 -0.42175497149E+01  0.76779518356E+02  0.00000000000E+00 0. -1.
         21    1    1    2  504  501 -0.13731125096E+03  0.33262268200E+02 -0.23024101178E+03  0.27013271115E+03  0.00000000000E+00 0. -1.
         21    1    1    2  505  506  0.25488544826E+02 -0.15990940066E+02 -0.24038687065E+03  0.24226271621E+03  0.00000000000E+00 0. -1.
         21    1    1    2  506  504  0.50572628674E+02  0.28834362665E+02 -0.15223507405E+03  0.16298628474E+03  0.00000000000E+00 0. -1.
<scales pt_clust_3="84.41520" pt_clust_4="14000.00000" pt_clust_5="30.08947" pt_clust_6="63.89904"></scales>
<clustering>
<clus scale="   30.089">  2  5  1 -1</clus>
<clus scale="   63.899">  2  6  1 -1</clus>
<clus scale="   84.415">  1  3  2 -1</clus>
<clus scale="   84.415">  1  3  2 -1</clus>
</clustering>
</event>
<event>
 6    0  0.8991567E+002  0.1175867E+03  0.7546771E-02  0.1247132E+00
         21   -1    0    0  504  501  0.00000000000E+00  0.00000000000E+00  0.37406633958E+04  0.37406633958E+04  0.00000000000E+00 0.  1.
         21   -1    0    0  505  502 -0.00000000000E+00 -0.00000000000E+00 -0.47388751025E+03  0.47388751025E+03  0.00000000000E+00 0. -1.
         21    1    1    2  503  501  0.26658630450E+02  0.70819973813E+02  0.13499032222E+04  0.13520225074E+04  0.00000000000E+00 0.  1.
         21    1    1    2  504  502 -0.65562217710E+02  0.54032569512E+02 -0.37799289919E+03  0.38742296628E+03  0.00000000000E+00 0. -1.
         21    1    1    2  505  506 -0.62745451166E+01  0.39220020970E+02 -0.82549216091E+02  0.91607603606E+02  0.00000000000E+00 0.  1.
         21    1    1    2  506  503  0.45178132377E+02 -0.16407256430E+03  0.23774147786E+04  0.23834978287E+04  0.00000000000E+00 0.  1.
<scales pt_clust_3="75.76585" pt_clust_4="117.58666" pt_clust_5="39.71876" pt_clust_6="14000.00000"></scales>
<clustering>
<clus scale="   39.719">  2  5  1 -1</clus>
<clus scale="   75.766">  1  3  2 -1</clus>
<clus scale="  117.587">  2  4  1 -1</clus>
<clus scale="   75.766">  1  3  2 -1</clus>
</clustering>
</event>
<event>
 6    0  0.8991567E+002  0.7424046E+02  0.7546771E-02  0.1346239E+00
         21   -1    0    0  503  501  0.00000000000E+00  0.00000000000E+00  0.10660037657E+04  0.10660037657E+04  0.00000000000E+00 0.  1.
         21   -1    0    0  505  502 -0.00000000000E+00 -0.00000000000E+00 -0.96740054959E+02  0.96740054959E+02  0.00000000000E+00 0.  1.
         21    1    1    2  503  502 -0.12390158547E+02  0.34286695364E+02 -0.47366054995E+02  0.59771537320E+02  0.00000000000E+00 0.  1.
         21    1    1    2  504  501 -0.36469834065E+01  0.50140164521E+02  0.86435138633E+03  0.86581213646E+03  0.00000000000E+00 0.  1.
         21    1    1    2  505  506  0.20967058771E+02  0.42477948650E+02  0.13969338336E+02  0.49387610679E+02  0.00000000000E+00 0. -1.
         21    1    1    2  506  504 -0.49299168181E+01 -0.12690480853E+03  0.13830904106E+03  0.18777253619E+03  0.00000000000E+00 0.  1.
<scales pt_clust_3="36.45673" pt_clust_4="50.86664" pt_clust_5="14000.00000" pt_clust_6="74.24046"></scales>
<clustering>
<clus scale="   36.457">  2  3  1 -1</clus>
<clus scale="   50.867">  1  4  2 -1</clus>
<clus scale="   74.240">  1  6  2 -1</clus>
<clus scale="   50.867">  1  3  2 -1</clus>
</clustering>
</event>
<event>
 6    0  0.8991567E+002  0.7377572E+02  0.7546771E-02  0.1347705E+00
         21   -1    0    0  503  501  0.00000000000E+00  0.00000000000E+00  0.49157890514E+02  0.49157890514E+02  0.00000000000E+00 0. -1.
         21   -1    0    0  505  502 -0.00000000000E+00 -0.00000000000E+00 -0.15025665692E+04  0.15025665692E+04  0.00000000000E+00 0. -1.
         21    1    1    2  503  506  0.41713610479E+02 -0.44580555041E+02  0.50573376348E+01  0.61261960880E+02  0.00000000000E+00 0. -1.
         21    1    1    2  504  502 -0.41515077824E+02  0.18372051523E+02 -0.10592182131E+04  0.10601906700E+04  0.00000000000E+00 0. -1.
         21    1    1    2  505  501 -0.78077293498E+02 -0.45405939120E+00 -0.19044975030E+03  0.20583337270E+03  0.00000000000E+00 0. -1.
         21    1    1    2  506  504  0.77878760843E+02  0.26662562910E+02 -0.20879805297E+03  0.22443845610E+03  0.00000000000E+00 0. -1.
<scales pt_clust_3="58.41254" pt_clust_4="45.39861" pt_clust_5="14000.00000" pt_clust_6="73.77572"></scales>
<clustering>
<clus scale="   45.399">  2  4  1 -1</clus>
<clus scale="   58.413">  1  3  2 -1</clus>
<clus scale="   73.776">  2  6  1 -1</clus>
<clus scale="   58.413">  1  3  2 -1</clus>
</clustering>
</event>
<event>
 6    0  0.8991567E+002  0.1229443E+03  0.7546771E-02  0.1238317E+00
         21   -1    0    0  504  501  0.00000000000E+00  0.00000000000E+00  0.87813222674E+03  0.87813222674E+03  0.00000000000E+00 0.  1.
         21   -1    0    0  503  502 -0.00000000000E+00 -0.00000000000E+00 -0.26631782781E+03  0.26631782781E+03  0.00000000000E+00 0. -1.
         21    1    1    2  503  506  0.58252765455E+01 -0.38752736738E+02 -0.16625355949E+02  0.42568896062E+02  0.00000000000E+00 0. -1.
         21    1    1    2  504  505  0.75827263664E+02  0.15252386689E+03  0.33286349634E+03  0.37391364121E+03  0.00000000000E+00 0.  1.
         21    1    1    2  505  502 -0.98267052943E+02 -0.41041801465E+02 -0.20011875426E+03  0.22669000632E+03  0.00000000000E+00 0. -1.
         21    1    1    2  506  501  0.16614512733E+02 -0.72729328684E+02  0.49569501280E+03  0.50127751096E+03  0.00000000000E+00 0.  1.
<scales pt_clust_3="39.18812" pt_clust_4="122.94435" pt_clust_5="14000.00000" pt_clust_6="75.06371"></scales>
<clustering>
<clus scale="   39.188">  2  3  1 -1</clus>
<clus scale="   75.064">  1  6  2 -1</clus>
<clus scale="  122.944">  1  4  2 -1</clus>
<clus scale="   75.064">  1  3  2 -1</clus>
</clustering>
</event>
<event>
 6    0  0.8991567E+002  0.1100529E+03  0.7546771E-02  0.1260472E+00
         21   -1    0    0  503  501  0.00000000000E+00  0.00000000000E+00  0.18291246596E+04  0.18291246596E+04  0.00000000000E+00 0.  1.
         21   -1    0    0  504  502 -0.00000000000E+00 -0.00000000000E+00 -0.53640628630E+02  0.53640628630E+02  0.00000000000E+00 0.  1.
         21    1    1    2  503  502 -0.21464253121E+02 -0.12254661323E+03  0.13492246066E+04  0.13549484956E+04  0.00000000000E+00 0.  1.
         21    1    1    2  504  506 -0.57123829910E+02 -0.61326806386E+02  0.14000072010E+03  0.16316957668E+03  0.00000000000E+00 0.  1.
         21    1    1    2  505  501  0.21773669322E+02  0.22732141035E+02  0.12778808113E+03  0.13160788954E+03  0.00000000000E+00 0. -1.
         21    1    1    2  506  505  0.56814413709E+02  0.16114127858E+03  0.15847062313E+03  0.23303932643E+03  0.00000000000E+00 0.  1.
<scales pt_clust_3="14000.00000" pt_clust_4="81.00250" pt_clust_5="31.47766" pt_clust_6="110.05295"></scales>
<clustering>
<clus scale="   31.478">  1  5  2 -1</clus>
<clus scale="   81.003">  2  4  1 -1</clus>
<clus scale="  110.053">  2  6  1 -1</clus>
<clus scale="   31.478">  1  3  2 -1</clus>
</clustering>
</event>
<event>
 6    0  0.8991567E+002  0.4936217E+03  0.7546771E-02  0.1015457E+00
         21   -1    0    0  503  501  0.00000000000E+00  0.00000000000E+00  0.18553220608E+04  0.18553220608E+04  0.00000000000E+00 0. -1.
         21   -1    0    0  504  502 -0.00000000000E+00 -0.00000000000E+00 -0.48256901291E+03  0.48256901291E+03  0.00000000000E+00 0. -1.
         21    1    1    2  503  505  0.30735051495E+01  0.51604998934E+02  0.12101319751E+03  0.13159299496E+03  0.00000000000E+00 0.  1.
         21    1    1    2  504  506 -0.44028692148E+03  0.26981996156E+03 -0.19166435686E+03  0.55080905092E+03  0.00000000000E+00 0. -1.
         21    1    1    2  505  502  0.43535452786E+03 -0.94886402293E+02  0.43773634577E+03  0.62461996660E+03  0.00000000000E+00 0. -1.
         21    1    1    2  506  501  0.18588884735E+01 -0.22653855820E+03  0.10056678615E+04  0.10308690612E+04  0.00000000000E+00 0. -1.
<scales pt_clust_3="51.69644" pt_clust_4="493.62169" pt_clust_5="14000.00000" pt_clust_6="196.18122"></scales>
<clustering>
<clus scale="   51.696">  1  3  2 -1</clus>
<clus scale="  196.181">  1  6  2 -1</clus>
<clus scale="  493.622">  2  4  1 -1</clus>
<clus scale="   51.696">  1  3  2 -1</clus>
</clustering>
</event>
<event>
 6    0  0.8991567E+002  0.1066779E+03  0.7546771E-02  0.1266848E+00
         21   -1    0    0  504  501  0.00000000000E+00  0.00000000000E+00  0.13039260083E+04  0.13039260083E+04  0.00000000000E+00 0.  1.
         21   -1    0    0  506  502 -0.00000000000E+00 -0.00000000000E+00 -0.85313851315E+03  0.85313851315E+03  0.00000000000E+00 0.  1.
         21    1    1    2  503  501  0.21773838583E+02 -0.12963547477E+03  0.50520168019E+02  0.14082522410E+03  0.00000000000E+00 0.  1.
         21    1    1    2  504  502 -0.45635402020E+02  0.14510765370E+02  0.11997692127E+04  0.12007244963E+04  0.00000000000E+00 0.  1.
         21    1    1    2  505  503  0.61056499094E+01  0.63725077528E+02 -0.14194387937E+03  0.15571200775E+03  0.00000000000E+00 0.  1.
         21    1    1    2  506  505  0.17755913528E+02  0.51399631875E+02 -0.65755800618E+03  0.65980279335E+03  0.00000000000E+00 0.  1.
<scales pt_clust_3="14000.00000" pt_clust_4="47.88687" pt_clust_5="106.67793" pt_clust_6="54.36973"></scales>
<clustering>
<clus scale="   47.887">  1  4  2 -1</clus>
<clus scale="   54.370">  2  6  1 -1</clus>
<clus scale="  106.678">  2  5  1 -1</clus>
<clus scale="   47.887">  1  3  2 -1</clus>
</clustering>
</event>
<event>
 6    0  0.8991567E+002  0.9589121E+02  0.7546771E-02  0.1289181E+00
         21   -1    0    0  506  501  0.00000000000E+00  0.00000000000E+00  0.70551215651E+03  0.70551215651E+03  0.00000000000E+00 0. -1.
         21   -1    0    0  503  502 -0.00000000000E+00 -0.00000000000E+00 -0.32197840381E+03  0.32197840381E+03  0.00000000000E+00 0.  1.
         21    1    1    2  503  501 -0.78046864974E+02  0.10598955403E+02 -0.10655866161E+03  0.13250811051E+03  0.00000000000E+00 0.  1.
         21    1    1    2  504  502  0.14111789914E+03 -0.13766366622E+02 -0.13208384932E+03  0.19377801103E+03  0.00000000000E+00 0.  1.
         21    1    1    2  505  504 -0.94675191184E+02 -0.85185720870E+02  0.78754560240E+02  0.14974070797E+03  0.00000000000E+00 0.  1.
         21    1    1    2  506  505  0.31604157014E+02  0.88353132090E+02  0.54342170338E+03  0.55146373081E+03  0.00000000000E+00 0. -1.
<scales pt_clust_3="78.76326" pt_clust_4="78.47943" pt_clust_5="14000.00000" pt_clust_6="95.89121"></scales>
<clustering>
<clus scale="   78.763">  2  3  1 -1</clus>
<clus scale="   78.479">  2  4  1 -1</clus>
<clus scale="   95.891">  1  6  2 -1</clus>
<clus scale="   95.891">  1  3  2 -1</clus>
</clustering>
</event>
<event>
 6    0  0.8991567E+002  0.1262153E+03  0.7546771E-02  0.1233182E+00
         21   -1    0    0  506  501  0.00000000000E+00  0.00000000000E+00  0.24972576102E+04  0.24972576102E+04  0.00000000000E+00 0. -1.
         21   -1    0    0  504  502 -0.00000000000E+00 -0.00000000000E+00 -0.72100775362E+03  0.72100775362E+03  0.00000000000E+00 0.  1.
         21    1    1    2  503  502  0.13203472421E+03 -0.15666776354E+03 -0.32384663714E+03  0.38321612820E+03  0.00000000000E+00 0.  1.
         21    1    1    2  504  505 -0.71935590046E+02  0.77684832367E+02 -0.35676420029E+03  0.37214292537E+03  0.00000000000E+00 0.  1.
         21    1    1    2  505  501  0.26272416421E+02  0.20152634678E+02  0.14983053711E+04  0.14986711960E+04  0.00000000000E+00 0.  1.
         21    1    1    2  506  503 -0.86371550584E+02  0.58830296494E+02  0.95855532288E+03  0.96423511426E+03  0.00000000000E+00 0. -1.
<scales pt_clust_3="126.21532" pt_clust_4="14000.00000" pt_clust_5="33.11146" pt_clust_6="99.25114"></scales>
<clustering>
<clus scale="   33.111">  1  5  2 -1</clus>
<clus scale="   99.251">  1  6  2 -1</clus>
<clus scale="  126.215">  1  3  2 -1</clus>
<clus scale="   33.111">  1  3  2 -1</clus>
</clustering>
</event>
<event>
 6    0  0.8991567E+002  0.1822860E+03  0.7546771E-02  0.1165609E+00
         21   -1    0    0  504  501  0.00000000000E+00  0.00000000000E+00  0.45335010811E+03  0.45335010811E+03  0.00000000000E+00 0. -1.
         21   -1    0    0  505  502 -0.00000000000E+00 -0.00000000000E+00 -0.27947789164E+03  0.27947789164E+03  0.00000000000E+00 0.  1.
         21    1    1    2  503  501 -0.93570130081E+02 -0.18700005712E+03  0.23006853114E+03  0.31089535157E+03  0.00000000000E+00 0.  1.
         21    1    1    2  504  506  0.45837516910E+02  0.15174866294E+03  0.12876818877E+03  0.20423021593E+03  0.00000000000E+00 0. -1.
         21    1    1    2  505  503 -0.96462923274E+01  0.37697664213E+02 -0.21531072549E+02  0.44471922916E+02  0.00000000000E+00 0. -1.
         21    1    1    2  506  502  0.57378905498E+02 -0.24462700350E+01 -0.16343343089E+03  0.17323050934E+03  0.00000000000E+00 0.  1.
<scales pt_clust_3="182.28597" pt_clust_4="14000.00000" pt_clust_5="38.91227" pt_clust_6="55.88010"></scales>
<clustering>
<clus scale="   38.912">  2  5  1 -1</clus>
<clus scale="   55.880">  2  6  1 -1</clus>
<clus scale="  182.286">  2  3  1 -1</clus>
<clus scale="  182.286">  1  3  2 -1</clus>
</clustering>
</event>
<event>
 6    0  0.8991567E+002  0.1389787E+03  0.7546771E-02  0.1214710E+00
         21   -1    0    0  506  501  0.00000000000E+00  0.00000000000E+00  0.15258581852E+04  0.15258581852E+04  0.00000000000E+00 0.  1.
         21   -1    0    0  504  502 -0.00000000000E+00 -0.00000000000E+00 -0.27522048439E+03  0.27522048439E+03  0.00000000000E+00 0.  1.
         21    1    1    2  503  501  0.30956442993E+02 -0.12780542496E+02  0.19907328156E+03  0.20187078803E+03  0.00000000000E+00 0.  1.
         21    1    1    2  504  505  0.43619016459E+02 -0.13460517020E+02 -0.12821273302E+03  0.13609668998E+03  0.00000000000E+00 0.  1.
         21    1    1    2  505  503  0.86891552222E+02 -0.71840203516E+01 -0.12254262300E+03  0.15039430324E+03  0.00000000000E+00 0.  1.
         21    1    1    2  506  502 -0.16146701167E+03  0.33425079868E+02  0.13023197753E+04  0.13127168884E+04  0.00000000000E+00 0.  1.
<scales pt_clust_3="33.49095" pt_clust_4="30.17970" pt_clust_5="30.17970" pt_clust_6="132.57245"></scales>
<clustering>
<clus scale="   30.180">  4  5 -1 -1</clus>
<clus scale="   33.491">  1  3  2 -1</clus>
<clus scale="  132.572">  1  6  2 -1</clus>
<clus scale="   33.491">  1  3  2 -1</clus>
</clustering>
</event>
<event>
 6    0  0.8991567E+002  0.1275115E+03  0.7546771E-02  0.1231196E+00
         21   -1    0    0  503  501  0.00000000000E+00  0.00000000000E+00  0.44871045263E+03  0.44871045263E+03  0.00000000000E+00 0. -1.
         21   -1    0    0  505  502 -0.00000000000E+00 -0.00000000000E+00 -0.17676543301E+03  0.17676543301E+03  0.00000000000E+00 0. -1.
         21    1    1    2  503  506 -0.24231754098E+01  0.46993609214E+02  0.25070285616E+03  0.25508075814E+03  0.00000000000E+00 0. -1.
         21    1    1    2  504  502 -0.23050773791E+02  0.24694973245E+02 -0.63139686429E+02  0.71608657845E+02  0.00000000000E+00 0. -1.
         21    1    1    2  505  501  0.10408437720E+03 -0.12972670718E+03 -0.49471667094E+01  0.16639426249E+03  0.00000000000E+00 0. -1.
         21    1    1    2  506  504 -0.78610428003E+02  0.58038124717E+02  0.89329016598E+02  0.13239220716E+03  0.00000000000E+00 0. -1.
<scales pt_clust_3="47.57528" pt_clust_4="33.78135" pt_clust_5="14000.00000" pt_clust_6="127.51149"></scales>
<clustering>
<clus scale="   33.781">  2  4  1 -1</clus>
<clus scale="   47.575">  1  3  2 -1</clus>
<clus scale="  127.511">  1  6  2 -1</clus>
<clus scale="   47.575">  1  3  2 -1</clus>
</clustering>
</event>
<event>
 6    0  0.8991567E+002  0.1004098E+03  0.7546771E-02  0.1279436E+00
         21   -1    0    0  504  501  0.00000000000E+00  0.00000000000E+00  0.19599510543E+03  0.19599510543E+03  0.00000000000E+00 0. -1.
         21   -1    0    0  503  502 -0.00000000000E+00 -0.00000000000E+00 -0.19227493773E+04  0.19227493773E+04  0.00000000000E+00 0. -1.
         21    1    1    2  503  506  0.39660360448E+02  0.79120104897E+02 -0.17016770243E+04  0.17039770040E+04  0.00000000000E+00 0. -1.
         21    1    1    2  504  505  0.43475690249E+02 -0.47095977470E+02  0.13464787597E+03  0.14912483777E+03  0.00000000000E+00 0. -1.
         21    1    1    2  505  502 -0.13945746507E+03 -0.50764087476E+02 -0.13733286523E+03  0.20220210932E+03  0.00000000000E+00 0. -1.
         21    1    1    2  506  501  0.56321414369E+02  0.18739960049E+02 -0.22392258288E+02  0.63440531606E+02  0.00000000000E+00 0.  1.
<scales pt_clust_3="88.77950" pt_clust_4="14000.00000" pt_clust_5="100.40983" pt_clust_6="59.35729"></scales>
<clustering>
<clus scale="   59.357">  1  6  2 -1</clus>
<clus scale="   88.779">  2  3  1 -1</clus>
<clus scale="  100.410">  2  5  1 -1</clus>
<clus scale="   59.357">  1  3  2 -1</clus>
</clustering>
</event>
<event>
 6    0  0.8991567E+002  0.1732636E+03  0.7546771E-02  0.1174487E+00
         21   -1    0    0  503  501  0.00000000000E+00  0.00000000000E+00  0.25228512782E+03  0.25228512782E+03  0.00000000000E+00 0. -1.
         21   -1    0    0  505  502 -0.00000000000E+00 -0.00000000000E+00 -0.46541989473E+03  0.46541989473E+03  0.00000000000E+00 0. -1.
         21    1    1    2  503  502 -0.11584532182E+03  0.28098230596E+02 -0.71642012601E+02  0.13907633559E+03  0.00000000000E+00 0. -1.
         21    1    1    2  504  501 -0.16976632424E+02  0.26889439099E+02  0.80697724842E+02  0.86737366677E+02  0.00000000000E+00 0. -1.
         21    1    1    2  505  506  0.54429971240E+02 -0.20004635986E+03 -0.24989115396E+03  0.32469486705E+03  0.00000000000E+00 0. -1.
         21    1    1    2  506  504  0.78391983006E+02  0.14505869017E+03  0.27700674806E+02  0.16719645324E+03  0.00000000000E+00 0. -1.
<scales pt_clust_3="123.85116" pt_clust_4="31.80013" pt_clust_5="14000.00000" pt_clust_6="173.26357"></scales>
<clustering>
<clus scale="   31.800">  1  4  2 -1</clus>
<clus scale="  123.851">  2  3  1 -1</clus>
<clus scale="  173.264">  1  6  2 -1</clus>
<clus scale="   31.800">  1  3  2 -1</clus>
</clustering>
</event>
<event>
 6    0  0.8991567E+002  0.1261148E+03  0.7546771E-02  0.1233337E+00
         21   -1    0    0  506  501  0.00000000000E+00  0.00000000000E+00  0.18733848457E+03  0.18733848457E+03  0.00000000000E+00 0.  1.
         21   -1    0    0  503  502 -0.00000000000E+00 -0.00000000000E+00 -0.10115653878E+04  0.10115653878E+04  0.00000000000E+00 0. -1.
         21    1    1    2  503  504 -0.50752805589E+01 -0.56007301788E+02 -0.11217444251E+03  0.12548179899E+03  0.00000000000E+00 0. -1.
         21    1    1    2  504  505 -0.12302695034E+03  0.73477929641E+02 -0.84292694044E+03  0.85502073868E+03  0.00000000000E+00 0. -1.
         21    1    1    2  505  501  0.19746101559E+02 -0.25854744336E+02  0.10038575129E+03  0.10552570963E+03  0.00000000000E+00 0.  1.
         21    1    1    2  506  502  0.10835612934E+03  0.83841164833E+01  0.30488728413E+02  0.11287562507E+03  0.00000000000E+00 0.  1.
<scales pt_clust_3="58.15251" pt_clust_4="126.11476" pt_clust_5="32.53270" pt_clust_6="14000.00000"></scales>
<clustering>
<clus scale="   32.533">  1  5  2 -1</clus>
<clus scale="   58.153">  2  3  1 -1</clus>
<clus scale="  126.115">  2  4  1 -1</clus>
<clus scale="   32.533">  1  3  2 -1</clus>
</clustering>
</event>
<event>
 6    0  0.8991567E+002  0.9208638E+02  0.7546771E-02  0.1297876E+00
         21   -1    0    0  503  501  0.00000000000E+00  0.00000000000E+00  0.36622119954E+03  0.36622119954E+03  0.00000000000E+00 0. -1.
         21   -1    0    0  504  502 -0.00000000000E+00 -0.00000000000E+00 -0.20413959477E+03  0.20413959477E+03  0.00000000000E+00 0. -1.
         21    1    1    2  503  505 -0.23801255164E+02 -0.50948388641E+02  0.18772663076E+03  0.19596817586E+03  0.00000000000E+00 0. -1.
         21    1    1    2  504  506  0.92533096089E+01 -0.67436967881E+02 -0.12757013230E+03  0.14459428422E+03  0.00000000000E+00 0. -1.
         21    1    1    2  505  502 -0.49328528830E+02 -0.99923904143E+01 -0.55002834132E+01  0.50630077428E+02  0.00000000000E+00 0. -1.
         21    1    1    2  506  501  0.63876474386E+02  0.12837774694E+03  0.10742538973E+03  0.17916825681E+03  0.00000000000E+00 0. -1.
<scales pt_clust_3="56.94217" pt_clust_4="14000.00000" pt_clust_5="50.33042" pt_clust_6="92.08638"></scales>
<clustering>
<clus scale="   50.330">  2  5  1 -1</clus>
<clus scale="   56.942">  1  3  2 -1</clus>
<clus scale="   92.086">  1  6  2 -1</clus>
<clus scale="   56.942">  1  3  2 -1</clus>
</clustering>
</event>
<event>
 6    0  0.8991567E+002  0.9679243E+02  0.7546771E-02  0.1287189E+00
         21   -1    0    0  503  501  0.00000000000E+00  0.00000000000E+00  0.21293246956E+03  0.21293246956E+03  0.00000000000E+00 0. -1.
         21   -1    0    0  506  502 -0.00000000000E+00 -0.00000000000E+00 -0.22312268089E+03  0.22312268089E+03  0.00000000000E+00 0. -1.
         21    1    1    2  503  504 -0.10167010957E+01 -0.94461274927E+02 -0.12152140929E+02  0.95245160880E+02  0.00000000000E+00 0. -1.
         21    1    1    2  504  502 -0.28944834479E+02 -0.12906688969E+02 -0.45394492483E+02  0.55362857684E+02  0.00000000000E+00 0. -1.
         21    1    1    2  505  501  0.80543787553E+02  0.69135204244E+02  0.13845104617E+03  0.17445821954E+03  0.00000000000E+00 0. -1.
         21    1    1    2  506  505 -0.50582251979E+02  0.38232759653E+02 -0.91094624089E+02  0.11098891235E+03  0.00000000000E+00 0. -1.
<scales pt_clust_3="14000.00000" pt_clust_4="31.69205" pt_clust_5="96.79243" pt_clust_6="74.15818"></scales>
<clustering>
<clus scale="   31.692">  2  4  1 -1</clus>
<clus scale="   74.158">  2  6  1 -1</clus>
<clus scale="   96.792">  1  5  2 -1</clus>
<clus scale="   96.792">  1  3  2 -1</clus>
</clustering>
</event>
<event>
 6    0  0.8991567E+002  0.1115714E+03  0.7546771E-02  0.1257687E+00
         21   -1    0    0  503  501  0.00000000000E+00  0.00000000000E+00  0.23526103430E+03  0.23526103430E+03  0.00000000000E+00 0. -1.
         21   -1    0    0  505  502 -0.00000000000E+00 -0.00000000000E+00 -0.12792088255E+04  0.12792088255E+04  0.00000000000E+00 0.  1.
         21    1    1    2  503  502 -0.27201209928E+02  0.14857869863E+03 -0.30836860049E+03  0.34337549312E+03  0.00000000000E+00 0.  1.
         21    1    1    2  504  501  0.26904358407E+02 -0.43853521023E+02  0.58013903439E+02  0.77540884697E+02  0.00000000000E+00 0. -1.
         21    1    1    2  505  506  0.74525802401E+02 -0.45016534866E+02 -0.92619576625E+03  0.93027908773E+03  0.00000000000E+00 0.  1.
         21    1    1    2  506  504 -0.74228950881E+02 -0.59708642738E+02  0.13260267211E+03  0.16327439425E+03  0.00000000000E+00 0. -1.
<scales pt_clust_3="111.57145" pt_clust_4="51.44877" pt_clust_5="87.62415" pt_clust_6="14000.00000"></scales>
<clustering>
<clus scale="   51.449">  1  4  2 -1</clus>
<clus scale="   87.624">  2  5  1 -1</clus>
<clus scale="  111.571">  2  3  1 -1</clus>
<clus scale="   51.449">  1  3  2 -1</clus>
</clustering>
</event>
<event>
 6    0  0.8991567E+002  0.1139548E+03  0.7546771E-02  0.1253417E+00
         21   -1    0    0  505  501  0.00000000000E+00  0.00000000000E+00  0.26432424243E+03  0.26432424243E+03  0.00000000000E+00 0. -1.
         21   -1    0    0  504  502 -0.00000000000E+00 -0.00000000000E+00 -0.19773978644E+03  0.19773978644E+03  0.00000000000E+00 0. -1.
         21    1    1    2  503  502 -0.16463289020E+02  0.10097291735E+03  0.75650022575E+02  0.12723794968E+03  0.00000000000E+00 0. -1.
         21    1    1    2  504  506 -0.20377421714E+02 -0.54911656308E+02 -0.68583921196E+02  0.90190263115E+02  0.00000000000E+00 0. -1.
         21    1    1    2  505  503 -0.22789460891E+02  0.34010289639E+02  0.12076142166E+03  0.12751227506E+03  0.00000000000E+00 0. -1.
         21    1    1    2  506  501  0.59630171624E+02 -0.80071550681E+02 -0.61243067051E+02  0.11712354101E+03  0.00000000000E+00 0. -1.
<scales pt_clust_3="14000.00000" pt_clust_4="56.78221" pt_clust_5="40.93970" pt_clust_6="113.95481"></scales>
<clustering>
<clus scale="   40.940">  1  5  2 -1</clus>
<clus scale="   56.782">  2  4  1 -1</clus>
<clus scale="  113.955">  2  6  1 -1</clus>
<clus scale="   40.940">  1  3  2 -1</clus>
</clustering>
</event>
<event>
 6    0  0.8991567E+002  0.1308114E+03  0.7546771E-02  0.1226257E+00
         21   -1    0    0  506  501  0.00000000000E+00  0.00000000000E+00  0.13797115949E+04  0.13797115949E+04  0.00000000000E+00 0.  1.
         21   -1    0    0  504  502 -0.00000000000E+00 -0.00000000000E+00 -0.10466608006E+03  0.10466608006E+03  0.00000000000E+00 0. -1.
         21    1    1    2  503  505  0.65035082129E+02 -0.49650815322E+02  0.84599133333E+03  0.84993888100E+03  0.00000000000E+00 0.  1.
         21    1    1    2  504  501 -0.94909872933E+02  0.73036033389E+02 -0.53412831146E+02  0.13112999918E+03  0.00000000000E+00 0. -1.
         21    1    1    2  505  502 -0.19144054596E+02 -0.26269982251E+02  0.19837443967E+02  0.38080585302E+02  0.00000000000E+00 0. -1.
         21    1    1    2  506  503  0.49018845401E+02  0.28847641840E+01  0.46262956865E+03  0.46522820944E+03  0.00000000000E+00 0.  1.
<scales pt_clust_3="34.37300" pt_clust_4="123.00885" pt_clust_5="32.50549" pt_clust_6="34.37300"></scales>
<clustering>
<clus scale="   32.505">  2  5  1 -1</clus>
<clus scale="   34.373">  3  6 -1 -1</clus>
<clus scale="  123.009">  2  4  1 -1</clus>
<clus scale="  130.811">  1  3  2 -1</clus>
</clustering>
</event>
<event>
 6    0  0.8991567E+002  0.1051006E+03  0.7546771E-02  0.1269922E+00
         21   -1    0    0  506  501  0.00000000000E+00  0.00000000000E+00  0.18381256459E+04  0.18381256459E+04  0.00000000000E+00 0.  1.
         21   -1    0    0  503  502 -0.00000000000E+00 -0.00000000000E+00 -0.16790434704E+03  0.16790434704E+03  0.00000000000E+00 0. -1.
         21    1    1    2  503  504  0.49598101126E+02 -0.27843058287E+02 -0.84122680836E+01  0.57497598075E+02  0.00000000000E+00 0. -1.
         21    1    1    2  504  505 -0.90526868543E+02  0.31435355060E+02  0.15242682387E+03  0.18004786061E+03  0.00000000000E+00 0.  1.
         21    1    1    2  505  501 -0.31073692747E+01  0.39380047377E+02  0.16392793796E+04  0.16397552647E+04  0.00000000000E+00 0.  1.
         21    1    1    2  506  502  0.44036136692E+02 -0.42972344150E+02 -0.11307263652E+03  0.12872926950E+03  0.00000000000E+00 0. -1.
<scales pt_clust_3="54.31353" pt_clust_4="105.10061" pt_clust_5="39.50245" pt_clust_6="14000.00000"></scales>
<clustering>
<clus scale="   39.502">  1  5  2 -1</clus>
<clus scale="   54.314">  2  3  1 -1</clus>
<clus scale="  105.101">  1  4  2 -1</clus>
<clus scale="   39.502">  1  3  2 -1</clus>
</clustering>
</event>
<event>
 6    0  0.4020730E+003  0.1385394E+03  0.7546771E-02  0.1215308E+00
         21   -1    0    0  504  501  0.00000000000E+00  0.00000000000E+00  0.31010739386E+03  0.31010739386E+03  0.00000000000E+00 0. -1.
         21   -1    0    0  506  502 -0.00000000000E+00 -0.00000000000E+00 -0.15356404399E+04  0.15356404399E+04  0.00000000000E+00 0.  1.
         21    1    1    2  503  502 -0.26748800519E+02 -0.38197231855E+02 -0.18529800573E+03  0.19107558132E+03  0.00000000000E+00 0.  1.
         21    1    1    2  504  505  0.76753176628E+02  0.11582081445E+03  0.28182934034E+03  0.31421853583E+03  0.00000000000E+00 0. -1.
         21    1    1    2  505  503 -0.86297281347E+02 -0.70538124093E+02 -0.12783384479E+04  0.12831882306E+04  0.00000000000E+00 0.  1.
         21    1    1    2  506  501  0.36292905238E+02 -0.70854584974E+01 -0.43725932723E+02  0.57265485987E+02  0.00000000000E+00 0.  1.
<scales pt_clust_3="44.93380" pt_clust_4="14000.00000" pt_clust_5="138.53939" pt_clust_6="36.97808"></scales>
<clustering>
<clus scale="   36.978">  2  6  1 -1</clus>
<clus scale="   44.934">  2  3  1 -1</clus>
<clus scale="  138.539">  2  5  1 -1</clus>
<clus scale="  138.539">  1  3  2 -1</clus>
</clustering>
</event>
<event>
 6    0  0.8991567E+002  0.1288989E+03  0.7546771E-02  0.1229099E+00
         21   -1    0    0  506  501  0.00000000000E+00  0.00000000000E+00  0.81332829352E+03  0.81332829352E+03  0.00000000000E+00 0.  1.
         21   -1    0    0  504  502 -0.00000000000E+00 -0.00000000000E+00 -0.71771438067E+03  0.71771438067E+03  0.00000000000E+00 0.  1.
         21    1    1    2  503  502 -0.24264173598E+02 -0.23489676427E+02 -0.48883144944E+03  0.48999663364E+03  0.00000000000E+00 0.  1.
         21    1    1    2  504  501  0.11481594362E+03  0.95786155358E+02 -0.61075401304E+02  0.16151746999E+03  0.00000000000E+00 0.  1.
         21    1    1    2  505  503 -0.10395593578E+03 -0.39827900003E+02 -0.90009460802E+02  0.14316005461E+03  0.00000000000E+00 0.  1.
         21    1    1    2  506  505  0.13404165764E+02 -0.32468578928E+02  0.73553022439E+03  0.73636851595E+03  0.00000000000E+00 0.  1.
<scales pt_clust_3="33.77151" pt_clust_4="14000.00000" pt_clust_5="128.89886" pt_clust_6="35.14954"></scales>
<clustering>
<clus scale="   33.772">  2  3  1 -1</clus>
<clus scale="   35.150">  1  6  2 -1</clus>
<clus scale="  128.899">  2  5  1 -1</clus>
<clus scale="   35.150">  1  3  2 -1</clus>
</clustering>
</event>
<event>
 6    0  0.8991567E+002  0.1393564E+03  0.7546771E-02  0.1214198E+00
         21   -1    0    0  505  501  0.00000000000E+00  0.00000000000E+00  0.18773809815E+04  0.18773809815E+04  0.00000000000E+00 0. -1.
         21   -1    0    0  506  502 -0.00000000000E+00 -0.00000000000E+00 -0.21706340030E+04  0.21706340030E+04  0.00000000000E+00 0. -1.
         21    1    1    2  503  502  0.11667307751E+03  0.17964719524E+02 -0.20427500892E+04  0.20461581720E+04  0.00000000000E+00 0. -1.
         21    1    1    2  504  503 -0.91829301145E+02  0.27960179858E+02  0.32343689397E+03  0.33738081834E+03  0.00000000000E+00 0. -1.
         21    1    1    2  505  504 -0.48176238255E+02 -0.22072357154E+02  0.15424692490E+04  0.15433792544E+04  0.00000000000E+00 0. -1.
         21    1    1    2  506  501  0.23332461888E+02 -0.23852542228E+02 -0.11640907534E+03  0.12109673971E+03  0.00000000000E+00 0. -1.
<scales pt_clust_3="14000.00000" pt_clust_4="139.35641" pt_clust_5="52.98938" pt_clust_6="33.36686"></scales>
<clustering>
<clus scale="   33.367">  2  6  1 -1</clus>
<clus scale="   52.989">  1  5  2 -1</clus>
<clus scale="  139.356">  1  4  2 -1</clus>
<clus scale="   52.989">  1  3  2 -1</clus>
</clustering>
</event>
<event>
 6    0  0.8991567E+002  0.1332210E+03  0.7546771E-02  0.1222753E+00
         21   -1    0    0  503  501  0.00000000000E+00  0.00000000000E+00  0.27886164887E+03  0.27886164887E+03  0.00000000000E+00 0. -1.
         21   -1    0    0  504  502 -0.00000000000E+00 -0.00000000000E+00 -0.20012933761E+03  0.20012933761E+03  0.00000000000E+00 0. -1.
         21    1    1    2  503  505  0.25148986101E+02 -0.11329638893E+03  0.33779379937E+02  0.12087013592E+03  0.00000000000E+00 0. -1.
         21    1    1    2  504  506 -0.64174796107E+02  0.49234420603E+02  0.68564331472E+02  0.10603537229E+03  0.00000000000E+00 0. -1.
         21    1    1    2  505  502  0.57796411656E+02  0.14031249147E+02 -0.12446789430E+03  0.13794766350E+03  0.00000000000E+00 0. -1.
         21    1    1    2  506  501 -0.18770601650E+02  0.50030719184E+02  0.10085649415E+03  0.11413781477E+03  0.00000000000E+00 0. -1.
<scales pt_clust_3="121.27866" pt_clust_4="44.80946" pt_clust_5="59.47521" pt_clust_6="44.80946"></scales>
<clustering>
<clus scale="   44.809">  4  6 -1 -1</clus>
<clus scale="   59.475">  2  5  1 -1</clus>
<clus scale="  121.279">  2  3  1 -1</clus>
<clus scale="  133.221">  1  3  2 -1</clus>
</clustering>
</event>
<event>
 6    0  0.8991567E+002  0.1654044E+03  0.7546771E-02  0.1182727E+00
         21   -1    0    0  504  501  0.00000000000E+00  0.00000000000E+00  0.45222205926E+03  0.45222205926E+03  0.00000000000E+00 0. -1.
         21   -1    0    0  503  502 -0.00000000000E+00 -0.00000000000E+00 -0.20071863507E+03  0.20071863507E+03  0.00000000000E+00 0.  1.
         21    1    1    2  503  506  0.93844782948E+02 -0.13754182867E+02 -0.30305664707E+02  0.99571352036E+02  0.00000000000E+00 0.  1.
         21    1    1    2  504  502  0.80633191966E+01  0.59550067368E+02 -0.41302612085E+02  0.72918676655E+02  0.00000000000E+00 0.  1.
         21    1    1    2  505  501 -0.15372321003E+03 -0.52990991508E+02  0.37378475259E+03  0.40761981276E+03  0.00000000000E+00 0. -1.
         21    1    1    2  506  505  0.51815107890E+02  0.71951070071E+01 -0.50673051617E+02  0.72830852876E+02  0.00000000000E+00 0. -1.
<scales pt_clust_3="32.41552" pt_clust_4="60.09349" pt_clust_5="159.54141" pt_clust_6="32.41552"></scales>
<clustering>
<clus scale="   32.416">  3  6 -1 -1</clus>
<clus scale="   60.093">  2  4  1 -1</clus>
<clus scale="  159.541">  1  5  2 -1</clus>
<clus scale="  159.541">  1  3  2 -1</clus>
</clustering>
</event>
<event>
 6    0  0.8991567E+002  0.2048949E+03  0.7546771E-02  0.1145674E+00
         21   -1    0    0  503  501  0.00000000000E+00  0.00000000000E+00  0.17544879489E+04  0.17544879489E+04  0.00000000000E+00 0.  1.
         21   -1    0    0  504  502 -0.00000000000E+00 -0.00000000000E+00 -0.25093027408E+03  0.25093027408E+03  0.00000000000E+00 0. -1.
         21    1    1    2  503  506  0.13617746904E+03  0.11721077205E+03  0.15718510312E+04  0.15820867019E+04  0.00000000000E+00 0.  1.
         21    1    1    2  504  505 -0.10200972686E+03 -0.14397948961E+03 -0.13646916479E+03  0.22306929583E+03  0.00000000000E+00 0. -1.
         21    1    1    2  505  501  0.18207308522E+02 -0.57487944828E+02 -0.23941860449E+02  0.64881295964E+02  0.00000000000E+00 0. -1.
         21    1    1    2  506  502 -0.52375050705E+02  0.84256662379E+02  0.92117668908E+02  0.13538092929E+03  0.00000000000E+00 0. -1.
<scales pt_clust_3="180.02788" pt_clust_4="57.19387" pt_clust_5="57.19387" pt_clust_6="99.20852"></scales>
<clustering>
<clus scale="   57.194">  4  5 -1 -1</clus>
<clus scale="   99.209">  2  6  1 -1</clus>
<clus scale="  180.028">  1  3  2 -1</clus>
<clus scale="  180.028">  1  3  2 -1</clus>
</clustering>
</event>
<event>
 6    0  0.8991567E+002  0.9435914E+02  0.7546771E-02  0.1292626E+00
         21   -1    0    0  504  501  0.00000000000E+00  0.00000000000E+00  0.13424487446E+03  0.13424487446E+03  0.00000000000E+00 0.  1.
         21   -1    0    0  505  502 -0.00000000000E+00 -0.00000000000E+00 -0.33361902875E+03  0.33361902875E+03  0.00000000000E+00 0. -1.
         21    1    1    2  503  501  0.79675092175E+02 -0.64413236911E+02  0.79385167911E+02  0.12961169039E+03  0.00000000000E+00 0.  1.
         21    1    1    2  504  506 -0.54613241681E+02  0.32510715411E+02 -0.86888685438E+02  0.10765313019E+03  0.00000000000E+00 0. -1.
         21    1    1    2  505  503 -0.18655545059E+02 -0.45999264541E+02 -0.69911251460E+02  0.85741149867E+02  0.00000000000E+00 0.  1.
         21    1    1    2  506  502 -0.64063054342E+01  0.77901786041E+02 -0.12195938531E+03  0.14485793275E+03  0.00000000000E+00 0. -1.
<scales pt_clust_3="14000.00000" pt_clust_4="94.35914" pt_clust_5="49.63831" pt_clust_6="56.27395"></scales>
<clustering>
<clus scale="   49.638">  2  5  1 -1</clus>
<clus scale="   56.274">  2  6  1 -1</clus>
<clus scale="   94.359">  2  4  1 -1</clus>
<clus scale="   94.359">  1  3  2 -1</clus>
</clustering>
</event>
<event>
 6    0  0.8991567E+002  0.6577821E+02  0.7546771E-02  0.1375068E+00
         21   -1    0    0  504  501  0.00000000000E+00  0.00000000000E+00  0.22615671735E+04  0.22615671735E+04  0.00000000000E+00 0.  1.
         21   -1    0    0  505  502 -0.00000000000E+00 -0.00000000000E+00 -0.36306966109E+02  0.36306966109E+02  0.00000000000E+00 0. -1.
         21    1    1    2  503  501  0.18214128870E+02 -0.29365435747E+02  0.27732603981E+03  0.27947059893E+03  0.00000000000E+00 0. -1.
         21    1    1    2  504  502 -0.22302955034E+02  0.78008180559E+02  0.17906478593E+04  0.17924849941E+04  0.00000000000E+00 0.  1.
         21    1    1    2  505  506  0.64973556843E+02 -0.26709808576E+02  0.18283734496E+02  0.72589750724E+02  0.00000000000E+00 0. -1.
         21    1    1    2  506  503 -0.60884730679E+02 -0.21932936236E+02  0.13900257376E+03  0.15332879584E+03  0.00000000000E+00 0. -1.
<scales pt_clust_3="34.55551" pt_clust_4="51.81102" pt_clust_5="65.77821" pt_clust_6="14000.00000"></scales>
<clustering>
<clus scale="   34.556">  1  3  2 -1</clus>
<clus scale="   51.811">  1  4  2 -1</clus>
<clus scale="   65.778">  2  5  1 -1</clus>
<clus scale="   34.556">  1  3  2 -1</clus>
</clustering>
</event>
<event>
 6    0  0.8991567E+002  0.8357993E+02  0.7546771E-02  0.1319189E+00
         21   -1    0    0  504  501  0.00000000000E+00  0.00000000000E+00  0.13172806066E+03  0.13172806066E+03  0.00000000000E+00 0.  1.
         21   -1    0    0  505  502 -0.00000000000E+00 -0.00000000000E+00 -0.21997071396E+04  0.21997071396E+04  0.00000000000E+00 0. -1.
         21    1    1    2  503  502 -0.12606915369E+02  0.29399328207E+02 -0.19327463093E+04  0.19330110064E+04  0.00000000000E+00 0. -1.
         21    1    1    2  504  503  0.33134047847E+02  0.81840901444E+02  0.22685290088E+02  0.91161508666E+02  0.00000000000E+00 0.  1.
         21    1    1    2  505  506 -0.41559467933E+02 -0.26383126742E+02 -0.20301074322E+03  0.20889380224E+03  0.00000000000E+00 0. -1.
         21    1    1    2  506  501  0.21032335455E+02 -0.84857102909E+02  0.45092683413E+02  0.98368883018E+02  0.00000000000E+00 0.  1.
<scales pt_clust_3="31.98835" pt_clust_4="83.57993" pt_clust_5="51.42280" pt_clust_6="14000.00000"></scales>
<clustering>
<clus scale="   31.988">  2  3  1 -1</clus>
<clus scale="   51.423">  2  5  1 -1</clus>
<clus scale="   83.580">  2  4  1 -1</clus>
<clus scale="   83.580">  1  3  2 -1</clus>
</clustering>
</event>
<event>
 6    0  0.8991567E+002  0.1242088E+03  0.7546771E-02  0.1236311E+00
         21   -1    0    0  505  501  0.00000000000E+00  0.00000000000E+00  0.29472940068E+04  0.29472940068E+04  0.00000000000E+00 0.  1.
         21   -1    0    0  504  502 -0.00000000000E+00 -0.00000000000E+00 -0.20085863403E+02  0.20085863403E+02  0.00000000000E+00 0.  1.
         21    1    1    2  503  502  0.31004734689E+02  0.39618022184E+02  0.88842318376E+02  0.10209720265E+03  0.00000000000E+00 0.  1.
         21    1    1    2  504  506 -0.33170329330E+02 -0.88049603058E+01  0.63551156533E+02  0.72225671133E+02  0.00000000000E+00 0.  1.
         21    1    1    2  505  503  0.58431364452E+02  0.10399759404E+03  0.20609304267E+04  0.20643797973E+04  0.00000000000E+00 0.  1.
         21    1    1    2  506  501 -0.56265769810E+02 -0.13481065592E+03  0.71388424177E+03  0.72867719907E+03  0.00000000000E+00 0.  1.
<scales pt_clust_3="39.75269" pt_clust_4="34.31906" pt_clust_5="124.20882" pt_clust_6="14000.00000"></scales>
<clustering>
<clus scale="   34.319">  2  4  1 -1</clus>
<clus scale="   39.753">  2  3  1 -1</clus>
<clus scale="  124.209">  1  5  2 -1</clus>
<clus scale="  124.209">  1  3  2 -1</clus>
</clustering>
</event>
<event>
 6    0  0.8991567E+002  0.1043094E+03  0.7546771E-02  0.1271486E+00
         21   -1    0    0  505  501  0.00000000000E+00  0.00000000000E+00  0.12142607667E+03  0.12142607667E+03  0.00000000000E+00 0.  1.
         21   -1    0    0  503  502 -0.00000000000E+00 -0.00000000000E+00 -0.58276087722E+03  0.58276087722E+03  0.00000000000E+00 0.  1.
         21    1    1    2  503  504  0.21920674419E+02 -0.24576920631E+02 -0.17237154324E+03  0.17548928718E+03  0.00000000000E+00 0.  1.
         21    1    1    2  504  501 -0.13349761016E+02  0.92591411028E+02 -0.38160565335E+02  0.10103273857E+03  0.00000000000E+00 0.  1.
         21    1    1    2  505  506  0.89153173579E+02 -0.11732113124E+02  0.52464991428E+02  0.10410814648E+03  0.00000000000E+00 0.  1.
         21    1    1    2  506  502 -0.97724086981E+02 -0.56282377274E+02 -0.30326768340E+03  0.32355678167E+03  0.00000000000E+00 0.  1.
<scales pt_clust_3="32.93237" pt_clust_4="88.92925" pt_clust_5="104.30935" pt_clust_6="14000.00000"></scales>
<clustering>
<clus scale="   32.932">  2  3  1 -1</clus>
<clus scale="   88.929">  1  4  2 -1</clus>
<clus scale="  104.309">  1  5  2 -1</clus>
<clus scale="   88.929">  1  3  2 -1</clus>
</clustering>
</event>
<event>
 6    0  0.8991567E+002  0.7667272E+02  0.7546771E-02  0.1338768E+00
         21   -1    0    0  505  501  0.00000000000E+00  0.00000000000E+00  0.31491622581E+02  0.31491622581E+02  0.00000000000E+00 0. -1.
         21   -1    0    0  506  502 -0.00000000000E+00 -0.00000000000E+00 -0.14216814312E+04  0.14216814312E+04  0.00000000000E+00 0.  1.
         21    1    1    2  503  501  0.38371675769E+02  0.75629775010E+01 -0.26850487214E+02  0.47439780708E+02  0.00000000000E+00 0. -1.
         21    1    1    2  504  503 -0.48348665298E+01 -0.80245137340E+02 -0.10355589068E+03  0.13109721773E+03  0.00000000000E+00 0. -1.
         21    1    1    2  505  502  0.34395027017E+02  0.77667989591E+02 -0.28281160435E+03  0.29529263120E+03  0.00000000000E+00 0. -1.
         21    1    1    2  506  504 -0.67931836256E+02 -0.49858297513E+01 -0.97697182635E+03  0.97934342411E+03  0.00000000000E+00 0.  1.
<scales pt_clust_3="39.10990" pt_clust_4="14000.00000" pt_clust_5="76.67272" pt_clust_6="65.94329"></scales>
<clustering>
<clus scale="   39.110">  1  3  2 -1</clus>
<clus scale="   65.943">  2  6  1 -1</clus>
<clus scale="   76.673">  2  5  1 -1</clus>
<clus scale="   39.110">  1  3  2 -1</clus>
</clustering>
</event>
<event>
 6    0  0.8991567E+002  0.9240312E+02  0.7546771E-02  0.1297134E+00
         21   -1    0    0  503  501  0.00000000000E+00  0.00000000000E+00  0.17881148054E+03  0.17881148054E+03  0.00000000000E+00 0.  1.
         21   -1    0    0  505  502 -0.00000000000E+00 -0.00000000000E+00 -0.57674835032E+03  0.57674835032E+03  0.00000000000E+00 0. -1.
         21    1    1    2  503  504 -0.71724611170E+02 -0.22647544433E+02 -0.91568559894E+02  0.11849950328E+03  0.00000000000E+00 0. -1.
         21    1    1    2  504  502 -0.38526604894E+02 -0.53873667871E+01 -0.43402334224E+03  0.43576322081E+03  0.00000000000E+00 0. -1.
         21    1    1    2  505  506  0.82875167977E+02 -0.22666506145E+02  0.36264555290E+02  0.93258682912E+02  0.00000000000E+00 0.  1.
         21    1    1    2  506  501  0.27376048087E+02  0.50701417365E+02  0.91390477065E+02  0.10803842386E+03  0.00000000000E+00 0.  1.
<scales pt_clust_3="92.40312" pt_clust_4="38.90145" pt_clust_5="14000.00000" pt_clust_6="56.29793"></scales>
<clustering>
<clus scale="   38.901">  2  4  1 -1</clus>
<clus scale="   56.298">  1  6  2 -1</clus>
<clus scale="   92.403">  2  3  1 -1</clus>
<clus scale="   56.298">  1  3  2 -1</clus>
</clustering>
</event>
<event>
 6    0  0.8991567E+002  0.9407616E+02  0.7546771E-02  0.1293270E+00
         21   -1    0    0  506  501  0.00000000000E+00  0.00000000000E+00  0.17234973833E+03  0.17234973833E+03  0.00000000000E+00 0. -1.
         21   -1    0    0  503  502 -0.00000000000E+00 -0.00000000000E+00 -0.10849474434E+04  0.10849474434E+04  0.00000000000E+00 0.  1.
         21    1    1    2  503  505  0.77744454447E+02  0.21420223627E+02 -0.75730184640E+02  0.11062588776E+03  0.00000000000E+00 0. -1.
         21    1    1    2  504  502 -0.28912217154E+02  0.39888042182E+02 -0.54015591981E+03  0.54239781519E+03  0.00000000000E+00 0.  1.
         21    1    1    2  505  501  0.29935805088E+02 -0.66634975213E+02  0.14137352088E+03  0.15913153287E+03  0.00000000000E+00 0. -1.
         21    1    1    2  506  504 -0.78768042381E+02  0.53267094033E+01 -0.43808512148E+03  0.44514194589E+03  0.00000000000E+00 0.  1.
<scales pt_clust_3="14000.00000" pt_clust_4="49.26431" pt_clust_5="72.26294" pt_clust_6="94.07616"></scales>
<clustering>
<clus scale="   49.264">  2  4  1 -1</clus>
<clus scale="   72.263">  1  5  2 -1</clus>
<clus scale="   94.076">  2  6  1 -1</clus>
<clus scale="   72.263">  1  3  2 -1</clus>
</clustering>
</event>
<event>
 6    0  0.8991567E+002  0.8998253E+02  0.7546771E-02  0.1302894E+00
         21   -1    0    0  506  501  0.00000000000E+00  0.00000000000E+00  0.31477904363E+03  0.31477904363E+03  0.00000000000E+00 0. -1.
         21   -1    0    0  505  502 -0.00000000000E+00 -0.00000000000E+00 -0.17013479191E+04  0.17013479191E+04  0.00000000000E+00 0. -1.
         21    1    1    2  503  501  0.34205175006E+02  0.52371407905E+02  0.13607145636E+03  0.14976047409E+03  0.00000000000E+00 0. -1.
         21    1    1    2  504  502 -0.39748729380E+02  0.62367831159E+02 -0.92429938694E+02  0.11837652393E+03  0.00000000000E+00 0. -1.
         21    1    1    2  505  503  0.65977819878E+02  0.26866168954E+02 -0.15507926625E+04  0.15524280163E+04  0.00000000000E+00 0. -1.
         21    1    1    2  506  504 -0.60434265504E+02 -0.14160540802E+03  0.12058226929E+03  0.19556194848E+03  0.00000000000E+00 0. -1.
<scales pt_clust_3="62.55205" pt_clust_4="14000.00000" pt_clust_5="71.48297" pt_clust_6="89.98253"></scales>
<clustering>
<clus scale="   62.552">  1  3  2 -1</clus>
<clus scale="   71.483">  2  5  1 -1</clus>
<clus scale="   89.983">  1  6  2 -1</clus>
<clus scale="   62.552">  1  3  2 -1</clus>
</clustering>
</event>
<event>
 6    0  0.8991567E+002  0.5841917E+02  0.7546771E-02  0.1404588E+00
         21   -1    0    0  505  501  0.00000000000E+00  0.00000000000E+00  0.27818712941E+03  0.27818712941E+03  0.00000000000E+00 0. -1.
         21   -1    0    0  503  502 -0.00000000000E+00 -0.00000000000E+00 -0.14729665582E+04  0.14729665582E+04  0.00000000000E+00 0. -1.
         21    1    1    2  503  504  0.42066323930E+02  0.46638275141E+02 -0.12319346009E+04  0.12335345821E+04  0.00000000000E+00 0. -1.
         21    1    1    2  504  506 -0.56103562803E+02  0.65820198074E+01 -0.18787312725E+03  0.19618166246E+03  0.00000000000E+00 0.  1.
         21    1    1    2  505  502 -0.37560636341E+02  0.22710160308E+02 -0.28140017461E+02  0.52138405866E+02  0.00000000000E+00 0. -1.
         21    1    1    2  506  501  0.51597875214E+02 -0.75930455256E+02  0.25316831685E+03  0.26929903717E+03  0.00000000000E+00 0. -1.
<scales pt_clust_3="58.41917" pt_clust_4="14000.00000" pt_clust_5="43.89251" pt_clust_6="55.63028"></scales>
<clustering>
<clus scale="   43.893">  1  5  2 -1</clus>
<clus scale="   55.630">  1  6  2 -1</clus>
<clus scale="   58.419">  2  3  1 -1</clus>
<clus scale="   43.893">  1  3  2 -1</clus>
</clustering>
</event>
<event>
 6    0  0.8991567E+002  0.1024585E+03  0.7546771E-02  0.1275209E+00
         21   -1    0    0  505  501  0.00000000000E+00  0.00000000000E+00  0.55575684801E+03  0.55575684801E+03  0.00000000000E+00 0. -1.
         21   -1    0    0  503  502 -0.00000000000E+00 -0.00000000000E+00 -0.17374837991E+03  0.17374837991E+03  0.00000000000E+00 0. -1.
         21    1    1    2  503  501  0.37184983715E+02  0.52480311563E+02 -0.11782110300E+02  0.65389022311E+02  0.00000000000E+00 0. -1.
         21    1    1    2  504  502 -0.10985040407E+02 -0.14192445531E+03 -0.90974918506E+02  0.16893684596E+03  0.00000000000E+00 0. -1.
         21    1    1    2  505  506 -0.24602821930E+02  0.28093048808E+02  0.23712066741E+03  0.24004318184E+03  0.00000000000E+00 0. -1.
         21    1    1    2  506  504 -0.15971213779E+01  0.61351094934E+02  0.24764482950E+03  0.25513617780E+03  0.00000000000E+00 0. -1.
<scales pt_clust_3="64.31879" pt_clust_4="94.75986" pt_clust_5="30.39505" pt_clust_6="30.39505"></scales>
<clustering>
<clus scale="   30.395">  5  6 -1 -1</clus>
<clus scale="   64.319">  2  3  1 -1</clus>
<clus scale="   94.760">  2  4  1 -1</clus>
<clus scale="  102.459">  1  3  2 -1</clus>
</clustering>
</event>
<event>
 6    0  0.8991567E+002  0.1120534E+03  0.7546771E-02  0.1256814E+00
         21   -1    0    0  505  501  0.00000000000E+00  0.00000000000E+00  0.23117590355E+04  0.23117590355E+04  0.00000000000E+00 0. -1.
         21   -1    0    0  503  502 -0.00000000000E+00 -0.00000000000E+00 -0.13289965936E+03  0.13289965936E+03  0.00000000000E+00 0.  1.
         21    1    1    2  503  504  0.80069454392E+02  0.79796243848E+02 -0.99992403482E+02  0.15092063747E+03  0.00000000000E+00 0.  1.
         21    1    1    2  504  501  0.19739425664E+02 -0.84990797970E+02  0.16901209970E+04  0.16923717278E+04  0.00000000000E+00 0. -1.
         21    1    1    2  505  506 -0.45695838581E+02 -0.17013075139E+02  0.12861920012E+03  0.13755163768E+03  0.00000000000E+00 0. -1.
         21    1    1    2  506  502 -0.54113041475E+02  0.22207629261E+02  0.46011158249E+03  0.46381469187E+03  0.00000000000E+00 0. -1.
<scales pt_clust_3="112.05343" pt_clust_4="14000.00000" pt_clust_5="48.76017" pt_clust_6="66.45829"></scales>
<clustering>
<clus scale="   48.760">  1  5  2 -1</clus>
<clus scale="   66.458">  1  6  2 -1</clus>
<clus scale="  112.053">  2  3  1 -1</clus>
<clus scale="   48.760">  1  3  2 -1</clus>
</clustering>
</event>
<event>
 6    0  0.8991567E+002  0.6867622E+02  0.7546771E-02  0.1364653E+00
         21   -1    0    0  503  501  0.00000000000E+00  0.00000000000E+00  0.10178493623E+04  0.10178493623E+04  0.00000000000E+00 0.  1.
         21   -1    0    0  506  502 -0.00000000000E+00 -0.00000000000E+00 -0.25815717588E+02  0.25815717588E+02  0.00000000000E+00 0.  1.
         21    1    1    2  503  505  0.70421698538E+02 -0.45587623256E+02  0.33883228495E+03  0.34906269400E+03  0.00000000000E+00 0.  1.
         21    1    1    2  504  501 -0.49874715396E+02 -0.16247962150E+02  0.38741137680E+03  0.39094636254E+03  0.00000000000E+00 0.  1.
         21    1    1    2  505  502  0.33681360091E+02  0.81025715717E+02  0.13827820097E+03  0.16376953773E+03  0.00000000000E+00 0.  1.
         21    1    1    2  506  504 -0.54228343232E+02 -0.19190130310E+02  0.12751178200E+03  0.13988648562E+03  0.00000000000E+00 0.  1.
<scales pt_clust_3="65.67200" pt_clust_4="52.45459" pt_clust_5="14000.00000" pt_clust_6="68.67622"></scales>
<clustering>
<clus scale="   52.455">  1  4  2 -1</clus>
<clus scale="   68.676">  2  6  1 -1</clus>
<clus scale="   65.672">  1  3  2 -1</clus>
<clus scale="   52.455">  1  3  2 -1</clus>
</clustering>
</event>
<event>
 6    0  0.8991567E+002  0.1227219E+03  0.7546771E-02  0.1238673E+00
         21   -1    0    0  503  501  0.00000000000E+00  0.00000000000E+00  0.62608061404E+02  0.62608061404E+02  0.00000000000E+00 0.  1.
         21   -1    0    0  506  502 -0.00000000000E+00 -0.00000000000E+00 -0.34472753474E+03  0.34472753474E+03  0.00000000000E+00 0.  1.
         21    1    1    2  503  504 -0.79353793939E+02 -0.67163833463E+02 -0.47454156398E+02  0.11427992867E+03  0.00000000000E+00 0.  1.
         21    1    1    2  504  502 -0.34817818386E+02  0.61193376890E+01 -0.43756873763E+02  0.56252917902E+02  0.00000000000E+00 0.  1.
         21    1    1    2  505  501  0.57835081992E+02  0.45965314260E+01 -0.59618657667E+02  0.83188996581E+02  0.00000000000E+00 0.  1.
         21    1    1    2  506  505  0.56336530333E+02  0.56447964348E+02 -0.13128978551E+03  0.15361375299E+03  0.00000000000E+00 0.  1.
<scales pt_clust_3="110.42080" pt_clust_4="35.35147" pt_clust_5="44.73013" pt_clust_6="44.73013"></scales>
<clustering>
<clus scale="   35.351">  2  4  1 -1</clus>
<clus scale="   44.730">  5  6 -1 -1</clus>
<clus scale="  110.421">  1  3  2 -1</clus>
<clus scale="  110.421">  1  3  2 -1</clus>
</clustering>
</event>
<event>
 6    0  0.8991567E+002  0.1144953E+03  0.7546771E-02  0.1252465E+00
         21   -1    0    0  504  501  0.00000000000E+00  0.00000000000E+00  0.44634217916E+03  0.44634217916E+03  0.00000000000E+00 0.  1.
         21   -1    0    0  503  502 -0.00000000000E+00 -0.00000000000E+00 -0.51777492309E+03  0.51777492309E+03  0.00000000000E+00 0.  1.
         21    1    1    2  503  501  0.73521144911E+02  0.11069382589E+03  0.27278636224E+03  0.30343183957E+03  0.00000000000E+00 0.  1.
         21    1    1    2  504  506  0.86028121629E+01 -0.29368654398E+02  0.14411414869E+03  0.14732757411E+03  0.00000000000E+00 0. -1.
         21    1    1    2  505  502 -0.29063935357E+02 -0.46158667479E+02 -0.63194624574E+02  0.83479910739E+02  0.00000000000E+00 0.  1.
         21    1    1    2  506  505 -0.53060021717E+02 -0.35166504014E+02 -0.42513863029E+03  0.42987777783E+03  0.00000000000E+00 0.  1.
<scales pt_clust_3="14000.00000" pt_clust_4="30.60272" pt_clust_5="55.23589" pt_clust_6="114.49531"></scales>
<clustering>
<clus scale="   30.603">  1  4  2 -1</clus>
<clus scale="   55.236">  2  5  1 -1</clus>
<clus scale="  114.495">  2  6  1 -1</clus>
<clus scale="   30.603">  1  3  2 -1</clus>
</clustering>
</event>
<event>
 6    0  0.8991567E+002  0.9692676E+02  0.7546771E-02  0.1286895E+00
         21   -1    0    0  504  501  0.00000000000E+00  0.00000000000E+00  0.81604486285E+03  0.81604486285E+03  0.00000000000E+00 0. -1.
         21   -1    0    0  506  502 -0.00000000000E+00 -0.00000000000E+00 -0.63864336671E+02  0.63864336671E+02  0.00000000000E+00 0. -1.
         21    1    1    2  503  501  0.41239566438E+02  0.94245505909E+01  0.56569567981E+03  0.56727517674E+03  0.00000000000E+00 0. -1.
         21    1    1    2  504  505 -0.10583988698E+03  0.34954532825E+02  0.38238791995E+02  0.11783932389E+03  0.00000000000E+00 0. -1.
         21    1    1    2  505  502 -0.61914702858E+01 -0.30674277346E+02  0.15454449747E+01  0.31331038846E+02  0.00000000000E+00 0.  1.
         21    1    1    2  506  503  0.70791790827E+02 -0.13704806070E+02  0.14670060941E+03  0.16346366005E+03  0.00000000000E+00 0. -1.
<scales pt_clust_3="42.09773" pt_clust_4="14000.00000" pt_clust_5="31.29290" pt_clust_6="96.92676"></scales>
<clustering>
<clus scale="   31.293">  2  5  1 -1</clus>
<clus scale="   42.098">  1  3  2 -1</clus>
<clus scale="   96.927">  1  6  2 -1</clus>
<clus scale="   42.098">  1  3  2 -1</clus>
</clustering>
</event>
<event>
 6    0  0.8991567E+002  0.1069285E+03  0.7546771E-02  0.1266366E+00
         21   -1    0    0  505  501  0.00000000000E+00  0.00000000000E+00  0.73422095071E+02  0.73422095071E+02  0.00000000000E+00 0. -1.
         21   -1    0    0  503  502 -0.00000000000E+00 -0.00000000000E+00 -0.13138076340E+04  0.13138076340E+04  0.00000000000E+00 0. -1.
         21    1    1    2  503  506 -0.44537454019E+02  0.89952510046E+01 -0.39548969298E+03  0.39809119132E+03  0.00000000000E+00 0. -1.
         21    1    1    2  504  502  0.74536151582E+02 -0.89546586830E+01 -0.74734772368E+03  0.75110880962E+03  0.00000000000E+00 0. -1.
         21    1    1    2  505  504  0.52951589800E+02  0.83812080850E+02 -0.42387657330E+02  0.10781952167E+03  0.00000000000E+00 0. -1.
         21    1    1    2  506  501 -0.82950287363E+02 -0.83852673172E+02 -0.55160464919E+02  0.13021020644E+03  0.00000000000E+00 0. -1.
<scales pt_clust_3="45.43676" pt_clust_4="38.18159" pt_clust_5="106.92854" pt_clust_6="14000.00000"></scales>
<clustering>
<clus scale="   45.437">  2  3  1 -1</clus>
<clus scale="   38.182">  2  4  1 -1</clus>
<clus scale="  106.929">  1  5  2 -1</clus>
<clus scale="  106.929">  1  3  2 -1</clus>
</clustering>
</event>
<event>
 6    0  0.8991567E+002  0.1865537E+03  0.7546771E-02  0.1161607E+00
         21   -1    0    0  504  501  0.00000000000E+00  0.00000000000E+00  0.88169991325E+03  0.88169991325E+03  0.00000000000E+00 0. -1.
         21   -1    0    0  506  502 -0.00000000000E+00 -0.00000000000E+00 -0.19764767943E+03  0.19764767943E+03  0.00000000000E+00 0. -1.
         21    1    1    2  503  501 -0.73858108208E+02  0.53604314541E+02 -0.11903863994E+03  0.14999546821E+03  0.00000000000E+00 0. -1.
         21    1    1    2  504  505  0.13425570262E+03 -0.36556041359E+02  0.59204538719E+03  0.60817651906E+03  0.00000000000E+00 0. -1.
         21    1    1    2  505  502  0.14180530955E+02 -0.44811673422E+02  0.23374448775E+03  0.23842327715E+03  0.00000000000E+00 0.  1.
         21    1    1    2  506  503 -0.74578125364E+02  0.27763400240E+02 -0.22699001183E+02  0.82752328247E+02  0.00000000000E+00 0.  1.
<scales pt_clust_3="184.61305" pt_clust_4="45.57247" pt_clust_5="45.57247" pt_clust_6="68.79780"></scales>
<clustering>
<clus scale="   45.572">  4  5 -1 -1</clus>
<clus scale="   68.798">  3  6 -1 -1</clus>
<clus scale="  184.613">  2  3  1 -1</clus>
<clus scale="  186.554">  1  3  2 -1</clus>
</clustering>
</event>
<event>
 6    0  0.8991567E+002  0.1148272E+03  0.7546771E-02  0.1251883E+00
         21   -1    0    0  504  501  0.00000000000E+00  0.00000000000E+00  0.14601240903E+03  0.14601240903E+03  0.00000000000E+00 0.  1.
         21   -1    0    0  506  502 -0.00000000000E+00 -0.00000000000E+00 -0.40021994059E+03  0.40021994059E+03  0.00000000000E+00 0.  1.
         21    1    1    2  503  501 -0.10547850556E+03 -0.60957881018E+02 -0.23113181987E+03  0.26127283929E+03  0.00000000000E+00 0.  1.
         21    1    1    2  504  505  0.99562529352E+02  0.55544967026E+02  0.83784009696E+02  0.14148392451E+03  0.00000000000E+00 0.  1.
         21    1    1    2  505  502  0.35975549003E+02 -0.28576649381E+02 -0.32184105574E+02  0.56095290957E+02  0.00000000000E+00 0.  1.
         21    1    1    2  506  503 -0.30059572794E+02  0.33989563373E+02 -0.74675615805E+02  0.87380294865E+02  0.00000000000E+00 0. -1.
<scales pt_clust_3="14000.00000" pt_clust_4="114.82718" pt_clust_5="39.78082" pt_clust_6="45.37475"></scales>
<clustering>
<clus scale="   45.375">  2  6  1 -1</clus>
<clus scale="   39.781">  2  5  1 -1</clus>
<clus scale="  114.827">  1  4  2 -1</clus>
<clus scale="  114.827">  1  3  2 -1</clus>
</clustering>
</event>
<event>
 6    0  0.8991567E+002  0.1305420E+03  0.7546771E-02  0.1226654E+00
         21   -1    0    0  505  501  0.00000000000E+00  0.00000000000E+00  0.30608981069E+03  0.30608981069E+03  0.00000000000E+00 0.  1.
         21   -1    0    0  504  502 -0.00000000000E+00 -0.00000000000E+00 -0.10129915179E+04  0.10129915179E+04  0.00000000000E+00 0.  1.
         21    1    1    2  503  506 -0.22895697992E+02 -0.76332490739E+02 -0.14716510009E+01  0.79705883633E+02  0.00000000000E+00 0. -1.
         21    1    1    2  504  501 -0.56553585269E+02  0.15064847109E+02  0.23031253544E+03  0.23763232441E+03  0.00000000000E+00 0.  1.
         21    1    1    2  505  503 -0.31499533873E+02 -0.10837898485E+02  0.18679851024E+02  0.38191851383E+02  0.00000000000E+00 0. -1.
         21    1    1    2  506  502  0.11094881713E+03  0.72105542116E+02 -0.95442244272E+03  0.96355126921E+03  0.00000000000E+00 0.  1.
<scales pt_clust_3="82.51790" pt_clust_4="130.54197" pt_clust_5="33.31187" pt_clust_6="14000.00000"></scales>
<clustering>
<clus scale="   33.312">  1  5  2 -1</clus>
<clus scale="   82.518">  1  3  2 -1</clus>
<clus scale="  130.542">  1  4  2 -1</clus>
<clus scale="   33.312">  1  3  2 -1</clus>
</clustering>
</event>
<event>
 6    0  0.8991567E+002  0.8208400E+02  0.7546771E-02  0.1323239E+00
         21   -1    0    0  504  501  0.00000000000E+00  0.00000000000E+00  0.46111757159E+03  0.46111757159E+03  0.00000000000E+00 0. -1.
         21   -1    0    0  503  502 -0.00000000000E+00 -0.00000000000E+00 -0.38331698404E+03  0.38331698404E+03  0.00000000000E+00 0.  1.
         21    1    1    2  503  505 -0.36214544078E+02  0.10511316223E+03 -0.22178067516E+01  0.11119887025E+03  0.00000000000E+00 0. -1.
         21    1    1    2  504  502 -0.34097530343E+02 -0.48480656416E+02 -0.31374784984E+03  0.31929724224E+03  0.00000000000E+00 0.  1.
         21    1    1    2  505  506  0.27669499852E+02 -0.52708504262E+02  0.94942039550E+02  0.11206149436E+03  0.00000000000E+00 0. -1.
         21    1    1    2  506  501  0.42642574569E+02 -0.39240015566E+01  0.29882420460E+03  0.30187694878E+03  0.00000000000E+00 0. -1.
<scales pt_clust_3="14000.00000" pt_clust_4="58.90619" pt_clust_5="82.08400" pt_clust_6="42.82274"></scales>
<clustering>
<clus scale="   42.823">  1  6  2 -1</clus>
<clus scale="   58.906">  2  4  1 -1</clus>
<clus scale="   82.084">  1  5  2 -1</clus>
<clus scale="   42.823">  1  3  2 -1</clus>
</clustering>
</event>
<event>
 6    0  0.8991567E+002  0.7780550E+02  0.7546771E-02  0.1335397E+00
         21   -1    0    0  503  501  0.00000000000E+00  0.00000000000E+00  0.21049904946E+03  0.21049904946E+03  0.00000000000E+00 0.  1.
         21   -1    0    0  505  502 -0.00000000000E+00 -0.00000000000E+00 -0.23172270427E+03  0.23172270427E+03  0.00000000000E+00 0.  1.
         21    1    1    2  503  506  0.56815175451E+01  0.35652165003E+02  0.12863242319E+03  0.13360260778E+03  0.00000000000E+00 0.  1.
         21    1    1    2  504  502 -0.10177417334E+02 -0.87548023005E+02 -0.12466467711E+03  0.15267454887E+03  0.00000000000E+00 0.  1.
         21    1    1    2  505  501  0.69318528320E+02  0.41576839479E+02 -0.37591278636E+02  0.89144804554E+02  0.00000000000E+00 0.  1.
         21    1    1    2  506  504 -0.64822628531E+02  0.10319018524E+02  0.12399877741E+02  0.66799792521E+02  0.00000000000E+00 0.  1.
<scales pt_clust_3="36.10203" pt_clust_4="14000.00000" pt_clust_5="77.80550" pt_clust_6="68.06180"></scales>
<clustering>
<clus scale="   36.102">  1  3  2 -1</clus>
<clus scale="   68.062">  1  6  2 -1</clus>
<clus scale="   77.805">  1  5  2 -1</clus>
<clus scale="   36.102">  1  3  2 -1</clus>
</clustering>
</event>
<event>
 6    0  0.8991567E+002  0.9583868E+02  0.7546771E-02  0.1289298E+00
         21   -1    0    0  503  501  0.00000000000E+00  0.00000000000E+00  0.14550908553E+03  0.14550908553E+03  0.00000000000E+00 0. -1.
         21   -1    0    0  504  502 -0.00000000000E+00 -0.00000000000E+00 -0.10721901515E+04  0.10721901515E+04  0.00000000000E+00 0.  1.
         21    1    1    2  503  502 -0.41288553347E+02  0.37741779270E+02 -0.14293366453E+03  0.15349012671E+03  0.00000000000E+00 0. -1.
         21    1    1    2  504  505  0.53940331497E+02 -0.23773455558E+02 -0.55221907574E+03  0.55535632180E+03  0.00000000000E+00 0.  1.
         21    1    1    2  505  506  0.56195758047E+02 -0.52642126513E+02 -0.35446909597E+03  0.36273612544E+03  0.00000000000E+00 0.  1.
         21    1    1    2  506  501 -0.68847536197E+02  0.38673802801E+02  0.12294077022E+03  0.14611666313E+03  0.00000000000E+00 0. -1.
<scales pt_clust_3="55.93913" pt_clust_4="46.63564" pt_clust_5="46.63564" pt_clust_6="79.64955"></scales>
<clustering>
<clus scale="   46.636">  4  5 -1 -1</clus>
<clus scale="   55.939">  2  3  1 -1</clus>
<clus scale="   79.650">  1  6  2 -1</clus>
<clus scale="   79.650">  1  3  2 -1</clus>
</clustering>
</event>
<event>
 6    0  0.8991567E+002  0.9421316E+02  0.7546771E-02  0.1292958E+00
         21   -1    0    0  506  501  0.00000000000E+00  0.00000000000E+00  0.15076571689E+04  0.15076571689E+04  0.00000000000E+00 0.  1.
         21   -1    0    0  505  502 -0.00000000000E+00 -0.00000000000E+00 -0.22163922153E+03  0.22163922153E+03  0.00000000000E+00 0. -1.
         21    1    1    2  503  502  0.29258453075E+01 -0.10512119532E+03 -0.17281275567E+03  0.20229501921E+03  0.00000000000E+00 0. -1.
         21    1    1    2  504  503 -0.62715857360E+02  0.10234989534E+03  0.96232219878E+03  0.96977976578E+03  0.00000000000E+00 0.  1.
         21    1    1    2  505  501  0.27942923946E+02  0.16823540096E+02 -0.20838364271E+02  0.38704985796E+02  0.00000000000E+00 0. -1.
         21    1    1    2  506  504  0.31847088107E+02 -0.14052240114E+02  0.51734686848E+03  0.51851661960E+03  0.00000000000E+00 0.  1.
<scales pt_clust_3="14000.00000" pt_clust_4="94.21316" pt_clust_5="32.61654" pt_clust_6="34.86684"></scales>
<clustering>
<clus scale="   32.617">  2  5  1 -1</clus>
<clus scale="   34.867">  1  6  2 -1</clus>
<clus scale="   94.213">  1  4  2 -1</clus>
<clus scale="   34.867">  1  3  2 -1</clus>
</clustering>
</event>
<event>
 6    0  0.8991567E+002  0.9236473E+02  0.7546771E-02  0.1297224E+00
         21   -1    0    0  504  501  0.00000000000E+00  0.00000000000E+00  0.23140973764E+03  0.23140973764E+03  0.00000000000E+00 0.  1.
         21   -1    0    0  503  502 -0.00000000000E+00 -0.00000000000E+00 -0.59673778284E+03  0.59673778284E+03  0.00000000000E+00 0.  1.
         21    1    1    2  503  501  0.11638143675E+03 -0.40288147916E+01 -0.26738963454E+03  0.29164719582E+03  0.00000000000E+00 0. -1.
         21    1    1    2  504  506 -0.47297983558E+02 -0.10066650177E+02  0.68595442607E+02  0.83927179393E+02  0.00000000000E+00 0.  1.
         21    1    1    2  505  502 -0.31482450198E+02 -0.38093461692E+02 -0.30019715785E+03  0.30423771967E+03  0.00000000000E+00 0.  1.
         21    1    1    2  506  505 -0.37601002997E+02  0.52188926661E+02  0.13366330459E+03  0.14833542559E+03  0.00000000000E+00 0.  1.
<scales pt_clust_3="14000.00000" pt_clust_4="48.35739" pt_clust_5="49.91412" pt_clust_6="92.36473"></scales>
<clustering>
<clus scale="   48.357">  1  4  2 -1</clus>
<clus scale="   49.914">  2  5  1 -1</clus>
<clus scale="   92.365">  1  6  2 -1</clus>
<clus scale="   48.357">  1  3  2 -1</clus>
</clustering>
</event>
<event>
 6    0  0.8991567E+002  0.1228306E+03  0.7546771E-02  0.1238499E+00
         21   -1    0    0  506  501  0.00000000000E+00  0.00000000000E+00  0.15534974800E+04  0.15534974800E+04  0.00000000000E+00 0.  1.
         21   -1    0    0  504  502 -0.00000000000E+00 -0.00000000000E+00 -0.30369393919E+03  0.30369393919E+03  0.00000000000E+00 0. -1.
         21    1    1    2  503  501 -0.30496025626E+02 -0.18465443981E-01  0.14135310134E+04  0.14138599414E+04  0.00000000000E+00 0.  1.
         21    1    1    2  504  503 -0.36190424927E+02 -0.60326724396E+02 -0.18967360225E+03  0.20229961919E+03  0.00000000000E+00 0. -1.
         21    1    1    2  505  502 -0.23739776034E+02 -0.55724831838E+02 -0.47130886889E+02  0.76747340987E+02  0.00000000000E+00 0. -1.
         21    1    1    2  506  505  0.90426226587E+02  0.11607002168E+03  0.73077016483E+02  0.16428451761E+03  0.00000000000E+00 0.  1.
<scales pt_clust_3="30.49603" pt_clust_4="14000.00000" pt_clust_5="61.91006" pt_clust_6="122.83058"></scales>
<clustering>
<clus scale="   30.496">  1  3  2 -1</clus>
<clus scale="   61.910">  2  5  1 -1</clus>
<clus scale="  122.831">  1  6  2 -1</clus>
<clus scale="   30.496">  1  3  2 -1</clus>
</clustering>
</event>
<event>
 6    0  0.8991567E+002  0.1344936E+03  0.7546771E-02  0.1220936E+00
         21   -1    0    0  504  501  0.00000000000E+00  0.00000000000E+00  0.73453659834E+03  0.73453659834E+03  0.00000000000E+00 0. -1.
         21   -1    0    0  506  502 -0.00000000000E+00 -0.00000000000E+00 -0.33066525211E+04  0.33066525211E+04  0.00000000000E+00 0. -1.
         21    1    1    2  503  501 -0.25107809156E+02 -0.41082475865E+02 -0.16964466030E+03  0.17634478351E+03  0.00000000000E+00 0. -1.
         21    1    1    2  504  505  0.21870103236E+02 -0.25576134764E+02  0.72489154280E+03  0.72567223242E+03  0.00000000000E+00 0. -1.
         21    1    1    2  505  502  0.81674340786E+02  0.98375040654E+02 -0.27256004539E+04  0.27285978416E+04  0.00000000000E+00 0. -1.
         21    1    1    2  506  503 -0.78436634866E+02 -0.31716430025E+02 -0.40176235133E+03  0.41057426194E+03  0.00000000000E+00 0. -1.
<scales pt_clust_3="33.28529" pt_clust_4="33.65175" pt_clust_5="127.04987" pt_clust_6="33.28529"></scales>
<clustering>
<clus scale="   33.285">  3  6 -1 -1</clus>
<clus scale="   33.652">  1  4  2 -1</clus>
<clus scale="  127.050">  2  5  1 -1</clus>
<clus scale="   33.652">  1  3  2 -1</clus>
</clustering>
</event>
<event>
 6    0  0.8991567E+002  0.9082073E+02  0.7546771E-02  0.1300876E+00
         21   -1    0    0  505  501  0.00000000000E+00  0.00000000000E+00  0.51827644310E+02  0.51827644310E+02  0.00000000000E+00 0.  1.
         21   -1    0    0  506  502 -0.00000000000E+00 -0.00000000000E+00 -0.12113159947E+04  0.12113159947E+04  0.00000000000E+00 0.  1.
         21    1    1    2  503  501 -0.85029074964E+02 -0.12427436124E+02 -0.39151538928E+02  0.94431074114E+02  0.00000000000E+00 0.  1.
         21    1    1    2  504  503  0.60712885039E+02  0.21497070912E+02 -0.46183405574E+03  0.46630341357E+03  0.00000000000E+00 0.  1.
         21    1    1    2  505  502  0.95470558632E+01 -0.60616164236E+02 -0.24389206351E+02  0.66032560369E+02  0.00000000000E+00 0.  1.
         21    1    1    2  506  504  0.14769134062E+02  0.51546529448E+02 -0.63411354936E+03  0.63637659095E+03  0.00000000000E+00 0.  1.
<scales pt_clust_3="90.82073" pt_clust_4="14000.00000" pt_clust_5="57.57489" pt_clust_6="53.62063"></scales>
<clustering>
<clus scale="   53.621">  2  6  1 -1</clus>
<clus scale="   57.575">  1  5  2 -1</clus>
<clus scale="   90.821">  1  3  2 -1</clus>
<clus scale="   57.575">  1  3  2 -1</clus>
</clustering>
</event>
<event>
 6    0  0.8991567E+002  0.7133070E+02  0.7546771E-02  0.1355626E+00
         21   -1    0    0  504  501  0.00000000000E+00  0.00000000000E+00  0.31777325384E+03  0.31777325384E+03  0.00000000000E+00 0. -1.
         21   -1    0    0  506  502 -0.00000000000E+00 -0.00000000000E+00 -0.26319858224E+03  0.26319858224E+03  0.00000000000E+00 0. -1.
         21    1    1    2  503  502 -0.17144668617E+02  0.67587244624E+02 -0.20227991500E+03  0.21396060224E+03  0.00000000000E+00 0. -1.
         21    1    1    2  504  505 -0.35404928373E+02 -0.97893515924E+01  0.14026636207E+03  0.14499652646E+03  0.00000000000E+00 0. -1.
         21    1    1    2  505  503  0.10728170992E+03 -0.74066426207E+02  0.67967062630E+02  0.14701946258E+03  0.00000000000E+00 0. -1.
         21    1    1    2  506  501 -0.54732112926E+02  0.16268533176E+02  0.48621161909E+02  0.74995244799E+02  0.00000000000E+00 0. -1.
<scales pt_clust_3="71.33070" pt_clust_4="36.73337" pt_clust_5="14000.00000" pt_clust_6="68.43695"></scales>
<clustering>
<clus scale="   36.733">  1  4  2 -1</clus>
<clus scale="   68.437">  1  6  2 -1</clus>
<clus scale="   71.331">  2  3  1 -1</clus>
<clus scale="   36.733">  1  3  2 -1</clus>
</clustering>
</event>
<event>
 6    0  0.8991567E+002  0.8927105E+02  0.7546771E-02  0.1304627E+00
         21   -1    0    0  503  501  0.00000000000E+00  0.00000000000E+00  0.21113218613E+04  0.21113218613E+04  0.00000000000E+00 0.  1.
         21   -1    0    0  505  502 -0.00000000000E+00 -0.00000000000E+00 -0.81018202727E+02  0.81018202727E+02  0.00000000000E+00 0. -1.
         21    1    1    2  503  506  0.39084240085E+02 -0.66380903076E+02  0.61532412171E+02  0.98591276814E+02  0.00000000000E+00 0. -1.
         21    1    1    2  504  501  0.11580100175E+02 -0.35815711274E+02  0.17641386617E+04  0.17645401898E+04  0.00000000000E+00 0.  1.
         21    1    1    2  505  504 -0.78524710161E+02  0.87281838183E+02  0.24867758762E+03  0.27499962176E+03  0.00000000000E+00 0. -1.
         21    1    1    2  506  502  0.27860369900E+02  0.14914776167E+02 -0.44045002892E+02  0.54208975630E+02  0.00000000000E+00 0. -1.
<scales pt_clust_3="89.27105" pt_clust_4="37.60638" pt_clust_5="14000.00000" pt_clust_6="31.60144"></scales>
<clustering>
<clus scale="   31.601">  2  6  1 -1</clus>
<clus scale="   37.606">  1  4  2 -1</clus>
<clus scale="   89.271">  2  3  1 -1</clus>
<clus scale="   37.606">  1  3  2 -1</clus>
</clustering>
</event>
<event>
 6    0  0.8991567E+002  0.1122503E+03  0.7546771E-02  0.1256458E+00
         21   -1    0    0  504  501  0.00000000000E+00  0.00000000000E+00  0.71518076304E+03  0.71518076304E+03  0.00000000000E+00 0.  1.
         21   -1    0    0  505  502 -0.00000000000E+00 -0.00000000000E+00 -0.20206697580E+04  0.20206697580E+04  0.00000000000E+00 0.  1.
         21    1    1    2  503  501 -0.12372573367E+03 -0.30510587133E+01  0.14072873431E+03  0.18740849178E+03  0.00000000000E+00 0.  1.
         21    1    1    2  504  506  0.14819424195E+02  0.32012428936E+02  0.54676995371E+03  0.54790673771E+03  0.00000000000E+00 0.  1.
         21    1    1    2  505  503  0.33882880377E+02 -0.50445727374E+02 -0.31942171599E+03  0.32515081676E+03  0.00000000000E+00 0. -1.
         21    1    1    2  506  502  0.75023429098E+02  0.21484357151E+02 -0.16735659670E+04  0.16753844748E+04  0.00000000000E+00 0.  1.
<scales pt_clust_3="14000.00000" pt_clust_4="35.27621" pt_clust_5="60.45825" pt_clust_6="112.25033"></scales>
<clustering>
<clus scale="   35.276">  1  4  2 -1</clus>
<clus scale="   60.458">  2  5  1 -1</clus>
<clus scale="  112.250">  2  6  1 -1</clus>
<clus scale="   35.276">  1  3  2 -1</clus>
</clustering>
</event>
<event>
 6    0  0.8991567E+002  0.1468306E+03  0.7546771E-02  0.1204422E+00
         21   -1    0    0  505  501  0.00000000000E+00  0.00000000000E+00  0.66871633598E+03  0.66871633598E+03  0.00000000000E+00 0.  1.
         21   -1    0    0  504  502 -0.00000000000E+00 -0.00000000000E+00 -0.26923642071E+03  0.26923642071E+03  0.00000000000E+00 0.  1.
         21    1    1    2  503  506 -0.12447689545E+03 -0.27772329543E+02  0.17067157424E+02  0.12867434729E+03  0.00000000000E+00 0.  1.
         21    1    1    2  504  503  0.53246412187E+02  0.13081384293E+02 -0.17001283887E+03  0.17863557431E+03  0.00000000000E+00 0.  1.
         21    1    1    2  505  502 -0.80265780292E+02  0.10144548355E+03  0.22228034006E+03  0.25718151410E+03  0.00000000000E+00 0.  1.
         21    1    1    2  506  501  0.15149626355E+03 -0.86754538301E+02  0.33014525665E+03  0.37346132099E+03  0.00000000000E+00 0.  1.
<scales pt_clust_3="95.31018" pt_clust_4="54.82976" pt_clust_5="146.83062" pt_clust_6="14000.00000"></scales>
<clustering>
<clus scale="   54.830">  2  4  1 -1</clus>
<clus scale="   95.310">  2  3  1 -1</clus>
<clus scale="  146.831">  1  5  2 -1</clus>
<clus scale="  146.831">  1  3  2 -1</clus>
</clustering>
</event>
<event>
 6    0  0.8991567E+002  0.1724488E+03  0.7546771E-02  0.1175318E+00
         21   -1    0    0  504  501  0.00000000000E+00  0.00000000000E+00  0.13962637306E+03  0.13962637306E+03  0.00000000000E+00 0.  1.
         21   -1    0    0  506  502 -0.00000000000E+00 -0.00000000000E+00 -0.13037597862E+04  0.13037597862E+04  0.00000000000E+00 0.  1.
         21    1    1    2  503  502 -0.20955286639E+00  0.20833547651E+03 -0.60721144300E+03  0.64195751510E+03  0.00000000000E+00 0.  1.
         21    1    1    2  504  503 -0.10422638465E+02  0.34089227087E+02  0.19415400204E+01  0.35699809154E+02  0.00000000000E+00 0.  1.
         21    1    1    2  505  501 -0.11193635029E+03 -0.12242561121E+03  0.15206258096E+02  0.16658033222E+03  0.00000000000E+00 0.  1.
         21    1    1    2  506  505  0.12256854162E+03 -0.11999909239E+03 -0.57406976822E+03  0.59914850276E+03  0.00000000000E+00 0.  1.
<scales pt_clust_3="172.44877" pt_clust_4="35.64697" pt_clust_5="153.98911" pt_clust_6="14000.00000"></scales>
<clustering>
<clus scale="   35.647">  1  4  2 -1</clus>
<clus scale="  153.989">  1  5  2 -1</clus>
<clus scale="  172.449">  1  3  2 -1</clus>
<clus scale="   35.647">  1  3  2 -1</clus>
</clustering>
</event>
<event>
 6    0  0.8991567E+002  0.8397088E+02  0.7546771E-02  0.1318146E+00
         21   -1    0    0  503  501  0.00000000000E+00  0.00000000000E+00  0.73722749352E+03  0.73722749352E+03  0.00000000000E+00 0.  1.
         21   -1    0    0  506  502 -0.00000000000E+00 -0.00000000000E+00 -0.29185685842E+03  0.29185685842E+03  0.00000000000E+00 0.  1.
         21    1    1    2  503  504 -0.10399972919E+03  0.54203203897E+02  0.59642428726E+03  0.60784526108E+03  0.00000000000E+00 0.  1.
         21    1    1    2  504  502  0.45820733326E+02 -0.26377714436E+02 -0.25171958245E+03  0.25721211404E+03  0.00000000000E+00 0.  1.
         21    1    1    2  505  501  0.47787271542E+02  0.88010376854E+01  0.11381063820E+03  0.12374951698E+03  0.00000000000E+00 0.  1.
         21    1    1    2  506  505  0.10391724323E+02 -0.36626527146E+02 -0.13144707907E+02  0.40277459840E+02  0.00000000000E+00 0.  1.
<scales pt_clust_3="14000.00000" pt_clust_4="83.97088" pt_clust_5="48.66335" pt_clust_6="38.07217"></scales>
<clustering>
<clus scale="   38.072">  2  6  1 -1</clus>
<clus scale="   48.663">  1  5  2 -1</clus>
<clus scale="   83.971">  2  4  1 -1</clus>
<clus scale="   48.663">  1  3  2 -1</clus>
</clustering>
</event>
<event>
 6    0  0.8991567E+002  0.9642180E+02  0.7546771E-02  0.1288006E+00
         21   -1    0    0  504  501  0.00000000000E+00  0.00000000000E+00  0.15963970188E+03  0.15963970188E+03  0.00000000000E+00 0. -1.
         21   -1    0    0  505  502 -0.00000000000E+00 -0.00000000000E+00 -0.88569650289E+03  0.88569650289E+03  0.00000000000E+00 0.  1.
         21    1    1    2  503  502 -0.17119039802E+02 -0.59761722627E+02 -0.76505588644E+03  0.76757738006E+03  0.00000000000E+00 0.  1.
         21    1    1    2  504  503  0.51084023926E+02 -0.62641921115E+01  0.39773398129E+02  0.65044145025E+02  0.00000000000E+00 0. -1.
         21    1    1    2  505  506 -0.56053932448E+02 -0.10899424751E+02 -0.81189212395E+02  0.99259906368E+02  0.00000000000E+00 0.  1.
         21    1    1    2  506  501  0.22088948324E+02  0.76925339489E+02  0.80414899698E+02  0.11345477331E+03  0.00000000000E+00 0. -1.
<scales pt_clust_3="14000.00000" pt_clust_4="51.46666" pt_clust_5="52.99622" pt_clust_6="96.42180"></scales>
<clustering>
<clus scale="   51.467">  1  4  2 -1</clus>
<clus scale="   52.996">  2  5  1 -1</clus>
<clus scale="   96.422">  1  6  2 -1</clus>
<clus scale="   51.467">  1  3  2 -1</clus>
</clustering>
</event>
<event>
 6    0  0.8991567E+002  0.1049637E+03  0.7546771E-02  0.1270191E+00
         21   -1    0    0  503  501  0.00000000000E+00  0.00000000000E+00  0.71976244128E+03  0.71976244128E+03  0.00000000000E+00 0.  1.
         21   -1    0    0  504  502 -0.00000000000E+00 -0.00000000000E+00 -0.10661428076E+03  0.10661428076E+03  0.00000000000E+00 0. -1.
         21    1    1    2  503  506  0.36127807766E+02 -0.60915993596E+02  0.55491611916E+03  0.55941744348E+03  0.00000000000E+00 0.  1.
         21    1    1    2  504  505  0.40052901191E+02 -0.47158908228E+01  0.17033416172E+02  0.43779125009E+02  0.00000000000E+00 0. -1.
         21    1    1    2  505  501 -0.58289780411E+01 -0.42409591350E+02  0.78111194932E+02  0.89072494055E+02  0.00000000000E+00 0. -1.
         21    1    1    2  506  502 -0.70351730916E+02  0.10804147577E+03 -0.36912569739E+02  0.13410765949E+03  0.00000000000E+00 0. -1.
<scales pt_clust_3="14000.00000" pt_clust_4="40.32957" pt_clust_5="42.82797" pt_clust_6="104.96369"></scales>
<clustering>
<clus scale="   40.330">  2  4  1 -1</clus>
<clus scale="   42.828">  1  5  2 -1</clus>
<clus scale="  104.964">  2  6  1 -1</clus>
<clus scale="   42.828">  1  3  2 -1</clus>
</clustering>
</event>
<event>
 6    0  0.8991567E+002  0.1187009E+03  0.7546771E-02  0.1245256E+00
         21   -1    0    0  504  501  0.00000000000E+00  0.00000000000E+00  0.14618820551E+04  0.14618820551E+04  0.00000000000E+00 0. -1.
         21   -1    0    0  505  502 -0.00000000000E+00 -0.00000000000E+00 -0.33648572365E+03  0.33648572365E+03  0.00000000000E+00 0.  1.
         21    1    1    2  503  506  0.12407930564E+03  0.41598290116E+02  0.81706018746E+03  0.82747413359E+03  0.00000000000E+00 0. -1.
         21    1    1    2  504  503 -0.16028751933E+02 -0.62413458674E+02  0.48026372171E+03  0.48456743917E+03  0.00000000000E+00 0. -1.
         21    1    1    2  505  501 -0.17801058129E+03  0.62976534579E+02  0.92003880356E+02  0.21004410241E+03  0.00000000000E+00 0.  1.
         21    1    1    2  506  502  0.69960027582E+02 -0.42161366021E+02 -0.26393145803E+03  0.27628210362E+03  0.00000000000E+00 0.  1.
<scales pt_clust_3="14000.00000" pt_clust_4="64.43881" pt_clust_5="118.70088" pt_clust_6="81.79971"></scales>
<clustering>
<clus scale="   64.439">  1  4  2 -1</clus>
<clus scale="   81.800">  2  6  1 -1</clus>
<clus scale="  118.701">  2  5  1 -1</clus>
<clus scale="   64.439">  1  3  2 -1</clus>
</clustering>
</event>
<event>
 6    0  0.8991567E+002  0.6717873E+02  0.7546771E-02  0.1369958E+00
         21   -1    0    0  504  501  0.00000000000E+00  0.00000000000E+00  0.12830631834E+03  0.12830631834E+03  0.00000000000E+00 0. -1.
         21   -1    0    0  505  502 -0.00000000000E+00 -0.00000000000E+00 -0.33269494096E+03  0.33269494096E+03  0.00000000000E+00 0. -1.
         21    1    1    2  503  501 -0.82487901164E+02 -0.61000617340E+02 -0.16711917829E+02  0.10394526132E+03  0.00000000000E+00 0. -1.
         21    1    1    2  504  506  0.54282714464E+02  0.26347446250E+02  0.63140854284E+02  0.87335951894E+02  0.00000000000E+00 0. -1.
         21    1    1    2  505  503  0.18023584217E+02 -0.26950669743E+02 -0.12668846296E+03  0.13077138385E+03  0.00000000000E+00 0. -1.
         21    1    1    2  506  502  0.10181602483E+02  0.61603840833E+02 -0.12412909612E+03  0.13894866224E+03  0.00000000000E+00 0. -1.
<scales pt_clust_3="14000.00000" pt_clust_4="67.17873" pt_clust_5="32.42203" pt_clust_6="49.30668"></scales>
<clustering>
<clus scale="   32.422">  2  5  1 -1</clus>
<clus scale="   49.307">  2  6  1 -1</clus>
<clus scale="   67.179">  1  4  2 -1</clus>
<clus scale="   67.179">  1  3  2 -1</clus>
</clustering>
</event>
<event>
 6    0  0.8991567E+002  0.7505263E+02  0.7546771E-02  0.1343708E+00
         21   -1    0    0  503  501  0.00000000000E+00  0.00000000000E+00  0.11364508997E+03  0.11364508997E+03  0.00000000000E+00 0. -1.
         21   -1    0    0  504  502 -0.00000000000E+00 -0.00000000000E+00 -0.35999178177E+03  0.35999178177E+03  0.00000000000E+00 0. -1.
         21    1    1    2  503  506 -0.87263260148E-01 -0.36771720226E+02  0.26227640117E+01  0.36865239920E+02  0.00000000000E+00 0. -1.
         21    1    1    2  504  505  0.24951232867E+02  0.62918296144E+02 -0.18230761984E+03  0.19446682047E+03  0.00000000000E+00 0. -1.
         21    1    1    2  505  501  0.49255315803E+02  0.48951218680E+02  0.49572558951E+02  0.85321430755E+02  0.00000000000E+00 0. -1.
         21    1    1    2  506  502 -0.74119285410E+02 -0.75097794598E+02 -0.11623439492E+03  0.15698338060E+03  0.00000000000E+00 0. -1.
<scales pt_clust_3="36.77182" pt_clust_4="75.05263" pt_clust_5="54.11025" pt_clust_6="14000.00000"></scales>
<clustering>
<clus scale="   36.772">  1  3  2 -1</clus>
<clus scale="   54.110">  1  5  2 -1</clus>
<clus scale="   75.053">  2  4  1 -1</clus>
<clus scale="   36.772">  1  3  2 -1</clus>
</clustering>
</event>
<event>
 6    0  0.8991567E+002  0.9620199E+02  0.7546771E-02  0.1288492E+00
         21   -1    0    0  506  501  0.00000000000E+00  0.00000000000E+00  0.68210372762E+03  0.68210372762E+03  0.00000000000E+00 0. -1.
         21   -1    0    0  504  502 -0.00000000000E+00 -0.00000000000E+00 -0.88523679956E+02  0.88523679956E+02  0.00000000000E+00 0. -1.
         21    1    1    2  503  502 -0.96584180647E+02 -0.30537944262E+02  0.61916862215E+02  0.11872138736E+03  0.00000000000E+00 0. -1.
         21    1    1    2  504  505  0.14771264323E+02  0.80029175103E+02 -0.14871897520E+02  0.82728667663E+02  0.00000000000E+00 0. -1.
         21    1    1    2  505  501  0.11454601917E+03 -0.36992965217E+02  0.46705314121E+03  0.48231515288E+03  0.00000000000E+00 0. -1.
         21    1    1    2  506  503 -0.32733102846E+02 -0.12498265624E+02  0.79481941753E+02  0.86862199663E+02  0.00000000000E+00 0. -1.
<scales pt_clust_3="96.20199" pt_clust_4="80.36602" pt_clust_5="14000.00000" pt_clust_6="35.03802"></scales>
<clustering>
<clus scale="   35.038">  1  6  2 -1</clus>
<clus scale="   80.366">  2  4  1 -1</clus>
<clus scale="   96.202">  2  3  1 -1</clus>
<clus scale="   35.038">  1  3  2 -1</clus>
</clustering>
</event>
<event>
 6    0  0.8991567E+002  0.1899592E+03  0.7546771E-02  0.1158498E+00
         21   -1    0    0  506  501  0.00000000000E+00  0.00000000000E+00  0.44485343379E+03  0.44485343379E+03  0.00000000000E+00 0. -1.
         21   -1    0    0  503  502 -0.00000000000E+00 -0.00000000000E+00 -0.34827351574E+03  0.34827351574E+03  0.00000000000E+00 0. -1.
         21    1    1    2  503  504 -0.40497271728E+02 -0.24109336997E+03 -0.19595559907E+03  0.31331236629E+03  0.00000000000E+00 0. -1.
         21    1    1    2  504  501 -0.33988375607E+02  0.18370736246E+03  0.27550362608E+03  0.33287513077E+03  0.00000000000E+00 0. -1.
         21    1    1    2  505  502  0.28475869027E+02  0.58761474285E+02 -0.37719893987E+02  0.75409391851E+02  0.00000000000E+00 0. -1.
         21    1    1    2  506  505  0.46009778309E+02 -0.13754667744E+01  0.54751785021E+02  0.71530060617E+02  0.00000000000E+00 0. -1.
<scales pt_clust_3="14000.00000" pt_clust_4="189.95916" pt_clust_5="66.25959" pt_clust_6="46.03033"></scales>
<clustering>
<clus scale="   46.030">  1  6  2 -1</clus>
<clus scale="   66.260">  2  5  1 -1</clus>
<clus scale="  189.959">  1  4  2 -1</clus>
<clus scale="   46.030">  1  3  2 -1</clus>
</clustering>
</event>
<event>
 6    0  0.8991567E+002  0.8457063E+02  0.7546771E-02  0.1316559E+00
         21   -1    0    0  503  501  0.00000000000E+00  0.00000000000E+00  0.12533611787E+04  0.12533611787E+04  0.00000000000E+00 0.  1.
         21   -1    0    0  505  502 -0.00000000000E+00 -0.00000000000E+00 -0.34531496830E+03  0.34531496830E+03  0.00000000000E+00 0. -1.
         21    1    1    2  503  506 -0.28603078847E+02 -0.51304710789E+02  0.16927755407E+03  0.17917923926E+03  0.00000000000E+00 0.  1.
         21    1    1    2  504  501  0.68440678103E+01  0.79860181906E+02  0.10492246114E+04  0.10522816995E+04  0.00000000000E+00 0.  1.
         21    1    1    2  505  504  0.22187631773E+02 -0.10548296276E+03 -0.11730987424E+03  0.15931275225E+03  0.00000000000E+00 0. -1.
         21    1    1    2  506  502 -0.42862073697E+00  0.76927491639E+02 -0.19314608082E+03  0.20790245602E+03  0.00000000000E+00 0. -1.
<scales pt_clust_3="58.73933" pt_clust_4="36.54555" pt_clust_5="84.57063" pt_clust_6="14000.00000"></scales>
<clustering>
<clus scale="   58.739">  1  3  2 -1</clus>
<clus scale="   36.546">  1  4  2 -1</clus>
<clus scale="   84.571">  1  5  2 -1</clus>
<clus scale="   58.739">  1  3  2 -1</clus>
</clustering>
</event>
<event>
 6    0  0.8991567E+002  0.7655466E+02  0.7546771E-02  0.1339123E+00
         21   -1    0    0  503  501  0.00000000000E+00  0.00000000000E+00  0.44129754125E+03  0.44129754125E+03  0.00000000000E+00 0.  1.
         21   -1    0    0  504  502 -0.00000000000E+00 -0.00000000000E+00 -0.10661655922E+03  0.10661655922E+03  0.00000000000E+00 0.  1.
         21    1    1    2  503  506 -0.16395725181E+02 -0.77051002619E+02  0.31370024322E+03  0.32344013265E+03  0.00000000000E+00 0.  1.
         21    1    1    2  504  501  0.88163467171E+02  0.17889364266E+02  0.52570728753E+02  0.10419456713E+03  0.00000000000E+00 0.  1.
         21    1    1    2  505  502 -0.49603691778E+02 -0.33087315488E+01 -0.15411024067E+02  0.52047801157E+02  0.00000000000E+00 0.  1.
         21    1    1    2  506  505 -0.22164050213E+02  0.62470369902E+02 -0.16178965880E+02  0.68231599530E+02  0.00000000000E+00 0.  1.
<scales pt_clust_3="76.55466" pt_clust_4="72.54944" pt_clust_5="49.71392" pt_clust_6="14000.00000"></scales>
<clustering>
<clus scale="   49.714">  2  5  1 -1</clus>
<clus scale="   72.549">  2  4  1 -1</clus>
<clus scale="   76.555">  1  3  2 -1</clus>
<clus scale="   76.555">  1  3  2 -1</clus>
</clustering>
</event>
<event>
 6    0  0.8991567E+002  0.1274749E+03  0.7546771E-02  0.1231251E+00
         21   -1    0    0  504  501  0.00000000000E+00  0.00000000000E+00  0.53627406423E+02  0.53627406423E+02  0.00000000000E+00 0. -1.
         21   -1    0    0  506  502 -0.00000000000E+00 -0.00000000000E+00 -0.25599667691E+04  0.25599667691E+04  0.00000000000E+00 0.  1.
         21    1    1    2  503  501 -0.32757787670E+02 -0.23136634626E+02 -0.13727850747E+03  0.14301666032E+03  0.00000000000E+00 0.  1.
         21    1    1    2  504  505  0.94312272759E+02 -0.84985698520E+02 -0.43178186601E+02  0.13409597139E+03  0.00000000000E+00 0. -1.
         21    1    1    2  505  502 -0.48317001688E+02  0.15342659994E+03 -0.20730389211E+04  0.20792702140E+04  0.00000000000E+00 0.  1.
         21    1    1    2  506  503 -0.13237483401E+02 -0.45304266798E+02 -0.25284374748E+03  0.25721132983E+03  0.00000000000E+00 0.  1.
<scales pt_clust_3="31.76300" pt_clust_4="127.47491" pt_clust_5="14000.00000" pt_clust_6="89.37041"></scales>
<clustering>
<clus scale="   31.763">  3  6 -1 -1</clus>
<clus scale="   89.370">  2  3  1 -1</clus>
<clus scale="  127.475">  1  4  2 -1</clus>
<clus scale="  127.475">  1  3  2 -1</clus>
</clustering>
</event>
<event>
 6    0  0.8991567E+002  0.9323675E+02  0.7546771E-02  0.1295197E+00
         21   -1    0    0  504  501  0.00000000000E+00  0.00000000000E+00  0.10896131973E+03  0.10896131973E+03  0.00000000000E+00 0. -1.
         21   -1    0    0  503  502 -0.00000000000E+00 -0.00000000000E+00 -0.24885734042E+03  0.24885734042E+03  0.00000000000E+00 0.  1.
         21    1    1    2  503  506 -0.10172121803E+03 -0.19820370719E+01 -0.57396174171E+02  0.11681376407E+03  0.00000000000E+00 0. -1.
         21    1    1    2  504  505  0.25910250307E+02  0.19084621954E+02  0.33337830344E+02  0.46335459403E+02  0.00000000000E+00 0. -1.
         21    1    1    2  505  502  0.72585301100E+02 -0.68026983279E+02 -0.10044921663E+03  0.14137305794E+03  0.00000000000E+00 0.  1.
         21    1    1    2  506  501  0.32256666190E+01  0.50924398397E+02 -0.15388460234E+02  0.53296378729E+02  0.00000000000E+00 0. -1.
<scales pt_clust_3="93.23675" pt_clust_4="32.18018" pt_clust_5="14000.00000" pt_clust_6="57.09962"></scales>
<clustering>
<clus scale="   32.180">  1  4  2 -1</clus>
<clus scale="   57.100">  1  6  2 -1</clus>
<clus scale="   93.237">  1  3  2 -1</clus>
<clus scale="   32.180">  1  3  2 -1</clus>
</clustering>
</event>
<event>
 6    0  0.8991567E+002  0.1923755E+03  0.7546771E-02  0.1156336E+00
         21   -1    0    0  504  501  0.00000000000E+00  0.00000000000E+00  0.37157836315E+04  0.37157836315E+04  0.00000000000E+00 0. -1.
         21   -1    0    0  506  502 -0.00000000000E+00 -0.00000000000E+00 -0.13978470001E+03  0.13978470001E+03  0.00000000000E+00 0. -1.
         21    1    1    2  503  505 -0.10469462365E+03  0.10517641101E+03  0.17648212017E+04  0.17710496649E+04  0.00000000000E+00 0. -1.
         21    1    1    2  504  503  0.98485766792E+02  0.94721468064E+02  0.16760206955E+04  0.16815816884E+04  0.00000000000E+00 0. -1.
         21    1    1    2  505  502  0.84741465444E+02 -0.21429996747E+03  0.19602317711E+03  0.30254037415E+03  0.00000000000E+00 0. -1.
         21    1    1    2  506  501 -0.78532608587E+02  0.14402088397E+02 -0.60866142868E+02  0.10039660407E+03  0.00000000000E+00 0. -1.
<scales pt_clust_3="192.37553" pt_clust_4="134.48729" pt_clust_5="14000.00000" pt_clust_6="79.84229"></scales>
<clustering>
<clus scale="   79.842">  2  6  1 -1</clus>
<clus scale="  134.487">  1  4  2 -1</clus>
<clus scale="  192.376">  1  3  2 -1</clus>
<clus scale="  134.487">  1  3  2 -1</clus>
</clustering>
</event>
<event>
 6    0  0.8991567E+002  0.1639741E+03  0.7546771E-02  0.1184282E+00
         21   -1    0    0  506  501  0.00000000000E+00  0.00000000000E+00  0.47435347380E+02  0.47435347380E+02  0.00000000000E+00 0. -1.
         21   -1    0    0  503  502 -0.00000000000E+00 -0.00000000000E+00 -0.12584189157E+04  0.12584189157E+04  0.00000000000E+00 0. -1.
         21    1    1    2  503  501  0.10172587803E+03  0.13701120151E+02 -0.44390092216E+03  0.45561376587E+03  0.00000000000E+00 0. -1.
         21    1    1    2  504  502 -0.12457448239E+03 -0.15571649040E+03 -0.54761795166E+03  0.58279657517E+03  0.00000000000E+00 0. -1.
         21    1    1    2  505  504  0.17825735378E+02  0.10094252706E+03 -0.19239364957E+03  0.21799648393E+03  0.00000000000E+00 0. -1.
         21    1    1    2  506  505  0.50228689784E+01  0.41072843192E+02 -0.27071044884E+02  0.49447438071E+02  0.00000000000E+00 0. -1.
<scales pt_clust_3="102.64441" pt_clust_4="155.61630" pt_clust_5="32.83681" pt_clust_6="32.83681"></scales>
<clustering>
<clus scale="   32.837">  5  6 -1 -1</clus>
<clus scale="  102.644">  2  3  1 -1</clus>
<clus scale="  155.616">  2  4  1 -1</clus>
<clus scale="  163.974">  1  3  2 -1</clus>
</clustering>
</event>
<event>
 6    0  0.8991567E+002  0.1195001E+03  0.7546771E-02  0.1243924E+00
         21   -1    0    0  506  501  0.00000000000E+00  0.00000000000E+00  0.15223979191E+03  0.15223979191E+03  0.00000000000E+00 0. -1.
         21   -1    0    0  504  502 -0.00000000000E+00 -0.00000000000E+00 -0.46084694857E+03  0.46084694857E+03  0.00000000000E+00 0.  1.
         21    1    1    2  503  501  0.12703764555E+03  0.55153296985E+02  0.43710483498E+02  0.14522760042E+03  0.00000000000E+00 0. -1.
         21    1    1    2  504  503 -0.14226637177E+03 -0.81108162316E+02 -0.30302321004E+03  0.34444349370E+03  0.00000000000E+00 0.  1.
         21    1    1    2  505  502  0.58244019047E+02  0.21994230251E+02 -0.50556152471E+02  0.80199978003E+02  0.00000000000E+00 0. -1.
         21    1    1    2  506  505 -0.43015292835E+02  0.39606350802E+01  0.12617223567E+01  0.43215668353E+02  0.00000000000E+00 0.  1.
<scales pt_clust_3="14000.00000" pt_clust_4="119.50006" pt_clust_5="57.86999" pt_clust_6="43.19725"></scales>
<clustering>
<clus scale="   43.197">  1  6  2 -1</clus>
<clus scale="   57.870">  2  5  1 -1</clus>
<clus scale="  119.500">  2  4  1 -1</clus>
<clus scale="   43.197">  1  3  2 -1</clus>
</clustering>
</event>
<event>
 6    0  0.8991567E+002  0.8579718E+02  0.7546771E-02  0.1313361E+00
         21   -1    0    0  506  501  0.00000000000E+00  0.00000000000E+00  0.34287718636E+03  0.34287718636E+03  0.00000000000E+00 0.  1.
         21   -1    0    0  505  502 -0.00000000000E+00 -0.00000000000E+00 -0.17035511598E+03  0.17035511598E+03  0.00000000000E+00 0.  1.
         21    1    1    2  503  501 -0.38829145056E+02 -0.43890300099E+01  0.20974817683E+03  0.21335712731E+03  0.00000000000E+00 0.  1.
         21    1    1    2  504  503  0.52822236425E+02 -0.17596517614E+02  0.70412646517E+02  0.89765064934E+02  0.00000000000E+00 0.  1.
         21    1    1    2  505  504  0.75868520264E+02  0.27079608650E+02 -0.16913411931E+02  0.82312824486E+02  0.00000000000E+00 0.  1.
         21    1    1    2  506  502 -0.89861611633E+02 -0.50940610261E+01 -0.90725341039E+02  0.12779728561E+03  0.00000000000E+00 0.  1.
<scales pt_clust_3="39.07641" pt_clust_4="35.50021" pt_clust_5="85.79718" pt_clust_6="14000.00000"></scales>
<clustering>
<clus scale="   39.076">  1  3  2 -1</clus>
<clus scale="   35.500">  1  4  2 -1</clus>
<clus scale="   85.797">  1  5  2 -1</clus>
<clus scale="   39.076">  1  3  2 -1</clus>
</clustering>
</event>
<event>
 6    0  0.8991567E+002  0.1247974E+03  0.7546771E-02  0.1235386E+00
         21   -1    0    0  505  501  0.00000000000E+00  0.00000000000E+00  0.33787699842E+03  0.33787699842E+03  0.00000000000E+00 0.  1.
         21   -1    0    0  506  502 -0.00000000000E+00 -0.00000000000E+00 -0.43199144146E+03  0.43199144146E+03  0.00000000000E+00 0.  1.
         21    1    1    2  503  501  0.55163898894E+02  0.20252229945E+02  0.10745897269E+03  0.12247709733E+03  0.00000000000E+00 0.  1.
         21    1    1    2  504  503  0.59387050859E+02 -0.11902836509E+02  0.19054433704E+03  0.19993909999E+03  0.00000000000E+00 0.  1.
         21    1    1    2  505  502  0.33191206175E+02  0.78265330780E+01 -0.20826751253E+03  0.21104091443E+03  0.00000000000E+00 0.  1.
         21    1    1    2  506  504 -0.14774215593E+03 -0.16175926515E+02 -0.18385024023E+03  0.23641132814E+03  0.00000000000E+00 0.  1.
<scales pt_clust_3="43.73298" pt_clust_4="43.73298" pt_clust_5="34.10148" pt_clust_6="116.70384"></scales>
<clustering>
<clus scale="   34.101">  2  5  1 -1</clus>
<clus scale="   43.733">  3  4 -1 -1</clus>
<clus scale="  116.704">  2  6  1 -1</clus>
<clus scale="  124.797">  1  3  2 -1</clus>
</clustering>
</event>
<event>
 6    0  0.8991567E+002  0.8332798E+02  0.7546771E-02  0.1319864E+00
         21   -1    0    0  504  501  0.00000000000E+00  0.00000000000E+00  0.32739679235E+03  0.32739679235E+03  0.00000000000E+00 0.  1.
         21   -1    0    0  505  502 -0.00000000000E+00 -0.00000000000E+00 -0.52667085292E+03  0.52667085292E+03  0.00000000000E+00 0.  1.
         21    1    1    2  503  501 -0.44427863126E+02 -0.41917802797E+02  0.29559252701E+03  0.30183750469E+03  0.00000000000E+00 0.  1.
         21    1    1    2  504  502  0.30952044166E+02  0.11670062876E+03 -0.38277892113E+03  0.40136861892E+03  0.00000000000E+00 0.  1.
         21    1    1    2  505  506 -0.26299573821E+02 -0.19446065627E+02 -0.33006240810E+02  0.46467504602E+02  0.00000000000E+00 0.  1.
         21    1    1    2  506  503  0.39775392781E+02 -0.55336760332E+02 -0.79081425639E+02  0.10439401705E+03  0.00000000000E+00 0.  1.
<scales pt_clust_3="61.28965" pt_clust_4="14000.00000" pt_clust_5="32.70806" pt_clust_6="83.32798"></scales>
<clustering>
<clus scale="   32.708">  2  5  1 -1</clus>
<clus scale="   61.290">  1  3  2 -1</clus>
<clus scale="   83.328">  1  6  2 -1</clus>
<clus scale="   61.290">  1  3  2 -1</clus>
</clustering>
</event>
<event>
 6    0  0.8991567E+002  0.1335656E+03  0.7546771E-02  0.1222259E+00
         21   -1    0    0  504  501  0.00000000000E+00  0.00000000000E+00  0.23709883973E+03  0.23709883973E+03  0.00000000000E+00 0.  1.
         21   -1    0    0  506  502 -0.00000000000E+00 -0.00000000000E+00 -0.13936845856E+04  0.13936845856E+04  0.00000000000E+00 0. -1.
         21    1    1    2  503  501  0.30946521788E+02  0.71083405484E+01  0.12654384885E+03  0.13046670609E+03  0.00000000000E+00 0.  1.
         21    1    1    2  504  502 -0.43773016715E+02 -0.14610279912E+03 -0.19435943989E+03  0.24705808381E+03  0.00000000000E+00 0. -1.
         21    1    1    2  505  503  0.55821650613E+02  0.11697019131E+02  0.67977018136E+02  0.88734164381E+02  0.00000000000E+00 0.  1.
         21    1    1    2  506  505 -0.42995155686E+02  0.12729743944E+03 -0.11567471729E+04  0.11645244710E+04  0.00000000000E+00 0. -1.
<scales pt_clust_3="31.75241" pt_clust_4="14000.00000" pt_clust_5="79.94190" pt_clust_6="133.56560"></scales>
<clustering>
<clus scale="   31.752">  1  3  2 -1</clus>
<clus scale="   79.942">  1  5  2 -1</clus>
<clus scale="  133.566">  2  6  1 -1</clus>
<clus scale="   31.752">  1  3  2 -1</clus>
</clustering>
</event>
<event>
 6    0  0.8991567E+002  0.9294604E+02  0.7546771E-02  0.1295870E+00
         21   -1    0    0  506  501  0.00000000000E+00  0.00000000000E+00  0.21518452102E+03  0.21518452102E+03  0.00000000000E+00 0.  1.
         21   -1    0    0  503  502 -0.00000000000E+00 -0.00000000000E+00 -0.26056333636E+03  0.26056333636E+03  0.00000000000E+00 0.  1.
         21    1    1    2  503  505 -0.90089577391E+01  0.32709541947E+02 -0.51251113503E+02  0.61463420741E+02  0.00000000000E+00 0.  1.
         21    1    1    2  504  502 -0.34516351814E+02 -0.83187295650E+01 -0.14757391420E+03  0.15178484759E+03  0.00000000000E+00 0.  1.
         21    1    1    2  505  501 -0.80711318673E+02 -0.35862748008E+01  0.91701209373E+02  0.12221411592E+03  0.00000000000E+00 0.  1.
         21    1    1    2  506  504  0.12423662823E+03 -0.20804537581E+02  0.61745002990E+02  0.14028547313E+03  0.00000000000E+00 0.  1.
<scales pt_clust_3="33.92750" pt_clust_4="43.99965" pt_clust_5="92.94604" pt_clust_6="14000.00000"></scales>
<clustering>
<clus scale="   33.928">  2  3  1 -1</clus>
<clus scale="   44.000">  2  4  1 -1</clus>
<clus scale="   92.946">  1  5  2 -1</clus>
<clus scale="   92.946">  1  3  2 -1</clus>
</clustering>
</event>
<event>
 6    0  0.8991567E+002  0.7394235E+02  0.7546771E-02  0.1347178E+00
         21   -1    0    0  504  501  0.00000000000E+00  0.00000000000E+00  0.10781687702E+04  0.10781687702E+04  0.00000000000E+00 0. -1.
         21   -1    0    0  505  502 -0.00000000000E+00 -0.00000000000E+00 -0.29866942804E+02  0.29866942804E+02  0.00000000000E+00 0. -1.
         21    1    1    2  503  506 -0.75145248998E+02 -0.37307142725E+02  0.36159825540E+03  0.37120335351E+03  0.00000000000E+00 0.  1.
         21    1    1    2  504  503  0.36356857625E+02 -0.68462479163E+01  0.42007318920E+03  0.42169915401E+03  0.00000000000E+00 0. -1.
         21    1    1    2  505  501 -0.59604878403E+02  0.34464156343E+02  0.10092185374E+03  0.12217094648E+03  0.00000000000E+00 0. -1.
         21    1    1    2  506  502  0.98393269776E+02  0.96892342980E+01  0.16570852903E+03  0.19296225898E+03  0.00000000000E+00 0.  1.
<scales pt_clust_3="73.94235" pt_clust_4="36.99584" pt_clust_5="62.96286" pt_clust_6="14000.00000"></scales>
<clustering>
<clus scale="   36.996">  1  4  2 -1</clus>
<clus scale="   62.963">  2  5  1 -1</clus>
<clus scale="   73.942">  1  3  2 -1</clus>
<clus scale="   36.996">  1  3  2 -1</clus>
</clustering>
</event>
<event>
 6    0  0.8991567E+002  0.1367531E+03  0.7546771E-02  0.1217766E+00
         21   -1    0    0  503  501  0.00000000000E+00  0.00000000000E+00  0.80260857305E+02  0.80260857305E+02  0.00000000000E+00 0. -1.
         21   -1    0    0  505  502 -0.00000000000E+00 -0.00000000000E+00 -0.16643699242E+04  0.16643699242E+04  0.00000000000E+00 0. -1.
         21    1    1    2  503  502  0.32990185216E+02  0.24305248134E+02  0.25545162260E+01  0.41056338860E+02  0.00000000000E+00 0. -1.
         21    1    1    2  504  506  0.57983554134E+02 -0.97303148873E+02 -0.55874893790E+03  0.57011434900E+03  0.00000000000E+00 0.  1.
         21    1    1    2  505  504 -0.54123446461E+02 -0.50133075515E+02 -0.99900058665E+03  0.10017209416E+04  0.00000000000E+00 0. -1.
         21    1    1    2  506  501 -0.36850292889E+02  0.12313097625E+03 -0.28914058579E+02  0.13173915205E+03  0.00000000000E+00 0. -1.
<scales pt_clust_3="40.97679" pt_clust_4="136.75308" pt_clust_5="72.82707" pt_clust_6="14000.00000"></scales>
<clustering>
<clus scale="   40.977">  1  3  2 -1</clus>
<clus scale="   72.827">  2  5  1 -1</clus>
<clus scale="  136.753">  2  4  1 -1</clus>
<clus scale="   40.977">  1  3  2 -1</clus>
</clustering>
</event>
<event>
 6    0  0.8991567E+002  0.9728569E+02  0.7546771E-02  0.1286110E+00
         21   -1    0    0  503  501  0.00000000000E+00  0.00000000000E+00  0.23715240751E+03  0.23715240751E+03  0.00000000000E+00 0.  1.
         21   -1    0    0  506  502 -0.00000000000E+00 -0.00000000000E+00 -0.20981620035E+04  0.20981620035E+04  0.00000000000E+00 0.  1.
         21    1    1    2  503  505 -0.37131055906E+02 -0.27606200100E+01 -0.47953474433E+02  0.60711383164E+02  0.00000000000E+00 0.  1.
         21    1    1    2  504  501  0.45450485443E+01 -0.94473251662E+02  0.21041710181E+03  0.23069722469E+03  0.00000000000E+00 0.  1.
         21    1    1    2  505  502 -0.23606164937E+02  0.90013647326E+02 -0.21173649914E+03  0.23128349011E+03  0.00000000000E+00 0.  1.
         21    1    1    2  506  504  0.56192172299E+02  0.72202243457E+01 -0.18117367242E+04  0.18126223130E+04  0.00000000000E+00 0.  1.
<scales pt_clust_3="37.23354" pt_clust_4="97.28569" pt_clust_5="14000.00000" pt_clust_6="56.58280"></scales>
<clustering>
<clus scale="   37.234">  1  3  2 -1</clus>
<clus scale="   56.583">  2  6  1 -1</clus>
<clus scale="   97.286">  1  4  2 -1</clus>
<clus scale="   37.234">  1  3  2 -1</clus>
</clustering>
</event>
<event>
 6    0  0.8991567E+002  0.1053744E+03  0.7546771E-02  0.1269384E+00
         21   -1    0    0  503  501  0.00000000000E+00  0.00000000000E+00  0.11948617634E+04  0.11948617634E+04  0.00000000000E+00 0.  1.
         21   -1    0    0  504  502 -0.00000000000E+00 -0.00000000000E+00 -0.50890615211E+02  0.50890615211E+02  0.00000000000E+00 0.  1.
         21    1    1    2  503  502 -0.18694355139E+02 -0.37465170546E+02  0.40906286856E+02  0.58535819995E+02  0.00000000000E+00 0.  1.
         21    1    1    2  504  506  0.90748797248E+02 -0.43549911835E+02  0.30280749929E+02  0.10511357115E+03  0.00000000000E+00 0.  1.
         21    1    1    2  505  501  0.16885397064E+02  0.33427961154E+02  0.19692148121E+03  0.20045102889E+03  0.00000000000E+00 0.  1.
         21    1    1    2  506  505 -0.88939839173E+02  0.47587121227E+02  0.87586263018E+03  0.88165195856E+03  0.00000000000E+00 0.  1.
<scales pt_clust_3="40.00104" pt_clust_4="105.37442" pt_clust_5="37.45057" pt_clust_6="14000.00000"></scales>
<clustering>
<clus scale="   37.451">  1  5  2 -1</clus>
<clus scale="   40.001">  2  3  1 -1</clus>
<clus scale="  105.374">  2  4  1 -1</clus>
<clus scale="   37.451">  1  3  2 -1</clus>
</clustering>
</event>
<event>
 6    0  0.8991567E+002  0.6401717E+02  0.7546771E-02  0.1381707E+00
         21   -1    0    0  506  501  0.00000000000E+00  0.00000000000E+00  0.10914556767E+04  0.10914556767E+04  0.00000000000E+00 0.  1.
         21   -1    0    0  504  502 -0.00000000000E+00 -0.00000000000E+00 -0.23673214662E+03  0.23673214662E+03  0.00000000000E+00 0. -1.
         21    1    1    2  503  502  0.43189844295E+02 -0.20913139117E+02 -0.14857870851E+03  0.15613569310E+03  0.00000000000E+00 0. -1.
         21    1    1    2  504  501  0.67448187812E+01  0.62060308726E+02 -0.60600424935E+02  0.87002218373E+02  0.00000000000E+00 0. -1.
         21    1    1    2  505  503 -0.25639924352E+02 -0.86470303329E+02  0.19746336112E+03  0.21708592323E+03  0.00000000000E+00 0.  1.
         21    1    1    2  506  505 -0.24294738724E+02  0.45323133720E+02  0.86643930237E+03  0.86796398858E+03  0.00000000000E+00 0.  1.
<scales pt_clust_3="47.98669" pt_clust_4="64.01717" pt_clust_5="14000.00000" pt_clust_6="51.07367"></scales>
<clustering>
<clus scale="   47.987">  2  3  1 -1</clus>
<clus scale="   51.074">  1  6  2 -1</clus>
<clus scale="   64.017">  2  4  1 -1</clus>
<clus scale="   51.074">  1  3  2 -1</clus>
</clustering>
</event>
<event>
 6    0  0.8991567E+002  0.7946930E+02  0.7546771E-02  0.1330564E+00
         21   -1    0    0  503  501  0.00000000000E+00  0.00000000000E+00  0.93102479505E+03  0.93102479505E+03  0.00000000000E+00 0. -1.
         21   -1    0    0  504  502 -0.00000000000E+00 -0.00000000000E+00 -0.44418736046E+02  0.44418736046E+02  0.00000000000E+00 0. -1.
         21    1    1    2  503  505  0.29851850458E+02 -0.67947061140E+01  0.42484750298E+03  0.42594917748E+03  0.00000000000E+00 0.  1.
         21    1    1    2  504  506 -0.42103432490E+02  0.18805036025E+01 -0.35056069555E+01  0.42290951768E+02  0.00000000000E+00 0. -1.
         21    1    1    2  505  502  0.10121118513E+03  0.58841297705E+01  0.16154486201E+03  0.19072249322E+03  0.00000000000E+00 0. -1.
         21    1    1    2  506  501 -0.88959603102E+02 -0.96992725902E+00  0.30371930097E+03  0.31648090863E+03  0.00000000000E+00 0. -1.
<scales pt_clust_3="30.61537" pt_clust_4="40.99052" pt_clust_5="79.46930" pt_clust_6="14000.00000"></scales>
<clustering>
<clus scale="   30.615">  1  3  2 -1</clus>
<clus scale="   40.991">  2  4  1 -1</clus>
<clus scale="   79.469">  2  5  1 -1</clus>
<clus scale="   30.615">  1  3  2 -1</clus>
</clustering>
</event>
<event>
 6    0  0.8991567E+002  0.5924460E+02  0.7546771E-02  0.1401029E+00
         21   -1    0    0  505  501  0.00000000000E+00  0.00000000000E+00  0.13953260959E+03  0.13953260959E+03  0.00000000000E+00 0.  1.
         21   -1    0    0  503  502 -0.00000000000E+00 -0.00000000000E+00 -0.41386023047E+03  0.41386023047E+03  0.00000000000E+00 0.  1.
         21    1    1    2  503  504  0.20030729513E+02 -0.25525109837E+02 -0.27218080439E+03  0.27410791969E+03  0.00000000000E+00 0.  1.
         21    1    1    2  504  501  0.34765784893E+02  0.37442966892E+02  0.23979781763E+02  0.56441700030E+02  0.00000000000E+00 0.  1.
         21    1    1    2  505  506 -0.28362626428E+02 -0.85237908192E+02  0.58961731748E+02  0.10745429438E+03  0.00000000000E+00 0.  1.
         21    1    1    2  506  502 -0.26433887979E+02  0.73320051138E+02 -0.85088329997E+02  0.11538892596E+03  0.00000000000E+00 0.  1.
<scales pt_clust_3="32.44628" pt_clust_4="50.64397" pt_clust_5="14000.00000" pt_clust_6="59.24460"></scales>
<clustering>
<clus scale="   32.446">  2  3  1 -1</clus>
<clus scale="   50.644">  1  4  2 -1</clus>
<clus scale="   59.245">  2  6  1 -1</clus>
<clus scale="   50.644">  1  3  2 -1</clus>
</clustering>
</event>
<event>
 6    0  0.8991567E+002  0.1712579E+03  0.7546771E-02  0.1176542E+00
         21   -1    0    0  503  501  0.00000000000E+00  0.00000000000E+00  0.33004150739E+02  0.33004150739E+02  0.00000000000E+00 0.  1.
         21   -1    0    0  505  502 -0.00000000000E+00 -0.00000000000E+00 -0.14527640334E+04  0.14527640334E+04  0.00000000000E+00 0. -1.
         21    1    1    2  503  504 -0.62869103224E+02 -0.72541030944E+02 -0.27523857566E+03  0.29149785392E+03  0.00000000000E+00 0.  1.
         21    1    1    2  504  502 -0.51783665646E+02 -0.26474742758E+02 -0.59627452348E+02  0.83294016024E+02  0.00000000000E+00 0.  1.
         21    1    1    2  505  506  0.38473450049E+02 -0.51902304742E+02 -0.41932863254E+03  0.42427651086E+03  0.00000000000E+00 0. -1.
         21    1    1    2  506  501  0.76179318822E+02  0.15091807844E+03 -0.66556522214E+03  0.68669980337E+03  0.00000000000E+00 0. -1.
<scales pt_clust_3="57.11531" pt_clust_4="57.11531" pt_clust_5="64.60693" pt_clust_6="154.74164"></scales>
<clustering>
<clus scale="   57.115">  3  4 -1 -1</clus>
<clus scale="   64.607">  2  5  1 -1</clus>
<clus scale="  154.742">  2  6  1 -1</clus>
<clus scale="  171.258">  1  3  2 -1</clus>
</clustering>
</event>
<event>
 6    0  0.8991567E+002  0.7373326E+02  0.7546771E-02  0.1347839E+00
         21   -1    0    0  506  501  0.00000000000E+00  0.00000000000E+00  0.20619599865E+03  0.20619599865E+03  0.00000000000E+00 0.  1.
         21   -1    0    0  503  502 -0.00000000000E+00 -0.00000000000E+00 -0.36431281669E+03  0.36431281669E+03  0.00000000000E+00 0.  1.
         21    1    1    2  503  501  0.55278037931E+01  0.10795627116E+03 -0.23679228639E+02  0.11066082851E+03  0.00000000000E+00 0.  1.
         21    1    1    2  504  502 -0.14089770186E+02 -0.69021379195E+02 -0.28462939446E+03  0.29321726518E+03  0.00000000000E+00 0.  1.
         21    1    1    2  505  504 -0.22773852294E+02 -0.33132965356E+02  0.79523793242E+02  0.89109345375E+02  0.00000000000E+00 0. -1.
         21    1    1    2  506  505  0.31335818686E+02 -0.58019266066E+01  0.70668011824E+02  0.77521376279E+02  0.00000000000E+00 0.  1.
<scales pt_clust_3="73.73326" pt_clust_4="14000.00000" pt_clust_5="36.94041" pt_clust_6="31.86842"></scales>
<clustering>
<clus scale="   31.868">  1  6  2 -1</clus>
<clus scale="   36.940">  1  5  2 -1</clus>
<clus scale="   73.733">  1  3  2 -1</clus>
<clus scale="   31.868">  1  3  2 -1</clus>
</clustering>
</event>
<event>
 6    0  0.8991567E+002  0.9037816E+02  0.7546771E-02  0.1301938E+00
         21   -1    0    0  505  501  0.00000000000E+00  0.00000000000E+00  0.12671953610E+04  0.12671953610E+04  0.00000000000E+00 0.  1.
         21   -1    0    0  506  502 -0.00000000000E+00 -0.00000000000E+00 -0.57035146566E+03  0.57035146566E+03  0.00000000000E+00 0.  1.
         21    1    1    2  503  502 -0.39846237975E+02 -0.11150890394E+03 -0.36866442746E+03  0.38721495118E+03  0.00000000000E+00 0.  1.
         21    1    1    2  504  503  0.51083129999E+02  0.50344802663E+02 -0.15160322213E+03  0.16771291627E+03  0.00000000000E+00 0. -1.
         21    1    1    2  505  504  0.35519535413E+02  0.43837825970E+02  0.12298584732E+04  0.12311520038E+04  0.00000000000E+00 0.  1.
         21    1    1    2  506  501 -0.46756427437E+02  0.17326275311E+02 -0.12746928231E+02  0.51466955439E+02  0.00000000000E+00 0. -1.
<scales pt_clust_3="90.37816" pt_clust_4="14000.00000" pt_clust_5="56.40239" pt_clust_6="49.86345"></scales>
<clustering>
<clus scale="   49.863">  2  6  1 -1</clus>
<clus scale="   56.402">  1  5  2 -1</clus>
<clus scale="   90.378">  2  3  1 -1</clus>
<clus scale="   56.402">  1  3  2 -1</clus>
</clustering>
</event>
<event>
 6    0  0.8991567E+002  0.1639698E+03  0.7546771E-02  0.1184286E+00
         21   -1    0    0  506  501  0.00000000000E+00  0.00000000000E+00  0.11124111488E+04  0.11124111488E+04  0.00000000000E+00 0.  1.
         21   -1    0    0  503  502 -0.00000000000E+00 -0.00000000000E+00 -0.74031302539E+03  0.74031302539E+03  0.00000000000E+00 0.  1.
         21    1    1    2  503  505  0.79866392013E+01  0.60887627399E+02 -0.11801947297E+03  0.13304016528E+03  0.00000000000E+00 0.  1.
         21    1    1    2  504  501 -0.73208833386E+01 -0.32821224873E+02  0.10296000145E+04  0.10301490271E+04  0.00000000000E+00 0.  1.
         21    1    1    2  505  504 -0.64842809587E+02  0.10841522440E+03 -0.52274388070E+03  0.53779142392E+03  0.00000000000E+00 0.  1.
         21    1    1    2  506  502  0.64177053724E+02 -0.13648162693E+03 -0.16738537482E+02  0.15174355786E+03  0.00000000000E+00 0.  1.
<scales pt_clust_3="58.36202" pt_clust_4="33.62779" pt_clust_5="163.96983" pt_clust_6="14000.00000"></scales>
<clustering>
<clus scale="   33.628">  1  4  2 -1</clus>
<clus scale="   58.362">  2  3  1 -1</clus>
<clus scale="  163.970">  2  5  1 -1</clus>
<clus scale="   33.628">  1  3  2 -1</clus>
</clustering>
</event>
<event>
 6    0  0.8991567E+002  0.1057276E+03  0.7546771E-02  0.1268693E+00
         21   -1    0    0  506  501  0.00000000000E+00  0.00000000000E+00  0.69527655548E+03  0.69527655548E+03  0.00000000000E+00 0. -1.
         21   -1    0    0  504  502 -0.00000000000E+00 -0.00000000000E+00 -0.33146741057E+03  0.33146741057E+03  0.00000000000E+00 0. -1.
         21    1    1    2  503  502 -0.34958316463E+02 -0.93568375084E+00 -0.29697389547E+03  0.29902584167E+03  0.00000000000E+00 0. -1.
         21    1    1    2  504  501 -0.10100616405E+03 -0.14966315655E+02  0.13341331604E+03  0.16800401387E+03  0.00000000000E+00 0. -1.
         21    1    1    2  505  503  0.11165594580E+03 -0.10836578905E+02  0.19174827258E+03  0.22215283413E+03  0.00000000000E+00 0. -1.
         21    1    1    2  506  505  0.24308534717E+02  0.26738578311E+02  0.33562145176E+03  0.33756127638E+03  0.00000000000E+00 0. -1.
<scales pt_clust_3="34.97084" pt_clust_4="105.72762" pt_clust_5="14000.00000" pt_clust_6="35.44261"></scales>
<clustering>
<clus scale="   34.971">  2  3  1 -1</clus>
<clus scale="   35.443">  1  6  2 -1</clus>
<clus scale="  105.728">  1  4  2 -1</clus>
<clus scale="   35.443">  1  3  2 -1</clus>
</clustering>
</event>
<event>
 6    0  0.8991567E+002  0.8881910E+02  0.7546771E-02  0.1305737E+00
         21   -1    0    0  504  501  0.00000000000E+00  0.00000000000E+00  0.44725881062E+03  0.44725881062E+03  0.00000000000E+00 0.  1.
         21   -1    0    0  503  502 -0.00000000000E+00 -0.00000000000E+00 -0.12241673895E+04  0.12241673895E+04  0.00000000000E+00 0.  1.
         21    1    1    2  503  505 -0.28255389409E+02 -0.21903878130E+02 -0.81995564409E+03  0.82073467404E+03  0.00000000000E+00 0.  1.
         21    1    1    2  504  506 -0.10109842026E+03 -0.28361208360E+02  0.37812945671E+03  0.39243742781E+03  0.00000000000E+00 0.  1.
         21    1    1    2  505  501  0.34956384942E+02 -0.28471045066E+02  0.42015664036E+02  0.61626822729E+02  0.00000000000E+00 0.  1.
         21    1    1    2  506  502  0.94397424728E+02  0.78736131556E+02 -0.37709805555E+03  0.39662727555E+03  0.00000000000E+00 0.  1.
<scales pt_clust_3="35.75118" pt_clust_4="88.81910" pt_clust_5="44.89568" pt_clust_6="14000.00000"></scales>
<clustering>
<clus scale="   35.751">  2  3  1 -1</clus>
<clus scale="   44.896">  1  5  2 -1</clus>
<clus scale="   88.819">  1  4  2 -1</clus>
<clus scale="   44.896">  1  3  2 -1</clus>
</clustering>
</event>
<event>
 6    0  0.8991567E+002  0.1019681E+03  0.7546771E-02  0.1276211E+00
         21   -1    0    0  506  501  0.00000000000E+00  0.00000000000E+00  0.34064743353E+03  0.34064743353E+03  0.00000000000E+00 0. -1.
         21   -1    0    0  504  502 -0.00000000000E+00 -0.00000000000E+00 -0.43913838751E+03  0.43913838751E+03  0.00000000000E+00 0.  1.
         21    1    1    2  503  502  0.28791291016E+01 -0.52064564852E+02 -0.32771624262E+03  0.33183873187E+03  0.00000000000E+00 0.  1.
         21    1    1    2  504  505 -0.10048884209E+03  0.83140786253E+02 -0.32321876574E+02  0.13436927264E+03  0.00000000000E+00 0. -1.
         21    1    1    2  505  501  0.38746354980E+02 -0.77540058914E+02  0.19467284659E+03  0.21309917400E+03  0.00000000000E+00 0. -1.
         21    1    1    2  506  503  0.58863358011E+02  0.46463837513E+02  0.66874318621E+02  0.10047864253E+03  0.00000000000E+00 0. -1.
<scales pt_clust_3="52.14411" pt_clust_4="14000.00000" pt_clust_5="101.96813" pt_clust_6="70.68732"></scales>
<clustering>
<clus scale="   52.144">  2  3  1 -1</clus>
<clus scale="   70.687">  1  6  2 -1</clus>
<clus scale="  101.968">  1  5  2 -1</clus>
<clus scale="   70.687">  1  3  2 -1</clus>
</clustering>
</event>
<event>
 6    0  0.8991567E+002  0.9237762E+02  0.7546771E-02  0.1297194E+00
         21   -1    0    0  505  501  0.00000000000E+00  0.00000000000E+00  0.72706636129E+02  0.72706636129E+02  0.00000000000E+00 0. -1.
         21   -1    0    0  503  502 -0.00000000000E+00 -0.00000000000E+00 -0.35293425159E+03  0.35293425159E+03  0.00000000000E+00 0. -1.
         21    1    1    2  503  501  0.12358208634E+01 -0.11315615012E+03 -0.10778270857E+03  0.15627844967E+03  0.00000000000E+00 0. -1.
         21    1    1    2  504  506  0.13492207571E+02  0.77788118554E+02 -0.21479513522E+02  0.81819316511E+02  0.00000000000E+00 0. -1.
         21    1    1    2  505  504  0.37834000752E+02  0.32602944365E+01 -0.20233273281E+02  0.43028205638E+02  0.00000000000E+00 0. -1.
         21    1    1    2  506  502 -0.52562029186E+02  0.32107737133E+02 -0.13073212009E+03  0.14451491591E+03  0.00000000000E+00 0. -1.
<scales pt_clust_3="92.37762" pt_clust_4="14000.00000" pt_clust_5="37.97422" pt_clust_6="58.20967"></scales>
<clustering>
<clus scale="   37.974">  1  5  2 -1</clus>
<clus scale="   58.210">  2  6  1 -1</clus>
<clus scale="   92.378">  2  3  1 -1</clus>
<clus scale="   37.974">  1  3  2 -1</clus>
</clustering>
</event>
<event>
 6    0  0.8991567E+002  0.9126397E+02  0.7546771E-02  0.1299819E+00
         21   -1    0    0  504  501  0.00000000000E+00  0.00000000000E+00  0.14525139303E+04  0.14525139303E+04  0.00000000000E+00 0. -1.
         21   -1    0    0  503  502 -0.00000000000E+00 -0.00000000000E+00 -0.38432954515E+02  0.38432954515E+02  0.00000000000E+00 0. -1.
         21    1    1    2  503  506 -0.15975559333E+01  0.42796194467E+02  0.14030382152E+02  0.45065708350E+02  0.00000000000E+00 0. -1.
         21    1    1    2  504  502 -0.44857011599E+02 -0.11690781021E+03  0.18599970117E+03  0.22422193562E+03  0.00000000000E+00 0. -1.
         21    1    1    2  505  501  0.30967570534E+02 -0.55102188000E+01  0.74373694292E+03  0.74440176867E+03  0.00000000000E+00 0. -1.
         21    1    1    2  506  505  0.15486996999E+02  0.79621834542E+02  0.47031394952E+03  0.47725747215E+03  0.00000000000E+00 0. -1.
<scales pt_clust_3="42.56747" pt_clust_4="91.26397" pt_clust_5="31.45398" pt_clust_6="14000.00000"></scales>
<clustering>
<clus scale="   31.454">  1  5  2 -1</clus>
<clus scale="   42.567">  2  3  1 -1</clus>
<clus scale="   91.264">  2  4  1 -1</clus>
<clus scale="   31.454">  1  3  2 -1</clus>
</clustering>
</event>
<event>
 6    0  0.8991567E+002  0.1140077E+03  0.7546771E-02  0.1253323E+00
         21   -1    0    0  505  501  0.00000000000E+00  0.00000000000E+00  0.30696167824E+03  0.30696167824E+03  0.00000000000E+00 0.  1.
         21   -1    0    0  506  502 -0.00000000000E+00 -0.00000000000E+00 -0.15901100777E+03  0.15901100777E+03  0.00000000000E+00 0.  1.
         21    1    1    2  503  504  0.38514578141E+02 -0.13118739724E+03  0.11728155118E+03  0.18013458349E+03  0.00000000000E+00 0.  1.
         21    1    1    2  504  502  0.14431396386E+02 -0.26708829056E+02 -0.40245292338E+02  0.50411410480E+02  0.00000000000E+00 0.  1.
         21    1    1    2  505  503 -0.69303107035E+02  0.76806028456E+02  0.10366770542E+03  0.14645504361E+03  0.00000000000E+00 0.  1.
         21    1    1    2  506  501  0.16357132508E+02  0.81090197837E+02 -0.32753293795E+02  0.88971648425E+02  0.00000000000E+00 0.  1.
<scales pt_clust_3="14000.00000" pt_clust_4="30.35831" pt_clust_5="114.00765" pt_clust_6="71.00035"></scales>
<clustering>
<clus scale="   30.358">  2  4  1 -1</clus>
<clus scale="   71.000">  2  6  1 -1</clus>
<clus scale="  114.008">  1  5  2 -1</clus>
<clus scale="  114.008">  1  3  2 -1</clus>
</clustering>
</event>
<event>
 6    0  0.8991567E+002  0.1681139E+03  0.7546771E-02  0.1179829E+00
         21   -1    0    0  505  501  0.00000000000E+00  0.00000000000E+00  0.63482266812E+03  0.63482266812E+03  0.00000000000E+00 0. -1.
         21   -1    0    0  503  502 -0.00000000000E+00 -0.00000000000E+00 -0.18519033686E+03  0.18519033686E+03  0.00000000000E+00 0. -1.
         21    1    1    2  503  501  0.15779796387E+03 -0.40739820640E+02  0.44915302194E+03  0.47780578429E+03  0.00000000000E+00 0. -1.
         21    1    1    2  504  502 -0.39506233852E+02  0.15746306386E+03  0.84425670493E+01  0.16256271384E+03  0.00000000000E+00 0. -1.
         21    1    1    2  505  506 -0.28140208312E+02 -0.57948030311E+02 -0.27887920379E+02  0.70196735279E+02  0.00000000000E+00 0. -1.
         21    1    1    2  506  504 -0.90151521708E+02 -0.58775212911E+02  0.19924662651E+02  0.10944777157E+03  0.00000000000E+00 0.  1.
<scales pt_clust_3="153.85314" pt_clust_4="162.34334" pt_clust_5="52.42524" pt_clust_6="52.42524"></scales>
<clustering>
<clus scale="   52.425">  5  6 -1 -1</clus>
<clus scale="  162.343">  2  4  1 -1</clus>
<clus scale="  153.853">  1  3  2 -1</clus>
<clus scale="  153.853">  1  3  2 -1</clus>
</clustering>
</event>
<event>
 6    0  0.8991567E+002  0.7272408E+02  0.7546771E-02  0.1351067E+00
         21   -1    0    0  505  501  0.00000000000E+00  0.00000000000E+00  0.27789498889E+03  0.27789498889E+03  0.00000000000E+00 0.  1.
         21   -1    0    0  504  502 -0.00000000000E+00 -0.00000000000E+00 -0.28335453762E+03  0.28335453762E+03  0.00000000000E+00 0. -1.
         21    1    1    2  503  501  0.72129765165E+02  0.10466494502E+02  0.17273889918E+03  0.18748594033E+03  0.00000000000E+00 0.  1.
         21    1    1    2  504  503  0.59735282644E+02  0.30715596535E+02 -0.95891207159E+01  0.67850593948E+02  0.00000000000E+00 0. -1.
         21    1    1    2  505  506 -0.61270862882E+02 -0.57127951026E+02  0.34270692628E+02  0.90510782783E+02  0.00000000000E+00 0. -1.
         21    1    1    2  506  502 -0.70594184927E+02  0.15945859989E+02 -0.20288001982E+03  0.21540220945E+03  0.00000000000E+00 0. -1.
<scales pt_clust_3="14000.00000" pt_clust_4="67.16958" pt_clust_5="72.72408" pt_clust_6="46.50287"></scales>
<clustering>
<clus scale="   67.170">  2  4  1 -1</clus>
<clus scale="   46.503">  2  6  1 -1</clus>
<clus scale="   72.724">  2  5  1 -1</clus>
<clus scale="   72.724">  1  3  2 -1</clus>
</clustering>
</event>
<event>
 6    0  0.8991567E+002  0.1766991E+03  0.7546771E-02  0.1171036E+00
         21   -1    0    0  504  501  0.00000000000E+00  0.00000000000E+00  0.40380278972E+03  0.40380278972E+03  0.00000000000E+00 0. -1.
         21   -1    0    0  503  502 -0.00000000000E+00 -0.00000000000E+00 -0.62029338640E+03  0.62029338640E+03  0.00000000000E+00 0. -1.
         21    1    1    2  503  506 -0.78995420741E+02  0.17093084286E+03 -0.51242615833E+03  0.54592874744E+03  0.00000000000E+00 0. -1.
         21    1    1    2  504  502  0.13308232993E+02 -0.38024409402E+02  0.84991005501E+02  0.94055493151E+02  0.00000000000E+00 0. -1.
         21    1    1    2  505  501 -0.28467418756E+02 -0.27713031512E+02  0.23720925028E+03  0.24051327295E+03  0.00000000000E+00 0. -1.
         21    1    1    2  506  505  0.94154606504E+02 -0.10519340195E+03 -0.26264694139E+02  0.14359866259E+03  0.00000000000E+00 0. -1.
<scales pt_clust_3="176.69910" pt_clust_4="53.10911" pt_clust_5="39.72916" pt_clust_6="14000.00000"></scales>
<clustering>
<clus scale="   39.729">  1  5  2 -1</clus>
<clus scale="   53.109">  1  4  2 -1</clus>
<clus scale="  176.699">  2  3  1 -1</clus>
<clus scale="   39.729">  1  3  2 -1</clus>
</clustering>
</event>
<event>
 6    0  0.8991567E+002  0.1115345E+03  0.7546771E-02  0.1257754E+00
         21   -1    0    0  504  501  0.00000000000E+00  0.00000000000E+00  0.11458450381E+04  0.11458450381E+04  0.00000000000E+00 0. -1.
         21   -1    0    0  503  502 -0.00000000000E+00 -0.00000000000E+00 -0.43068602129E+02  0.43068602129E+02  0.00000000000E+00 0. -1.
         21    1    1    2  503  505  0.86735731061E+02  0.57529423511E+02  0.66706895984E+03  0.67513977722E+03  0.00000000000E+00 0. -1.
         21    1    1    2  504  506 -0.46085012927E+02 -0.92993188824E+02  0.12287040689E+03  0.16083749088E+03  0.00000000000E+00 0. -1.
         21    1    1    2  505  501 -0.10238816224E+02  0.35323000455E+02  0.31965961633E+03  0.32176826759E+03  0.00000000000E+00 0. -1.
         21    1    1    2  506  502 -0.30411901911E+02  0.14076485755E+00 -0.68225470674E+01  0.31168104547E+02  0.00000000000E+00 0. -1.
<scales pt_clust_3="14000.00000" pt_clust_4="111.53453" pt_clust_5="37.17569" pt_clust_6="30.41223"></scales>
<clustering>
<clus scale="   30.412">  2  6  1 -1</clus>
<clus scale="   37.176">  1  5  2 -1</clus>
<clus scale="  111.535">  2  4  1 -1</clus>
<clus scale="   37.176">  1  3  2 -1</clus>
</clustering>
</event>
<event>
 6    0  0.8991567E+002  0.1415939E+03  0.7546771E-02  0.1211200E+00
         21   -1    0    0  503  501  0.00000000000E+00  0.00000000000E+00  0.37671157489E+03  0.37671157489E+03  0.00000000000E+00 0.  1.
         21   -1    0    0  506  502 -0.00000000000E+00 -0.00000000000E+00 -0.38166844264E+03  0.38166844264E+03  0.00000000000E+00 0. -1.
         21    1    1    2  503  505  0.33009402340E+01  0.72341190303E+02  0.57395286888E+02  0.92403262809E+02  0.00000000000E+00 0.  1.
         21    1    1    2  504  502  0.35191676491E+02 -0.38187761238E+02 -0.70250717846E+02  0.87360875457E+02  0.00000000000E+00 0. -1.
         21    1    1    2  505  504  0.77360785030E+02 -0.22570869631E+02 -0.26762864087E+03  0.27949816570E+03  0.00000000000E+00 0. -1.
         21    1    1    2  506  501 -0.11585340176E+03 -0.11582559433E+02  0.27552720408E+03  0.29911771356E+03  0.00000000000E+00 0.  1.
<scales pt_clust_3="72.41646" pt_clust_4="51.17130" pt_clust_5="51.17130" pt_clust_6="126.43335"></scales>
<clustering>
<clus scale="   51.171">  4  5 -1 -1</clus>
<clus scale="   72.416">  1  3  2 -1</clus>
<clus scale="  126.433">  1  6  2 -1</clus>
<clus scale="   72.416">  1  3  2 -1</clus>
</clustering>
</event>
<event>
 6    0  0.9983576E+002  0.8554422E+02  0.7546771E-02  0.1314015E+00
         21   -1    0    0  505  501  0.00000000000E+00  0.00000000000E+00  0.13156952449E+04  0.13156952449E+04  0.00000000000E+00 0. -1.
         21   -1    0    0  503  502 -0.00000000000E+00 -0.00000000000E+00 -0.13260216028E+03  0.13260216028E+03  0.00000000000E+00 0. -1.
         21    1    1    2  503  504  0.10457027860E+03  0.15764950536E+02 -0.62629984791E+02  0.12290643526E+03  0.00000000000E+00 0. -1.
         21    1    1    2  504  501 -0.69423280933E+02  0.46371831276E+02  0.20451934225E+02  0.85954757198E+02  0.00000000000E+00 0. -1.
         21    1    1    2  505  506 -0.15422377923E+02 -0.32910194074E+02  0.11863961009E+04  0.11869526692E+04  0.00000000000E+00 0. -1.
         21    1    1    2  506  502 -0.19724619747E+02 -0.29226587738E+02  0.38875034314E+02  0.52483543591E+02  0.00000000000E+00 0.  1.
<scales pt_clust_3="85.54422" pt_clust_4="14000.00000" pt_clust_5="36.42167" pt_clust_6="35.25981"></scales>
<clustering>
<clus scale="   35.260">  2  6  1 -1</clus>
<clus scale="   36.422">  1  5  2 -1</clus>
<clus scale="   85.544">  2  3  1 -1</clus>
<clus scale="   36.422">  1  3  2 -1</clus>
</clustering>
</event>
<event>
 6    0  0.8991567E+002  0.1033464E+03  0.7546771E-02  0.1273412E+00
         21   -1    0    0  505  501  0.00000000000E+00  0.00000000000E+00  0.46650129472E+03  0.46650129472E+03  0.00000000000E+00 0.  1.
         21   -1    0    0  504  502 -0.00000000000E+00 -0.00000000000E+00 -0.25171016426E+03  0.25171016426E+03  0.00000000000E+00 0.  1.
         21    1    1    2  503  501  0.21885541532E+02  0.79443014538E+02  0.12009637563E+03  0.14564789366E+03  0.00000000000E+00 0.  1.
         21    1    1    2  504  503 -0.46112507487E+02  0.89857578797E+02 -0.19960159296E+03  0.22369967306E+03  0.00000000000E+00 0.  1.
         21    1    1    2  505  506 -0.21947575138E+02 -0.23533323230E+02  0.74086768233E+02  0.80773526504E+02  0.00000000000E+00 0. -1.
         21    1    1    2  506  502  0.46174541093E+02 -0.14576727011E+03  0.22020957956E+03  0.26809036575E+03  0.00000000000E+00 0.  1.
<scales pt_clust_3="72.84169" pt_clust_4="103.34641" pt_clust_5="32.17939" pt_clust_6="14000.00000"></scales>
<clustering>
<clus scale="   32.179">  1  5  2 -1</clus>
<clus scale="   72.842">  1  3  2 -1</clus>
<clus scale="  103.346">  2  4  1 -1</clus>
<clus scale="   32.179">  1  3  2 -1</clus>
</clustering>
</event>
<event>
 6    0  0.8991567E+002  0.8594700E+02  0.7546771E-02  0.1312974E+00
         21   -1    0    0  504  501  0.00000000000E+00  0.00000000000E+00  0.18660322547E+04  0.18660322547E+04  0.00000000000E+00 0.  1.
         21   -1    0    0  505  502 -0.00000000000E+00 -0.00000000000E+00 -0.49419123323E+02  0.49419123323E+02  0.00000000000E+00 0.  1.
         21    1    1    2  503  506 -0.34863867557E+02  0.34709954769E+02  0.85713238597E+02  0.98828282854E+02  0.00000000000E+00 0.  1.
         21    1    1    2  504  503  0.37761336369E+02 -0.23003071223E+02  0.14290377378E+04  0.14297216218E+04  0.00000000000E+00 0.  1.
         21    1    1    2  505  501  0.78898897832E+02 -0.37653244477E+02  0.28673404109E+03  0.29976526353E+03  0.00000000000E+00 0.  1.
         21    1    1    2  506  502 -0.81796366643E+02  0.25946360931E+02  0.15128113943E+02  0.87136209885E+02  0.00000000000E+00 0.  1.
<scales pt_clust_3="40.17135" pt_clust_4="44.21606" pt_clust_5="85.94700" pt_clust_6="14000.00000"></scales>
<clustering>
<clus scale="   44.216">  1  4  2 -1</clus>
<clus scale="   40.171">  1  3  2 -1</clus>
<clus scale="   85.947">  1  5  2 -1</clus>
<clus scale="   44.216">  1  3  2 -1</clus>
</clustering>
</event>
<event>
 6    0  0.8991567E+002  0.1403398E+03  0.7546771E-02  0.1212872E+00
         21   -1    0    0  505  501  0.00000000000E+00  0.00000000000E+00  0.69590681567E+03  0.69590681567E+03  0.00000000000E+00 0. -1.
         21   -1    0    0  503  502 -0.00000000000E+00 -0.00000000000E+00 -0.92330577737E+02  0.92330577737E+02  0.00000000000E+00 0.  1.
         21    1    1    2  503  506  0.56039274365E+02 -0.41154586751E+02 -0.12422455943E+01  0.69538791017E+02  0.00000000000E+00 0.  1.
         21    1    1    2  504  501  0.41118592031E+02  0.25764033928E+02  0.73802953050E+02  0.88325533872E+02  0.00000000000E+00 0. -1.
         21    1    1    2  505  502 -0.19589559604E+03  0.35759885160E+02  0.19175091620E+03  0.27644577732E+03  0.00000000000E+00 0. -1.
         21    1    1    2  506  504  0.98737729642E+02 -0.20369332337E+02  0.33926461428E+03  0.35392729120E+03  0.00000000000E+00 0. -1.
<scales pt_clust_3="70.56586" pt_clust_4="48.52344" pt_clust_5="14000.00000" pt_clust_6="140.33984"></scales>
<clustering>
<clus scale="   48.523">  1  4  2 -1</clus>
<clus scale="   70.566">  2  3  1 -1</clus>
<clus scale="  140.340">  1  6  2 -1</clus>
<clus scale="   48.523">  1  3  2 -1</clus>
</clustering>
</event>
<event>
 6    0  0.8991567E+002  0.1735633E+03  0.7546771E-02  0.1174182E+00
         21   -1    0    0  506  501  0.00000000000E+00  0.00000000000E+00  0.25526981505E+03  0.25526981505E+03  0.00000000000E+00 0. -1.
         21   -1    0    0  505  502 -0.00000000000E+00 -0.00000000000E+00 -0.19182447721E+03  0.19182447721E+03  0.00000000000E+00 0.  1.
         21    1    1    2  503  501  0.13933307169E+03  0.12000013217E+02  0.42098354145E+01  0.13991221497E+03  0.00000000000E+00 0.  1.
         21    1    1    2  504  503  0.50175879507E+02 -0.15346485361E+02  0.32765340621E+02  0.61860334975E+02  0.00000000000E+00 0. -1.
         21    1    1    2  505  504 -0.14513640932E+03  0.47822084392E+02 -0.35709327723E+02  0.15692891752E+03  0.00000000000E+00 0.  1.
         21    1    1    2  506  502 -0.44372541870E+02 -0.44475612248E+02  0.62179489532E+02  0.88392824796E+02  0.00000000000E+00 0. -1.
<scales pt_clust_3="35.82204" pt_clust_4="35.82204" pt_clust_5="163.41374" pt_clust_6="62.82517"></scales>
<clustering>
<clus scale="   35.822">  3  4 -1 -1</clus>
<clus scale="   62.825">  1  6  2 -1</clus>
<clus scale="  163.414">  2  5  1 -1</clus>
<clus scale="   62.825">  1  3  2 -1</clus>
</clustering>
</event>
<event>
 6    0  0.8991567E+002  0.1458289E+03  0.7546771E-02  0.1205694E+00
         21   -1    0    0  504  501  0.00000000000E+00  0.00000000000E+00  0.33414477796E+03  0.33414477796E+03  0.00000000000E+00 0.  1.
         21   -1    0    0  503  502 -0.00000000000E+00 -0.00000000000E+00 -0.12419722121E+03  0.12419722121E+03  0.00000000000E+00 0. -1.
         21    1    1    2  503  506  0.70211289426E+02  0.86291038904E+01  0.17027193224E+02  0.72759960871E+02  0.00000000000E+00 0. -1.
         21    1    1    2  504  505  0.43456553073E+02  0.89413929357E+02  0.94546344940E+02  0.13719451195E+03  0.00000000000E+00 0. -1.
         21    1    1    2  505  502 -0.15753120459E+03 -0.61632684468E+02  0.59199143136E+02  0.17921832150E+03  0.00000000000E+00 0.  1.
         21    1    1    2  506  501  0.43863362089E+02 -0.36410348780E+02  0.39174875458E+02  0.69169204847E+02  0.00000000000E+00 0. -1.
<scales pt_clust_3="50.78453" pt_clust_4="99.41490" pt_clust_5="134.40864" pt_clust_6="50.78453"></scales>
<clustering>
<clus scale="   50.785">  3  6 -1 -1</clus>
<clus scale="   99.415">  1  4  2 -1</clus>
<clus scale="  134.409">  1  5  2 -1</clus>
<clus scale="   99.415">  1  3  2 -1</clus>
</clustering>
</event>
<event>
 6    0  0.8991567E+002  0.9837457E+02  0.7546771E-02  0.1283752E+00
         21   -1    0    0  505  501  0.00000000000E+00  0.00000000000E+00  0.60025436441E+03  0.60025436441E+03  0.00000000000E+00 0. -1.
         21   -1    0    0  506  502 -0.00000000000E+00 -0.00000000000E+00 -0.34283381253E+03  0.34283381253E+03  0.00000000000E+00 0.  1.
         21    1    1    2  503  501 -0.48242302403E+02 -0.10483809379E+03 -0.22756648562E+03  0.25515652260E+03  0.00000000000E+00 0.  1.
         21    1    1    2  504  502  0.25382590172E+02 -0.21193418025E+02 -0.31225286454E+02  0.45480274467E+02  0.00000000000E+00 0.  1.
         21    1    1    2  505  504  0.24514219227E+02  0.94998670017E+02  0.57105177962E+03  0.57941852685E+03  0.00000000000E+00 0. -1.
         21    1    1    2  506  503 -0.16545069962E+01  0.31032841801E+02 -0.54839455658E+02  0.63032853025E+02  0.00000000000E+00 0.  1.
<scales pt_clust_3="98.37457" pt_clust_4="30.36471" pt_clust_5="14000.00000" pt_clust_6="31.07692"></scales>
<clustering>
<clus scale="   31.077">  2  6  1 -1</clus>
<clus scale="   30.365">  2  4  1 -1</clus>
<clus scale="   98.375">  2  3  1 -1</clus>
<clus scale="   98.375">  1  3  2 -1</clus>
</clustering>
</event>
<event>
 6    0  0.8991567E+002  0.1123707E+03  0.7546771E-02  0.1256242E+00
         21   -1    0    0  504  501  0.00000000000E+00  0.00000000000E+00  0.12793503183E+03  0.12793503183E+03  0.00000000000E+00 0.  1.
         21   -1    0    0  505  502 -0.00000000000E+00 -0.00000000000E+00 -0.97707362834E+03  0.97707362834E+03  0.00000000000E+00 0.  1.
         21    1    1    2  503  506  0.54253874695E+02  0.15022929985E+03 -0.40385708090E+02  0.16475233191E+03  0.00000000000E+00 0.  1.
         21    1    1    2  504  503 -0.26678535516E+02 -0.42986250529E+02  0.47779414297E+02  0.69587602505E+02  0.00000000000E+00 0.  1.
         21    1    1    2  505  501 -0.70433074965E+02 -0.64721878490E+02 -0.54786800153E+03  0.55615563173E+03  0.00000000000E+00 0.  1.
         21    1    1    2  506  502  0.42857735786E+02 -0.42521170827E+02 -0.30866430119E+03  0.31451309403E+03  0.00000000000E+00 0.  1.
<scales pt_clust_3="14000.00000" pt_clust_4="50.59211" pt_clust_5="112.37066" pt_clust_6="60.88683"></scales>
<clustering>
<clus scale="   50.592">  1  4  2 -1</clus>
<clus scale="   60.887">  2  6  1 -1</clus>
<clus scale="  112.371">  2  5  1 -1</clus>
<clus scale="   50.592">  1  3  2 -1</clus>
</clustering>
</event>
<event>
 6    0  0.8991567E+002  0.1441957E+03  0.7546771E-02  0.1207792E+00
         21   -1    0    0  504  501  0.00000000000E+00  0.00000000000E+00  0.42949593531E+03  0.42949593531E+03  0.00000000000E+00 0. -1.
         21   -1    0    0  505  502 -0.00000000000E+00 -0.00000000000E+00 -0.29883544951E+03  0.29883544951E+03  0.00000000000E+00 0. -1.
         21    1    1    2  503  501  0.78419851801E+02  0.10294428089E+03  0.30443472189E+03  0.33079857620E+03  0.00000000000E+00 0. -1.
         21    1    1    2  504  506 -0.39360507111E+02  0.44065785512E+02  0.50686227379E+02  0.77846879313E+02  0.00000000000E+00 0. -1.
         21    1    1    2  505  503  0.64255813958E+02 -0.54345596093E+02 -0.54504938748E+02  0.10026485820E+03  0.00000000000E+00 0. -1.
         21    1    1    2  506  502 -0.10331515865E+03 -0.92664470310E+02 -0.16995552471E+03  0.21942107110E+03  0.00000000000E+00 0. -1.
<scales pt_clust_3="144.19567" pt_clust_4="59.08505" pt_clust_5="80.49243" pt_clust_6="14000.00000"></scales>
<clustering>
<clus scale="   59.085">  1  4  2 -1</clus>
<clus scale="   80.492">  2  5  1 -1</clus>
<clus scale="  144.196">  1  3  2 -1</clus>
<clus scale="   59.085">  1  3  2 -1</clus>
</clustering>
</event>
<event>
 6    0  0.8991567E+002  0.5633754E+02  0.7546771E-02  0.1413877E+00
         21   -1    0    0  503  501  0.00000000000E+00  0.00000000000E+00  0.10806989102E+03  0.10806989102E+03  0.00000000000E+00 0. -1.
         21   -1    0    0  506  502 -0.00000000000E+00 -0.00000000000E+00 -0.74763145297E+03  0.74763145297E+03  0.00000000000E+00 0.  1.
         21    1    1    2  503  502  0.17231204751E+02 -0.39594900190E+02 -0.25902856217E+03  0.26260324933E+03  0.00000000000E+00 0.  1.
         21    1    1    2  504  505 -0.75994523377E+02 -0.34656778035E+02 -0.67405108883E+01  0.83795550801E+02  0.00000000000E+00 0. -1.
         21    1    1    2  505  501  0.50019048086E+02 -0.10236994680E+02  0.53322167960E+02  0.73823809353E+02  0.00000000000E+00 0. -1.
         21    1    1    2  506  504  0.87442705393E+01  0.84488672905E+02 -0.42711465684E+03  0.43547873450E+03  0.00000000000E+00 0.  1.
<scales pt_clust_3="43.18183" pt_clust_4="14000.00000" pt_clust_5="51.58387" pt_clust_6="56.33754"></scales>
<clustering>
<clus scale="   43.182">  2  3  1 -1</clus>
<clus scale="   51.584">  1  5  2 -1</clus>
<clus scale="   56.338">  2  6  1 -1</clus>
<clus scale="   51.584">  1  3  2 -1</clus>
</clustering>
</event>
<event>
 6    0  0.8991567E+002  0.9141203E+02  0.7546771E-02  0.1299468E+00
         21   -1    0    0  503  501  0.00000000000E+00  0.00000000000E+00  0.11113864898E+04  0.11113864898E+04  0.00000000000E+00 0.  1.
         21   -1    0    0  504  502 -0.00000000000E+00 -0.00000000000E+00 -0.23918644219E+03  0.23918644219E+03  0.00000000000E+00 0.  1.
         21    1    1    2  503  505 -0.97447558989E+02 -0.15781343700E+02  0.98201539996E+03  0.98696470216E+03  0.00000000000E+00 0.  1.
         21    1    1    2  504  506 -0.31855782915E+02  0.53258530207E+01 -0.12649972273E+03  0.13055778592E+03  0.00000000000E+00 0.  1.
         21    1    1    2  505  502  0.74391198666E+02 -0.27551264929E+02 -0.81871020856E+02  0.11399994164E+03  0.00000000000E+00 0.  1.
         21    1    1    2  506  501  0.54912143238E+02  0.38006755608E+02  0.98555391244E+02  0.11905050227E+03  0.00000000000E+00 0.  1.
<scales pt_clust_3="91.41203" pt_clust_4="32.29792" pt_clust_5="51.53448" pt_clust_6="14000.00000"></scales>
<clustering>
<clus scale="   32.298">  2  4  1 -1</clus>
<clus scale="   51.534">  2  5  1 -1</clus>
<clus scale="   91.412">  1  3  2 -1</clus>
<clus scale="   91.412">  1  3  2 -1</clus>
</clustering>
</event>
<event>
 6    0  0.8991567E+002  0.2202893E+03  0.7546771E-02  0.1133668E+00
         21   -1    0    0  502  501  0.00000000000E+00  0.00000000000E+00  0.10465172820E+04  0.10465172820E+04  0.00000000000E+00 0.  1.
         21   -1    0    0  506  502 -0.00000000000E+00 -0.00000000000E+00 -0.14589465223E+03  0.14589465223E+03  0.00000000000E+00 0. -1.
         21    1    1    2  503  504 -0.11575045024E+02 -0.13803628106E+03  0.85216330638E+01  0.13878261702E+03  0.00000000000E+00 0. -1.
         21    1    1    2  504  505  0.37800675896E+01  0.77926147081E+02  0.28431900895E+03  0.29482888624E+03  0.00000000000E+00 0.  1.
         21    1    1    2  505  501 -0.20293287328E+02  0.12131491596E+03  0.66138746022E+03  0.67272765580E+03  0.00000000000E+00 0.  1.
         21    1    1    2  506  503  0.28088264762E+02 -0.61204781987E+02 -0.53605472434E+02  0.86072775198E+02  0.00000000000E+00 0. -1.
<scales pt_clust_3="64.50079" pt_clust_4="34.11857" pt_clust_5="204.46255" pt_clust_6="64.50079"></scales>
<clustering>
<clus scale="   34.119">  4  5 -1 -1</clus>
<clus scale="   64.501">  3  6 -1 -1</clus>
<clus scale="  204.463">  1  4  2 -1</clus>
<clus scale="  204.463">  1  3  2 -1</clus>
</clustering>
</event>
<event>
 6    0  0.8991567E+002  0.1452669E+03  0.7546771E-02  0.1206413E+00
         21   -1    0    0  505  501  0.00000000000E+00  0.00000000000E+00  0.16907699630E+04  0.16907699630E+04  0.00000000000E+00 0. -1.
         21   -1    0    0  504  502 -0.00000000000E+00 -0.00000000000E+00 -0.28523962583E+02  0.28523962583E+02  0.00000000000E+00 0. -1.
         21    1    1    2  503  502 -0.39473256033E+00 -0.32050097360E+02  0.29353702565E+02  0.43462678344E+02  0.00000000000E+00 0.  1.
         21    1    1    2  504  506  0.75811293829E+01 -0.30600051139E+02  0.11224108881E+03  0.11658429855E+03  0.00000000000E+00 0. -1.
         21    1    1    2  505  503 -0.14531097688E+03  0.37337377526E+02  0.11980544646E+04  0.12074120506E+04  0.00000000000E+00 0. -1.
         21    1    1    2  506  501  0.13812458006E+03  0.25312770974E+02  0.32259674443E+03  0.35183489809E+03  0.00000000000E+00 0. -1.
<scales pt_clust_3="40.27488" pt_clust_4="31.52517" pt_clust_5="14000.00000" pt_clust_6="145.26691"></scales>
<clustering>
<clus scale="   31.525">  2  4  1 -1</clus>
<clus scale="   40.275">  2  3  1 -1</clus>
<clus scale="  145.267">  2  6  1 -1</clus>
<clus scale="  145.267">  1  3  2 -1</clus>
</clustering>
</event>
<event>
 6    0  0.8991567E+002  0.7779247E+02  0.7546771E-02  0.1335435E+00
         21   -1    0    0  505  501  0.00000000000E+00  0.00000000000E+00  0.28120542281E+03  0.28120542281E+03  0.00000000000E+00 0.  1.
         21   -1    0    0  503  502 -0.00000000000E+00 -0.00000000000E+00 -0.35925451219E+03  0.35925451219E+03  0.00000000000E+00 0.  1.
         21    1    1    2  503  501  0.10304964056E+02 -0.11151583356E+03 -0.24390436868E+03  0.26838650204E+03  0.00000000000E+00 0.  1.
         21    1    1    2  504  506 -0.33915284505E+02  0.39670990127E+02  0.45990778316E+02  0.69564255698E+02  0.00000000000E+00 0.  1.
         21    1    1    2  505  504 -0.17159304310E+02  0.28532028770E+02  0.19997637111E+03  0.20272904921E+03  0.00000000000E+00 0.  1.
         21    1    1    2  506  502  0.40769624759E+02  0.43312814659E+02 -0.80111870134E+02  0.99780128047E+02  0.00000000000E+00 0. -1.
<scales pt_clust_3="77.79247" pt_clust_4="14000.00000" pt_clust_5="33.29442" pt_clust_6="60.72109"></scales>
<clustering>
<clus scale="   33.294">  1  5  2 -1</clus>
<clus scale="   60.721">  2  6  1 -1</clus>
<clus scale="   77.792">  2  3  1 -1</clus>
<clus scale="   33.294">  1  3  2 -1</clus>
</clustering>
</event>
<event>
 6    0  0.8991567E+002  0.1091907E+03  0.7546771E-02  0.1262076E+00
         21   -1    0    0  504  501  0.00000000000E+00  0.00000000000E+00  0.16543617206E+03  0.16543617206E+03  0.00000000000E+00 0.  1.
         21   -1    0    0  505  502 -0.00000000000E+00 -0.00000000000E+00 -0.33175705585E+03  0.33175705585E+03  0.00000000000E+00 0.  1.
         21    1    1    2  503  502  0.46724864583E+02  0.93009739970E+01 -0.63418312251E+02  0.79319628191E+02  0.00000000000E+00 0.  1.
         21    1    1    2  504  506  0.20172677477E+02  0.81599598729E+02  0.76414613032E+02  0.11359852338E+03  0.00000000000E+00 0.  1.
         21    1    1    2  505  501 -0.88128012649E+02  0.47292014525E+02 -0.42548226597E+02  0.10868961697E+03  0.00000000000E+00 0.  1.
         21    1    1    2  506  503  0.21230470588E+02 -0.13819258725E+03 -0.13676895797E+03  0.19558545937E+03  0.00000000000E+00 0.  1.
<scales pt_clust_3="47.64159" pt_clust_4="85.55690" pt_clust_5="109.19068" pt_clust_6="14000.00000"></scales>
<clustering>
<clus scale="   47.642">  2  3  1 -1</clus>
<clus scale="   85.557">  1  4  2 -1</clus>
<clus scale="  109.191">  2  5  1 -1</clus>
<clus scale="   85.557">  1  3  2 -1</clus>
</clustering>
</event>
<event>
 6    0  0.8991567E+002  0.6877590E+02  0.7546771E-02  0.1364306E+00
         21   -1    0    0  502  501  0.00000000000E+00  0.00000000000E+00  0.83111127831E+03  0.83111127831E+03  0.00000000000E+00 0.  1.
         21   -1    0    0  504  502 -0.00000000000E+00 -0.00000000000E+00 -0.51537497080E+02  0.51537497080E+02  0.00000000000E+00 0. -1.
         21    1    1    2  503  501  0.13314921194E+02  0.28166720459E+02  0.39769918484E+03  0.39891765177E+03  0.00000000000E+00 0.  1.
         21    1    1    2  504  506 -0.60154370461E+02 -0.23382337817E+02  0.16518327416E+02  0.66619345148E+02  0.00000000000E+00 0. -1.
         21    1    1    2  505  503  0.28366531578E+02 -0.79894608395E+02  0.31157426536E+03  0.32290297521E+03  0.00000000000E+00 0.  1.
         21    1    1    2  506  505  0.18472917688E+02  0.75110225753E+02  0.53782003616E+02  0.94208803269E+02  0.00000000000E+00 0. -1.
<scales pt_clust_3="31.15528" pt_clust_4="62.40087" pt_clust_5="68.77590" pt_clust_6="14000.00000"></scales>
<clustering>
<clus scale="   31.155">  1  3  2 -1</clus>
<clus scale="   62.401">  2  4  1 -1</clus>
<clus scale="   68.776">  1  5  2 -1</clus>
<clus scale="   31.155">  1  3  2 -1</clus>
</clustering>
</event>
<event>
 6    0  0.8991567E+002  0.1122075E+03  0.7546771E-02  0.1256536E+00
         21   -1    0    0  503  501  0.00000000000E+00  0.00000000000E+00  0.99741027728E+02  0.99741027728E+02  0.00000000000E+00 0. -1.
         21   -1    0    0  501  502 -0.00000000000E+00 -0.00000000000E+00 -0.81955546913E+03  0.81955546913E+03  0.00000000000E+00 0.  1.
         21    1    1    2  503  505  0.11658289345E+02  0.31741769924E+02  0.48087354077E+02  0.58786472002E+02  0.00000000000E+00 0. -1.
         21    1    1    2  504  502 -0.44908464782E+02  0.17514139509E+02 -0.24243584210E+03  0.24718141683E+03  0.00000000000E+00 0.  1.
         21    1    1    2  505  506  0.71324484424E+02  0.55659294983E+02 -0.16118639108E+02  0.91896407564E+02  0.00000000000E+00 0. -1.
         21    1    1    2  506  504 -0.38074308988E+02 -0.10491520442E+03 -0.50934731427E+03  0.52143220046E+03  0.00000000000E+00 0.  1.
<scales pt_clust_3="33.81502" pt_clust_4="48.26837" pt_clust_5="112.20753" pt_clust_6="14000.00000"></scales>
<clustering>
<clus scale="   33.815">  1  3  2 -1</clus>
<clus scale="   48.268">  2  4  1 -1</clus>
<clus scale="  112.208">  1  5  2 -1</clus>
<clus scale="   33.815">  1  3  2 -1</clus>
</clustering>
</event>
<event>
 6    0  0.8991567E+002  0.1041864E+03  0.7546771E-02  0.1271731E+00
         21   -1    0    0  505  501  0.00000000000E+00  0.00000000000E+00  0.24842522399E+02  0.24842522399E+02  0.00000000000E+00 0.  1.
         21   -1    0    0  506  502 -0.00000000000E+00 -0.00000000000E+00 -0.10868857827E+04  0.10868857827E+04  0.00000000000E+00 0.  1.
         21    1    1    2  503  501  0.10380162865E+02 -0.32415980414E+02 -0.56390112383E+02  0.65866443215E+02  0.00000000000E+00 0.  1.
         21    1    1    2  504  502 -0.30160397897E+02  0.12635289528E+03 -0.47358166145E+03  0.49107463161E+03  0.00000000000E+00 0.  1.
         21    1    1    2  505  504  0.38544149954E+02 -0.13499795292E+01 -0.47956213422E+02  0.61540818537E+02  0.00000000000E+00 0.  1.
         21    1    1    2  506  503 -0.18763914921E+02 -0.92586935332E+02 -0.48411527304E+03  0.49324641173E+03  0.00000000000E+00 0.  1.
<scales pt_clust_3="34.03738" pt_clust_4="104.18638" pt_clust_5="43.81358" pt_clust_6="14000.00000"></scales>
<clustering>
<clus scale="   34.037">  1  3  2 -1</clus>
<clus scale="   43.814">  1  5  2 -1</clus>
<clus scale="  104.186">  1  4  2 -1</clus>
<clus scale="   34.037">  1  3  2 -1</clus>
</clustering>
</event>
<event>
 6    0  0.8991567E+002  0.1109901E+03  0.7546771E-02  0.1258747E+00
         21   -1    0    0  505  501  0.00000000000E+00  0.00000000000E+00  0.10544788893E+04  0.10544788893E+04  0.00000000000E+00 0. -1.
         21   -1    0    0  504  502 -0.00000000000E+00 -0.00000000000E+00 -0.12331743178E+03  0.12331743178E+03  0.00000000000E+00 0.  1.
         21    1    1    2  503  501 -0.82463213053E+01  0.12390562411E+03  0.95535009888E+03  0.96338695078E+03  0.00000000000E+00 0. -1.
         21    1    1    2  504  506 -0.32302200120E+02 -0.90159904307E+01 -0.25692661692E+02  0.42247284893E+02  0.00000000000E+00 0.  1.
         21    1    1    2  505  502  0.33660091713E+02 -0.58468444656E+02  0.60226111726E+02  0.90436415941E+02  0.00000000000E+00 0. -1.
         21    1    1    2  506  503  0.68884297120E+01 -0.56421189024E+02 -0.58722091386E+02  0.81725669478E+02  0.00000000000E+00 0.  1.
<scales pt_clust_3="110.99006" pt_clust_4="33.53685" pt_clust_5="14000.00000" pt_clust_6="66.14712"></scales>
<clustering>
<clus scale="   33.537">  2  4  1 -1</clus>
<clus scale="   66.147">  2  6  1 -1</clus>
<clus scale="  110.990">  1  3  2 -1</clus>
<clus scale="  110.990">  1  3  2 -1</clus>
</clustering>
</event>
<event>
 6    0  0.8991567E+002  0.1395010E+03  0.7546771E-02  0.1214002E+00
         21   -1    0    0  503  501  0.00000000000E+00  0.00000000000E+00  0.13623673397E+04  0.13623673397E+04  0.00000000000E+00 0. -1.
         21   -1    0    0  504  502 -0.00000000000E+00 -0.00000000000E+00 -0.15054463123E+03  0.15054463123E+03  0.00000000000E+00 0. -1.
         21    1    1    2  503  502 -0.12694278345E+02  0.12790273095E+03  0.36617745668E+03  0.38808012455E+03  0.00000000000E+00 0. -1.
         21    1    1    2  504  506 -0.19580988768E+02 -0.23341861860E+02 -0.10685317487E+03  0.11111191932E+03  0.00000000000E+00 0. -1.
         21    1    1    2  505  501  0.39486255343E+02  0.27749935042E+02  0.83567697068E+03  0.83706942519E+03  0.00000000000E+00 0. -1.
         21    1    1    2  506  505 -0.72109882298E+01 -0.13231080413E+03  0.11682145597E+03  0.17665050188E+03  0.00000000000E+00 0. -1.
<scales pt_clust_3="139.50103" pt_clust_4="30.46732" pt_clust_5="47.76902" pt_clust_6="14000.00000"></scales>
<clustering>
<clus scale="   30.467">  2  4  1 -1</clus>
<clus scale="   47.769">  1  5  2 -1</clus>
<clus scale="  139.501">  1  3  2 -1</clus>
<clus scale="   47.769">  1  3  2 -1</clus>
</clustering>
</event>
<event>
 6    0  0.8991567E+002  0.7854236E+02  0.7546771E-02  0.1333240E+00
         21   -1    0    0  506  501  0.00000000000E+00  0.00000000000E+00  0.27289213428E+03  0.27289213428E+03  0.00000000000E+00 0. -1.
         21   -1    0    0  503  502 -0.00000000000E+00 -0.00000000000E+00 -0.11489296685E+04  0.11489296685E+04  0.00000000000E+00 0. -1.
         21    1    1    2  503  504 -0.63328445676E+02 -0.44411483814E+02 -0.52466506969E+03  0.53033603242E+03  0.00000000000E+00 0. -1.
         21    1    1    2  504  501  0.36137613767E+02  0.11350823103E+03  0.10728309290E+03  0.16031128364E+03  0.00000000000E+00 0. -1.
         21    1    1    2  505  502  0.30111235207E+02 -0.26018319687E+02 -0.59080832033E+03  0.59214703480E+03  0.00000000000E+00 0. -1.
         21    1    1    2  506  505 -0.29204032971E+01 -0.43078427527E+02  0.13215276285E+03  0.13902745198E+03  0.00000000000E+00 0. -1.
<scales pt_clust_3="78.54236" pt_clust_4="14000.00000" pt_clust_5="39.79497" pt_clust_6="43.32526"></scales>
<clustering>
<clus scale="   39.795">  2  5  1 -1</clus>
<clus scale="   43.325">  1  6  2 -1</clus>
<clus scale="   78.542">  2  3  1 -1</clus>
<clus scale="   43.325">  1  3  2 -1</clus>
</clustering>
</event>
<event>
 6    0  0.8991567E+002  0.1191003E+03  0.7546771E-02  0.1244589E+00
         21   -1    0    0  503  501  0.00000000000E+00  0.00000000000E+00  0.55997251531E+03  0.55997251531E+03  0.00000000000E+00 0.  1.
         21   -1    0    0  506  502 -0.00000000000E+00 -0.00000000000E+00 -0.10165090623E+03  0.10165090623E+03  0.00000000000E+00 0.  1.
         21    1    1    2  503  505 -0.65268499963E+02 -0.74262443954E+02  0.48512496583E+02  0.11012878822E+03  0.00000000000E+00 0.  1.
         21    1    1    2  504  501  0.44957815838E+02  0.31779849000E+01  0.22320275306E+03  0.22770764977E+03  0.00000000000E+00 0.  1.
         21    1    1    2  505  502 -0.73609358745E+01 -0.56837261101E+02 -0.34465932929E+02  0.66877187135E+02  0.00000000000E+00 0.  1.
         21    1    1    2  506  504  0.27671619999E+02  0.12792172015E+03  0.22107229237E+03  0.25690979641E+03  0.00000000000E+00 0.  1.
<scales pt_clust_3="119.10030" pt_clust_4="45.07000" pt_clust_5="56.91977" pt_clust_6="14000.00000"></scales>
<clustering>
<clus scale="   45.070">  1  4  2 -1</clus>
<clus scale="   56.920">  2  5  1 -1</clus>
<clus scale="  119.100">  2  3  1 -1</clus>
<clus scale="   45.070">  1  3  2 -1</clus>
</clustering>
</event>
<event>
 6    0  0.8991567E+002  0.1897264E+03  0.7546771E-02  0.1158708E+00
         21   -1    0    0  503  501  0.00000000000E+00  0.00000000000E+00  0.73144815812E+03  0.73144815812E+03  0.00000000000E+00 0. -1.
         21   -1    0    0  506  502 -0.00000000000E+00 -0.00000000000E+00 -0.28549290122E+03  0.28549290122E+03  0.00000000000E+00 0.  1.
         21    1    1    2  503  504  0.21406299136E+02 -0.77445883886E+02  0.17717753090E+03  0.19454555259E+03  0.00000000000E+00 0. -1.
         21    1    1    2  504  502 -0.44952939827E+02  0.10026341766E+03 -0.16154904410E+03  0.19537557004E+03  0.00000000000E+00 0.  1.
         21    1    1    2  505  501 -0.13940809535E+03 -0.10000441589E+03  0.41137168875E+03  0.44571534251E+03  0.00000000000E+00 0. -1.
         21    1    1    2  506  505  0.16295473604E+03  0.77186882120E+02  0.18955081352E+02  0.18130459420E+03  0.00000000000E+00 0.  1.
<scales pt_clust_3="80.34983" pt_clust_4="107.41802" pt_clust_5="189.72644" pt_clust_6="14000.00000"></scales>
<clustering>
<clus scale="   80.350">  1  3  2 -1</clus>
<clus scale="  107.418">  2  4  1 -1</clus>
<clus scale="  189.726">  1  5  2 -1</clus>
<clus scale="   80.350">  1  3  2 -1</clus>
</clustering>
</event>
<event>
 6    0  0.8991567E+002  0.9031836E+02  0.7546771E-02  0.1302083E+00
         21   -1    0    0  503  501  0.00000000000E+00  0.00000000000E+00  0.47862447001E+02  0.47862447001E+02  0.00000000000E+00 0.  1.
         21   -1    0    0  504  502 -0.00000000000E+00 -0.00000000000E+00 -0.42466543169E+03  0.42466543169E+03  0.00000000000E+00 0.  1.
         21    1    1    2  503  506 -0.21944653485E+02 -0.31832197056E+02 -0.16006632634E+02  0.41845774868E+02  0.00000000000E+00 0.  1.
         21    1    1    2  504  501 -0.36101873973E+02  0.11246880756E+02 -0.30668806969E+02  0.48686890966E+02  0.00000000000E+00 0. -1.
         21    1    1    2  505  502 -0.27877663527E+00  0.95599402776E+02 -0.18989860011E+03  0.21260480204E+03  0.00000000000E+00 0.  1.
         21    1    1    2  506  505  0.58325304093E+02 -0.75014086476E+02 -0.14022894498E+03  0.16939041082E+03  0.00000000000E+00 0.  1.
<scales pt_clust_3="44.06513" pt_clust_4="37.81319" pt_clust_5="14000.00000" pt_clust_6="90.31836"></scales>
<clustering>
<clus scale="   37.813">  1  4  2 -1</clus>
<clus scale="   44.065">  1  3  2 -1</clus>
<clus scale="   90.318">  1  6  2 -1</clus>
<clus scale="   37.813">  1  3  2 -1</clus>
</clustering>
</event>
<event>
 6    0  0.8991567E+002  0.1030400E+03  0.7546771E-02  0.1274030E+00
         21   -1    0    0  506  501  0.00000000000E+00  0.00000000000E+00  0.36394698673E+03  0.36394698673E+03  0.00000000000E+00 0. -1.
         21   -1    0    0  505  502 -0.00000000000E+00 -0.00000000000E+00 -0.14632279863E+03  0.14632279863E+03  0.00000000000E+00 0. -1.
         21    1    1    2  503  504 -0.51194621110E+02  0.60168051738E+02 -0.38442435399E+02  0.87857296338E+02  0.00000000000E+00 0. -1.
         21    1    1    2  504  501  0.77536538805E+02 -0.66683943889E+02  0.11448811077E+03  0.15351283572E+03  0.00000000000E+00 0. -1.
         21    1    1    2  505  503 -0.58275914863E+02 -0.71400378926E+01 -0.48204154502E+02  0.75965142700E+02  0.00000000000E+00 0. -1.
         21    1    1    2  506  502  0.31933997167E+02  0.13655930044E+02  0.18978266724E+03  0.19293451061E+03  0.00000000000E+00 0. -1.
<scales pt_clust_3="103.04004" pt_clust_4="14000.00000" pt_clust_5="56.03428" pt_clust_6="34.73132"></scales>
<clustering>
<clus scale="   34.731">  1  6  2 -1</clus>
<clus scale="   56.034">  2  5  1 -1</clus>
<clus scale="  103.040">  2  3  1 -1</clus>
<clus scale="   34.731">  1  3  2 -1</clus>
</clustering>
</event>
<event>
 6    0  0.8991567E+002  0.8793118E+02  0.7546771E-02  0.1307940E+00
         21   -1    0    0  505  501  0.00000000000E+00  0.00000000000E+00  0.54127470818E+03  0.54127470818E+03  0.00000000000E+00 0. -1.
         21   -1    0    0  506  502 -0.00000000000E+00 -0.00000000000E+00 -0.16591959176E+03  0.16591959176E+03  0.00000000000E+00 0. -1.
         21    1    1    2  503  502 -0.58465393521E+02  0.92899491892E+02 -0.97159477232E+02  0.14658950116E+03  0.00000000000E+00 0. -1.
         21    1    1    2  504  501  0.16776817714E+02 -0.34533384315E+02  0.91314356929E+02  0.99057195732E+02  0.00000000000E+00 0. -1.
         21    1    1    2  505  503  0.73363507368E+02  0.13958005353E+02  0.37498294485E+03  0.38234701392E+03  0.00000000000E+00 0. -1.
         21    1    1    2  506  504 -0.31674931561E+02 -0.72324112930E+02  0.62172918674E+01  0.79200589131E+02  0.00000000000E+00 0. -1.
<scales pt_clust_3="14000.00000" pt_clust_4="38.39292" pt_clust_5="87.93118" pt_clust_6="81.38845"></scales>
<clustering>
<clus scale="   38.393">  1  4  2 -1</clus>
<clus scale="   81.388">  2  6  1 -1</clus>
<clus scale="   87.931">  1  5  2 -1</clus>
<clus scale="   38.393">  1  3  2 -1</clus>
</clustering>
</event>
<event>
 6    0  0.8991567E+002  0.2068881E+03  0.7546771E-02  0.1144054E+00
         21   -1    0    0  503  501  0.00000000000E+00  0.00000000000E+00  0.22282528383E+03  0.22282528383E+03  0.00000000000E+00 0. -1.
         21   -1    0    0  505  502 -0.00000000000E+00 -0.00000000000E+00 -0.31848172725E+03  0.31848172725E+03  0.00000000000E+00 0. -1.
         21    1    1    2  503  504 -0.95628298566E+02 -0.57853976421E+02 -0.50943727336E+02  0.12282962765E+03  0.00000000000E+00 0. -1.
         21    1    1    2  504  502 -0.74353848231E+02 -0.69081049338E+02 -0.88420647810E+02  0.13460645261E+03  0.00000000000E+00 0. -1.
         21    1    1    2  505  506  0.34643235138E+02 -0.20481579193E+02 -0.48925112553E+02  0.63350733741E+02  0.00000000000E+00 0. -1.
         21    1    1    2  506  501  0.13533891166E+03  0.14741660495E+03  0.92633044278E+02  0.22052019707E+03  0.00000000000E+00 0. -1.
<scales pt_clust_3="41.27542" pt_clust_4="41.27542" pt_clust_5="40.24486" pt_clust_6="202.38138"></scales>
<clustering>
<clus scale="   40.245">  2  5  1 -1</clus>
<clus scale="   41.275">  3  4 -1 -1</clus>
<clus scale="  202.381">  1  6  2 -1</clus>
<clus scale="  202.381">  1  3  2 -1</clus>
</clustering>
</event>
<event>
 6    0  0.8991567E+002  0.9271388E+02  0.7546771E-02  0.1296410E+00
         21   -1    0    0  504  501  0.00000000000E+00  0.00000000000E+00  0.78693306519E+02  0.78693306519E+02  0.00000000000E+00 0.  1.
         21   -1    0    0  503  502 -0.00000000000E+00 -0.00000000000E+00 -0.77223692653E+03  0.77223692653E+03  0.00000000000E+00 0.  1.
         21    1    1    2  503  501  0.90339836127E+02 -0.84646578944E+02 -0.19322077618E+02  0.12529833200E+03  0.00000000000E+00 0.  1.
         21    1    1    2  504  506 -0.42793620383E+02  0.55497542466E+02 -0.31048562278E+02  0.76650403684E+02  0.00000000000E+00 0.  1.
         21    1    1    2  505  502 -0.42989371717E+01  0.32615821708E+02 -0.43998143427E+03  0.44120962727E+03  0.00000000000E+00 0.  1.
         21    1    1    2  506  505 -0.43247278572E+02 -0.34667852296E+01 -0.20319154584E+03  0.20777187010E+03  0.00000000000E+00 0.  1.
<scales pt_clust_3="92.71388" pt_clust_4="14000.00000" pt_clust_5="32.89791" pt_clust_6="48.86809"></scales>
<clustering>
<clus scale="   32.898">  2  5  1 -1</clus>
<clus scale="   48.868">  2  6  1 -1</clus>
<clus scale="   92.714">  2  3  1 -1</clus>
<clus scale="   92.714">  1  3  2 -1</clus>
</clustering>
</event>
<event>
 6    0  0.8991567E+002  0.9265003E+02  0.7546771E-02  0.1296558E+00
         21   -1    0    0  504  501  0.00000000000E+00  0.00000000000E+00  0.50391071909E+03  0.50391071909E+03  0.00000000000E+00 0. -1.
         21   -1    0    0  505  502 -0.00000000000E+00 -0.00000000000E+00 -0.90129628759E+02  0.90129628759E+02  0.00000000000E+00 0.  1.
         21    1    1    2  503  501  0.74951993627E+02  0.77297319923E+01  0.23519549845E+03  0.24697059055E+03  0.00000000000E+00 0. -1.
         21    1    1    2  504  506 -0.27674877528E+02  0.92198174381E+02  0.18783496103E+03  0.21106485921E+03  0.00000000000E+00 0. -1.
         21    1    1    2  505  503  0.19235148163E+02 -0.42829469105E+02  0.49214977867E+01  0.47207790555E+02  0.00000000000E+00 0.  1.
         21    1    1    2  506  502 -0.66512264262E+02 -0.57098437269E+02 -0.14170866946E+02  0.88797107530E+02  0.00000000000E+00 0.  1.
<scales pt_clust_3="76.70189" pt_clust_4="14000.00000" pt_clust_5="46.95055" pt_clust_6="92.65003"></scales>
<clustering>
<clus scale="   46.951">  2  5  1 -1</clus>
<clus scale="   76.702">  1  3  2 -1</clus>
<clus scale="   92.650">  2  6  1 -1</clus>
<clus scale="   76.702">  1  3  2 -1</clus>
</clustering>
</event>
<event>
 6    0  0.8991567E+002  0.7144215E+02  0.7546771E-02  0.1355256E+00
         21   -1    0    0  506  501  0.00000000000E+00  0.00000000000E+00  0.40316935961E+03  0.40316935961E+03  0.00000000000E+00 0. -1.
         21   -1    0    0  503  502 -0.00000000000E+00 -0.00000000000E+00 -0.12837429999E+03  0.12837429999E+03  0.00000000000E+00 0.  1.
         21    1    1    2  503  504 -0.14266778939E+02  0.59690918742E+02  0.45080851655E+02  0.76150048900E+02  0.00000000000E+00 0. -1.
         21    1    1    2  504  501 -0.32919908134E+02 -0.11498511342E+02  0.49972620820E+02  0.60936023387E+02  0.00000000000E+00 0.  1.
         21    1    1    2  505  502 -0.65684721257E+02  0.20324720107E+02 -0.78538435477E+02  0.10438324914E+03  0.00000000000E+00 0.  1.
         21    1    1    2  506  505  0.11287140833E+03 -0.68517127507E+02  0.25828002262E+03  0.29007433817E+03  0.00000000000E+00 0. -1.
<scales pt_clust_3="61.05692" pt_clust_4="34.87028" pt_clust_5="14000.00000" pt_clust_6="71.44215"></scales>
<clustering>
<clus scale="   34.870">  1  4  2 -1</clus>
<clus scale="   61.057">  1  3  2 -1</clus>
<clus scale="   71.442">  1  6  2 -1</clus>
<clus scale="   34.870">  1  3  2 -1</clus>
</clustering>
</event>
<event>
 6    0  0.8991567E+002  0.8952323E+02  0.7546771E-02  0.1304010E+00
         21   -1    0    0  504  501  0.00000000000E+00  0.00000000000E+00  0.17126046257E+03  0.17126046257E+03  0.00000000000E+00 0. -1.
         21   -1    0    0  506  502 -0.00000000000E+00 -0.00000000000E+00 -0.23865520776E+03  0.23865520776E+03  0.00000000000E+00 0. -1.
         21    1    1    2  503  502 -0.59806505618E+02  0.88798125391E+02 -0.19870472845E+02  0.10888875460E+03  0.00000000000E+00 0.  1.
         21    1    1    2  504  503 -0.18217778913E+02 -0.30821711130E+02  0.98105638055E+02  0.10443458031E+03  0.00000000000E+00 0. -1.
         21    1    1    2  505  501  0.31266189305E+02 -0.68003527587E+02 -0.51015727556E+02  0.90579571737E+02  0.00000000000E+00 0. -1.
         21    1    1    2  506  505  0.46758095226E+02  0.10027113326E+02 -0.94614182844E+02  0.10601276369E+03  0.00000000000E+00 0. -1.
<scales pt_clust_3="14000.00000" pt_clust_4="35.80315" pt_clust_5="89.52323" pt_clust_6="45.89446"></scales>
<clustering>
<clus scale="   35.803">  1  4  2 -1</clus>
<clus scale="   45.894">  2  6  1 -1</clus>
<clus scale="   89.523">  2  5  1 -1</clus>
<clus scale="   35.803">  1  3  2 -1</clus>
</clustering>
</event>
<event>
 6    0  0.8991567E+002  0.1580784E+03  0.7546771E-02  0.1190883E+00
         21   -1    0    0  506  501  0.00000000000E+00  0.00000000000E+00  0.21509309651E+04  0.21509309651E+04  0.00000000000E+00 0. -1.
         21   -1    0    0  505  502 -0.00000000000E+00 -0.00000000000E+00 -0.73899667074E+03  0.73899667074E+03  0.00000000000E+00 0.  1.
         21    1    1    2  503  501 -0.11744623298E+03  0.31945711424E+02 -0.36636125079E+03  0.38605014207E+03  0.00000000000E+00 0.  1.
         21    1    1    2  504  502  0.13581550259E+03 -0.13534317669E+03 -0.16899073009E+03  0.25558069778E+03  0.00000000000E+00 0.  1.
         21    1    1    2  505  503 -0.22130070349E+02  0.70797552131E+02 -0.14122925634E+03  0.15952346613E+03  0.00000000000E+00 0.  1.
         21    1    1    2  506  504  0.37608007323E+01  0.32599913131E+02  0.20885155316E+04  0.20887733299E+04  0.00000000000E+00 0. -1.
<scales pt_clust_3="14000.00000" pt_clust_4="158.07839" pt_clust_5="78.60468" pt_clust_6="32.81612"></scales>
<clustering>
<clus scale="   32.816">  1  6  2 -1</clus>
<clus scale="   78.605">  2  5  1 -1</clus>
<clus scale="  158.078">  1  4  2 -1</clus>
<clus scale="   32.816">  1  3  2 -1</clus>
</clustering>
</event>
<event>
 6    0  0.8991567E+002  0.1217564E+03  0.7546771E-02  0.1240227E+00
         21   -1    0    0  506  501  0.00000000000E+00  0.00000000000E+00  0.59812045327E+02  0.59812045327E+02  0.00000000000E+00 0. -1.
         21   -1    0    0  504  502 -0.00000000000E+00 -0.00000000000E+00 -0.93105215179E+03  0.93105215179E+03  0.00000000000E+00 0. -1.
         21    1    1    2  503  505  0.57410472624E+01 -0.92866377806E+02 -0.34742433662E+03  0.35966761521E+03  0.00000000000E+00 0. -1.
         21    1    1    2  504  503 -0.38473558048E+02 -0.92220365772E+01 -0.18262280130E+03  0.18685916671E+03  0.00000000000E+00 0. -1.
         21    1    1    2  505  501 -0.45999804649E+02  0.17118615287E+03 -0.24280505926E+03  0.30062431333E+03  0.00000000000E+00 0. -1.
         21    1    1    2  506  502  0.78732315435E+02 -0.69097738489E+02 -0.98387909287E+02  0.14371310188E+03  0.00000000000E+00 0. -1.
<scales pt_clust_3="98.03332" pt_clust_4="39.56337" pt_clust_5="14000.00000" pt_clust_6="121.75641"></scales>
<clustering>
<clus scale="   39.563">  2  4  1 -1</clus>
<clus scale="   98.033">  2  3  1 -1</clus>
<clus scale="  121.756">  1  6  2 -1</clus>
<clus scale="  121.756">  1  3  2 -1</clus>
</clustering>
</event>
<event>
 6    0  0.8991567E+002  0.1278060E+03  0.7546771E-02  0.1230748E+00
         21   -1    0    0  505  501  0.00000000000E+00  0.00000000000E+00  0.28584266897E+03  0.28584266897E+03  0.00000000000E+00 0.  1.
         21   -1    0    0  506  502 -0.00000000000E+00 -0.00000000000E+00 -0.25604672133E+03  0.25604672133E+03  0.00000000000E+00 0. -1.
         21    1    1    2  503  504  0.65577319365E+02  0.36064080592E+02 -0.34670606594E+02  0.82480626123E+02  0.00000000000E+00 0.  1.
         21    1    1    2  504  501 -0.36927378924E+02  0.10906016399E+03  0.12864288259E+03  0.17264629138E+03  0.00000000000E+00 0.  1.
         21    1    1    2  505  502 -0.24584905178E+02 -0.20747898322E+03 -0.19278579070E+02  0.20981803939E+03  0.00000000000E+00 0. -1.
         21    1    1    2  506  503 -0.40650352634E+01  0.62354738641E+02 -0.44897749295E+02  0.76944433420E+02  0.00000000000E+00 0. -1.
<scales pt_clust_3="84.51604" pt_clust_4="14000.00000" pt_clust_5="127.80598" pt_clust_6="62.48710"></scales>
<clustering>
<clus scale="   62.487">  2  6  1 -1</clus>
<clus scale="   84.516">  2  3  1 -1</clus>
<clus scale="  127.806">  2  5  1 -1</clus>
<clus scale="  127.806">  1  3  2 -1</clus>
</clustering>
</event>
<event>
 6    0  0.8991567E+002  0.1158508E+03  0.7546771E-02  0.1250103E+00
         21   -1    0    0  504  501  0.00000000000E+00  0.00000000000E+00  0.13588213102E+04  0.13588213102E+04  0.00000000000E+00 0. -1.
         21   -1    0    0  505  502 -0.00000000000E+00 -0.00000000000E+00 -0.78731692144E+02  0.78731692144E+02  0.00000000000E+00 0. -1.
         21    1    1    2  503  506 -0.19737151461E+02  0.46479455765E+02  0.84046868831E+02  0.98049839960E+02  0.00000000000E+00 0.  1.
         21    1    1    2  504  503 -0.36537364372E+02 -0.33309026502E+02  0.99477442290E+03  0.99600232063E+03  0.00000000000E+00 0. -1.
         21    1    1    2  505  501 -0.57508724709E+02 -0.67802520325E+02  0.19821924200E+03  0.21724479989E+03  0.00000000000E+00 0. -1.
         21    1    1    2  506  502  0.11378324054E+03  0.54632091062E+02  0.30490843636E+01  0.12625604190E+03  0.00000000000E+00 0. -1.
<scales pt_clust_3="47.84274" pt_clust_4="49.44158" pt_clust_5="14000.00000" pt_clust_6="115.85077"></scales>
<clustering>
<clus scale="   49.442">  1  4  2 -1</clus>
<clus scale="   47.843">  1  3  2 -1</clus>
<clus scale="  115.851">  2  6  1 -1</clus>
<clus scale="   49.442">  1  3  2 -1</clus>
</clustering>
</event>
<event>
 6    0  0.8991567E+002  0.1794069E+03  0.7546771E-02  0.1168378E+00
         21   -1    0    0  503  501  0.00000000000E+00  0.00000000000E+00  0.88956768328E+03  0.88956768328E+03  0.00000000000E+00 0. -1.
         21   -1    0    0  505  502 -0.00000000000E+00 -0.00000000000E+00 -0.20077658617E+03  0.20077658617E+03  0.00000000000E+00 0. -1.
         21    1    1    2  503  506 -0.81610057941E+02 -0.41023949957E+02  0.26718988251E+03  0.28237138549E+03  0.00000000000E+00 0. -1.
         21    1    1    2  504  502 -0.88357993726E+02  0.11402360549E+03  0.17244861718E+02  0.14527870773E+03  0.00000000000E+00 0. -1.
         21    1    1    2  505  501 -0.44860507681E+02  0.17882527891E+02 -0.97761772297E+02  0.10903950695E+03  0.00000000000E+00 0.  1.
         21    1    1    2  506  504  0.21482855935E+03 -0.90882183423E+02  0.50211812519E+03  0.55365466928E+03  0.00000000000E+00 0. -1.
<scales pt_clust_3="93.88156" pt_clust_4="14000.00000" pt_clust_5="48.29337" pt_clust_6="179.40685"></scales>
<clustering>
<clus scale="   48.293">  2  5  1 -1</clus>
<clus scale="   93.882">  1  3  2 -1</clus>
<clus scale="  179.407">  1  6  2 -1</clus>
<clus scale="   93.882">  1  3  2 -1</clus>
</clustering>
</event>
<event>
 6    0  0.8991567E+002  0.7924842E+02  0.7546771E-02  0.1331198E+00
         21   -1    0    0  505  501  0.00000000000E+00  0.00000000000E+00  0.79397415866E+03  0.79397415866E+03  0.00000000000E+00 0.  1.
         21   -1    0    0  504  502 -0.00000000000E+00 -0.00000000000E+00 -0.63703535683E+02  0.63703535683E+02  0.00000000000E+00 0.  1.
         21    1    1    2  503  501  0.31552020861E+02  0.20892452289E+02  0.50615557586E+03  0.50756821369E+03  0.00000000000E+00 0.  1.
         21    1    1    2  504  503 -0.84358045399E+01 -0.10063229404E+03  0.76124578371E+02  0.12646332604E+03  0.00000000000E+00 0.  1.
         21    1    1    2  505  506  0.26744350754E+02  0.19452187555E+02  0.14130842059E+03  0.14512655728E+03  0.00000000000E+00 0.  1.
         21    1    1    2  506  502 -0.49860567075E+02  0.60287654192E+02  0.66820481595E+01  0.78519597329E+02  0.00000000000E+00 0.  1.
<scales pt_clust_3="63.58515" pt_clust_4="79.24842" pt_clust_5="33.07035" pt_clust_6="14000.00000"></scales>
<clustering>
<clus scale="   33.070">  1  5  2 -1</clus>
<clus scale="   63.585">  1  3  2 -1</clus>
<clus scale="   79.248">  1  4  2 -1</clus>
<clus scale="   33.070">  1  3  2 -1</clus>
</clustering>
</event>
<event>
 6    0  0.8991567E+002  0.6791061E+02  0.7546771E-02  0.1367346E+00
         21   -1    0    0  504  501  0.00000000000E+00  0.00000000000E+00  0.12886216686E+03  0.12886216686E+03  0.00000000000E+00 0. -1.
         21   -1    0    0  505  502 -0.00000000000E+00 -0.00000000000E+00 -0.38619917653E+03  0.38619917653E+03  0.00000000000E+00 0. -1.
         21    1    1    2  503  501 -0.20664844553E+02  0.70587480367E+02  0.44373439496E+02  0.85898954112E+02  0.00000000000E+00 0. -1.
         21    1    1    2  504  506  0.46135572247E+02 -0.47973364919E+02  0.26956456643E+02  0.71809367933E+02  0.00000000000E+00 0. -1.
         21    1    1    2  505  503  0.34122529916E+02 -0.60397574234E+02 -0.15031046133E+03  0.16554591148E+03  0.00000000000E+00 0. -1.
         21    1    1    2  506  502 -0.59593257610E+02  0.37783458787E+02 -0.17835644448E+03  0.19180710987E+03  0.00000000000E+00 0. -1.
<scales pt_clust_3="35.66312" pt_clust_4="66.55776" pt_clust_5="14000.00000" pt_clust_6="67.91061"></scales>
<clustering>
<clus scale="   66.558">  1  4  2 -1</clus>
<clus scale="   35.663">  1  3  2 -1</clus>
<clus scale="   67.911">  2  6  1 -1</clus>
<clus scale="   66.558">  1  3  2 -1</clus>
</clustering>
</event>
<event>
 6    0  0.8991567E+002  0.1117529E+03  0.7546771E-02  0.1257358E+00
         21   -1    0    0  503  501  0.00000000000E+00  0.00000000000E+00  0.10304828470E+04  0.10304828470E+04  0.00000000000E+00 0.  1.
         21   -1    0    0  504  502 -0.00000000000E+00 -0.00000000000E+00 -0.31089792002E+03  0.31089792002E+03  0.00000000000E+00 0. -1.
         21    1    1    2  503  505  0.15376839021E+03  0.31217834440E+02  0.28941506149E+03  0.32921170823E+03  0.00000000000E+00 0.  1.
         21    1    1    2  504  506  0.40956737196E+01 -0.32768595667E+02 -0.13351353201E+02  0.35620416021E+02  0.00000000000E+00 0. -1.
         21    1    1    2  505  502 -0.55520675157E+02  0.15206047487E+02 -0.25959036187E+03  0.26589645584E+03  0.00000000000E+00 0. -1.
         21    1    1    2  506  501 -0.10234338877E+03 -0.13655286259E+02  0.70311158059E+03  0.71065218696E+03  0.00000000000E+00 0.  1.
<scales pt_clust_3="111.75294" pt_clust_4="33.02356" pt_clust_5="53.85272" pt_clust_6="14000.00000"></scales>
<clustering>
<clus scale="   33.024">  2  4  1 -1</clus>
<clus scale="   53.853">  2  5  1 -1</clus>
<clus scale="  111.753">  2  3  1 -1</clus>
<clus scale="  111.753">  1  3  2 -1</clus>
</clustering>
</event>
<event>
 6    0  0.8991567E+002  0.1718279E+03  0.7546771E-02  0.1175955E+00
         21   -1    0    0  506  501  0.00000000000E+00  0.00000000000E+00  0.90152044561E+03  0.90152044561E+03  0.00000000000E+00 0.  1.
         21   -1    0    0  503  502 -0.00000000000E+00 -0.00000000000E+00 -0.36069937036E+03  0.36069937036E+03  0.00000000000E+00 0. -1.
         21    1    1    2  503  504  0.17600543354E+02  0.31876773830E+02  0.97687238985E+01  0.37700607459E+02  0.00000000000E+00 0.  1.
         21    1    1    2  504  501 -0.98423714322E+02 -0.19252530514E+02 -0.40877308952E+01  0.10037229207E+03  0.00000000000E+00 0.  1.
         21    1    1    2  505  502 -0.30012132924E+02 -0.14563159454E+03 -0.26587799880E+03  0.30463158027E+03  0.00000000000E+00 0. -1.
         21    1    1    2  506  505  0.11083530389E+03  0.13300735122E+03  0.80101808104E+03  0.81951533617E+03  0.00000000000E+00 0.  1.
<scales pt_clust_3="36.41302" pt_clust_4="96.85655" pt_clust_5="171.82794" pt_clust_6="14000.00000"></scales>
<clustering>
<clus scale="   36.413">  2  3  1 -1</clus>
<clus scale="   96.857">  2  4  1 -1</clus>
<clus scale="  171.828">  2  5  1 -1</clus>
<clus scale="  171.828">  1  3  2 -1</clus>
</clustering>
</event>
<event>
 6    0  0.8991567E+002  0.8132853E+02  0.7546771E-02  0.1325323E+00
         21   -1    0    0  504  501  0.00000000000E+00  0.00000000000E+00  0.17575062336E+04  0.17575062336E+04  0.00000000000E+00 0.  1.
         21   -1    0    0  505  502 -0.00000000000E+00 -0.00000000000E+00 -0.12345203530E+03  0.12345203530E+03  0.00000000000E+00 0.  1.
         21    1    1    2  503  501  0.45042562380E+02 -0.30586797947E+02  0.27445728323E+03  0.27980561994E+03  0.00000000000E+00 0.  1.
         21    1    1    2  504  506  0.30017760699E+02 -0.81772179681E+01  0.13148545120E+04  0.13152225365E+04  0.00000000000E+00 0.  1.
         21    1    1    2  505  503  0.41642487726E+02 -0.24081354364E+01 -0.92295955624E+02  0.10128395394E+03  0.00000000000E+00 0.  1.
         21    1    1    2  506  502 -0.11670281080E+03  0.41172151351E+02  0.13703835872E+03  0.18464615852E+03  0.00000000000E+00 0.  1.
<scales pt_clust_3="14000.00000" pt_clust_4="31.11162" pt_clust_5="42.02128" pt_clust_6="81.32853"></scales>
<clustering>
<clus scale="   31.112">  1  4  2 -1</clus>
<clus scale="   42.021">  2  5  1 -1</clus>
<clus scale="   81.329">  2  6  1 -1</clus>
<clus scale="   31.112">  1  3  2 -1</clus>
</clustering>
</event>
<event>
 6    0  0.8991567E+002  0.9866204E+02  0.7546771E-02  0.1283135E+00
         21   -1    0    0  506  501  0.00000000000E+00  0.00000000000E+00  0.17693553166E+03  0.17693553166E+03  0.00000000000E+00 0.  1.
         21   -1    0    0  503  502 -0.00000000000E+00 -0.00000000000E+00 -0.64876370790E+03  0.64876370790E+03  0.00000000000E+00 0.  1.
         21    1    1    2  503  504 -0.78983258602E+01  0.35567956831E+02 -0.32154891732E+03  0.32360650385E+03  0.00000000000E+00 0.  1.
         21    1    1    2  504  501  0.86324388333E+02  0.15929211877E+02  0.21361407338E+02  0.90343508541E+02  0.00000000000E+00 0.  1.
         21    1    1    2  505  502 -0.68258385286E+02  0.40966314959E+02 -0.26695151463E+03  0.27856876581E+03  0.00000000000E+00 0.  1.
         21    1    1    2  506  505 -0.10167677187E+02 -0.92463483666E+02  0.95310848370E+02  0.13318046136E+03  0.00000000000E+00 0.  1.
<scales pt_clust_3="36.43437" pt_clust_4="87.72747" pt_clust_5="14000.00000" pt_clust_6="98.66204"></scales>
<clustering>
<clus scale="   36.434">  2  3  1 -1</clus>
<clus scale="   87.727">  1  4  2 -1</clus>
<clus scale="   98.662">  1  6  2 -1</clus>
<clus scale="   87.727">  1  3  2 -1</clus>
</clustering>
</event>
<event>
 6    0  0.8991567E+002  0.9695738E+02  0.7546771E-02  0.1286827E+00
         21   -1    0    0  506  501  0.00000000000E+00  0.00000000000E+00  0.61963890064E+03  0.61963890064E+03  0.00000000000E+00 0.  1.
         21   -1    0    0  504  502 -0.00000000000E+00 -0.00000000000E+00 -0.90902944816E+03  0.90902944816E+03  0.00000000000E+00 0.  1.
         21    1    1    2  503  501  0.31837639014E+02  0.56253471807E+02  0.33107116011E+03  0.33732210334E+03  0.00000000000E+00 0.  1.
         21    1    1    2  504  503  0.61367083379E+02 -0.14212842375E+01 -0.12460609272E+03  0.13890506583E+03  0.00000000000E+00 0.  1.
         21    1    1    2  505  502 -0.11956163349E+03 -0.18954720009E+02 -0.76759365294E+03  0.77708061463E+03  0.00000000000E+00 0.  1.
         21    1    1    2  506  505  0.26356911094E+02 -0.35877467561E+02  0.27173803803E+03  0.27536056499E+03  0.00000000000E+00 0.  1.
<scales pt_clust_3="61.22870" pt_clust_4="96.95738" pt_clust_5="14000.00000" pt_clust_6="44.51830"></scales>
<clustering>
<clus scale="   44.518">  1  6  2 -1</clus>
<clus scale="   61.229">  1  3  2 -1</clus>
<clus scale="   96.957">  1  4  2 -1</clus>
<clus scale="   44.518">  1  3  2 -1</clus>
</clustering>
</event>
<event>
 6    0  0.8991567E+002  0.1037525E+03  0.7546771E-02  0.1272597E+00
         21   -1    0    0  504  501  0.00000000000E+00  0.00000000000E+00  0.70744032060E+03  0.70744032060E+03  0.00000000000E+00 0. -1.
         21   -1    0    0  505  502 -0.00000000000E+00 -0.00000000000E+00 -0.72785997478E+02  0.72785997478E+02  0.00000000000E+00 0. -1.
         21    1    1    2  503  501 -0.80286851590E+02 -0.61640383417E+02  0.69501709723E+02  0.12278437629E+03  0.00000000000E+00 0.  1.
         21    1    1    2  504  506  0.25636231516E+02  0.22334046644E+02  0.27679880791E+03  0.27887919619E+03  0.00000000000E+00 0. -1.
         21    1    1    2  505  503  0.51815330010E+02 -0.27851272256E+02 -0.20640208130E+02  0.62342120448E+02  0.00000000000E+00 0. -1.
         21    1    1    2  506  502  0.28352900639E+01  0.67157609030E+02  0.30899401362E+03  0.31622062515E+03  0.00000000000E+00 0. -1.
<scales pt_clust_3="92.70054" pt_clust_4="33.13975" pt_clust_5="58.82620" pt_clust_6="33.13975"></scales>
<clustering>
<clus scale="   33.140">  4  6 -1 -1</clus>
<clus scale="   58.826">  2  5  1 -1</clus>
<clus scale="   92.701">  2  3  1 -1</clus>
<clus scale="  103.752">  1  3  2 -1</clus>
</clustering>
</event>
<event>
 6    0  0.8991567E+002  0.9960205E+02  0.7546771E-02  0.1281135E+00
         21   -1    0    0  505  501  0.00000000000E+00  0.00000000000E+00  0.16264231764E+03  0.16264231764E+03  0.00000000000E+00 0. -1.
         21   -1    0    0  506  502 -0.00000000000E+00 -0.00000000000E+00 -0.51562433869E+03  0.51562433869E+03  0.00000000000E+00 0. -1.
         21    1    1    2  503  501  0.27960844920E+02 -0.26544029274E+02  0.88587847556E+02  0.96613669185E+02  0.00000000000E+00 0. -1.
         21    1    1    2  504  503  0.20626395166E+02  0.96925853618E+02 -0.12744892346E+03  0.16144131246E+03  0.00000000000E+00 0.  1.
         21    1    1    2  505  502  0.99857693622E+01 -0.83798283408E+02  0.14945016193E+02  0.85704267111E+02  0.00000000000E+00 0. -1.
         21    1    1    2  506  504 -0.58573009448E+02  0.13416459064E+02 -0.32906596134E+03  0.33450740758E+03  0.00000000000E+00 0. -1.
<scales pt_clust_3="38.55379" pt_clust_4="99.60205" pt_clust_5="14000.00000" pt_clust_6="58.80595"></scales>
<clustering>
<clus scale="   38.554">  1  3  2 -1</clus>
<clus scale="   58.806">  2  6  1 -1</clus>
<clus scale="   99.602">  2  4  1 -1</clus>
<clus scale="   38.554">  1  3  2 -1</clus>
</clustering>
</event>
<event>
 6    0  0.8991567E+002  0.1263141E+03  0.7546771E-02  0.1233030E+00
         21   -1    0    0  506  501  0.00000000000E+00  0.00000000000E+00  0.11027314833E+04  0.11027314833E+04  0.00000000000E+00 0.  1.
         21   -1    0    0  503  502 -0.00000000000E+00 -0.00000000000E+00 -0.24667707433E+03  0.24667707433E+03  0.00000000000E+00 0. -1.
         21    1    1    2  503  505 -0.81460486659E+02 -0.13315627846E+03  0.34374530282E+02  0.15983746029E+03  0.00000000000E+00 0. -1.
         21    1    1    2  504  502  0.15766807372E+02  0.30494008780E+02 -0.17388739762E+03  0.17724362848E+03  0.00000000000E+00 0. -1.
         21    1    1    2  505  501  0.21287716315E+02 -0.22614525468E+02  0.61978507430E+02  0.69324735927E+02  0.00000000000E+00 0.  1.
         21    1    1    2  506  504  0.44405962973E+02  0.12527679515E+03  0.93358876891E+03  0.94300273296E+03  0.00000000000E+00 0.  1.
<scales pt_clust_3="14000.00000" pt_clust_4="34.31230" pt_clust_5="31.05775" pt_clust_6="126.31407"></scales>
<clustering>
<clus scale="   31.058">  1  5  2 -1</clus>
<clus scale="   34.312">  2  4  1 -1</clus>
<clus scale="  126.314">  1  6  2 -1</clus>
<clus scale="   31.058">  1  3  2 -1</clus>
</clustering>
</event>
<event>
 6    0  0.8991567E+002  0.9134104E+02  0.7546771E-02  0.1299636E+00
         21   -1    0    0  505  501  0.00000000000E+00  0.00000000000E+00  0.51065265399E+03  0.51065265399E+03  0.00000000000E+00 0.  1.
         21   -1    0    0  504  502 -0.00000000000E+00 -0.00000000000E+00 -0.14117745185E+03  0.14117745185E+03  0.00000000000E+00 0.  1.
         21    1    1    2  503  501 -0.58416653740E+02  0.56397184326E+02  0.22729405250E+02  0.84319474008E+02  0.00000000000E+00 0.  1.
         21    1    1    2  504  503 -0.11247032728E+02  0.36713880706E+02 -0.24032781896E+02  0.45298779093E+02  0.00000000000E+00 0.  1.
         21    1    1    2  505  506  0.31445594729E+02 -0.88825835431E+02  0.43623405917E+03  0.44629475557E+03  0.00000000000E+00 0.  1.
         21    1    1    2  506  502  0.38218091739E+02 -0.42852296009E+01 -0.65455480392E+02  0.75917097167E+02  0.00000000000E+00 0.  1.
<scales pt_clust_3="14000.00000" pt_clust_4="38.39798" pt_clust_5="91.34104" pt_clust_6="36.72888"></scales>
<clustering>
<clus scale="   38.398">  2  4  1 -1</clus>
<clus scale="   36.729">  2  6  1 -1</clus>
<clus scale="   91.341">  1  5  2 -1</clus>
<clus scale="   91.341">  1  3  2 -1</clus>
</clustering>
</event>
<event>
 6    0  0.8991567E+002  0.5895174E+02  0.7546771E-02  0.1402284E+00
         21   -1    0    0  504  501  0.00000000000E+00  0.00000000000E+00  0.62468781072E+03  0.62468781072E+03  0.00000000000E+00 0. -1.
         21   -1    0    0  506  502 -0.00000000000E+00 -0.00000000000E+00 -0.17701029711E+03  0.17701029711E+03  0.00000000000E+00 0.  1.
         21    1    1    2  503  501  0.35124257330E+02  0.24386912389E+02  0.77301919694E+02  0.88340374333E+02  0.00000000000E+00 0.  1.
         21    1    1    2  504  505 -0.84648754281E+02  0.41101315773E+01  0.50288217506E+03  0.50997331967E+03  0.00000000000E+00 0. -1.
         21    1    1    2  505  502  0.38793885823E+02 -0.73436127473E+02 -0.13343684920E+03  0.15717259023E+03  0.00000000000E+00 0.  1.
         21    1    1    2  506  503  0.10730611127E+02  0.44939083507E+02  0.93026806029E+00  0.46211823598E+02  0.00000000000E+00 0. -1.
<scales pt_clust_3="42.76020" pt_clust_4="14000.00000" pt_clust_5="58.95174" pt_clust_6="47.60528"></scales>
<clustering>
<clus scale="   42.760">  1  3  2 -1</clus>
<clus scale="   47.605">  2  6  1 -1</clus>
<clus scale="   58.952">  2  5  1 -1</clus>
<clus scale="   42.760">  1  3  2 -1</clus>
</clustering>
</event>
<event>
 6    0  0.8991567E+002  0.8391125E+02  0.7546771E-02  0.1318305E+00
         21   -1    0    0  505  501  0.00000000000E+00  0.00000000000E+00  0.11997521095E+03  0.11997521095E+03  0.00000000000E+00 0.  1.
         21   -1    0    0  506  502 -0.00000000000E+00 -0.00000000000E+00 -0.14899914173E+04  0.14899914173E+04  0.00000000000E+00 0.  1.
         21    1    1    2  503  504 -0.64054736543E+02  0.52288321131E+02 -0.35946108136E+03  0.36884867739E+03  0.00000000000E+00 0.  1.
         21    1    1    2  504  502  0.53754284456E+02 -0.12772155679E+01 -0.61653529885E+03  0.61887553604E+03  0.00000000000E+00 0.  1.
         21    1    1    2  505  503 -0.33753565836E+02  0.33050918443E+02  0.10454608301E+03  0.11472379827E+03  0.00000000000E+00 0.  1.
         21    1    1    2  506  501  0.44054017924E+02 -0.84062024006E+02 -0.49856590912E+03  0.50751861652E+03  0.00000000000E+00 0.  1.
<scales pt_clust_3="83.91125" pt_clust_4="49.99539" pt_clust_5="47.24052" pt_clust_6="14000.00000"></scales>
<clustering>
<clus scale="   47.241">  1  5  2 -1</clus>
<clus scale="   49.995">  2  4  1 -1</clus>
<clus scale="   83.911">  2  3  1 -1</clus>
<clus scale="   47.241">  1  3  2 -1</clus>
</clustering>
</event>
<event>
 6    0  0.8991567E+002  0.1101760E+03  0.7546771E-02  0.1260244E+00
         21   -1    0    0  506  501  0.00000000000E+00  0.00000000000E+00  0.26183108608E+03  0.26183108608E+03  0.00000000000E+00 0.  1.
         21   -1    0    0  503  502 -0.00000000000E+00 -0.00000000000E+00 -0.42444540397E+03  0.42444540397E+03  0.00000000000E+00 0. -1.
         21    1    1    2  503  504  0.13901370943E+03 -0.35239701486E+02 -0.30297210354E+03  0.33519955772E+03  0.00000000000E+00 0. -1.
         21    1    1    2  504  501 -0.90180667438E+02 -0.37517093900E+02  0.39254553282E+02  0.10526635297E+03  0.00000000000E+00 0. -1.
         21    1    1    2  505  502 -0.29221558078E+02  0.17520592638E+02 -0.62961792885E+02  0.71589510308E+02  0.00000000000E+00 0. -1.
         21    1    1    2  506  505 -0.19611483917E+02  0.55236202748E+02  0.16406502525E+03  0.17422106906E+03  0.00000000000E+00 0.  1.
<scales pt_clust_3="14000.00000" pt_clust_4="110.17601" pt_clust_5="34.07155" pt_clust_6="58.98895"></scales>
<clustering>
<clus scale="   34.072">  2  5  1 -1</clus>
<clus scale="   58.989">  1  6  2 -1</clus>
<clus scale="  110.176">  1  4  2 -1</clus>
<clus scale="   58.989">  1  3  2 -1</clus>
</clustering>
</event>
<event>
 6    0  0.8991567E+002  0.1074943E+03  0.7546771E-02  0.1265282E+00
         21   -1    0    0  505  501  0.00000000000E+00  0.00000000000E+00  0.17760999536E+03  0.17760999536E+03  0.00000000000E+00 0.  1.
         21   -1    0    0  503  502 -0.00000000000E+00 -0.00000000000E+00 -0.56532688665E+03  0.56532688665E+03  0.00000000000E+00 0. -1.
         21    1    1    2  503  504 -0.77502886975E+02  0.44111270054E+02 -0.40904723868E+03  0.41865516252E+03  0.00000000000E+00 0. -1.
         21    1    1    2  504  501 -0.19970536822E+02 -0.45515162659E+02  0.12317828421E+03  0.13282824276E+03  0.00000000000E+00 0.  1.
         21    1    1    2  505  506  0.10593216599E+03 -0.29339206926E+02 -0.31701483358E+02  0.11440016128E+03  0.00000000000E+00 0.  1.
         21    1    1    2  506  502 -0.84587421895E+01  0.30743099531E+02 -0.70146453460E+02  0.77053315447E+02  0.00000000000E+00 0.  1.
<scales pt_clust_3="14000.00000" pt_clust_4="49.46115" pt_clust_5="107.49433" pt_clust_6="31.88555"></scales>
<clustering>
<clus scale="   31.886">  2  6  1 -1</clus>
<clus scale="   49.461">  1  4  2 -1</clus>
<clus scale="  107.494">  1  5  2 -1</clus>
<clus scale="   49.461">  1  3  2 -1</clus>
</clustering>
</event>
<event>
 6    0  0.8991567E+002  0.1704031E+03  0.7546771E-02  0.1177428E+00
         21   -1    0    0  505  501  0.00000000000E+00  0.00000000000E+00  0.54827104717E+03  0.54827104717E+03  0.00000000000E+00 0.  1.
         21   -1    0    0  506  502 -0.00000000000E+00 -0.00000000000E+00 -0.24392035538E+03  0.24392035538E+03  0.00000000000E+00 0.  1.
         21    1    1    2  503  504  0.17057388004E+03  0.20498697138E+02  0.31188584328E+02  0.17460920058E+03  0.00000000000E+00 0.  1.
         21    1    1    2  504  502 -0.17845048423E+02  0.38211754119E+02 -0.12746104424E+03  0.13425684975E+03  0.00000000000E+00 0.  1.
         21    1    1    2  505  503 -0.15435840157E+03 -0.10591549398E+03  0.18721556047E+03  0.26475323243E+03  0.00000000000E+00 0.  1.
         21    1    1    2  506  501  0.16295699597E+01  0.47205042728E+02  0.21340759123E+03  0.21857211980E+03  0.00000000000E+00 0.  1.
<scales pt_clust_3="14000.00000" pt_clust_4="42.17326" pt_clust_5="170.40313" pt_clust_6="48.09331"></scales>
<clustering>
<clus scale="   42.173">  2  4  1 -1</clus>
<clus scale="   48.093">  1  6  2 -1</clus>
<clus scale="  170.403">  1  5  2 -1</clus>
<clus scale="   48.093">  1  3  2 -1</clus>
</clustering>
</event>
<event>
 6    0  0.8991567E+002  0.7391452E+02  0.7546771E-02  0.1347266E+00
         21   -1    0    0  506  501  0.00000000000E+00  0.00000000000E+00  0.33357652424E+03  0.33357652424E+03  0.00000000000E+00 0.  1.
         21   -1    0    0  503  502 -0.00000000000E+00 -0.00000000000E+00 -0.11438391207E+03  0.11438391207E+03  0.00000000000E+00 0.  1.
         21    1    1    2  503  505  0.59821459823E+01  0.79816250973E+02  0.32474866318E+02  0.86377294078E+02  0.00000000000E+00 0.  1.
         21    1    1    2  504  502  0.25744363208E+02 -0.68880764389E+02 -0.32796451881E+02  0.80516701347E+02  0.00000000000E+00 0.  1.
         21    1    1    2  505  501  0.46121471834E+02  0.47282820380E+02  0.14243989914E+03  0.15700949059E+03  0.00000000000E+00 0.  1.
         21    1    1    2  506  504 -0.77847981024E+02 -0.58218306963E+02  0.77074298594E+02  0.12405695030E+03  0.00000000000E+00 0.  1.
<scales pt_clust_3="14000.00000" pt_clust_4="73.91452" pt_clust_5="66.05191" pt_clust_6="61.77130"></scales>
<clustering>
<clus scale="   66.052">  1  5  2 -1</clus>
<clus scale="   61.771">  1  6  2 -1</clus>
<clus scale="   73.915">  2  4  1 -1</clus>
<clus scale="   66.052">  1  3  2 -1</clus>
</clustering>
</event>
<event>
 6    0  0.8991567E+002  0.1233059E+03  0.7546771E-02  0.1237741E+00
         21   -1    0    0  505  501  0.00000000000E+00  0.00000000000E+00  0.15840837467E+03  0.15840837467E+03  0.00000000000E+00 0. -1.
         21   -1    0    0  503  502 -0.00000000000E+00 -0.00000000000E+00 -0.18663527729E+04  0.18663527729E+04  0.00000000000E+00 0. -1.
         21    1    1    2  503  501 -0.86004935094E+02 -0.89313827279E+02  0.35055642657E+02  0.12885149082E+03  0.00000000000E+00 0. -1.
         21    1    1    2  504  502 -0.12298496308E+02 -0.37492088998E+02 -0.16903638151E+04  0.16908242774E+04  0.00000000000E+00 0. -1.
         21    1    1    2  505  506  0.29786440805E+02 -0.38161327118E+01  0.24386582063E+02  0.38684626267E+02  0.00000000000E+00 0. -1.
         21    1    1    2  506  504  0.68516990598E+02  0.13062204899E+03 -0.77022807835E+02  0.16640075303E+03  0.00000000000E+00 0. -1.
<scales pt_clust_3="14000.00000" pt_clust_4="39.44746" pt_clust_5="30.02990" pt_clust_6="123.30589"></scales>
<clustering>
<clus scale="   30.030">  1  5  2 -1</clus>
<clus scale="   39.447">  2  4  1 -1</clus>
<clus scale="  123.306">  2  6  1 -1</clus>
<clus scale="   30.030">  1  3  2 -1</clus>
</clustering>
</event>
<event>
 6    0  0.8991567E+002  0.1026666E+03  0.7546771E-02  0.1274786E+00
         21   -1    0    0  503  501  0.00000000000E+00  0.00000000000E+00  0.26279814718E+03  0.26279814718E+03  0.00000000000E+00 0. -1.
         21   -1    0    0  505  502 -0.00000000000E+00 -0.00000000000E+00 -0.19631030746E+03  0.19631030746E+03  0.00000000000E+00 0. -1.
         21    1    1    2  503  504 -0.36518968271E+02  0.58578390095E+01  0.14412282452E+03  0.14879293622E+03  0.00000000000E+00 0. -1.
         21    1    1    2  504  506  0.12924671454E+02 -0.10476707686E+03 -0.85063033012E+02  0.13556882795E+03  0.00000000000E+00 0. -1.
         21    1    1    2  505  501  0.56094485131E+02  0.95264805913E+02  0.49774894645E+02  0.12124155494E+03  0.00000000000E+00 0. -1.
         21    1    1    2  506  502 -0.32500188313E+02  0.36444319373E+01 -0.42346846435E+02  0.53505135524E+02  0.00000000000E+00 0.  1.
<scales pt_clust_3="37.49988" pt_clust_4="102.66657" pt_clust_5="14000.00000" pt_clust_6="32.70389"></scales>
<clustering>
<clus scale="   32.704">  2  6  1 -1</clus>
<clus scale="   37.500">  1  3  2 -1</clus>
<clus scale="  102.667">  2  4  1 -1</clus>
<clus scale="   37.500">  1  3  2 -1</clus>
</clustering>
</event>
<event>
 6    0  0.8991567E+002  0.8964209E+02  0.7546771E-02  0.1303721E+00
         21   -1    0    0  503  501  0.00000000000E+00  0.00000000000E+00  0.11575020574E+03  0.11575020574E+03  0.00000000000E+00 0.  1.
         21   -1    0    0  505  502 -0.00000000000E+00 -0.00000000000E+00 -0.27936084127E+04  0.27936084127E+04  0.00000000000E+00 0. -1.
         21    1    1    2  503  506  0.70216624225E+02  0.13027426680E+02  0.66770832989E+02  0.97767235317E+02  0.00000000000E+00 0.  1.
         21    1    1    2  504  501  0.30740916976E+02 -0.10863962656E+03 -0.12500936154E+03  0.16844854676E+03  0.00000000000E+00 0.  1.
         21    1    1    2  505  504 -0.88437857172E+02  0.20950173759E+02 -0.24995356249E+04  0.25011874190E+04  0.00000000000E+00 0. -1.
         21    1    1    2  506  502 -0.12519684029E+02  0.74662026118E+02 -0.12008405345E+03  0.14195541738E+03  0.00000000000E+00 0.  1.
<scales pt_clust_3="71.41490" pt_clust_4="14000.00000" pt_clust_5="89.64209" pt_clust_6="79.60130"></scales>
<clustering>
<clus scale="   71.415">  1  3  2 -1</clus>
<clus scale="   79.601">  1  6  2 -1</clus>
<clus scale="   89.642">  2  5  1 -1</clus>
<clus scale="   71.415">  1  3  2 -1</clus>
</clustering>
</event>
<event>
 6    0  0.8991567E+002  0.1478136E+03  0.7546771E-02  0.1203186E+00
         21   -1    0    0  505  501  0.00000000000E+00  0.00000000000E+00  0.15070846429E+04  0.15070846429E+04  0.00000000000E+00 0.  1.
         21   -1    0    0  503  502 -0.00000000000E+00 -0.00000000000E+00 -0.63304581273E+02  0.63304581273E+02  0.00000000000E+00 0.  1.
         21    1    1    2  503  506 -0.65261934857E+02  0.34435376906E+01 -0.52966323325E+01  0.65567007002E+02  0.00000000000E+00 0.  1.
         21    1    1    2  504  501 -0.47136893635E+02  0.57234117578E+02  0.41107776104E+03  0.41771109224E+03  0.00000000000E+00 0.  1.
         21    1    1    2  505  502  0.19615605333E+03  0.31322722161E+02  0.63546078027E+03  0.66578428446E+03  0.00000000000E+00 0.  1.
         21    1    1    2  506  504 -0.83757224836E+02 -0.92000377430E+02  0.40253815264E+03  0.42132684045E+03  0.00000000000E+00 0.  1.
<scales pt_clust_3="65.35272" pt_clust_4="79.60599" pt_clust_5="14000.00000" pt_clust_6="147.81365"></scales>
<clustering>
<clus scale="   65.353">  2  3  1 -1</clus>
<clus scale="   79.606">  1  4  2 -1</clus>
<clus scale="  147.814">  1  6  2 -1</clus>
<clus scale="   79.606">  1  3  2 -1</clus>
</clustering>
</event>
<event>
 6    0  0.8991567E+002  0.9853845E+02  0.7546771E-02  0.1283400E+00
         21   -1    0    0  506  501  0.00000000000E+00  0.00000000000E+00  0.12016779561E+03  0.12016779561E+03  0.00000000000E+00 0. -1.
         21   -1    0    0  504  502 -0.00000000000E+00 -0.00000000000E+00 -0.26846340451E+03  0.26846340451E+03  0.00000000000E+00 0. -1.
         21    1    1    2  503  501 -0.44461652687E+02 -0.65788318549E+01  0.51478095552E+02  0.68338231685E+02  0.00000000000E+00 0. -1.
         21    1    1    2  504  505  0.40388276504E+02  0.69960054238E+00 -0.37268257111E+02  0.54960215683E+02  0.00000000000E+00 0. -1.
         21    1    1    2  505  503 -0.11904147287E+02 -0.90891467966E+02 -0.22497427351E+02  0.94388039015E+02  0.00000000000E+00 0. -1.
         21    1    1    2  506  502  0.15977523470E+02  0.96770699279E+02 -0.14000801998E+03  0.17094471374E+03  0.00000000000E+00 0. -1.
<scales pt_clust_3="43.42753" pt_clust_4="40.39434" pt_clust_5="98.53845" pt_clust_6="14000.00000"></scales>
<clustering>
<clus scale="   40.394">  2  4  1 -1</clus>
<clus scale="   43.428">  1  3  2 -1</clus>
<clus scale="   98.538">  1  5  2 -1</clus>
<clus scale="   43.428">  1  3  2 -1</clus>
</clustering>
</event>
<event>
 6    0  0.8991567E+002  0.7383646E+02  0.7546771E-02  0.1347512E+00
         21   -1    0    0  506  501  0.00000000000E+00  0.00000000000E+00  0.58406271331E+02  0.58406271331E+02  0.00000000000E+00 0. -1.
         21   -1    0    0  503  502 -0.00000000000E+00 -0.00000000000E+00 -0.73436284937E+03  0.73436284937E+03  0.00000000000E+00 0. -1.
         21    1    1    2  503  504  0.13464313990E+02 -0.80860149981E+02 -0.11807248320E+03  0.14373852266E+03  0.00000000000E+00 0. -1.
         21    1    1    2  504  501 -0.20557856836E+02  0.23334341055E+02  0.28711128116E+02  0.42325474928E+02  0.00000000000E+00 0. -1.
         21    1    1    2  505  502 -0.43805195351E+02 -0.28544713409E+02 -0.25747020619E+03  0.26272533734E+03  0.00000000000E+00 0.  1.
         21    1    1    2  506  505  0.50898738197E+02  0.86070522334E+02 -0.32912501676E+03  0.34397978578E+03  0.00000000000E+00 0. -1.
<scales pt_clust_3="14000.00000" pt_clust_4="31.09850" pt_clust_5="52.91764" pt_clust_6="73.83646"></scales>
<clustering>
<clus scale="   31.099">  1  4  2 -1</clus>
<clus scale="   52.918">  2  5  1 -1</clus>
<clus scale="   73.836">  2  6  1 -1</clus>
<clus scale="   31.099">  1  3  2 -1</clus>
</clustering>
</event>
<event>
 6    0  0.8991567E+002  0.1548777E+03  0.7546771E-02  0.1194604E+00
         21   -1    0    0  505  501  0.00000000000E+00  0.00000000000E+00  0.51335584329E+03  0.51335584329E+03  0.00000000000E+00 0.  1.
         21   -1    0    0  504  502 -0.00000000000E+00 -0.00000000000E+00 -0.42919879605E+03  0.42919879605E+03  0.00000000000E+00 0.  1.
         21    1    1    2  503  502 -0.16009291567E+02 -0.92611959292E+02 -0.28230618050E+03  0.29754000062E+03  0.00000000000E+00 0.  1.
         21    1    1    2  504  506 -0.12038520039E+03  0.16703450941E+03  0.20052856219E+02  0.20687010623E+03  0.00000000000E+00 0.  1.
         21    1    1    2  505  503  0.10794656155E+02 -0.35219045295E+02  0.29434620183E+03  0.29664219572E+03  0.00000000000E+00 0. -1.
         21    1    1    2  506  501  0.12559983581E+03 -0.39203504825E+02  0.52064169688E+02  0.14150233677E+03  0.00000000000E+00 0.  1.
<scales pt_clust_3="95.13632" pt_clust_4="14000.00000" pt_clust_5="36.83620" pt_clust_6="154.87769"></scales>
<clustering>
<clus scale="   36.836">  1  5  2 -1</clus>
<clus scale="   95.136">  2  3  1 -1</clus>
<clus scale="  154.878">  1  6  2 -1</clus>
<clus scale="   36.836">  1  3  2 -1</clus>
</clustering>
</event>
<event>
 6    0  0.8991567E+002  0.1273863E+03  0.7546771E-02  0.1231386E+00
         21   -1    0    0  504  501  0.00000000000E+00  0.00000000000E+00  0.29647303147E+03  0.29647303147E+03  0.00000000000E+00 0.  1.
         21   -1    0    0  505  502 -0.00000000000E+00 -0.00000000000E+00 -0.20209636054E+03  0.20209636054E+03  0.00000000000E+00 0.  1.
         21    1    1    2  503  506 -0.28661913886E+02 -0.42957236168E+02 -0.36266319838E+02  0.63103687701E+02  0.00000000000E+00 0.  1.
         21    1    1    2  504  503  0.29271876930E+02  0.93277583925E+02  0.11831476899E+03  0.15347942860E+03  0.00000000000E+00 0.  1.
         21    1    1    2  505  501  0.47569128354E+02  0.76320039519E+01  0.13202470434E+03  0.14054035724E+03  0.00000000000E+00 0.  1.
         21    1    1    2  506  502 -0.48179091398E+02 -0.57952351709E+02 -0.11969648256E+03  0.14144591848E+03  0.00000000000E+00 0.  1.
<scales pt_clust_3="31.29049" pt_clust_4="121.64873" pt_clust_5="48.17748" pt_clust_6="31.29049"></scales>
<clustering>
<clus scale="   31.290">  3  6 -1 -1</clus>
<clus scale="   48.177">  1  5  2 -1</clus>
<clus scale="  121.649">  1  4  2 -1</clus>
<clus scale="   48.177">  1  3  2 -1</clus>
</clustering>
</event>
<event>
 6    0  0.8991567E+002  0.1143853E+03  0.7546771E-02  0.1252658E+00
         21   -1    0    0  505  501  0.00000000000E+00  0.00000000000E+00  0.30054419595E+03  0.30054419595E+03  0.00000000000E+00 0.  1.
         21   -1    0    0  503  502 -0.00000000000E+00 -0.00000000000E+00 -0.16238390159E+03  0.16238390159E+03  0.00000000000E+00 0.  1.
         21    1    1    2  503  506  0.78450105027E+02 -0.55737643992E+02 -0.92999862473E+02  0.13382854089E+03  0.00000000000E+00 0.  1.
         21    1    1    2  504  502 -0.33669697589E+02  0.14374221337E+02 -0.33324770903E+01  0.36761014381E+02  0.00000000000E+00 0.  1.
         21    1    1    2  505  504 -0.70494048361E+02  0.72117091438E+02  0.69329031361E+02  0.12237973820E+03  0.00000000000E+00 0. -1.
         21    1    1    2  506  501  0.25713640922E+02 -0.30753668783E+02  0.16516360256E+03  0.16995880408E+03  0.00000000000E+00 0.  1.
<scales pt_clust_3="102.19876" pt_clust_4="30.95403" pt_clust_5="30.95403" pt_clust_6="40.08715"></scales>
<clustering>
<clus scale="   30.954">  4  5 -1 -1</clus>
<clus scale="   40.087">  1  6  2 -1</clus>
<clus scale="  102.199">  2  3  1 -1</clus>
<clus scale="   40.087">  1  3  2 -1</clus>
</clustering>
</event>
<event>
 6    0  0.8991567E+002  0.1918472E+03  0.7546771E-02  0.1156806E+00
         21   -1    0    0  505  501  0.00000000000E+00  0.00000000000E+00  0.99032707697E+03  0.99032707697E+03  0.00000000000E+00 0. -1.
         21   -1    0    0  504  502 -0.00000000000E+00 -0.00000000000E+00 -0.10474302659E+03  0.10474302659E+03  0.00000000000E+00 0. -1.
         21    1    1    2  503  501 -0.29731833351E+02  0.12780461159E+02  0.19954925449E+03  0.20215644207E+03  0.00000000000E+00 0.  1.
         21    1    1    2  504  503 -0.27448209460E+02 -0.19411836256E+03  0.61090472395E+02  0.20534699585E+03  0.00000000000E+00 0. -1.
         21    1    1    2  505  506  0.47795521548E+02 -0.18655692055E+01  0.37223180182E+03  0.37529242800E+03  0.00000000000E+00 0.  1.
         21    1    1    2  506  502  0.93845212630E+01  0.18320347061E+03  0.25271252167E+03  0.31227423764E+03  0.00000000000E+00 0. -1.
<scales pt_clust_3="32.36236" pt_clust_4="14000.00000" pt_clust_5="33.97825" pt_clust_6="191.84719"></scales>
<clustering>
<clus scale="   32.362">  1  3  2 -1</clus>
<clus scale="   33.978">  1  5  2 -1</clus>
<clus scale="  191.847">  1  6  2 -1</clus>
<clus scale="   32.362">  1  3  2 -1</clus>
</clustering>
</event>
<event>
 6    0  0.8991567E+002  0.2242041E+03  0.7546771E-02  0.1130787E+00
         21   -1    0    0  503  501  0.00000000000E+00  0.00000000000E+00  0.57878502288E+03  0.57878502288E+03  0.00000000000E+00 0. -1.
         21   -1    0    0  504  502 -0.00000000000E+00 -0.00000000000E+00 -0.31193462880E+03  0.31193462880E+03  0.00000000000E+00 0.  1.
         21    1    1    2  503  505  0.39509759447E+02 -0.15661851014E+02  0.15994358887E+03  0.16549400681E+03  0.00000000000E+00 0.  1.
         21    1    1    2  504  501  0.39662508570E+02  0.55897462265E+02 -0.31631908460E+01  0.68612292266E+02  0.00000000000E+00 0. -1.
         21    1    1    2  505  506  0.13841854653E+03  0.14538819364E+03  0.26412493778E+03  0.33175202129E+03  0.00000000000E+00 0. -1.
         21    1    1    2  506  502 -0.21759081455E+03 -0.18562380489E+03 -0.15405494172E+03  0.32486133132E+03  0.00000000000E+00 0.  1.
<scales pt_clust_3="42.50076" pt_clust_4="69.40898" pt_clust_5="14000.00000" pt_clust_6="224.20406"></scales>
<clustering>
<clus scale="   42.501">  1  3  2 -1</clus>
<clus scale="   69.409">  2  4  1 -1</clus>
<clus scale="  224.204">  2  6  1 -1</clus>
<clus scale="   42.501">  1  3  2 -1</clus>
</clustering>
</event>
<event>
 6    0  0.8991567E+002  0.1136592E+03  0.7546771E-02  0.1253940E+00
         21   -1    0    0  505  501  0.00000000000E+00  0.00000000000E+00  0.14437119324E+03  0.14437119324E+03  0.00000000000E+00 0. -1.
         21   -1    0    0  504  502 -0.00000000000E+00 -0.00000000000E+00 -0.17711998526E+03  0.17711998526E+03  0.00000000000E+00 0. -1.
         21    1    1    2  503  506 -0.21068068599E+02  0.33765753652E+02  0.15818414720E+02  0.42827699897E+02  0.00000000000E+00 0. -1.
         21    1    1    2  504  501 -0.19346941361E+02 -0.62997921079E+02 -0.65861758506E+01  0.66230052941E+02  0.00000000000E+00 0. -1.
         21    1    1    2  505  503 -0.65658667745E+02  0.97554154191E+00  0.38680724445E+02  0.76211618372E+02  0.00000000000E+00 0. -1.
         21    1    1    2  506  502  0.10607367770E+03  0.28256625885E+02 -0.80661755331E+02  0.13622180729E+03  0.00000000000E+00 0. -1.
<scales pt_clust_3="38.70505" pt_clust_4="65.90176" pt_clust_5="38.70505" pt_clust_6="102.20910"></scales>
<clustering>
<clus scale="   38.705">  3  5 -1 -1</clus>
<clus scale="   65.902">  1  4  2 -1</clus>
<clus scale="  102.209">  2  6  1 -1</clus>
<clus scale="   65.902">  1  3  2 -1</clus>
</clustering>
</event>
<event>
 6    0  0.8991567E+002  0.2685549E+03  0.7546771E-02  0.1102110E+00
         21   -1    0    0  506  501  0.00000000000E+00  0.00000000000E+00  0.66502661815E+03  0.66502661815E+03  0.00000000000E+00 0. -1.
         21   -1    0    0  504  502 -0.00000000000E+00 -0.00000000000E+00 -0.11322427141E+04  0.11322427141E+04  0.00000000000E+00 0.  1.
         21    1    1    2  503  505 -0.69590854125E+02 -0.26293022511E+03  0.39151780440E+03  0.47671939484E+03  0.00000000000E+00 0. -1.
         21    1    1    2  504  501  0.13270831858E+03  0.22317371944E+03 -0.10223374265E+04  0.10547946817E+04  0.00000000000E+00 0.  1.
         21    1    1    2  505  502 -0.28209681746E+02  0.24722731294E+02 -0.42206134956E+02  0.56465541836E+02  0.00000000000E+00 0. -1.
         21    1    1    2  506  503 -0.34907782712E+02  0.15033774370E+02  0.20580966120E+03  0.20928971381E+03  0.00000000000E+00 0.  1.
<scales pt_clust_3="14000.00000" pt_clust_4="268.55487" pt_clust_5="37.50999" pt_clust_6="38.06482"></scales>
<clustering>
<clus scale="   37.510">  2  5  1 -1</clus>
<clus scale="   38.065">  1  6  2 -1</clus>
<clus scale="  268.555">  2  4  1 -1</clus>
<clus scale="   38.065">  1  3  2 -1</clus>
</clustering>
</event>
<event>
 6    0  0.8991567E+002  0.1434888E+03  0.7546771E-02  0.1208710E+00
         21   -1    0    0  505  501  0.00000000000E+00  0.00000000000E+00  0.13608936330E+04  0.13608936330E+04  0.00000000000E+00 0. -1.
         21   -1    0    0  504  502 -0.00000000000E+00 -0.00000000000E+00 -0.59592870905E+02  0.59592870905E+02  0.00000000000E+00 0. -1.
         21    1    1    2  503  506 -0.60667162438E+02 -0.14781368050E+02  0.26600484156E+02  0.67871784985E+02  0.00000000000E+00 0.  1.
         21    1    1    2  504  501  0.78686553618E+02  0.97261478894E+01  0.93117097388E+03  0.93454029034E+03  0.00000000000E+00 0. -1.
         21    1    1    2  505  503  0.42298642116E+02 -0.55571420192E+02  0.32254144730E+03  0.33001567098E+03  0.00000000000E+00 0. -1.
         21    1    1    2  506  502 -0.60318033295E+02  0.60626640353E+02  0.20987856780E+02  0.88058757619E+02  0.00000000000E+00 0. -1.
<scales pt_clust_3="62.26849" pt_clust_4="123.60651" pt_clust_5="69.83808" pt_clust_6="62.26849"></scales>
<clustering>
<clus scale="   62.268">  3  6 -1 -1</clus>
<clus scale="   69.838">  1  5  2 -1</clus>
<clus scale="  123.607">  1  4  2 -1</clus>
<clus scale="   69.838">  1  3  2 -1</clus>
</clustering>
</event>
<event>
 6    0  0.8991567E+002  0.1571551E+03  0.7546771E-02  0.1191947E+00
         21   -1    0    0  505  501  0.00000000000E+00  0.00000000000E+00  0.10263827430E+04  0.10263827430E+04  0.00000000000E+00 0.  1.
         21   -1    0    0  503  502 -0.00000000000E+00 -0.00000000000E+00 -0.13724719003E+03  0.13724719003E+03  0.00000000000E+00 0.  1.
         21    1    1    2  503  501 -0.16961858084E+02 -0.42632968946E+02  0.19245234029E+03  0.19784634936E+03  0.00000000000E+00 0. -1.
         21    1    1    2  504  506 -0.35507193306E+02 -0.16961251709E+03  0.35525861752E+02  0.17689333957E+03  0.00000000000E+00 0.  1.
         21    1    1    2  505  504 -0.51477254103E+01  0.19015601635E+03  0.69357395779E+03  0.71918748915E+03  0.00000000000E+00 0.  1.
         21    1    1    2  506  502  0.57616776801E+02  0.22089469687E+02 -0.32416606894E+02  0.69702754913E+02  0.00000000000E+00 0.  1.
<scales pt_clust_3="45.88327" pt_clust_4="157.15513" pt_clust_5="14000.00000" pt_clust_6="61.01324"></scales>
<clustering>
<clus scale="   45.883">  1  3  2 -1</clus>
<clus scale="   61.013">  2  6  1 -1</clus>
<clus scale="  157.155">  2  4  1 -1</clus>
<clus scale="   45.883">  1  3  2 -1</clus>
</clustering>
</event>
<event>
 6    0  0.8991567E+002  0.1326073E+03  0.7546771E-02  0.1223637E+00
         21   -1    0    0  505  501  0.00000000000E+00  0.00000000000E+00  0.53887675975E+03  0.53887675975E+03  0.00000000000E+00 0. -1.
         21   -1    0    0  506  502 -0.00000000000E+00 -0.00000000000E+00 -0.12858665070E+03  0.12858665070E+03  0.00000000000E+00 0. -1.
         21    1    1    2  503  501 -0.99530103513E+01  0.33882078258E+02  0.76669768813E+02  0.84411557810E+02  0.00000000000E+00 0. -1.
         21    1    1    2  504  502  0.12801456401E+03  0.33583127932E+02  0.45686629456E+02  0.14001008246E+03  0.00000000000E+00 0. -1.
         21    1    1    2  505  504 -0.10061293662E+03 -0.10598825604E+03  0.34345240142E+03  0.37325062019E+03  0.00000000000E+00 0. -1.
         21    1    1    2  506  503 -0.17448617038E+02  0.38523049847E+02 -0.55518690639E+02  0.69791149986E+02  0.00000000000E+00 0. -1.
<scales pt_clust_3="35.31370" pt_clust_4="132.60730" pt_clust_5="14000.00000" pt_clust_6="42.83497"></scales>
<clustering>
<clus scale="   35.314">  1  3  2 -1</clus>
<clus scale="   42.835">  2  6  1 -1</clus>
<clus scale="  132.607">  2  4  1 -1</clus>
<clus scale="   35.314">  1  3  2 -1</clus>
</clustering>
</event>
<event>
 6    0  0.8991567E+002  0.7320481E+02  0.7546771E-02  0.1349522E+00
         21   -1    0    0  505  501  0.00000000000E+00  0.00000000000E+00  0.12714749357E+04  0.12714749357E+04  0.00000000000E+00 0. -1.
         21   -1    0    0  504  502 -0.00000000000E+00 -0.00000000000E+00 -0.36292966838E+03  0.36292966838E+03  0.00000000000E+00 0. -1.
         21    1    1    2  503  502 -0.68494524118E+02  0.20744362628E+02 -0.27420949884E+03  0.28339491469E+03  0.00000000000E+00 0. -1.
         21    1    1    2  504  501  0.11375160089E+03  0.37967847567E+00  0.68475158267E+02  0.13277205339E+03  0.00000000000E+00 0.  1.
         21    1    1    2  505  506 -0.75037294358E+01  0.33006823287E+02  0.11449590207E+04  0.11454592596E+04  0.00000000000E+00 0. -1.
         21    1    1    2  506  503 -0.37753347340E+02 -0.54130864392E+02 -0.30679412731E+02  0.72778376464E+02  0.00000000000E+00 0.  1.
<scales pt_clust_3="73.20481" pt_clust_4="14000.00000" pt_clust_5="33.84902" pt_clust_6="62.33821"></scales>
<clustering>
<clus scale="   33.849">  1  5  2 -1</clus>
<clus scale="   62.338">  1  6  2 -1</clus>
<clus scale="   73.205">  2  3  1 -1</clus>
<clus scale="   33.849">  1  3  2 -1</clus>
</clustering>
</event>
<event>
 6    0  0.8991567E+002  0.1109203E+03  0.7546771E-02  0.1258875E+00
         21   -1    0    0  504  501  0.00000000000E+00  0.00000000000E+00  0.46554018441E+02  0.46554018441E+02  0.00000000000E+00 0. -1.
         21   -1    0    0  505  502 -0.00000000000E+00 -0.00000000000E+00 -0.89601807202E+03  0.89601807202E+03  0.00000000000E+00 0. -1.
         21    1    1    2  503  502 -0.41072322119E+02 -0.28838383009E+01 -0.36296498944E+03  0.36529280821E+03  0.00000000000E+00 0. -1.
         21    1    1    2  504  503 -0.74161040115E+02 -0.58979609861E+02 -0.12485802943E+03  0.15674176777E+03  0.00000000000E+00 0. -1.
         21    1    1    2  505  506 -0.15865662321E+02  0.29580010970E+02 -0.22837928400E+03  0.23083282620E+03  0.00000000000E+00 0. -1.
         21    1    1    2  506  501  0.13109902455E+03  0.32283437192E+02 -0.13326175071E+03  0.18970468828E+03  0.00000000000E+00 0. -1.
<scales pt_clust_3="51.48327" pt_clust_4="14000.00000" pt_clust_5="33.56630" pt_clust_6="110.92026"></scales>
<clustering>
<clus scale="   33.566">  2  5  1 -1</clus>
<clus scale="   51.483">  2  3  1 -1</clus>
<clus scale="  110.920">  2  6  1 -1</clus>
<clus scale="  110.920">  1  3  2 -1</clus>
</clustering>
</event>
<event>
 6    0  0.8991567E+002  0.1646013E+03  0.7546771E-02  0.1183598E+00
         21   -1    0    0  505  501  0.00000000000E+00  0.00000000000E+00  0.74386423312E+02  0.74386423312E+02  0.00000000000E+00 0.  1.
         21   -1    0    0  504  502 -0.00000000000E+00 -0.00000000000E+00 -0.78803868969E+03  0.78803868969E+03  0.00000000000E+00 0.  1.
         21    1    1    2  503  502 -0.38833713262E+02  0.15287198507E+03 -0.38060109451E+03  0.41198919190E+03  0.00000000000E+00 0.  1.
         21    1    1    2  504  506  0.80269290470E+02 -0.15750623249E+03 -0.32919068855E+03  0.37365476271E+03  0.00000000000E+00 0.  1.
         21    1    1    2  505  503 -0.16117974285E+02 -0.27982669483E+02 -0.12446210246E+02  0.34608193191E+02  0.00000000000E+00 0. -1.
         21    1    1    2  506  501 -0.25317602924E+02  0.32616916909E+02  0.85857269312E+01  0.42172965196E+02  0.00000000000E+00 0.  1.
<scales pt_clust_3="14000.00000" pt_clust_4="164.60134" pt_clust_5="32.29271" pt_clust_6="38.31222"></scales>
<clustering>
<clus scale="   32.293">  1  5  2 -1</clus>
<clus scale="   38.312">  1  6  2 -1</clus>
<clus scale="  164.601">  1  4  2 -1</clus>
<clus scale="   32.293">  1  3  2 -1</clus>
</clustering>
</event>
<event>
 6    0  0.8991567E+002  0.9943555E+02  0.7546771E-02  0.1281487E+00
         21   -1    0    0  505  501  0.00000000000E+00  0.00000000000E+00  0.18023650740E+03  0.18023650740E+03  0.00000000000E+00 0.  1.
         21   -1    0    0  506  502 -0.00000000000E+00 -0.00000000000E+00 -0.15810949883E+04  0.15810949883E+04  0.00000000000E+00 0. -1.
         21    1    1    2  503  502 -0.90894970287E+02 -0.19058509133E+00 -0.15143088805E+04  0.15170343825E+04  0.00000000000E+00 0. -1.
         21    1    1    2  504  503  0.38951542678E+02  0.31147227422E+02  0.47402989397E+02  0.68807091617E+02  0.00000000000E+00 0.  1.
         21    1    1    2  505  504  0.73204158556E+02  0.42751843475E+01  0.98700393565E+02  0.12295891070E+03  0.00000000000E+00 0.  1.
         21    1    1    2  506  501 -0.21260730947E+02 -0.35231826678E+02 -0.32652983312E+02  0.52531110884E+02  0.00000000000E+00 0. -1.
<scales pt_clust_3="91.06633" pt_clust_4="32.92986" pt_clust_5="32.92986" pt_clust_6="41.14973"></scales>
<clustering>
<clus scale="   32.930">  4  5 -1 -1</clus>
<clus scale="   41.150">  1  6  2 -1</clus>
<clus scale="   91.066">  2  3  1 -1</clus>
<clus scale="   41.150">  1  3  2 -1</clus>
</clustering>
</event>
<event>
 6    0  0.8991567E+002  0.6603328E+02  0.7546771E-02  0.1374126E+00
         21   -1    0    0  506  501  0.00000000000E+00  0.00000000000E+00  0.11208119921E+04  0.11208119921E+04  0.00000000000E+00 0.  1.
         21   -1    0    0  504  502 -0.00000000000E+00 -0.00000000000E+00 -0.10445146268E+03  0.10445146268E+03  0.00000000000E+00 0.  1.
         21    1    1    2  503  505  0.65963481815E+02  0.66181911093E+02  0.20111467683E+03  0.22176189828E+03  0.00000000000E+00 0.  1.
         21    1    1    2  504  503 -0.15358089618E+02 -0.63385662534E+02 -0.79542021356E+02  0.10286178247E+03  0.00000000000E+00 0.  1.
         21    1    1    2  505  501 -0.93130186772E+01 -0.43464477483E+02  0.40765564029E+03  0.41007196220E+03  0.00000000000E+00 0. -1.
         21    1    1    2  506  502 -0.41292373519E+02  0.40668228924E+02  0.48713223361E+03  0.49056781180E+03  0.00000000000E+00 0.  1.
<scales pt_clust_3="66.03328" pt_clust_4="14000.00000" pt_clust_5="44.45102" pt_clust_6="48.90001"></scales>
<clustering>
<clus scale="   44.451">  1  5  2 -1</clus>
<clus scale="   48.900">  1  6  2 -1</clus>
<clus scale="   66.033">  1  3  2 -1</clus>
<clus scale="   44.451">  1  3  2 -1</clus>
</clustering>
</event>
<event>
 6    0  0.8991567E+002  0.1105410E+03  0.7546771E-02  0.1259571E+00
         21   -1    0    0  506  501  0.00000000000E+00  0.00000000000E+00  0.24910526166E+03  0.24910526166E+03  0.00000000000E+00 0. -1.
         21   -1    0    0  504  502 -0.00000000000E+00 -0.00000000000E+00 -0.25760475762E+03  0.25760475762E+03  0.00000000000E+00 0.  1.
         21    1    1    2  503  505  0.98623731218E+02  0.50011531787E+02 -0.11676844507E+03  0.16081872850E+03  0.00000000000E+00 0.  1.
         21    1    1    2  504  501  0.26307651261E+02 -0.42049142094E+02  0.12016094690E+02  0.51035373980E+02  0.00000000000E+00 0. -1.
         21    1    1    2  505  502 -0.25443585780E+02  0.40213671294E+02 -0.76305950080E+02  0.89928379469E+02  0.00000000000E+00 0.  1.
         21    1    1    2  506  503 -0.99487796698E+02 -0.48176060987E+02  0.17255880451E+03  0.20492753733E+03  0.00000000000E+00 0. -1.
<scales pt_clust_3="14000.00000" pt_clust_4="44.27997" pt_clust_5="47.58692" pt_clust_6="110.54100"></scales>
<clustering>
<clus scale="   47.587">  2  5  1 -1</clus>
<clus scale="   44.280">  2  4  1 -1</clus>
<clus scale="  110.541">  1  6  2 -1</clus>
<clus scale="  110.541">  1  3  2 -1</clus>
</clustering>
</event>
<event>
 6    0  0.8991567E+002  0.1114636E+03  0.7546771E-02  0.1257883E+00
         21   -1    0    0  505  501  0.00000000000E+00  0.00000000000E+00  0.99104846162E+03  0.99104846162E+03  0.00000000000E+00 0.  1.
         21   -1    0    0  504  502 -0.00000000000E+00 -0.00000000000E+00 -0.66420158988E+03  0.66420158988E+03  0.00000000000E+00 0.  1.
         21    1    1    2  503  501  0.24248572637E+02 -0.26171810584E+02  0.54622837124E+03  0.54739235516E+03  0.00000000000E+00 0.  1.
         21    1    1    2  504  503 -0.10502798596E+03  0.67704166853E+02  0.84584036871E+02  0.15089463654E+03  0.00000000000E+00 0.  1.
         21    1    1    2  505  506 -0.27070497281E+02 -0.14581882061E+02  0.32085774359E+03  0.32232768223E+03  0.00000000000E+00 0.  1.
         21    1    1    2  506  502  0.10784991061E+03 -0.26950474208E+02 -0.62482327996E+03  0.63463537757E+03  0.00000000000E+00 0.  1.
<scales pt_clust_3="38.14220" pt_clust_4="111.46355" pt_clust_5="30.74806" pt_clust_6="14000.00000"></scales>
<clustering>
<clus scale="   30.748">  1  5  2 -1</clus>
<clus scale="   38.142">  1  3  2 -1</clus>
<clus scale="  111.464">  1  4  2 -1</clus>
<clus scale="   30.748">  1  3  2 -1</clus>
</clustering>
</event>
<event>
 6    0  0.8991567E+002  0.1113359E+03  0.7546771E-02  0.1258116E+00
         21   -1    0    0  503  501  0.00000000000E+00  0.00000000000E+00  0.21596634823E+03  0.21596634823E+03  0.00000000000E+00 0. -1.
         21   -1    0    0  505  502 -0.00000000000E+00 -0.00000000000E+00 -0.90679675982E+03  0.90679675982E+03  0.00000000000E+00 0. -1.
         21    1    1    2  503  502  0.35298031670E+02 -0.47101909365E+02 -0.28211160025E+03  0.28818656440E+03  0.00000000000E+00 0. -1.
         21    1    1    2  504  501  0.39322684085E+02 -0.98200673681E+02  0.14221889132E+03  0.17724519413E+03  0.00000000000E+00 0. -1.
         21    1    1    2  505  506  0.76418672489E+02  0.25005285011E+02 -0.41118318322E+03  0.41897098700E+03  0.00000000000E+00 0. -1.
         21    1    1    2  506  504 -0.15103938824E+03  0.12029729803E+03 -0.13975451944E+03  0.23836036252E+03  0.00000000000E+00 0. -1.
<scales pt_clust_3="58.86035" pt_clust_4="111.33586" pt_clust_5="100.19483" pt_clust_6="14000.00000"></scales>
<clustering>
<clus scale="   58.860">  2  3  1 -1</clus>
<clus scale="  100.195">  2  5  1 -1</clus>
<clus scale="  111.336">  1  4  2 -1</clus>
<clus scale="  111.336">  1  3  2 -1</clus>
</clustering>
</event>
<event>
 6    0  0.8991567E+002  0.9626682E+02  0.7546771E-02  0.1288348E+00
         21   -1    0    0  504  501  0.00000000000E+00  0.00000000000E+00  0.35615496108E+03  0.35615496108E+03  0.00000000000E+00 0. -1.
         21   -1    0    0  503  502 -0.00000000000E+00 -0.00000000000E+00 -0.23796848637E+03  0.23796848637E+03  0.00000000000E+00 0.  1.
         21    1    1    2  503  506 -0.60291958308E+01 -0.34745160640E+02 -0.78411743135E+02  0.85976618053E+02  0.00000000000E+00 0.  1.
         21    1    1    2  504  505 -0.37341587587E+02  0.58636226033E+02  0.11979398790E+03  0.13850343210E+03  0.00000000000E+00 0. -1.
         21    1    1    2  505  502 -0.85571953449E+02  0.42906018579E+02 -0.10161055358E+03  0.13960010834E+03  0.00000000000E+00 0.  1.
         21    1    1    2  506  501  0.12894273687E+03 -0.66797083972E+02  0.17841478353E+03  0.23004328897E+03  0.00000000000E+00 0. -1.
<scales pt_clust_3="35.26439" pt_clust_4="67.96640" pt_clust_5="96.26682" pt_clust_6="14000.00000"></scales>
<clustering>
<clus scale="   35.264">  2  3  1 -1</clus>
<clus scale="   67.966">  1  4  2 -1</clus>
<clus scale="   96.267">  2  5  1 -1</clus>
<clus scale="   67.966">  1  3  2 -1</clus>
</clustering>
</event>
<event>
 6    0  0.8991567E+002  0.1132163E+03  0.7546771E-02  0.1254727E+00
         21   -1    0    0  503  501  0.00000000000E+00  0.00000000000E+00  0.74041716139E+02  0.74041716139E+02  0.00000000000E+00 0. -1.
         21   -1    0    0  506  502 -0.00000000000E+00 -0.00000000000E+00 -0.22922467722E+04  0.22922467722E+04  0.00000000000E+00 0. -1.
         21    1    1    2  503  505  0.38548169708E+02 -0.28155997712E+02 -0.50068352174E+02  0.69177752814E+02  0.00000000000E+00 0. -1.
         21    1    1    2  504  501 -0.12063515359E+03  0.49979311097E+02 -0.33064294129E+03  0.35549335640E+03  0.00000000000E+00 0.  1.
         21    1    1    2  505  502  0.80730289910E+02  0.17830481562E+02  0.18892599685E+02  0.84807052210E+02  0.00000000000E+00 0. -1.
         21    1    1    2  506  504  0.13566939682E+01 -0.39653794947E+02 -0.18563863623E+04  0.18568103269E+04  0.00000000000E+00 0. -1.
<scales pt_clust_3="51.26530" pt_clust_4="14000.00000" pt_clust_5="113.21633" pt_clust_6="39.67700"></scales>
<clustering>
<clus scale="   39.677">  2  6  1 -1</clus>
<clus scale="   51.265">  1  3  2 -1</clus>
<clus scale="  113.216">  1  5  2 -1</clus>
<clus scale="   51.265">  1  3  2 -1</clus>
</clustering>
</event>
<event>
 6    0  0.8991567E+002  0.9217096E+02  0.7546771E-02  0.1297678E+00
         21   -1    0    0  503  501  0.00000000000E+00  0.00000000000E+00  0.11308728287E+04  0.11308728287E+04  0.00000000000E+00 0. -1.
         21   -1    0    0  504  502 -0.00000000000E+00 -0.00000000000E+00 -0.20094001951E+03  0.20094001951E+03  0.00000000000E+00 0.  1.
         21    1    1    2  503  506 -0.47915175030E+02  0.19756973599E+02  0.96430319474E+03  0.96569501054E+03  0.00000000000E+00 0. -1.
         21    1    1    2  504  501 -0.26811757618E+02  0.58890065845E+02 -0.14608334233E+03  0.15977250423E+03  0.00000000000E+00 0.  1.
         21    1    1    2  505  502 -0.38799684149E+02 -0.77328253718E+01  0.28004195321E+02  0.48471094829E+02  0.00000000000E+00 0.  1.
         21    1    1    2  506  505  0.11352661680E+03 -0.70914214072E+02  0.83708761499E+02  0.15787423865E+03  0.00000000000E+00 0.  1.
<scales pt_clust_3="51.94878" pt_clust_4="14000.00000" pt_clust_5="39.56276" pt_clust_6="92.17096"></scales>
<clustering>
<clus scale="   39.563">  2  5  1 -1</clus>
<clus scale="   51.949">  1  3  2 -1</clus>
<clus scale="   92.171">  1  6  2 -1</clus>
<clus scale="   51.949">  1  3  2 -1</clus>
</clustering>
</event>
<event>
 6    0  0.8991567E+002  0.9792475E+02  0.7546771E-02  0.1284721E+00
         21   -1    0    0  505  501  0.00000000000E+00  0.00000000000E+00  0.65256149402E+02  0.65256149402E+02  0.00000000000E+00 0. -1.
         21   -1    0    0  501  502 -0.00000000000E+00 -0.00000000000E+00 -0.57642466639E+03  0.57642466639E+03  0.00000000000E+00 0.  1.
         21    1    1    2  503  502 -0.20238110271E+02 -0.34142399687E+02 -0.28317103946E+03  0.28593901824E+03  0.00000000000E+00 0.  1.
         21    1    1    2  504  503  0.70119545687E+02  0.10969789994E+03 -0.18353647256E+03  0.22502448022E+03  0.00000000000E+00 0. -1.
         21    1    1    2  505  506  0.20520196807E+02 -0.29558254847E+02 -0.26595133910E+02  0.44744497475E+02  0.00000000000E+00 0. -1.
         21    1    1    2  506  504 -0.70401632223E+02 -0.45997245407E+02 -0.17865871054E+02  0.85972819851E+02  0.00000000000E+00 0. -1.
<scales pt_clust_3="40.06658" pt_clust_4="14000.00000" pt_clust_5="35.98290" pt_clust_6="97.92475"></scales>
<clustering>
<clus scale="   35.983">  1  5  2 -1</clus>
<clus scale="   40.067">  2  3  1 -1</clus>
<clus scale="   97.925">  1  6  2 -1</clus>
<clus scale="   35.983">  1  3  2 -1</clus>
</clustering>
</event>
<event>
 6    0  0.8991567E+002  0.1729807E+03  0.7546771E-02  0.1174775E+00
         21   -1    0    0  504  501  0.00000000000E+00  0.00000000000E+00  0.92148509229E+02  0.92148509229E+02  0.00000000000E+00 0. -1.
         21   -1    0    0  503  502 -0.00000000000E+00 -0.00000000000E+00 -0.88379541888E+03  0.88379541888E+03  0.00000000000E+00 0. -1.
         21    1    1    2  503  506  0.13303328964E+02 -0.29348743703E+02 -0.45757538286E+03  0.45870857668E+03  0.00000000000E+00 0. -1.
         21    1    1    2  504  502  0.17270039826E+03 -0.46339675153E+01 -0.22369723638E+03  0.28264351183E+03  0.00000000000E+00 0. -1.
         21    1    1    2  505  501 -0.19891849386E+02  0.35586382277E+02 -0.18659262117E+02  0.44835748442E+02  0.00000000000E+00 0. -1.
         21    1    1    2  506  505 -0.16611187784E+03 -0.16036710594E+01 -0.91715028294E+02  0.18975609116E+03  0.00000000000E+00 0. -1.
<scales pt_clust_3="32.22309" pt_clust_4="14000.00000" pt_clust_5="38.37423" pt_clust_6="172.98069"></scales>
<clustering>
<clus scale="   32.223">  2  3  1 -1</clus>
<clus scale="   38.374">  1  5  2 -1</clus>
<clus scale="  172.981">  1  6  2 -1</clus>
<clus scale="   38.374">  1  3  2 -1</clus>
</clustering>
</event>
<event>
 6    0  0.8991567E+002  0.1653626E+03  0.7546771E-02  0.1182772E+00
         21   -1    0    0  506  501  0.00000000000E+00  0.00000000000E+00  0.15302904509E+03  0.15302904509E+03  0.00000000000E+00 0. -1.
         21   -1    0    0  501  502 -0.00000000000E+00 -0.00000000000E+00 -0.50419974113E+03  0.50419974113E+03  0.00000000000E+00 0. -1.
         21    1    1    2  503  502 -0.25217677544E+02  0.23633800031E+02 -0.31842778514E+03  0.32029789589E+03  0.00000000000E+00 0. -1.
         21    1    1    2  504  505 -0.14137248138E+02 -0.45539934380E+02  0.23162250718E+02  0.53011671041E+02  0.00000000000E+00 0. -1.
         21    1    1    2  505  503  0.12496718226E+03  0.98103970549E+02 -0.58436221995E+02  0.16928076595E+03  0.00000000000E+00 0. -1.
         21    1    1    2  506  504 -0.85612256576E+02 -0.76197836200E+02  0.25310603816E+01  0.11463845334E+03  0.00000000000E+00 0. -1.
<scales pt_clust_3="34.56136" pt_clust_4="33.36924" pt_clust_5="157.06183" pt_clust_6="33.36924"></scales>
<clustering>
<clus scale="   33.369">  4  6 -1 -1</clus>
<clus scale="   34.561">  2  3  1 -1</clus>
<clus scale="  157.062">  2  5  1 -1</clus>
<clus scale="  165.363">  1  3  2 -1</clus>
</clustering>
</event>
<event>
 6    0  0.8991567E+002  0.6444084E+02  0.7546771E-02  0.1380087E+00
         21   -1    0    0  503  501  0.00000000000E+00  0.00000000000E+00  0.12199211906E+03  0.12199211906E+03  0.00000000000E+00 0.  1.
         21   -1    0    0  505  502 -0.00000000000E+00 -0.00000000000E+00 -0.92496796266E+03  0.92496796266E+03  0.00000000000E+00 0.  1.
         21    1    1    2  503  504 -0.19223803959E+02  0.59996822380E+02  0.93298947762E+02  0.11257827050E+03  0.00000000000E+00 0.  1.
         21    1    1    2  504  502  0.68139807453E+02  0.37092472636E+02 -0.53724680171E+03  0.54281950115E+03  0.00000000000E+00 0.  1.
         21    1    1    2  505  506 -0.45652166339E+02 -0.47588863832E+01 -0.21930550674E+03  0.22405729753E+03  0.00000000000E+00 0.  1.
         21    1    1    2  506  501 -0.32638371559E+01 -0.92330408634E+02 -0.13972248292E+03  0.16750501253E+03  0.00000000000E+00 0.  1.
<scales pt_clust_3="64.44084" pt_clust_4="47.03961" pt_clust_5="45.89953" pt_clust_6="14000.00000"></scales>
<clustering>
<clus scale="   45.900">  2  5  1 -1</clus>
<clus scale="   47.040">  2  4  1 -1</clus>
<clus scale="   64.441">  1  3  2 -1</clus>
<clus scale="   64.441">  1  3  2 -1</clus>
</clustering>
</event>
<event>
 6    0  0.8991567E+002  0.1625796E+03  0.7546771E-02  0.1185815E+00
         21   -1    0    0  503  501  0.00000000000E+00  0.00000000000E+00  0.34111388601E+03  0.34111388601E+03  0.00000000000E+00 0. -1.
         21   -1    0    0  504  502 -0.00000000000E+00 -0.00000000000E+00 -0.55227584065E+03  0.55227584065E+03  0.00000000000E+00 0. -1.
         21    1    1    2  503  505  0.13058360974E+03  0.99229500866E+02  0.59051797303E+02  0.17431490969E+03  0.00000000000E+00 0. -1.
         21    1    1    2  504  506  0.24388673273E+02  0.48374049650E+02 -0.77110076345E+02  0.94238102366E+02  0.00000000000E+00 0.  1.
         21    1    1    2  505  502 -0.39106394074E+01 -0.84592812391E+02 -0.37249331887E+03  0.38199804923E+03  0.00000000000E+00 0. -1.
         21    1    1    2  506  501 -0.15106164361E+03 -0.63010738125E+02  0.17938964328E+03  0.24283866538E+03  0.00000000000E+00 0. -1.
<scales pt_clust_3="162.57959" pt_clust_4="54.17431" pt_clust_5="48.15125" pt_clust_6="14000.00000"></scales>
<clustering>
<clus scale="   54.174">  2  4  1 -1</clus>
<clus scale="   48.151">  2  5  1 -1</clus>
<clus scale="  162.580">  2  3  1 -1</clus>
<clus scale="  162.580">  1  3  2 -1</clus>
</clustering>
</event>
<event>
 6    0  0.8991567E+002  0.1383558E+03  0.7546771E-02  0.1215559E+00
         21   -1    0    0  506  501  0.00000000000E+00  0.00000000000E+00  0.24746774611E+03  0.24746774611E+03  0.00000000000E+00 0.  1.
         21   -1    0    0  505  502 -0.00000000000E+00 -0.00000000000E+00 -0.13686277422E+04  0.13686277422E+04  0.00000000000E+00 0.  1.
         21    1    1    2  503  501 -0.22639301283E+02  0.29563128792E+02  0.10729444185E+03  0.11357206434E+03  0.00000000000E+00 0.  1.
         21    1    1    2  504  503 -0.84719221969E+02  0.70949709453E+02  0.97286622833E+02  0.14722735760E+03  0.00000000000E+00 0.  1.
         21    1    1    2  505  504  0.39069310142E+02 -0.10770051074E+01 -0.10880139244E+04  0.10887156978E+04  0.00000000000E+00 0.  1.
         21    1    1    2  506  502  0.68289213111E+02 -0.99435833138E+02 -0.23772713630E+03  0.26658036850E+03  0.00000000000E+00 0.  1.
<scales pt_clust_3="37.23596" pt_clust_4="138.35584" pt_clust_5="39.02419" pt_clust_6="14000.00000"></scales>
<clustering>
<clus scale="   37.236">  1  3  2 -1</clus>
<clus scale="   39.024">  2  5  1 -1</clus>
<clus scale="  138.356">  1  4  2 -1</clus>
<clus scale="   37.236">  1  3  2 -1</clus>
</clustering>
</event>
<event>
 6    0  0.8991567E+002  0.1124009E+03  0.7546771E-02  0.1256187E+00
         21   -1    0    0  503  501  0.00000000000E+00  0.00000000000E+00  0.96473454587E+03  0.96473454587E+03  0.00000000000E+00 0.  1.
         21   -1    0    0  506  502 -0.00000000000E+00 -0.00000000000E+00 -0.12829324002E+03  0.12829324002E+03  0.00000000000E+00 0.  1.
         21    1    1    2  503  505 -0.59013346830E+02 -0.11766270886E+02  0.81385960985E+03  0.81608117536E+03  0.00000000000E+00 0.  1.
         21    1    1    2  504  502  0.22987568962E+02  0.29422542294E+02  0.21193474788E+01  0.37397940526E+02  0.00000000000E+00 0.  1.
         21    1    1    2  505  504  0.23937083085E+02  0.78861213328E+02  0.88432985320E+02  0.12088204088E+03  0.00000000000E+00 0.  1.
         21    1    1    2  506  501  0.12088694783E+02 -0.96517484736E+02 -0.67970636798E+02  0.11866662913E+03  0.00000000000E+00 0.  1.
<scales pt_clust_3="60.17491" pt_clust_4="36.40629" pt_clust_5="36.40629" pt_clust_6="98.53135"></scales>
<clustering>
<clus scale="   36.406">  4  5 -1 -1</clus>
<clus scale="   60.175">  1  3  2 -1</clus>
<clus scale="   98.531">  2  6  1 -1</clus>
<clus scale="   60.175">  1  3  2 -1</clus>
</clustering>
</event>
<event>
 6    0  0.8991567E+002  0.1610319E+03  0.7546771E-02  0.1187537E+00
         21   -1    0    0  503  501  0.00000000000E+00  0.00000000000E+00  0.58490535839E+03  0.58490535839E+03  0.00000000000E+00 0. -1.
         21   -1    0    0  504  502 -0.00000000000E+00 -0.00000000000E+00 -0.63101722247E+03  0.63101722247E+03  0.00000000000E+00 0.  1.
         21    1    1    2  503  505 -0.13478569331E+03 -0.10934733323E+03  0.44778917728E+03  0.48024907048E+03  0.00000000000E+00 0. -1.
         21    1    1    2  504  506  0.49833853136E+02  0.27663696307E+02 -0.21348645946E+03  0.22096416312E+03  0.00000000000E+00 0.  1.
         21    1    1    2  505  502  0.14897871623E+03 -0.10240586577E+01  0.58474199771E+02  0.16004667639E+03  0.00000000000E+00 0. -1.
         21    1    1    2  506  501 -0.64026876050E+02  0.82707695584E+02 -0.33888878168E+03  0.35466267087E+03  0.00000000000E+00 0.  1.
<scales pt_clust_3="161.03186" pt_clust_4="56.99731" pt_clust_5="14000.00000" pt_clust_6="108.20630"></scales>
<clustering>
<clus scale="   56.997">  2  4  1 -1</clus>
<clus scale="  108.206">  2  6  1 -1</clus>
<clus scale="  161.032">  1  3  2 -1</clus>
<clus scale="  161.032">  1  3  2 -1</clus>
</clustering>
</event>
<event>
 6    0  0.8991567E+002  0.1318249E+03  0.7546771E-02  0.1224773E+00
         21   -1    0    0  504  501  0.00000000000E+00  0.00000000000E+00  0.29899902646E+03  0.29899902646E+03  0.00000000000E+00 0. -1.
         21   -1    0    0  505  502 -0.00000000000E+00 -0.00000000000E+00 -0.17812071295E+03  0.17812071295E+03  0.00000000000E+00 0. -1.
         21    1    1    2  503  501  0.19650949942E+02 -0.24985243091E+02  0.96041864915E+01  0.33206363910E+02  0.00000000000E+00 0. -1.
         21    1    1    2  504  502 -0.13941645700E+03 -0.41535781704E+02  0.38357024125E+02  0.15044411236E+03  0.00000000000E+00 0. -1.
         21    1    1    2  505  506  0.28381693741E+02 -0.24039506625E+02 -0.83220885517E+02  0.91154452467E+02  0.00000000000E+00 0. -1.
         21    1    1    2  506  503  0.91383813320E+02  0.90560531420E+02  0.15613798841E+03  0.20231481066E+03  0.00000000000E+00 0. -1.
<scales pt_clust_3="31.78714" pt_clust_4="14000.00000" pt_clust_5="37.63948" pt_clust_6="131.82494"></scales>
<clustering>
<clus scale="   31.787">  1  3  2 -1</clus>
<clus scale="   37.639">  2  5  1 -1</clus>
<clus scale="  131.825">  1  6  2 -1</clus>
<clus scale="   31.787">  1  3  2 -1</clus>
</clustering>
</event>
<event>
 6    0  0.8991567E+002  0.7547590E+02  0.7546771E-02  0.1342404E+00
         21   -1    0    0  504  501  0.00000000000E+00  0.00000000000E+00  0.11048583010E+04  0.11048583010E+04  0.00000000000E+00 0. -1.
         21   -1    0    0  505  502 -0.00000000000E+00 -0.00000000000E+00 -0.19935271630E+03  0.19935271630E+03  0.00000000000E+00 0. -1.
         21    1    1    2  503  501  0.18401635801E+02  0.53545636538E+02  0.83700466547E+03  0.83891749619E+03  0.00000000000E+00 0. -1.
         21    1    1    2  504  506 -0.34426306342E+02 -0.20469004086E+02  0.23443261908E+03  0.23782935812E+03  0.00000000000E+00 0. -1.
         21    1    1    2  505  503  0.83587847641E+02 -0.24622236770E+02 -0.10072980488E+03  0.13319037656E+03  0.00000000000E+00 0. -1.
         21    1    1    2  506  502 -0.67563177100E+02 -0.84543956815E+01 -0.65201894945E+02  0.94273786445E+02  0.00000000000E+00 0. -1.
<scales pt_clust_3="36.90184" pt_clust_4="40.05185" pt_clust_5="75.47590" pt_clust_6="14000.00000"></scales>
<clustering>
<clus scale="   40.052">  1  4  2 -1</clus>
<clus scale="   36.902">  1  3  2 -1</clus>
<clus scale="   75.476">  1  5  2 -1</clus>
<clus scale="   40.052">  1  3  2 -1</clus>
</clustering>
</event>
<event>
 6    0  0.8991567E+002  0.9598703E+02  0.7546771E-02  0.1288968E+00
         21   -1    0    0  503  501  0.00000000000E+00  0.00000000000E+00  0.15353730241E+03  0.15353730241E+03  0.00000000000E+00 0. -1.
         21   -1    0    0  505  502 -0.00000000000E+00 -0.00000000000E+00 -0.12801631075E+04  0.12801631075E+04  0.00000000000E+00 0.  1.
         21    1    1    2  503  504  0.77992481419E+02 -0.28693150352E+02  0.74418644747E+02  0.11155383777E+03  0.00000000000E+00 0. -1.
         21    1    1    2  504  506 -0.11150506731E+03  0.44825039330E+02 -0.14526091891E+02  0.12105235038E+03  0.00000000000E+00 0. -1.
         21    1    1    2  505  501 -0.19236298167E+02 -0.29337744766E+02 -0.39668241042E+02  0.52955715295E+02  0.00000000000E+00 0. -1.
         21    1    1    2  506  502  0.52748884056E+02  0.13205855787E+02 -0.11468501169E+04  0.11481385065E+04  0.00000000000E+00 0.  1.
<scales pt_clust_3="14000.00000" pt_clust_4="95.98703" pt_clust_5="35.08188" pt_clust_6="54.26385"></scales>
<clustering>
<clus scale="   35.082">  1  5  2 -1</clus>
<clus scale="   54.264">  2  6  1 -1</clus>
<clus scale="   95.987">  2  4  1 -1</clus>
<clus scale="   35.082">  1  3  2 -1</clus>
</clustering>
</event>
<event>
 6    0  0.8991567E+002  0.7943426E+02  0.7546771E-02  0.1330665E+00
         21   -1    0    0  505  501  0.00000000000E+00  0.00000000000E+00  0.40252868606E+03  0.40252868606E+03  0.00000000000E+00 0.  1.
         21   -1    0    0  503  502 -0.00000000000E+00 -0.00000000000E+00 -0.11939301517E+03  0.11939301517E+03  0.00000000000E+00 0. -1.
         21    1    1    2  503  506 -0.22610358183E+02 -0.78958242852E+02 -0.74986863346E+02  0.11121448685E+03  0.00000000000E+00 0. -1.
         21    1    1    2  504  501 -0.28520897035E+02 -0.35223318692E+02  0.95966737183E+02  0.10613076082E+03  0.00000000000E+00 0.  1.
         21    1    1    2  505  502  0.95838353093E+01  0.55649213731E+02  0.20554271968E+03  0.21315837891E+03  0.00000000000E+00 0.  1.
         21    1    1    2  506  504  0.41547419909E+02  0.58532347813E+02  0.56613077369E+02  0.91418074640E+02  0.00000000000E+00 0.  1.
<scales pt_clust_3="14000.00000" pt_clust_4="45.32244" pt_clust_5="32.82194" pt_clust_6="79.43426"></scales>
<clustering>
<clus scale="   45.322">  1  4  2 -1</clus>
<clus scale="   32.822">  1  5  2 -1</clus>
<clus scale="   79.434">  1  6  2 -1</clus>
<clus scale="   45.322">  1  3  2 -1</clus>
</clustering>
</event>
<event>
 6    0  0.1250000E+003  0.2330478E+03  0.7546771E-02  0.1124513E+00
         21   -1    0    0  506  501  0.00000000000E+00  0.00000000000E+00  0.10022333827E+04  0.10022333827E+04  0.00000000000E+00 0.  1.
         21   -1    0    0  504  502 -0.00000000000E+00 -0.00000000000E+00 -0.26541355432E+04  0.26541355432E+04  0.00000000000E+00 0.  1.
         21    1    1    2  503  505  0.12889384759E+02  0.10041994493E+03  0.94632770875E+02  0.13858449734E+03  0.00000000000E+00 0. -1.
         21    1    1    2  504  501 -0.55799459833E+02  0.13486828933E+03 -0.31158124851E+02  0.14924430953E+03  0.00000000000E+00 0.  1.
         21    1    1    2  505  502 -0.89692984748E+02 -0.21033813157E+02 -0.25218956936E+04  0.25235778455E+04  0.00000000000E+00 0.  1.
         21    1    1    2  506  503  0.13260305982E+03 -0.21425442110E+03  0.80651888712E+03  0.84496227355E+03  0.00000000000E+00 0.  1.
<scales pt_clust_3="96.92513" pt_clust_4="14000.00000" pt_clust_5="92.12629" pt_clust_6="233.04779"></scales>
<clustering>
<clus scale="   92.126">  2  5  1 -1</clus>
<clus scale="   96.925">  2  3  1 -1</clus>
<clus scale="  233.048">  1  6  2 -1</clus>
<clus scale="  233.048">  1  3  2 -1</clus>
</clustering>
</event>
<event>
 6    0  0.8991567E+002  0.1362102E+03  0.7546771E-02  0.1218521E+00
         21   -1    0    0  503  501  0.00000000000E+00  0.00000000000E+00  0.36390105939E+03  0.36390105939E+03  0.00000000000E+00 0. -1.
         21   -1    0    0  505  502 -0.00000000000E+00 -0.00000000000E+00 -0.20151030492E+03  0.20151030492E+03  0.00000000000E+00 0.  1.
         21    1    1    2  503  506 -0.30005337196E+02  0.26410519565E+02  0.26162192649E+02  0.47773383051E+02  0.00000000000E+00 0.  1.
         21    1    1    2  504  501  0.72644151555E+02 -0.82943202523E+02 -0.56262151643E+02  0.12378278276E+03  0.00000000000E+00 0.  1.
         21    1    1    2  505  504  0.34369505045E+02 -0.23458413906E+02 -0.85183339134E+02  0.94803804386E+02  0.00000000000E+00 0.  1.
         21    1    1    2  506  502 -0.77008319404E+02  0.79991096864E+02  0.27767405260E+03  0.29905139412E+03  0.00000000000E+00 0. -1.
<scales pt_clust_3="39.97294" pt_clust_4="136.21025" pt_clust_5="41.02838" pt_clust_6="14000.00000"></scales>
<clustering>
<clus scale="   39.973">  1  3  2 -1</clus>
<clus scale="   41.028">  2  5  1 -1</clus>
<clus scale="  136.210">  2  4  1 -1</clus>
<clus scale="   39.973">  1  3  2 -1</clus>
</clustering>
</event>
<event>
 6    0  0.8991567E+002  0.1271649E+03  0.7546771E-02  0.1231724E+00
         21   -1    0    0  504  501  0.00000000000E+00  0.00000000000E+00  0.26107634580E+03  0.26107634580E+03  0.00000000000E+00 0. -1.
         21   -1    0    0  503  502 -0.00000000000E+00 -0.00000000000E+00 -0.89849044562E+03  0.89849044562E+03  0.00000000000E+00 0. -1.
         21    1    1    2  503  506 -0.17994859155E+03 -0.94010749880E+02 -0.68679064821E+03  0.71617100693E+03  0.00000000000E+00 0. -1.
         21    1    1    2  504  505  0.53342464139E+02 -0.19163859885E+02 -0.20982708288E+02  0.60439606660E+02  0.00000000000E+00 0.  1.
         21    1    1    2  505  502  0.74402049375E+02  0.27612316034E+02 -0.13377431139E+03  0.15554314944E+03  0.00000000000E+00 0. -1.
         21    1    1    2  506  501  0.52204078040E+02  0.85562293731E+02  0.20413356807E+03  0.22741302840E+03  0.00000000000E+00 0. -1.
<scales pt_clust_3="127.16493" pt_clust_4="56.68044" pt_clust_5="81.33193" pt_clust_6="14000.00000"></scales>
<clustering>
<clus scale="   56.680">  1  4  2 -1</clus>
<clus scale="   81.332">  2  5  1 -1</clus>
<clus scale="  127.165">  2  3  1 -1</clus>
<clus scale="   56.680">  1  3  2 -1</clus>
</clustering>
</event>
<event>
 6    0  0.8991567E+002  0.1249165E+03  0.7546771E-02  0.1235200E+00
         21   -1    0    0  506  501  0.00000000000E+00  0.00000000000E+00  0.88639795245E+02  0.88639795245E+02  0.00000000000E+00 0.  1.
         21   -1    0    0  503  502 -0.00000000000E+00 -0.00000000000E+00 -0.12488080680E+04  0.12488080680E+04  0.00000000000E+00 0.  1.
         21    1    1    2  503  501  0.97106640297E+02  0.63096358928E+02  0.34836257209E+02  0.12093144718E+03  0.00000000000E+00 0.  1.
         21    1    1    2  504  505 -0.52251740371E+02 -0.11899388336E+02 -0.23225174875E+03  0.23835417893E+03  0.00000000000E+00 0.  1.
         21    1    1    2  505  502  0.68342401642E+00 -0.38047808107E+02 -0.89310796112E+03  0.89391830331E+03  0.00000000000E+00 0.  1.
         21    1    1    2  506  504 -0.45538323942E+02 -0.13149162485E+02 -0.69644820072E+02  0.84243933813E+02  0.00000000000E+00 0.  1.
<scales pt_clust_3="113.43040" pt_clust_4="46.43339" pt_clust_5="38.05395" pt_clust_6="46.43339"></scales>
<clustering>
<clus scale="   38.054">  2  5  1 -1</clus>
<clus scale="   46.433">  4  6 -1 -1</clus>
<clus scale="  113.430">  1  3  2 -1</clus>
<clus scale="  113.430">  1  3  2 -1</clus>
</clustering>
</event>
<event>
 6    0  0.8991567E+002  0.1104035E+03  0.7546771E-02  0.1259825E+00
         21   -1    0    0  505  501  0.00000000000E+00  0.00000000000E+00  0.27415434126E+03  0.27415434126E+03  0.00000000000E+00 0. -1.
         21   -1    0    0  504  502 -0.00000000000E+00 -0.00000000000E+00 -0.67433254631E+03  0.67433254631E+03  0.00000000000E+00 0.  1.
         21    1    1    2  503  506  0.86748250426E+02  0.49337838014E+02  0.49887360436E+02  0.11157163593E+03  0.00000000000E+00 0. -1.
         21    1    1    2  504  503  0.25768387779E+02 -0.70778637397E+02 -0.59818029036E+03  0.60290404302E+03  0.00000000000E+00 0.  1.
         21    1    1    2  505  502 -0.12864907454E+03 -0.10035485024E+02  0.66729770700E+02  0.14527270094E+03  0.00000000000E+00 0. -1.
         21    1    1    2  506  501  0.16132436336E+02  0.31476284407E+02  0.81384954163E+02  0.88738507686E+02  0.00000000000E+00 0. -1.
<scales pt_clust_3="14000.00000" pt_clust_4="75.02367" pt_clust_5="110.40345" pt_clust_6="35.36965"></scales>
<clustering>
<clus scale="   35.370">  1  6  2 -1</clus>
<clus scale="   75.024">  2  4  1 -1</clus>
<clus scale="  110.403">  1  5  2 -1</clus>
<clus scale="   35.370">  1  3  2 -1</clus>
</clustering>
</event>
<event>
 6    0  0.8991567E+002  0.1333368E+03  0.7546771E-02  0.1222587E+00
         21   -1    0    0  506  501  0.00000000000E+00  0.00000000000E+00  0.54270844732E+03  0.54270844732E+03  0.00000000000E+00 0. -1.
         21   -1    0    0  505  502 -0.00000000000E+00 -0.00000000000E+00 -0.25235063483E+03  0.25235063483E+03  0.00000000000E+00 0.  1.
         21    1    1    2  503  502 -0.18373989887E+02  0.59796495310E+02 -0.13150753899E+02  0.63923131055E+02  0.00000000000E+00 0. -1.
         21    1    1    2  504  503 -0.41257743589E+02  0.13577447480E+02  0.16264834147E+02  0.46379880509E+02  0.00000000000E+00 0. -1.
         21    1    1    2  505  501  0.66896216641E+02 -0.11257460598E+03 -0.17623780243E+03  0.21956299487E+03  0.00000000000E+00 0.  1.
         21    1    1    2  506  504 -0.72644831651E+01  0.39200663190E+02  0.46348153467E+03  0.46519307571E+03  0.00000000000E+00 0. -1.
<scales pt_clust_3="47.54097" pt_clust_4="47.54097" pt_clust_5="120.67036" pt_clust_6="39.86809"></scales>
<clustering>
<clus scale="   39.868">  1  6  2 -1</clus>
<clus scale="   47.541">  3  4 -1 -1</clus>
<clus scale="  120.670">  2  5  1 -1</clus>
<clus scale="   39.868">  1  3  2 -1</clus>
</clustering>
</event>
<event>
 6    0  0.8991567E+002  0.1771927E+03  0.7546771E-02  0.1170548E+00
         21   -1    0    0  504  501  0.00000000000E+00  0.00000000000E+00  0.11211959782E+04  0.11211959782E+04  0.00000000000E+00 0. -1.
         21   -1    0    0  505  502 -0.00000000000E+00 -0.00000000000E+00 -0.47673765152E+03  0.47673765152E+03  0.00000000000E+00 0.  1.
         21    1    1    2  503  501  0.16316585457E+03 -0.81040081381E+02  0.65998432514E+03  0.68466772987E+03  0.00000000000E+00 0. -1.
         21    1    1    2  504  506 -0.33301101769E+02  0.23660630804E+03  0.26482677765E+03  0.35668575881E+03  0.00000000000E+00 0. -1.
         21    1    1    2  505  503 -0.10252851043E+03 -0.12214383876E+03  0.90406297420E+02  0.18331533327E+03  0.00000000000E+00 0. -1.
         21    1    1    2  506  502 -0.27336242374E+02 -0.33422387899E+02 -0.37075907350E+03  0.37326480780E+03  0.00000000000E+00 0.  1.
<scales pt_clust_3="177.19273" pt_clust_4="14000.00000" pt_clust_5="178.62322" pt_clust_6="43.17784"></scales>
<clustering>
<clus scale="   43.178">  2  6  1 -1</clus>
<clus scale="  178.623">  2  5  1 -1</clus>
<clus scale="  177.193">  1  3  2 -1</clus>
<clus scale="  177.193">  1  3  2 -1</clus>
</clustering>
</event>
<event>
 6    0  0.8991567E+002  0.4303777E+03  0.7546771E-02  0.1033741E+00
         21   -1    0    0  502  501  0.00000000000E+00  0.00000000000E+00  0.98638481195E+03  0.98638481195E+03  0.00000000000E+00 0. -1.
         21   -1    0    0  505  502 -0.00000000000E+00 -0.00000000000E+00 -0.23394083216E+03  0.23394083216E+03  0.00000000000E+00 0. -1.
         21    1    1    2  503  506  0.14037437493E+03 -0.18221270598E+03  0.32264029625E+02  0.23226580241E+03  0.00000000000E+00 0. -1.
         21    1    1    2  504  501 -0.33558574086E+02  0.62465958153E+02  0.23344965349E+03  0.24398138154E+03  0.00000000000E+00 0. -1.
         21    1    1    2  505  503  0.20987244107E+03 -0.22193462544E+02  0.13840615696E+03  0.25237919008E+03  0.00000000000E+00 0. -1.
         21    1    1    2  506  504 -0.31668824192E+03  0.14194021038E+03  0.34832413971E+03  0.49169927008E+03  0.00000000000E+00 0. -1.
<scales pt_clust_3="195.38367" pt_clust_4="70.90962" pt_clust_5="195.38367" pt_clust_6="379.37742"></scales>
<clustering>
<clus scale="   70.910">  1  4  2 -1</clus>
<clus scale="  195.384">  3  5 -1 -1</clus>
<clus scale="  379.377">  1  6  2 -1</clus>
<clus scale="   70.910">  1  3  2 -1</clus>
</clustering>
</event>
<event>
 6    0  0.8991567E+002  0.9656855E+02  0.7546771E-02  0.1287682E+00
         21   -1    0    0  503  501  0.00000000000E+00  0.00000000000E+00  0.21495912219E+03  0.21495912219E+03  0.00000000000E+00 0.  1.
         21   -1    0    0  505  502 -0.00000000000E+00 -0.00000000000E+00 -0.36454988954E+03  0.36454988954E+03  0.00000000000E+00 0. -1.
         21    1    1    2  503  504  0.16650965598E+02 -0.68641636903E+02  0.14861017322E+03  0.16454152229E+03  0.00000000000E+00 0.  1.
         21    1    1    2  504  506 -0.35780656813E+02  0.13992818497E+03 -0.12334723585E+03  0.18993339081E+03  0.00000000000E+00 0. -1.
         21    1    1    2  505  501 -0.47158631400E+02 -0.23535652188E+02 -0.35657188088E+02  0.63634098577E+02  0.00000000000E+00 0. -1.
         21    1    1    2  506  502  0.66288322614E+02 -0.47750895884E+02 -0.13919651664E+03  0.16140000006E+03  0.00000000000E+00 0. -1.
<scales pt_clust_3="70.94161" pt_clust_4="14000.00000" pt_clust_5="52.70544" pt_clust_6="96.56855"></scales>
<clustering>
<clus scale="   52.705">  2  5  1 -1</clus>
<clus scale="   70.942">  1  3  2 -1</clus>
<clus scale="   96.569">  2  6  1 -1</clus>
<clus scale="   70.942">  1  3  2 -1</clus>
</clustering>
</event>
<event>
 6    0  0.8991567E+002  0.9224674E+02  0.7546771E-02  0.1297500E+00
         21   -1    0    0  504  501  0.00000000000E+00  0.00000000000E+00  0.18021982250E+03  0.18021982250E+03  0.00000000000E+00 0. -1.
         21   -1    0    0  503  502 -0.00000000000E+00 -0.00000000000E+00 -0.77437953505E+03  0.77437953505E+03  0.00000000000E+00 0.  1.
         21    1    1    2  503  506  0.52505626972E+02  0.82969302351E+02 -0.47901317838E+02  0.10924871737E+03  0.00000000000E+00 0. -1.
         21    1    1    2  504  505  0.46571767642E+01 -0.54499726927E+02 -0.24491801676E+03  0.25095167755E+03  0.00000000000E+00 0. -1.
         21    1    1    2  505  502  0.41984194944E+02 -0.27086041962E+02 -0.42947911707E+03  0.43237557551E+03  0.00000000000E+00 0.  1.
         21    1    1    2  506  501 -0.99146998680E+02 -0.13835334629E+01  0.12813873912E+03  0.16202338712E+03  0.00000000000E+00 0. -1.
<scales pt_clust_3="14000.00000" pt_clust_4="81.89256" pt_clust_5="49.96325" pt_clust_6="92.24674"></scales>
<clustering>
<clus scale="   49.963">  2  5  1 -1</clus>
<clus scale="   81.893">  2  4  1 -1</clus>
<clus scale="   92.247">  1  6  2 -1</clus>
<clus scale="   92.247">  1  3  2 -1</clus>
</clustering>
</event>
<event>
 6    0  0.8991567E+002  0.1049382E+03  0.7546771E-02  0.1270241E+00
         21   -1    0    0  506  501  0.00000000000E+00  0.00000000000E+00  0.32249666030E+03  0.32249666030E+03  0.00000000000E+00 0.  1.
         21   -1    0    0  504  502 -0.00000000000E+00 -0.00000000000E+00 -0.19136453181E+04  0.19136453181E+04  0.00000000000E+00 0.  1.
         21    1    1    2  503  502 -0.22311477591E+02 -0.15020871477E+03 -0.62790298862E+02  0.16432614416E+03  0.00000000000E+00 0.  1.
         21    1    1    2  504  505 -0.39864607873E+02  0.78635124157E+02 -0.17741143051E+04  0.17763035318E+04  0.00000000000E+00 0.  1.
         21    1    1    2  505  501 -0.22978955730E+02 -0.19294932747E+02  0.15584250891E+02  0.33811177323E+02  0.00000000000E+00 0.  1.
         21    1    1    2  506  503  0.85155041194E+02  0.90868523355E+02  0.23017169525E+03  0.26170112509E+03  0.00000000000E+00 0.  1.
<scales pt_clust_3="14000.00000" pt_clust_4="88.13775" pt_clust_5="30.00545" pt_clust_6="104.93820"></scales>
<clustering>
<clus scale="   30.005">  1  5  2 -1</clus>
<clus scale="   88.138">  2  4  1 -1</clus>
<clus scale="  104.938">  1  6  2 -1</clus>
<clus scale="   30.005">  1  3  2 -1</clus>
</clustering>
</event>
<event>
 6    0  0.8991567E+002  0.1432337E+03  0.7546771E-02  0.1209043E+00
         21   -1    0    0  506  501  0.00000000000E+00  0.00000000000E+00  0.27363767313E+03  0.27363767313E+03  0.00000000000E+00 0. -1.
         21   -1    0    0  503  502 -0.00000000000E+00 -0.00000000000E+00 -0.26246693178E+03  0.26246693178E+03  0.00000000000E+00 0. -1.
         21    1    1    2  503  505  0.11238213209E+03  0.29823679035E+01  0.12418134773E+03  0.16751013478E+03  0.00000000000E+00 0. -1.
         21    1    1    2  504  502 -0.10986177931E+03 -0.75761348820E+02 -0.18658268133E+03  0.22939592303E+03  0.00000000000E+00 0. -1.
         21    1    1    2  505  501  0.29589990169E+02  0.24973114309E+02  0.71808883836E+02  0.81582717252E+02  0.00000000000E+00 0. -1.
         21    1    1    2  506  504 -0.32110342945E+02  0.47805866608E+02  0.17631911207E+01  0.57615829848E+02  0.00000000000E+00 0. -1.
<scales pt_clust_3="30.48043" pt_clust_4="133.48561" pt_clust_5="30.48043" pt_clust_6="57.58884"></scales>
<clustering>
<clus scale="   30.480">  3  5 -1 -1</clus>
<clus scale="   57.589">  1  6  2 -1</clus>
<clus scale="  133.486">  2  4  1 -1</clus>
<clus scale="   57.589">  1  3  2 -1</clus>
</clustering>
</event>
<event>
 6    0  0.8991567E+002  0.1170118E+03  0.7546771E-02  0.1248110E+00
         21   -1    0    0  505  501  0.00000000000E+00  0.00000000000E+00  0.18266020481E+04  0.18266020481E+04  0.00000000000E+00 0.  1.
         21   -1    0    0  506  502 -0.00000000000E+00 -0.00000000000E+00 -0.99366921636E+01  0.99366921636E+01  0.00000000000E+00 0. -1.
         21    1    1    2  503  501  0.88869950924E+01  0.98664338144E+02  0.78599355566E+03  0.79221177714E+03  0.00000000000E+00 0.  1.
         21    1    1    2  504  502 -0.33306086964E+02 -0.65930760150E+02  0.68168501396E+03  0.68567530131E+03  0.00000000000E+00 0. -1.
         21    1    1    2  505  504 -0.27565239559E+01 -0.49552274330E+02  0.23990297212E+03  0.24498257560E+03  0.00000000000E+00 0. -1.
         21    1    1    2  506  503  0.27175615828E+02  0.16818696335E+02  0.10908381424E+03  0.11366908626E+03  0.00000000000E+00 0.  1.
<scales pt_clust_3="107.37291" pt_clust_4="37.89342" pt_clust_5="37.89342" pt_clust_6="31.95908"></scales>
<clustering>
<clus scale="   31.959">  2  6  1 -1</clus>
<clus scale="   37.893">  4  5 -1 -1</clus>
<clus scale="  107.373">  1  3  2 -1</clus>
<clus scale="  107.373">  1  3  2 -1</clus>
</clustering>
</event>
<event>
 6    0  0.8991567E+002  0.9124221E+02  0.7546771E-02  0.1299871E+00
         21   -1    0    0  505  501  0.00000000000E+00  0.00000000000E+00  0.15625836397E+03  0.15625836397E+03  0.00000000000E+00 0. -1.
         21   -1    0    0  504  502 -0.00000000000E+00 -0.00000000000E+00 -0.51052260635E+03  0.51052260635E+03  0.00000000000E+00 0.  1.
         21    1    1    2  503  501 -0.28807525890E+02  0.85422515941E+02  0.45027974089E+02  0.10076903407E+03  0.00000000000E+00 0. -1.
         21    1    1    2  504  506 -0.29967672236E+02 -0.18270540575E+02 -0.36526866901E+03  0.36695105203E+03  0.00000000000E+00 0.  1.
         21    1    1    2  505  502  0.61986167732E+02  0.13956096028E+02  0.51027662617E+02  0.81491594404E+02  0.00000000000E+00 0. -1.
         21    1    1    2  506  503 -0.32109696054E+01 -0.81108071394E+02 -0.85051210081E+02  0.11756928981E+03  0.00000000000E+00 0.  1.
<scales pt_clust_3="91.24221" pt_clust_4="35.09806" pt_clust_5="60.04261" pt_clust_6="14000.00000"></scales>
<clustering>
<clus scale="   35.098">  2  4  1 -1</clus>
<clus scale="   60.043">  1  5  2 -1</clus>
<clus scale="   91.242">  1  3  2 -1</clus>
<clus scale="   60.043">  1  3  2 -1</clus>
</clustering>
</event>
<event>
 6    0  0.8991567E+002  0.1000879E+03  0.7546771E-02  0.1280111E+00
         21   -1    0    0  504  501  0.00000000000E+00  0.00000000000E+00  0.10834295735E+04  0.10834295735E+04  0.00000000000E+00 0.  1.
         21   -1    0    0  505  502 -0.00000000000E+00 -0.00000000000E+00 -0.11302870900E+03  0.11302870900E+03  0.00000000000E+00 0.  1.
         21    1    1    2  503  506 -0.17510224822E+02  0.91215006319E+02  0.22762020320E+03  0.24584088809E+03  0.00000000000E+00 0. -1.
         21    1    1    2  504  502 -0.77483899843E+01 -0.65607072437E+02  0.14674651663E+02  0.67673265789E+02  0.00000000000E+00 0.  1.
         21    1    1    2  505  503 -0.39850806419E+02  0.57898481690E+02 -0.57144717041E+02  0.90586089660E+02  0.00000000000E+00 0.  1.
         21    1    1    2  506  501  0.65109421225E+02 -0.83506415572E+02  0.78525072666E+03  0.79235803895E+03  0.00000000000E+00 0.  1.
<scales pt_clust_3="100.08794" pt_clust_4="66.06304" pt_clust_5="46.50374" pt_clust_6="14000.00000"></scales>
<clustering>
<clus scale="   66.063">  2  4  1 -1</clus>
<clus scale="   46.504">  2  5  1 -1</clus>
<clus scale="  100.088">  2  3  1 -1</clus>
<clus scale="  100.088">  1  3  2 -1</clus>
</clustering>
</event>
<event>
 6    0  0.8991567E+002  0.1751292E+03  0.7546771E-02  0.1172602E+00
         21   -1    0    0  503  501  0.00000000000E+00  0.00000000000E+00  0.51012463912E+02  0.51012463912E+02  0.00000000000E+00 0. -1.
         21   -1    0    0  505  502 -0.00000000000E+00 -0.00000000000E+00 -0.13732650366E+04  0.13732650366E+04  0.00000000000E+00 0. -1.
         21    1    1    2  503  502  0.55764259224E+02  0.17323842190E+03 -0.41664798471E+03  0.45466113380E+03  0.00000000000E+00 0. -1.
         21    1    1    2  504  501  0.53255887281E+02 -0.17655873769E+03 -0.32895684903E+03  0.37712303816E+03  0.00000000000E+00 0. -1.
         21    1    1    2  505  506 -0.23662320655E+02  0.28054941852E+02 -0.29194164027E+03  0.29423953933E+03  0.00000000000E+00 0. -1.
         21    1    1    2  506  504 -0.85357825851E+02 -0.24734626058E+02 -0.28470609870E+03  0.29825378925E+03  0.00000000000E+00 0. -1.
<scales pt_clust_3="175.12917" pt_clust_4="14000.00000" pt_clust_5="36.70130" pt_clust_6="93.33479"></scales>
<clustering>
<clus scale="   36.701">  2  5  1 -1</clus>
<clus scale="   93.335">  2  6  1 -1</clus>
<clus scale="  175.129">  2  3  1 -1</clus>
<clus scale="  175.129">  1  3  2 -1</clus>
</clustering>
</event>
<event>
 6    0  0.8991567E+002  0.6733028E+02  0.7546771E-02  0.1369414E+00
         21   -1    0    0  506  501  0.00000000000E+00  0.00000000000E+00  0.33224889587E+03  0.33224889587E+03  0.00000000000E+00 0.  1.
         21   -1    0    0  504  502 -0.00000000000E+00 -0.00000000000E+00 -0.13626252497E+03  0.13626252497E+03  0.00000000000E+00 0.  1.
         21    1    1    2  503  502  0.45619610953E+02  0.54757685937E+02 -0.17795649421E+02  0.73459092093E+02  0.00000000000E+00 0.  1.
         21    1    1    2  504  505  0.38260201800E+02 -0.65241230763E+02 -0.27009137323E+02  0.80310365036E+02  0.00000000000E+00 0.  1.
         21    1    1    2  505  501 -0.16409532582E+02  0.29006774764E+02  0.24247537691E+03  0.24475492671E+03  0.00000000000E+00 0.  1.
         21    1    1    2  506  503 -0.67470280172E+02 -0.18523229939E+02 -0.16842192717E+01  0.69987037003E+02  0.00000000000E+00 0.  1.
<scales pt_clust_3="67.33028" pt_clust_4="65.61307" pt_clust_5="33.32665" pt_clust_6="14000.00000"></scales>
<clustering>
<clus scale="   33.327">  1  5  2 -1</clus>
<clus scale="   65.613">  2  4  1 -1</clus>
<clus scale="   67.330">  2  3  1 -1</clus>
<clus scale="   33.327">  1  3  2 -1</clus>
</clustering>
</event>
<event>
 6    0  0.8991567E+002  0.1315388E+03  0.7546771E-02  0.1225190E+00
         21   -1    0    0  504  501  0.00000000000E+00  0.00000000000E+00  0.26285084248E+03  0.26285084248E+03  0.00000000000E+00 0. -1.
         21   -1    0    0  505  502 -0.00000000000E+00 -0.00000000000E+00 -0.30642877383E+03  0.30642877383E+03  0.00000000000E+00 0. -1.
         21    1    1    2  503  501 -0.12762157238E+03  0.40428178265E+01  0.15796842895E+03  0.20311975447E+03  0.00000000000E+00 0. -1.
         21    1    1    2  504  506  0.14910623874E+03  0.27153462612E+02 -0.45025309934E+02  0.15810521654E+03  0.00000000000E+00 0. -1.
         21    1    1    2  505  503 -0.19013714527E+01 -0.82304010912E+02 -0.95349620834E+02  0.12597267806E+03  0.00000000000E+00 0. -1.
         21    1    1    2  506  502 -0.19583294912E+02  0.51107730473E+02 -0.61171429532E+02  0.82081967232E+02  0.00000000000E+00 0. -1.
<scales pt_clust_3="14000.00000" pt_clust_4="131.53877" pt_clust_5="59.27171" pt_clust_6="54.73121"></scales>
<clustering>
<clus scale="   54.731">  2  6  1 -1</clus>
<clus scale="   59.272">  2  5  1 -1</clus>
<clus scale="  131.539">  2  4  1 -1</clus>
<clus scale="  131.539">  1  3  2 -1</clus>
</clustering>
</event>
<event>
 6    0  0.8991567E+002  0.9917520E+02  0.7546771E-02  0.1282040E+00
         21   -1    0    0  506  501  0.00000000000E+00  0.00000000000E+00  0.49991688968E+03  0.49991688968E+03  0.00000000000E+00 0.  1.
         21   -1    0    0  505  502 -0.00000000000E+00 -0.00000000000E+00 -0.20660176859E+03  0.20660176859E+03  0.00000000000E+00 0.  1.
         21    1    1    2  503  501  0.67676937922E+02 -0.11775316989E+03  0.28160559935E+03  0.31264627062E+03  0.00000000000E+00 0.  1.
         21    1    1    2  504  502 -0.35910164275E+02  0.30368837248E+02  0.11550115577E+03  0.12470895380E+03  0.00000000000E+00 0. -1.
         21    1    1    2  505  503 -0.36888113454E+02  0.55984006043E+02 -0.17703699843E+03  0.18930673697E+03  0.00000000000E+00 0.  1.
         21    1    1    2  506  504  0.51213398065E+01  0.31400326600E+02  0.73245364401E+02  0.79856696890E+02  0.00000000000E+00 0.  1.
<scales pt_clust_3="91.52730" pt_clust_4="31.41089" pt_clust_5="67.04433" pt_clust_6="31.41089"></scales>
<clustering>
<clus scale="   31.411">  4  6 -1 -1</clus>
<clus scale="   67.044">  2  5  1 -1</clus>
<clus scale="   91.527">  2  3  1 -1</clus>
<clus scale="   99.175">  1  3  2 -1</clus>
</clustering>
</event>
<event>
 6    0  0.8991567E+002  0.1202235E+03  0.7546771E-02  0.1242729E+00
         21   -1    0    0  505  501  0.00000000000E+00  0.00000000000E+00  0.38473259984E+02  0.38473259984E+02  0.00000000000E+00 0.  1.
         21   -1    0    0  504  502 -0.00000000000E+00 -0.00000000000E+00 -0.29978379576E+04  0.29978379576E+04  0.00000000000E+00 0.  1.
         21    1    1    2  503  506  0.57875531542E+02 -0.11434862608E+03 -0.27100057495E+03  0.29977741252E+03  0.00000000000E+00 0.  1.
         21    1    1    2  504  501 -0.28737471591E+02  0.14974731603E+03 -0.10433673651E+04  0.10544503589E+04  0.00000000000E+00 0.  1.
         21    1    1    2  505  503 -0.63195657091E+02  0.61104137729E+01 -0.37597220352E+02  0.73787391943E+02  0.00000000000E+00 0.  1.
         21    1    1    2  506  502  0.34057597139E+02 -0.41509103724E+02 -0.16073995372E+04  0.16082960542E+04  0.00000000000E+00 0.  1.
<scales pt_clust_3="14000.00000" pt_clust_4="120.22354" pt_clust_5="61.99081" pt_clust_6="53.69288"></scales>
<clustering>
<clus scale="   53.693">  2  6  1 -1</clus>
<clus scale="   61.991">  1  5  2 -1</clus>
<clus scale="  120.224">  2  4  1 -1</clus>
<clus scale="   61.991">  1  3  2 -1</clus>
</clustering>
</event>
<event>
 6    0  0.8991567E+002  0.8012996E+02  0.7546771E-02  0.1328683E+00
         21   -1    0    0  503  501  0.00000000000E+00  0.00000000000E+00  0.99365720157E+03  0.99365720157E+03  0.00000000000E+00 0.  1.
         21   -1    0    0  505  502 -0.00000000000E+00 -0.00000000000E+00 -0.73768207453E+02  0.73768207453E+02  0.00000000000E+00 0. -1.
         21    1    1    2  503  506  0.63644623375E+02  0.13596536471E+02  0.39144621857E+03  0.39681941223E+03  0.00000000000E+00 0.  1.
         21    1    1    2  504  502  0.33323950573E+02 -0.62353071587E+02 -0.26989050030E+02  0.75675623815E+02  0.00000000000E+00 0. -1.
         21    1    1    2  505  501  0.27544583061E+02  0.51878679211E+02  0.59543225864E+02  0.83639088702E+02  0.00000000000E+00 0.  1.
         21    1    1    2  506  504 -0.12451315701E+03 -0.31221440946E+01  0.49588859971E+03  0.51129128428E+03  0.00000000000E+00 0.  1.
<scales pt_clust_3="14000.00000" pt_clust_4="59.42198" pt_clust_5="58.73756" pt_clust_6="80.12996"></scales>
<clustering>
<clus scale="   58.738">  2  5  1 -1</clus>
<clus scale="   59.422">  2  4  1 -1</clus>
<clus scale="   80.130">  2  6  1 -1</clus>
<clus scale="   80.130">  1  3  2 -1</clus>
</clustering>
</event>
<event>
 6    0  0.8991567E+002  0.1362664E+03  0.7546771E-02  0.1218443E+00
         21   -1    0    0  506  501  0.00000000000E+00  0.00000000000E+00  0.25952488659E+02  0.25952488659E+02  0.00000000000E+00 0. -1.
         21   -1    0    0  503  502 -0.00000000000E+00 -0.00000000000E+00 -0.26689423019E+04  0.26689423019E+04  0.00000000000E+00 0. -1.
         21    1    1    2  503  504  0.74513361870E+02  0.28571337597E+02 -0.13175119852E+04  0.13199266622E+04  0.00000000000E+00 0. -1.
         21    1    1    2  504  505 -0.19988925779E+03 -0.57190546814E+02 -0.78520564586E+03  0.81226496928E+03  0.00000000000E+00 0. -1.
         21    1    1    2  505  501  0.57842565170E+02  0.46514967491E+02 -0.16420936352E+03  0.18020577020E+03  0.00000000000E+00 0. -1.
         21    1    1    2  506  502  0.67533330746E+02 -0.17895758274E+02 -0.37606281867E+03  0.38249738889E+03  0.00000000000E+00 0. -1.
<scales pt_clust_3="136.26639" pt_clust_4="14000.00000" pt_clust_5="77.45575" pt_clust_6="69.86422"></scales>
<clustering>
<clus scale="   69.864">  2  6  1 -1</clus>
<clus scale="   77.456">  1  5  2 -1</clus>
<clus scale="  136.266">  2  3  1 -1</clus>
<clus scale="   77.456">  1  3  2 -1</clus>
</clustering>
</event>
<event>
 6    0  0.8991567E+002  0.1450862E+03  0.7546771E-02  0.1206644E+00
         21   -1    0    0  502  501  0.00000000000E+00  0.00000000000E+00  0.13796074204E+03  0.13796074204E+03  0.00000000000E+00 0. -1.
         21   -1    0    0  505  502 -0.00000000000E+00 -0.00000000000E+00 -0.96410011665E+03  0.96410011665E+03  0.00000000000E+00 0. -1.
         21    1    1    2  503  501 -0.15207297941E+02 -0.42481069106E+02  0.10806792646E+03  0.11710926467E+03  0.00000000000E+00 0. -1.
         21    1    1    2  504  503  0.44464719531E+02  0.98425084768E+01 -0.92972394413E+02  0.10352706109E+03  0.00000000000E+00 0. -1.
         21    1    1    2  505  506 -0.86926477414E+02 -0.81679910072E+02 -0.55779191349E+03  0.57040304956E+03  0.00000000000E+00 0. -1.
         21    1    1    2  506  504  0.57669055824E+02  0.11431847070E+03 -0.28344299316E+03  0.31102148336E+03  0.00000000000E+00 0. -1.
<scales pt_clust_3="45.12098" pt_clust_4="39.17441" pt_clust_5="129.36497" pt_clust_6="39.17441"></scales>
<clustering>
<clus scale="   39.174">  4  6 -1 -1</clus>
<clus scale="   45.121">  1  3  2 -1</clus>
<clus scale="  129.365">  2  5  1 -1</clus>
<clus scale="   45.121">  1  3  2 -1</clus>
</clustering>
</event>
<event>
 6    0  0.8991567E+002  0.1370111E+03  0.7546771E-02  0.1217408E+00
         21   -1    0    0  505  501  0.00000000000E+00  0.00000000000E+00  0.59885101372E+03  0.59885101372E+03  0.00000000000E+00 0. -1.
         21   -1    0    0  504  502 -0.00000000000E+00 -0.00000000000E+00 -0.28587422912E+03  0.28587422912E+03  0.00000000000E+00 0.  1.
         21    1    1    2  503  502 -0.17649865278E+02  0.31494441426E+02 -0.23544048609E+03  0.23819244336E+03  0.00000000000E+00 0.  1.
         21    1    1    2  504  506  0.11143116595E+03  0.73292697332E+02  0.11930520869E+03  0.17894819654E+03  0.00000000000E+00 0. -1.
         21    1    1    2  505  503  0.22566833204E+02 -0.26046676102E+02  0.34730417484E+02  0.48927427844E+02  0.00000000000E+00 0.  1.
         21    1    1    2  506  501 -0.11634813387E+03 -0.78740462656E+02  0.39438164452E+03  0.41865717508E+03  0.00000000000E+00 0. -1.
<scales pt_clust_3="36.01950" pt_clust_4="14000.00000" pt_clust_5="34.46290" pt_clust_6="137.01106"></scales>
<clustering>
<clus scale="   34.463">  1  5  2 -1</clus>
<clus scale="   36.019">  2  3  1 -1</clus>
<clus scale="  137.011">  1  6  2 -1</clus>
<clus scale="   34.463">  1  3  2 -1</clus>
</clustering>
</event>
<event>
 6    0  0.8991567E+002  0.1538255E+03  0.7546771E-02  0.1195850E+00
         21   -1    0    0  506  501  0.00000000000E+00  0.00000000000E+00  0.11562686080E+03  0.11562686080E+03  0.00000000000E+00 0.  1.
         21   -1    0    0  505  502 -0.00000000000E+00 -0.00000000000E+00 -0.19786584680E+03  0.19786584680E+03  0.00000000000E+00 0.  1.
         21    1    1    2  503  502  0.33360458871E+02 -0.69787860242E+02 -0.33278062192E+02  0.84206265067E+02  0.00000000000E+00 0.  1.
         21    1    1    2  504  501 -0.24798156607E+02  0.81005624573E+02 -0.20622428011E+01  0.84741445757E+02  0.00000000000E+00 0.  1.
         21    1    1    2  505  504 -0.25147168380E+02  0.51314349631E+02 -0.55039983649E+02  0.79340672770E+02  0.00000000000E+00 0.  1.
         21    1    1    2  506  503  0.16584866115E+02 -0.62532113962E+02  0.81413026447E+01  0.65204324008E+02  0.00000000000E+00 0.  1.
<scales pt_clust_3="147.28091" pt_clust_4="49.68168" pt_clust_5="49.68168" pt_clust_6="37.57989"></scales>
<clustering>
<clus scale="   37.580">  3  6 -1 -1</clus>
<clus scale="   49.682">  4  5 -1 -1</clus>
<clus scale="  147.281">  1  3  2 -1</clus>
<clus scale="  147.281">  1  3  2 -1</clus>
</clustering>
</event>
<event>
 6    0  0.8991567E+002  0.9973660E+02  0.7546771E-02  0.1280851E+00
         21   -1    0    0  506  501  0.00000000000E+00  0.00000000000E+00  0.44157489973E+04  0.44157489973E+04  0.00000000000E+00 0. -1.
         21   -1    0    0  504  502 -0.00000000000E+00 -0.00000000000E+00 -0.75934887053E+01  0.75934887053E+01  0.00000000000E+00 0. -1.
         21    1    1    2  503  502  0.51326687463E+02  0.37033279834E+02  0.20197908304E+03  0.21166351279E+03  0.00000000000E+00 0. -1.
         21    1    1    2  504  501  0.11203614301E+02 -0.10214206007E+03  0.14259332021E+04  0.14296307279E+04  0.00000000000E+00 0. -1.
         21    1    1    2  505  503 -0.37631301663E+02  0.22633486575E+02  0.80961325970E+03  0.81080331762E+03  0.00000000000E+00 0. -1.
         21    1    1    2  506  505 -0.24899000101E+02  0.42475293656E+02  0.19706299638E+04  0.19712449277E+04  0.00000000000E+00 0. -1.
<scales pt_clust_3="63.29212" pt_clust_4="89.75814" pt_clust_5="41.06680" pt_clust_6="41.06680"></scales>
<clustering>
<clus scale="   41.067">  5  6 -1 -1</clus>
<clus scale="   63.292">  2  3  1 -1</clus>
<clus scale="   89.758">  2  4  1 -1</clus>
<clus scale="   99.737">  1  3  2 -1</clus>
</clustering>
</event>
<event>
 6    0  0.8991567E+002  0.7799273E+02  0.7546771E-02  0.1334846E+00
         21   -1    0    0  505  501  0.00000000000E+00  0.00000000000E+00  0.28194878292E+04  0.28194878292E+04  0.00000000000E+00 0.  1.
         21   -1    0    0  504  502 -0.00000000000E+00 -0.00000000000E+00 -0.37085044679E+02  0.37085044679E+02  0.00000000000E+00 0.  1.
         21    1    1    2  503  502 -0.10944261497E+03 -0.27022325235E+02  0.95327302333E+02  0.14763192949E+03  0.00000000000E+00 0.  1.
         21    1    1    2  504  506  0.36291812806E+02  0.95489600249E+01  0.33152557515E+02  0.50073649598E+02  0.00000000000E+00 0.  1.
         21    1    1    2  505  503  0.72881164187E+02 -0.19876811760E+02  0.24717793511E+04  0.24729334630E+04  0.00000000000E+00 0.  1.
         21    1    1    2  506  501  0.26963798080E+00  0.37350176970E+02  0.18214357356E+03  0.18593383182E+03  0.00000000000E+00 0.  1.
<scales pt_clust_3="14000.00000" pt_clust_4="37.68552" pt_clust_5="77.99273" pt_clust_6="37.35115"></scales>
<clustering>
<clus scale="   37.351">  1  6  2 -1</clus>
<clus scale="   37.686">  2  4  1 -1</clus>
<clus scale="   77.993">  1  5  2 -1</clus>
<clus scale="   37.351">  1  3  2 -1</clus>
</clustering>
</event>
<event>
 6    0  0.8991567E+002  0.7886882E+02  0.7546771E-02  0.1332293E+00
         21   -1    0    0  503  501  0.00000000000E+00  0.00000000000E+00  0.32871662350E+03  0.32871662350E+03  0.00000000000E+00 0. -1.
         21   -1    0    0  505  502 -0.00000000000E+00 -0.00000000000E+00 -0.65118682686E+03  0.65118682686E+03  0.00000000000E+00 0.  1.
         21    1    1    2  503  504  0.56743887533E+02 -0.19283026201E+01  0.30611741721E+03  0.31133817666E+03  0.00000000000E+00 0. -1.
         21    1    1    2  504  502  0.28742997784E+02  0.29309967632E+02 -0.17442351917E+03  0.17918928027E+03  0.00000000000E+00 0.  1.
         21    1    1    2  505  506 -0.64935808871E+02  0.59044266558E+02 -0.28635702867E+03  0.29950497918E+03  0.00000000000E+00 0.  1.
         21    1    1    2  506  501 -0.20551076446E+02 -0.86425931570E+02 -0.16780707274E+03  0.18987101425E+03  0.00000000000E+00 0.  1.
<scales pt_clust_3="56.92948" pt_clust_4="41.05160" pt_clust_5="14000.00000" pt_clust_6="78.86882"></scales>
<clustering>
<clus scale="   41.052">  2  4  1 -1</clus>
<clus scale="   56.929">  1  3  2 -1</clus>
<clus scale="   78.869">  1  6  2 -1</clus>
<clus scale="   56.929">  1  3  2 -1</clus>
</clustering>
</event>
<event>
 6    0  0.8991567E+002  0.1252467E+03  0.7546771E-02  0.1234684E+00
         21   -1    0    0  504  501  0.00000000000E+00  0.00000000000E+00  0.60448587016E+02  0.60448587016E+02  0.00000000000E+00 0. -1.
         21   -1    0    0  506  502 -0.00000000000E+00 -0.00000000000E+00 -0.12201068204E+04  0.12201068204E+04  0.00000000000E+00 0. -1.
         21    1    1    2  503  501  0.10140343834E+02 -0.12567822107E+03 -0.78566673662E+03  0.79571983942E+03  0.00000000000E+00 0. -1.
         21    1    1    2  504  505 -0.31781795113E+02  0.21567040298E+02  0.14762635207E+02  0.41147966245E+02  0.00000000000E+00 0. -1.
         21    1    1    2  505  502 -0.19472628420E+02  0.10149790416E+03 -0.76133043252E+02  0.12836373352E+03  0.00000000000E+00 0. -1.
         21    1    1    2  506  503  0.41114079700E+02  0.26132766049E+01 -0.31262108876E+03  0.31532386827E+03  0.00000000000E+00 0. -1.
<scales pt_clust_3="125.24665" pt_clust_4="38.40859" pt_clust_5="14000.00000" pt_clust_6="39.94681"></scales>
<clustering>
<clus scale="   38.409">  1  4  2 -1</clus>
<clus scale="   39.947">  2  6  1 -1</clus>
<clus scale="  125.247">  2  3  1 -1</clus>
<clus scale="   38.409">  1  3  2 -1</clus>
</clustering>
</event>
<event>
 6    0  0.8991567E+002  0.7418295E+02  0.7546771E-02  0.1346420E+00
         21   -1    0    0  504  501  0.00000000000E+00  0.00000000000E+00  0.59706120220E+03  0.59706120220E+03  0.00000000000E+00 0.  1.
         21   -1    0    0  503  502 -0.00000000000E+00 -0.00000000000E+00 -0.76716389269E+02  0.76716389269E+02  0.00000000000E+00 0. -1.
         21    1    1    2  503  505  0.40723181019E+02 -0.20345046339E+02 -0.29854534087E+02  0.54438879382E+02  0.00000000000E+00 0. -1.
         21    1    1    2  504  506  0.34650612836E+02  0.48806491310E+01  0.33019986215E+03  0.33204884381E+03  0.00000000000E+00 0.  1.
         21    1    1    2  505  501 -0.55096750569E+02  0.85790035681E+02  0.81072292623E+02  0.13026242273E+03  0.00000000000E+00 0. -1.
         21    1    1    2  506  502 -0.20277043286E+02 -0.70325638474E+02  0.13892719223E+03  0.15702744554E+03  0.00000000000E+00 0. -1.
<scales pt_clust_3="46.86344" pt_clust_4="34.99265" pt_clust_5="74.18295" pt_clust_6="14000.00000"></scales>
<clustering>
<clus scale="   34.993">  1  4  2 -1</clus>
<clus scale="   46.863">  2  3  1 -1</clus>
<clus scale="   74.183">  2  5  1 -1</clus>
<clus scale="   34.993">  1  3  2 -1</clus>
</clustering>
</event>
<event>
 6    0  0.8991567E+002  0.1366102E+03  0.7546771E-02  0.1217964E+00
         21   -1    0    0  505  501  0.00000000000E+00  0.00000000000E+00  0.21934999748E+03  0.21934999748E+03  0.00000000000E+00 0.  1.
         21   -1    0    0  503  502 -0.00000000000E+00 -0.00000000000E+00 -0.62035684446E+03  0.62035684446E+03  0.00000000000E+00 0.  1.
         21    1    1    2  503  504  0.51317698806E+02 -0.41103912327E+02  0.81680139282E+02  0.10485553382E+03  0.00000000000E+00 0.  1.
         21    1    1    2  504  501  0.72184895431E+02  0.64809927864E+01  0.10596305486E+03  0.12837769039E+03  0.00000000000E+00 0.  1.
         21    1    1    2  505  506 -0.86729128536E+02  0.47872915204E+02 -0.31966016426E+03  0.33465859971E+03  0.00000000000E+00 0.  1.
         21    1    1    2  506  502 -0.36773465700E+02 -0.13249995663E+02 -0.26898987686E+03  0.27181501802E+03  0.00000000000E+00 0. -1.
<scales pt_clust_3="49.98782" pt_clust_4="49.98782" pt_clust_5="126.19916" pt_clust_6="39.08772"></scales>
<clustering>
<clus scale="   39.088">  2  6  1 -1</clus>
<clus scale="   49.988">  3  4 -1 -1</clus>
<clus scale="  126.199">  2  5  1 -1</clus>
<clus scale="  136.610">  1  3  2 -1</clus>
</clustering>
</event>
<event>
 6    0  0.8991567E+002  0.2369566E+03  0.7546771E-02  0.1121837E+00
         21   -1    0    0  503  501  0.00000000000E+00  0.00000000000E+00  0.14206091055E+04  0.14206091055E+04  0.00000000000E+00 0. -1.
         21   -1    0    0  504  502 -0.00000000000E+00 -0.00000000000E+00 -0.10719798886E+03  0.10719798886E+03  0.00000000000E+00 0. -1.
         21    1    1    2  503  506 -0.48341711101E+02 -0.45157763069E+01  0.32369857689E+03  0.32731954104E+03  0.00000000000E+00 0. -1.
         21    1    1    2  504  505  0.69067794089E+01  0.25404630829E+03  0.71464818398E+03  0.75849143517E+03  0.00000000000E+00 0. -1.
         21    1    1    2  505  501  0.35606090357E+02 -0.16475288022E+02  0.18972520102E+03  0.19373920793E+03  0.00000000000E+00 0. -1.
         21    1    1    2  506  502  0.58288413356E+01 -0.23305524396E+03  0.85339154712E+02  0.24825691019E+03  0.00000000000E+00 0. -1.
<scales pt_clust_3="39.91063" pt_clust_4="236.95655" pt_clust_5="39.23301" pt_clust_6="14000.00000"></scales>
<clustering>
<clus scale="   39.233">  1  5  2 -1</clus>
<clus scale="   39.911">  1  3  2 -1</clus>
<clus scale="  236.957">  1  4  2 -1</clus>
<clus scale="   39.233">  1  3  2 -1</clus>
</clustering>
</event>
<event>
 6    0  0.8991567E+002  0.1076050E+03  0.7546771E-02  0.1265070E+00
         21   -1    0    0  506  501  0.00000000000E+00  0.00000000000E+00  0.56878568763E+03  0.56878568763E+03  0.00000000000E+00 0. -1.
         21   -1    0    0  505  502 -0.00000000000E+00 -0.00000000000E+00 -0.10314029645E+04  0.10314029645E+04  0.00000000000E+00 0. -1.
         21    1    1    2  503  501 -0.19956968513E+02 -0.32380364315E+02  0.41807119964E+03  0.41979792348E+03  0.00000000000E+00 0. -1.
         21    1    1    2  504  503 -0.31733695071E+02 -0.66330166520E+02  0.11665960743E+03  0.13789917476E+03  0.00000000000E+00 0.  1.
         21    1    1    2  505  504 -0.44418015355E+02 -0.53364191830E+02 -0.72789129313E+02  0.10059301369E+03  0.00000000000E+00 0. -1.
         21    1    1    2  506  502  0.96108678939E+02  0.15207472267E+03 -0.92455895458E+03  0.94189854015E+03  0.00000000000E+00 0. -1.
<scales pt_clust_3="38.03641" pt_clust_4="14000.00000" pt_clust_5="72.92622" pt_clust_6="107.60503"></scales>
<clustering>
<clus scale="   38.036">  1  3  2 -1</clus>
<clus scale="   72.926">  2  5  1 -1</clus>
<clus scale="  107.605">  2  6  1 -1</clus>
<clus scale="   38.036">  1  3  2 -1</clus>
</clustering>
</event>
<event>
 6    0  0.8991567E+002  0.1123207E+03  0.7546771E-02  0.1256332E+00
         21   -1    0    0  504  501  0.00000000000E+00  0.00000000000E+00  0.10365104089E+04  0.10365104089E+04  0.00000000000E+00 0.  1.
         21   -1    0    0  506  502 -0.00000000000E+00 -0.00000000000E+00 -0.25549345857E+03  0.25549345857E+03  0.00000000000E+00 0. -1.
         21    1    1    2  503  505  0.43546155412E+02 -0.90324830585E+02  0.91038193334E+02  0.13543557626E+03  0.00000000000E+00 0.  1.
         21    1    1    2  504  503  0.37887332290E+02  0.10373943378E+02  0.64287380109E+03  0.64407281636E+03  0.00000000000E+00 0.  1.
         21    1    1    2  505  502 -0.10516393060E+03  0.50090358544E+02 -0.21665954364E+03  0.24598750815E+03  0.00000000000E+00 0. -1.
         21    1    1    2  506  501  0.23730442900E+02  0.29860528662E+02  0.26376449950E+03  0.26650796665E+03  0.00000000000E+00 0. -1.
<scales pt_clust_3="14000.00000" pt_clust_4="67.61840" pt_clust_5="112.32069" pt_clust_6="38.14165"></scales>
<clustering>
<clus scale="   38.142">  1  6  2 -1</clus>
<clus scale="   67.618">  1  4  2 -1</clus>
<clus scale="  112.321">  2  5  1 -1</clus>
<clus scale="   38.142">  1  3  2 -1</clus>
</clustering>
</event>
<event>
 6    0  0.8991567E+002  0.7754611E+02  0.7546771E-02  0.1336163E+00
         21   -1    0    0  504  501  0.00000000000E+00  0.00000000000E+00  0.33323663153E+03  0.33323663153E+03  0.00000000000E+00 0. -1.
         21   -1    0    0  505  502 -0.00000000000E+00 -0.00000000000E+00 -0.10619810789E+04  0.10619810789E+04  0.00000000000E+00 0. -1.
         21    1    1    2  503  506  0.55375425976E+02 -0.53161721749E+02  0.45545192191E+02  0.89257890368E+02  0.00000000000E+00 0.  1.
         21    1    1    2  504  503  0.16527723973E+02  0.86814062261E+02  0.22398741908E+03  0.24079080334E+03  0.00000000000E+00 0. -1.
         21    1    1    2  505  501 -0.69848266522E+02  0.82512813572E+01 -0.44689804301E+01  0.70475781416E+02  0.00000000000E+00 0. -1.
         21    1    1    2  506  502 -0.20548834274E+01 -0.41903621869E+02 -0.99380807821E+03  0.99469323532E+03  0.00000000000E+00 0. -1.
<scales pt_clust_3="14000.00000" pt_clust_4="77.54611" pt_clust_5="72.53870" pt_clust_6="41.95398"></scales>
<clustering>
<clus scale="   41.954">  2  6  1 -1</clus>
<clus scale="   72.539">  2  5  1 -1</clus>
<clus scale="   77.546">  1  4  2 -1</clus>
<clus scale="   77.546">  1  3  2 -1</clus>
</clustering>
</event>
<event>
 6    0  0.8991567E+002  0.7373409E+02  0.7546771E-02  0.1347837E+00
         21   -1    0    0  504  501  0.00000000000E+00  0.00000000000E+00  0.12850914495E+04  0.12850914495E+04  0.00000000000E+00 0. -1.
         21   -1    0    0  503  502 -0.00000000000E+00 -0.00000000000E+00 -0.16278539714E+03  0.16278539714E+03  0.00000000000E+00 0.  1.
         21    1    1    2  503  506  0.33246101682E+02 -0.38431771390E+01 -0.23072274050E+01  0.33546931094E+02  0.00000000000E+00 0. -1.
         21    1    1    2  504  505  0.67840562543E+02  0.82133037061E+02  0.46620534264E+03  0.47822128686E+03  0.00000000000E+00 0. -1.
         21    1    1    2  505  502 -0.90812952559E+02 -0.37609178498E+02 -0.12081952072E+03  0.15575236514E+03  0.00000000000E+00 0.  1.
         21    1    1    2  506  501 -0.10273711666E+02 -0.40680681424E+02  0.77922745783E+03  0.78035626353E+03  0.00000000000E+00 0. -1.
<scales pt_clust_3="33.46750" pt_clust_4="73.73409" pt_clust_5="14000.00000" pt_clust_6="41.94092"></scales>
<clustering>
<clus scale="   33.467">  2  3  1 -1</clus>
<clus scale="   41.941">  1  6  2 -1</clus>
<clus scale="   73.734">  1  4  2 -1</clus>
<clus scale="   41.941">  1  3  2 -1</clus>
</clustering>
</event>
<event>
 6    0  0.8991567E+002  0.3720607E+03  0.7546771E-02  0.1053908E+00
         21   -1    0    0  505  501  0.00000000000E+00  0.00000000000E+00  0.35210141303E+03  0.35210141303E+03  0.00000000000E+00 0. -1.
         21   -1    0    0  504  502 -0.00000000000E+00 -0.00000000000E+00 -0.80786732182E+03  0.80786732182E+03  0.00000000000E+00 0. -1.
         21    1    1    2  503  501  0.38856037333E+02  0.10284946487E+02 -0.27678459107E+02  0.48802344821E+02  0.00000000000E+00 0. -1.
         21    1    1    2  504  503  0.31838903008E+03 -0.12180645405E+03 -0.44811119959E+02  0.34382615258E+03  0.00000000000E+00 0. -1.
         21    1    1    2  505  506 -0.35788457555E+03 -0.11779928059E+02  0.68995346222E+01  0.35814485854E+03  0.00000000000E+00 0. -1.
         21    1    1    2  506  502  0.63950812914E+00  0.12330143563E+03 -0.39017586435E+03  0.40919537891E+03  0.00000000000E+00 0. -1.
<scales pt_clust_3="32.28721" pt_clust_4="32.28721" pt_clust_5="359.98308" pt_clust_6="123.30309"></scales>
<clustering>
<clus scale="   32.287">  3  4 -1 -1</clus>
<clus scale="  123.303">  2  6  1 -1</clus>
<clus scale="  359.983">  1  5  2 -1</clus>
<clus scale="  359.983">  1  3  2 -1</clus>
</clustering>
</event>
<event>
 6    0  0.8991567E+002  0.9188640E+02  0.7546771E-02  0.1298347E+00
         21   -1    0    0  504  501  0.00000000000E+00  0.00000000000E+00  0.13642797949E+03  0.13642797949E+03  0.00000000000E+00 0. -1.
         21   -1    0    0  505  502 -0.00000000000E+00 -0.00000000000E+00 -0.26728388461E+03  0.26728388461E+03  0.00000000000E+00 0. -1.
         21    1    1    2  503  501 -0.88158181783E+02 -0.10111221518E+02  0.35218237929E+02  0.95469503501E+02  0.00000000000E+00 0. -1.
         21    1    1    2  504  502  0.30974379746E+02  0.10610697855E+03 -0.73354948156E+02  0.13266141683E+03  0.00000000000E+00 0. -1.
         21    1    1    2  505  506 -0.17763078123E+02 -0.26788466182E+02 -0.60658478613E+02  0.68648378658E+02  0.00000000000E+00 0.  1.
         21    1    1    2  506  503  0.74946880161E+02 -0.69207290847E+02 -0.32060716273E+02  0.10693256511E+03  0.00000000000E+00 0. -1.
<scales pt_clust_3="91.88640" pt_clust_4="14000.00000" pt_clust_5="32.14263" pt_clust_6="88.04011"></scales>
<clustering>
<clus scale="   32.143">  2  5  1 -1</clus>
<clus scale="   91.886">  1  3  2 -1</clus>
<clus scale="   88.040">  1  6  2 -1</clus>
<clus scale="   91.886">  1  3  2 -1</clus>
</clustering>
</event>
<event>
 6    0  0.8991567E+002  0.7015601E+02  0.7546771E-02  0.1359563E+00
         21   -1    0    0  504  501  0.00000000000E+00  0.00000000000E+00  0.19061884010E+04  0.19061884010E+04  0.00000000000E+00 0. -1.
         21   -1    0    0  506  502 -0.00000000000E+00 -0.00000000000E+00 -0.17466898332E+03  0.17466898332E+03  0.00000000000E+00 0.  1.
         21    1    1    2  503  502  0.41264812994E+02 -0.44840928345E+02 -0.20306309053E+02  0.64232700656E+02  0.00000000000E+00 0. -1.
         21    1    1    2  504  503  0.42177358345E+02  0.87861997829E+02  0.13025190797E+04  0.13061602555E+04  0.00000000000E+00 0. -1.
         21    1    1    2  505  501 -0.44005186795E+02 -0.32161990337E+02  0.57536222954E+03  0.57793818465E+03  0.00000000000E+00 0. -1.
         21    1    1    2  506  505 -0.39436984544E+02 -0.10859079147E+02 -0.12605558246E+03  0.13252624351E+03  0.00000000000E+00 0.  1.
<scales pt_clust_3="55.14246" pt_clust_4="14000.00000" pt_clust_5="70.15601" pt_clust_6="40.90471"></scales>
<clustering>
<clus scale="   40.905">  2  6  1 -1</clus>
<clus scale="   55.142">  2  3  1 -1</clus>
<clus scale="   70.156">  1  5  2 -1</clus>
<clus scale="   70.156">  1  3  2 -1</clus>
</clustering>
</event>
<event>
 6    0  0.8991567E+002  0.7150053E+02  0.7546771E-02  0.1355063E+00
         21   -1    0    0  506  501  0.00000000000E+00  0.00000000000E+00  0.19542535561E+03  0.19542535561E+03  0.00000000000E+00 0.  1.
         21   -1    0    0  504  502 -0.00000000000E+00 -0.00000000000E+00 -0.21205436877E+03  0.21205436877E+03  0.00000000000E+00 0.  1.
         21    1    1    2  503  501 -0.33398509192E+02 -0.23596025813E+00  0.31442274202E+02  0.45870826246E+02  0.00000000000E+00 0.  1.
         21    1    1    2  504  505  0.26048985519E+02  0.24159007146E+02 -0.61114543122E+02  0.70690838543E+02  0.00000000000E+00 0.  1.
         21    1    1    2  505  503 -0.82279329645E+02 -0.52809505485E+02 -0.10264014084E+03  0.14175235613E+03  0.00000000000E+00 0.  1.
         21    1    1    2  506  502  0.89628853318E+02  0.28886458596E+02  0.11568339661E+03  0.14916570346E+03  0.00000000000E+00 0.  1.
<scales pt_clust_3="33.39934" pt_clust_4="34.78154" pt_clust_5="71.50053" pt_clust_6="14000.00000"></scales>
<clustering>
<clus scale="   33.399">  1  3  2 -1</clus>
<clus scale="   34.782">  2  4  1 -1</clus>
<clus scale="   71.501">  2  5  1 -1</clus>
<clus scale="   33.399">  1  3  2 -1</clus>
</clustering>
</event>
<event>
 6    0  0.8991567E+002  0.7976654E+02  0.7546771E-02  0.1329715E+00
         21   -1    0    0  504  501  0.00000000000E+00  0.00000000000E+00  0.18249911838E+03  0.18249911838E+03  0.00000000000E+00 0.  1.
         21   -1    0    0  505  502 -0.00000000000E+00 -0.00000000000E+00 -0.18803347403E+04  0.18803347403E+04  0.00000000000E+00 0. -1.
         21    1    1    2  503  502  0.61904691477E+02  0.52968335486E+02 -0.17268021087E+04  0.17287230426E+04  0.00000000000E+00 0. -1.
         21    1    1    2  504  506 -0.83792974502E+02 -0.19635733939E+02  0.14633236818E+03  0.16976450336E+03  0.00000000000E+00 0.  1.
         21    1    1    2  505  501  0.39487217718E+02  0.29717984047E+02 -0.54829255893E+02  0.73814945917E+02  0.00000000000E+00 0.  1.
         21    1    1    2  506  503 -0.17598934692E+02 -0.63050585594E+02 -0.62536625498E+02  0.90531366800E+02  0.00000000000E+00 0.  1.
<scales pt_clust_3="79.76654" pt_clust_4="48.30754" pt_clust_5="49.42063" pt_clust_6="14000.00000"></scales>
<clustering>
<clus scale="   49.421">  1  5  2 -1</clus>
<clus scale="   48.308">  1  4  2 -1</clus>
<clus scale="   79.767">  2  3  1 -1</clus>
<clus scale="   49.421">  1  3  2 -1</clus>
</clustering>
</event>
<event>
 6    0  0.8991567E+002  0.1463195E+03  0.7546771E-02  0.1205070E+00
         21   -1    0    0  502  501  0.00000000000E+00  0.00000000000E+00  0.31320660386E+03  0.31320660386E+03  0.00000000000E+00 0. -1.
         21   -1    0    0  503  502 -0.00000000000E+00 -0.00000000000E+00 -0.32122877151E+03  0.32122877151E+03  0.00000000000E+00 0. -1.
         21    1    1    2  503  506  0.80505493107E+02  0.19785462152E+02 -0.17823993356E+03  0.19657587046E+03  0.00000000000E+00 0. -1.
         21    1    1    2  504  501  0.29983656303E+02  0.36634548925E+02  0.49726405690E+02  0.68657302911E+02  0.00000000000E+00 0. -1.
         21    1    1    2  505  504 -0.71956302469E+02  0.11311472414E+03  0.14049756140E+03  0.19419633117E+03  0.00000000000E+00 0. -1.
         21    1    1    2  506  505 -0.38532846941E+02 -0.16953473521E+03 -0.20006201174E+02  0.17500587082E+03  0.00000000000E+00 0. -1.
<scales pt_clust_3="84.27385" pt_clust_4="47.34036" pt_clust_5="14000.00000" pt_clust_6="146.31952"></scales>
<clustering>
<clus scale="   47.340">  1  4  2 -1</clus>
<clus scale="   84.274">  2  3  1 -1</clus>
<clus scale="  146.320">  2  6  1 -1</clus>
<clus scale="   47.340">  1  3  2 -1</clus>
</clustering>
</event>
<event>
 6    0  0.8991567E+002  0.1153103E+03  0.7546771E-02  0.1251040E+00
         21   -1    0    0  504  501  0.00000000000E+00  0.00000000000E+00  0.22844999104E+04  0.22844999104E+04  0.00000000000E+00 0. -1.
         21   -1    0    0  506  502 -0.00000000000E+00 -0.00000000000E+00 -0.44814066845E+02  0.44814066845E+02  0.00000000000E+00 0.  1.
         21    1    1    2  503  505 -0.14828100248E+02 -0.44777953101E+02  0.11908082783E+03  0.12808271233E+03  0.00000000000E+00 0. -1.
         21    1    1    2  504  503 -0.11849985296E+03 -0.90546499175E+01  0.14873466099E+04  0.14920871757E+04  0.00000000000E+00 0. -1.
         21    1    1    2  505  502  0.29425522094E+02  0.12873059265E+02 -0.25484644215E+02  0.41000537754E+02  0.00000000000E+00 0.  1.
         21    1    1    2  506  501  0.10390243112E+03  0.40959543754E+02  0.65874305005E+03  0.66814355150E+03  0.00000000000E+00 0. -1.
<scales pt_clust_3="39.91432" pt_clust_4="115.31030" pt_clust_5="32.11817" pt_clust_6="14000.00000"></scales>
<clustering>
<clus scale="   32.118">  2  5  1 -1</clus>
<clus scale="   39.914">  2  3  1 -1</clus>
<clus scale="  115.310">  1  4  2 -1</clus>
<clus scale="  115.310">  1  3  2 -1</clus>
</clustering>
</event>
<event>
 6    0  0.8991567E+002  0.8973572E+02  0.7546771E-02  0.1303493E+00
         21   -1    0    0  506  501  0.00000000000E+00  0.00000000000E+00  0.52183214704E+02  0.52183214704E+02  0.00000000000E+00 0.  1.
         21   -1    0    0  504  502 -0.00000000000E+00 -0.00000000000E+00 -0.15429547497E+04  0.15429547497E+04  0.00000000000E+00 0.  1.
         21    1    1    2  503  502  0.12148983409E+02 -0.62964002416E+02 -0.42846528612E+03  0.43323730773E+03  0.00000000000E+00 0. -1.
         21    1    1    2  504  505 -0.22630778705E+02  0.48855467565E+02 -0.88066884908E+03  0.88231322704E+03  0.00000000000E+00 0.  1.
         21    1    1    2  505  501 -0.38944113660E+00  0.74425086740E+02  0.12978427876E+02  0.75549220980E+02  0.00000000000E+00 0.  1.
         21    1    1    2  506  503  0.10871236433E+02 -0.60316551889E+02 -0.19461582765E+03  0.20403820864E+03  0.00000000000E+00 0.  1.
<scales pt_clust_3="45.45697" pt_clust_4="53.84244" pt_clust_5="76.74970" pt_clust_6="45.45697"></scales>
<clustering>
<clus scale="   45.457">  3  6 -1 -1</clus>
<clus scale="   53.842">  2  4  1 -1</clus>
<clus scale="   76.750">  1  5  2 -1</clus>
<clus scale="   76.750">  1  3  2 -1</clus>
</clustering>
</event>
<event>
 6    0  0.8991567E+002  0.1379384E+03  0.7546771E-02  0.1216130E+00
         21   -1    0    0  506  501  0.00000000000E+00  0.00000000000E+00  0.56827903197E+02  0.56827903197E+02  0.00000000000E+00 0. -1.
         21   -1    0    0  505  502 -0.00000000000E+00 -0.00000000000E+00 -0.11538473944E+04  0.11538473944E+04  0.00000000000E+00 0. -1.
         21    1    1    2  503  501 -0.10048798916E+03 -0.96330644546E+02 -0.79474425187E+02  0.16029227462E+03  0.00000000000E+00 0. -1.
         21    1    1    2  504  503  0.23232802164E+02  0.48510265526E+02 -0.10825538595E+03  0.12088108845E+03  0.00000000000E+00 0. -1.
         21    1    1    2  505  504 -0.69426554068E+01 -0.51802487947E+02 -0.14434869590E+03  0.15351952393E+03  0.00000000000E+00 0. -1.
         21    1    1    2  506  502  0.84197842403E+02  0.99622866966E+02 -0.76494098422E+03  0.77598241064E+03  0.00000000000E+00 0. -1.
<scales pt_clust_3="137.93844" pt_clust_4="48.15333" pt_clust_5="52.26565" pt_clust_6="14000.00000"></scales>
<clustering>
<clus scale="   52.266">  2  5  1 -1</clus>
<clus scale="   48.153">  2  4  1 -1</clus>
<clus scale="  137.938">  1  3  2 -1</clus>
<clus scale="  137.938">  1  3  2 -1</clus>
</clustering>
</event>
<event>
 6    0  0.8991567E+002  0.9665597E+02  0.7546771E-02  0.1287489E+00
         21   -1    0    0  503  501  0.00000000000E+00  0.00000000000E+00  0.26754698662E+03  0.26754698662E+03  0.00000000000E+00 0. -1.
         21   -1    0    0  505  502 -0.00000000000E+00 -0.00000000000E+00 -0.83214606161E+03  0.83214606161E+03  0.00000000000E+00 0.  1.
         21    1    1    2  503  506  0.18094428120E+01 -0.72746522063E+02  0.21815956333E+03  0.22997592402E+03  0.00000000000E+00 0. -1.
         21    1    1    2  504  501  0.68014646653E+02  0.50101375591E+01  0.58978658263E+01  0.68453476603E+02  0.00000000000E+00 0. -1.
         21    1    1    2  505  504 -0.14566176265E+02 -0.26869706866E+02 -0.12905701486E+03  0.13262679866E+03  0.00000000000E+00 0.  1.
         21    1    1    2  506  502 -0.55257913200E+02  0.94606091370E+02 -0.65959948929E+03  0.66863684895E+03  0.00000000000E+00 0.  1.
<scales pt_clust_3="96.65597" pt_clust_4="67.47276" pt_clust_5="30.56394" pt_clust_6="14000.00000"></scales>
<clustering>
<clus scale="   30.564">  2  5  1 -1</clus>
<clus scale="   67.473">  1  4  2 -1</clus>
<clus scale="   96.656">  1  3  2 -1</clus>
<clus scale="   67.473">  1  3  2 -1</clus>
</clustering>
</event>
<event>
 6    0  0.8991567E+002  0.7417099E+02  0.7546771E-02  0.1346458E+00
         21   -1    0    0  506  501  0.00000000000E+00  0.00000000000E+00  0.13331214894E+04  0.13331214894E+04  0.00000000000E+00 0.  1.
         21   -1    0    0  504  502 -0.00000000000E+00 -0.00000000000E+00 -0.17307156710E+02  0.17307156710E+02  0.00000000000E+00 0.  1.
         21    1    1    2  503  505  0.57461253373E+02  0.73234747445E+02  0.54991229972E+03  0.55773529677E+03  0.00000000000E+00 0.  1.
         21    1    1    2  504  503 -0.36630315959E+02 -0.59461510457E+02  0.12057704446E+03  0.13934229409E+03  0.00000000000E+00 0.  1.
         21    1    1    2  505  501  0.28397821216E+02 -0.28213109708E+02  0.43588334480E+03  0.43771760998E+03  0.00000000000E+00 0.  1.
         21    1    1    2  506  502 -0.49228758630E+02  0.14439872720E+02  0.20944164368E+03  0.21563344524E+03  0.00000000000E+00 0.  1.
<scales pt_clust_3="14000.00000" pt_clust_4="74.17099" pt_clust_5="40.03019" pt_clust_6="43.19591"></scales>
<clustering>
<clus scale="   40.030">  1  5  2 -1</clus>
<clus scale="   43.196">  1  6  2 -1</clus>
<clus scale="   74.171">  2  4  1 -1</clus>
<clus scale="   40.030">  1  3  2 -1</clus>
</clustering>
</event>
<event>
 6    0  0.8991567E+002  0.2087839E+03  0.7546771E-02  0.1142533E+00
         21   -1    0    0  504  501  0.00000000000E+00  0.00000000000E+00  0.59486360933E+03  0.59486360933E+03  0.00000000000E+00 0. -1.
         21   -1    0    0  505  502 -0.00000000000E+00 -0.00000000000E+00 -0.25033558990E+03  0.25033558990E+03  0.00000000000E+00 0. -1.
         21    1    1    2  503  501  0.18981559825E+03  0.68425665700E+02  0.36411975903E+03  0.41628743913E+03  0.00000000000E+00 0. -1.
         21    1    1    2  504  506 -0.24837276475E+03  0.14750534727E+02  0.74033581664E+02  0.25959117812E+03  0.00000000000E+00 0. -1.
         21    1    1    2  505  503  0.85057913716E+02 -0.54815287085E+02 -0.57997465980E+02  0.11663305897E+03  0.00000000000E+00 0. -1.
         21    1    1    2  506  502 -0.26500747222E+02 -0.28360913341E+02 -0.35627855286E+02  0.52687523012E+02  0.00000000000E+00 0.  1.
<scales pt_clust_3="208.78390" pt_clust_4="14000.00000" pt_clust_5="99.58573" pt_clust_6="38.81535"></scales>
<clustering>
<clus scale="   38.815">  2  6  1 -1</clus>
<clus scale="   99.586">  2  5  1 -1</clus>
<clus scale="  208.784">  1  3  2 -1</clus>
<clus scale="  208.784">  1  3  2 -1</clus>
</clustering>
</event>
<event>
 6    0  0.8991567E+002  0.1366868E+03  0.7546771E-02  0.1217858E+00
         21   -1    0    0  505  501  0.00000000000E+00  0.00000000000E+00  0.11205647470E+03  0.11205647470E+03  0.00000000000E+00 0. -1.
         21   -1    0    0  506  502 -0.00000000000E+00 -0.00000000000E+00 -0.89070772990E+03  0.89070772990E+03  0.00000000000E+00 0. -1.
         21    1    1    2  503  501 -0.43065532782E+01 -0.79889219606E+02  0.49144293889E+02  0.93893532430E+02  0.00000000000E+00 0. -1.
         21    1    1    2  504  502  0.29945271513E+02 -0.32719815726E+02 -0.30068781754E+03  0.30394155564E+03  0.00000000000E+00 0. -1.
         21    1    1    2  505  504  0.47619390486E+01  0.19958121972E+03 -0.40912927480E+03  0.45523851202E+03  0.00000000000E+00 0. -1.
         21    1    1    2  506  503 -0.30400657284E+02 -0.86972184391E+02 -0.11797845675E+03  0.14969060451E+03  0.00000000000E+00 0. -1.
<scales pt_clust_3="81.19526" pt_clust_4="44.35432" pt_clust_5="14000.00000" pt_clust_6="136.68683"></scales>
<clustering>
<clus scale="   44.354">  2  4  1 -1</clus>
<clus scale="   81.195">  1  3  2 -1</clus>
<clus scale="  136.687">  1  6  2 -1</clus>
<clus scale="   81.195">  1  3  2 -1</clus>
</clustering>
</event>
<event>
 6    0  0.8991567E+002  0.1412534E+03  0.7546771E-02  0.1211652E+00
         21   -1    0    0  503  501  0.00000000000E+00  0.00000000000E+00  0.34161053535E+03  0.34161053535E+03  0.00000000000E+00 0. -1.
         21   -1    0    0  506  502 -0.00000000000E+00 -0.00000000000E+00 -0.81128502235E+03  0.81128502235E+03  0.00000000000E+00 0.  1.
         21    1    1    2  503  505 -0.30629108514E+02 -0.65504975466E+01  0.13131353038E+02  0.33962976004E+02  0.00000000000E+00 0. -1.
         21    1    1    2  504  501  0.93846952119E+01  0.14907709471E+03  0.28783631293E+03  0.32428659503E+03  0.00000000000E+00 0. -1.
         21    1    1    2  505  502  0.22195406221E+02 -0.30160281252E+02 -0.50272415251E+03  0.50411690325E+03  0.00000000000E+00 0.  1.
         21    1    1    2  506  504 -0.95099291965E+00 -0.11236631591E+03 -0.26791800046E+03  0.29052908342E+03  0.00000000000E+00 0.  1.
<scales pt_clust_3="31.32174" pt_clust_4="141.25345" pt_clust_5="37.41887" pt_clust_6="14000.00000"></scales>
<clustering>
<clus scale="   31.322">  1  3  2 -1</clus>
<clus scale="   37.419">  2  5  1 -1</clus>
<clus scale="  141.253">  1  4  2 -1</clus>
<clus scale="   31.322">  1  3  2 -1</clus>
</clustering>
</event>
<event>
 6    0  0.8991567E+002  0.2585672E+03  0.7546771E-02  0.1108007E+00
         21   -1    0    0  505  501  0.00000000000E+00  0.00000000000E+00  0.12637933578E+04  0.12637933578E+04  0.00000000000E+00 0.  1.
         21   -1    0    0  503  502 -0.00000000000E+00 -0.00000000000E+00 -0.11947796170E+03  0.11947796170E+03  0.00000000000E+00 0.  1.
         21    1    1    2  503  501 -0.14633957990E+03  0.26394892020E+03  0.69416073382E+03  0.75693026726E+03  0.00000000000E+00 0.  1.
         21    1    1    2  504  506  0.11158659629E+03 -0.18493489134E+03  0.31218121887E+03  0.37961769706E+03  0.00000000000E+00 0.  1.
         21    1    1    2  505  504 -0.10685396558E+02 -0.31763719171E+02  0.17034675484E+03  0.17361200546E+03  0.00000000000E+00 0. -1.
         21    1    1    2  506  502  0.45438380166E+02 -0.47250309683E+02 -0.32373311469E+02  0.73111349685E+02  0.00000000000E+00 0.  1.
<scales pt_clust_3="258.56724" pt_clust_4="14000.00000" pt_clust_5="33.51286" pt_clust_6="65.84461"></scales>
<clustering>
<clus scale="   33.513">  1  5  2 -1</clus>
<clus scale="   65.845">  2  6  1 -1</clus>
<clus scale="  258.567">  1  3  2 -1</clus>
<clus scale="   33.513">  1  3  2 -1</clus>
</clustering>
</event>
<event>
 6    0  0.8991567E+002  0.1114363E+03  0.7546771E-02  0.1257933E+00
         21   -1    0    0  506  501  0.00000000000E+00  0.00000000000E+00  0.43631584715E+03  0.43631584715E+03  0.00000000000E+00 0.  1.
         21   -1    0    0  505  502 -0.00000000000E+00 -0.00000000000E+00 -0.37116400252E+03  0.37116400252E+03  0.00000000000E+00 0.  1.
         21    1    1    2  503  501 -0.36202758614E+02 -0.54254142883E+02  0.28335561153E+02  0.71112978964E+02  0.00000000000E+00 0. -1.
         21    1    1    2  504  503 -0.15173226889E+03  0.87461064813E+02  0.47403596211E+01  0.17519871658E+03  0.00000000000E+00 0.  1.
         21    1    1    2  505  504  0.82409612387E+02 -0.63517504335E+02 -0.24335288457E+03  0.26466288746E+03  0.00000000000E+00 0.  1.
         21    1    1    2  506  502  0.10552541512E+03  0.30310582405E+02  0.27542880843E+03  0.29650526666E+03  0.00000000000E+00 0.  1.
<scales pt_clust_3="65.22386" pt_clust_4="111.43635" pt_clust_5="14000.00000" pt_clust_6="79.35592"></scales>
<clustering>
<clus scale="   65.224">  1  3  2 -1</clus>
<clus scale="   79.356">  1  6  2 -1</clus>
<clus scale="  111.436">  1  4  2 -1</clus>
<clus scale="   65.224">  1  3  2 -1</clus>
</clustering>
</event>
<event>
 6    0  0.8991567E+002  0.1100359E+03  0.7546771E-02  0.1260503E+00
         21   -1    0    0  502  501  0.00000000000E+00  0.00000000000E+00  0.22973962588E+04  0.22973962588E+04  0.00000000000E+00 0. -1.
         21   -1    0    0  504  502 -0.00000000000E+00 -0.00000000000E+00 -0.18567263820E+03  0.18567263820E+03  0.00000000000E+00 0. -1.
         21    1    1    2  503  505  0.48258261137E+02 -0.71213369905E+01  0.80380506643E+03  0.80528389903E+03  0.00000000000E+00 0. -1.
         21    1    1    2  504  506  0.29869945849E+02  0.19790297348E+02 -0.16133283236E+03  0.16526388696E+03  0.00000000000E+00 0. -1.
         21    1    1    2  505  501  0.44726244863E+02 -0.38503916762E+02  0.13022919604E+04  0.13036285279E+04  0.00000000000E+00 0. -1.
         21    1    1    2  506  503 -0.12285445185E+03  0.25834956404E+02  0.16695942613E+03  0.20889258313E+03  0.00000000000E+00 0. -1.
<scales pt_clust_3="30.68515" pt_clust_4="35.83113" pt_clust_5="30.68515" pt_clust_6="104.73174"></scales>
<clustering>
<clus scale="   30.685">  3  5 -1 -1</clus>
<clus scale="   35.831">  2  4  1 -1</clus>
<clus scale="  104.732">  2  6  1 -1</clus>
<clus scale="  110.036">  1  3  2 -1</clus>
</clustering>
</event>
<event>
 6    0  0.8991567E+002  0.8648248E+02  0.7546771E-02  0.1311601E+00
         21   -1    0    0  504  501  0.00000000000E+00  0.00000000000E+00  0.16499632391E+03  0.16499632391E+03  0.00000000000E+00 0. -1.
         21   -1    0    0  503  502 -0.00000000000E+00 -0.00000000000E+00 -0.39012102311E+03  0.39012102311E+03  0.00000000000E+00 0.  1.
         21    1    1    2  503  501 -0.27682337398E+02 -0.53836028966E+02  0.10848219170E+03  0.12422968942E+03  0.00000000000E+00 0. -1.
         21    1    1    2  504  505  0.78866473159E+02 -0.16833008854E+02 -0.54500150195E+02  0.97332097208E+02  0.00000000000E+00 0.  1.
         21    1    1    2  505  506 -0.85902445893E+02  0.44205361417E+02 -0.68394242971E+02  0.11836856280E+03  0.00000000000E+00 0.  1.
         21    1    1    2  506  502  0.34718310131E+02  0.26463676403E+02 -0.21071249774E+03  0.21518699758E+03  0.00000000000E+00 0.  1.
<scales pt_clust_3="58.79063" pt_clust_4="14000.00000" pt_clust_5="86.48248" pt_clust_6="43.65418"></scales>
<clustering>
<clus scale="   43.654">  2  6  1 -1</clus>
<clus scale="   58.791">  1  3  2 -1</clus>
<clus scale="   86.482">  2  5  1 -1</clus>
<clus scale="   58.791">  1  3  2 -1</clus>
</clustering>
</event>
<event>
 6    0  0.8991567E+002  0.6204303E+02  0.7546771E-02  0.1389453E+00
         21   -1    0    0  504  501  0.00000000000E+00  0.00000000000E+00  0.28192584005E+03  0.28192584005E+03  0.00000000000E+00 0. -1.
         21   -1    0    0  503  502 -0.00000000000E+00 -0.00000000000E+00 -0.56351269872E+03  0.56351269872E+03  0.00000000000E+00 0.  1.
         21    1    1    2  503  505 -0.41343655277E+02 -0.62588216401E+02 -0.10037496126E+03  0.12530648631E+03  0.00000000000E+00 0. -1.
         21    1    1    2  504  506  0.34448947060E+02  0.63760690382E+02  0.86928026104E+02  0.11317525045E+03  0.00000000000E+00 0. -1.
         21    1    1    2  505  501 -0.40429457002E+02 -0.38665969508E+02  0.16262657797E+03  0.17197965593E+03  0.00000000000E+00 0. -1.
         21    1    1    2  506  502  0.47324165219E+02  0.37493495527E+02 -0.43076650148E+03  0.43497714609E+03  0.00000000000E+00 0.  1.
<scales pt_clust_3="14000.00000" pt_clust_4="30.02180" pt_clust_5="55.94281" pt_clust_6="62.04303"></scales>
<clustering>
<clus scale="   55.943">  1  5  2 -1</clus>
<clus scale="   30.022">  1  4  2 -1</clus>
<clus scale="   62.043">  2  6  1 -1</clus>
<clus scale="   55.943">  1  3  2 -1</clus>
</clustering>
</event>
<event>
 6    0  0.8991567E+002  0.1440701E+03  0.7546771E-02  0.1207955E+00
         21   -1    0    0  502  501  0.00000000000E+00  0.00000000000E+00  0.14923804685E+03  0.14923804685E+03  0.00000000000E+00 0.  1.
         21   -1    0    0  503  502 -0.00000000000E+00 -0.00000000000E+00 -0.31075048361E+03  0.31075048361E+03  0.00000000000E+00 0.  1.
         21    1    1    2  503  506 -0.35968892400E+02  0.64221702265E+02 -0.14232303271E+03  0.16023118892E+03  0.00000000000E+00 0.  1.
         21    1    1    2  504  505  0.44874790105E+01 -0.15874310279E+03 -0.47037025463E+01  0.15887616237E+03  0.00000000000E+00 0.  1.
         21    1    1    2  505  501  0.58028270207E+02  0.46056453465E+02  0.18719663950E+02  0.76412714043E+02  0.00000000000E+00 0.  1.
         21    1    1    2  506  504 -0.26546856817E+02  0.48464947061E+02 -0.33205365452E+02  0.64468465122E+02  0.00000000000E+00 0.  1.
<scales pt_clust_3="48.03254" pt_clust_4="132.97739" pt_clust_5="74.08426" pt_clust_6="48.03254"></scales>
<clustering>
<clus scale="   48.033">  3  6 -1 -1</clus>
<clus scale="   74.084">  1  5  2 -1</clus>
<clus scale="  132.977">  1  4  2 -1</clus>
<clus scale="   74.084">  1  3  2 -1</clus>
</clustering>
</event>
<event>
 6    0  0.8991567E+002  0.7873542E+02  0.7546771E-02  0.1332679E+00
         21   -1    0    0  506  501  0.00000000000E+00  0.00000000000E+00  0.14028968016E+04  0.14028968016E+04  0.00000000000E+00 0. -1.
         21   -1    0    0  503  502 -0.00000000000E+00 -0.00000000000E+00 -0.77466500036E+03  0.77466500036E+03  0.00000000000E+00 0. -1.
         21    1    1    2  503  501 -0.12941304592E+02 -0.85819480737E+02 -0.74481581181E+03  0.74985535550E+03  0.00000000000E+00 0. -1.
         21    1    1    2  504  505 -0.29069333701E+02  0.11935677157E+03  0.56054919647E+03  0.57385230394E+03  0.00000000000E+00 0. -1.
         21    1    1    2  505  502  0.38364461959E+02  0.13167496409E+02  0.55973821800E+00  0.40565110748E+02  0.00000000000E+00 0.  1.
         21    1    1    2  506  504  0.36461763343E+01 -0.46704787245E+02  0.81193867833E+03  0.81328903172E+03  0.00000000000E+00 0. -1.
<scales pt_clust_3="78.73542" pt_clust_4="14000.00000" pt_clust_5="40.56125" pt_clust_6="46.83784"></scales>
<clustering>
<clus scale="   40.561">  2  5  1 -1</clus>
<clus scale="   46.838">  1  6  2 -1</clus>
<clus scale="   78.735">  2  3  1 -1</clus>
<clus scale="   46.838">  1  3  2 -1</clus>
</clustering>
</event>
<event>
 6    0  0.8991567E+002  0.3038422E+03  0.7546771E-02  0.1083336E+00
         21   -1    0    0  503  501  0.00000000000E+00  0.00000000000E+00  0.31068424517E+03  0.31068424517E+03  0.00000000000E+00 0.  1.
         21   -1    0    0  504  502 -0.00000000000E+00 -0.00000000000E+00 -0.67628123886E+03  0.67628123886E+03  0.00000000000E+00 0.  1.
         21    1    1    2  503  506  0.48784217233E+02  0.28854991043E+02  0.79454869442E+02  0.97599111867E+02  0.00000000000E+00 0.  1.
         21    1    1    2  504  505 -0.42622502198E+02 -0.52818544249E+02 -0.28222006209E+03  0.29026649782E+03  0.00000000000E+00 0.  1.
         21    1    1    2  505  501 -0.22640560665E+03 -0.85051898225E+02 -0.24079197792E+03  0.34128302147E+03  0.00000000000E+00 0.  1.
         21    1    1    2  506  502  0.22024389162E+03  0.10901545143E+03  0.77960176870E+02  0.25781685287E+03  0.00000000000E+00 0.  1.
<scales pt_clust_3="48.39957" pt_clust_4="67.87103" pt_clust_5="286.64165" pt_clust_6="48.39957"></scales>
<clustering>
<clus scale="   48.400">  3  6 -1 -1</clus>
<clus scale="   67.871">  2  4  1 -1</clus>
<clus scale="  286.642">  2  5  1 -1</clus>
<clus scale="  303.842">  1  3  2 -1</clus>
</clustering>
</event>
<event>
 6    0  0.8991567E+002  0.1083341E+03  0.7546771E-02  0.1263686E+00
         21   -1    0    0  506  501  0.00000000000E+00  0.00000000000E+00  0.17217768262E+03  0.17217768262E+03  0.00000000000E+00 0. -1.
         21   -1    0    0  505  502 -0.00000000000E+00 -0.00000000000E+00 -0.29880000591E+03  0.29880000591E+03  0.00000000000E+00 0.  1.
         21    1    1    2  503  501  0.31049530521E+02  0.16568647225E+02  0.42797196675E+02  0.55409326468E+02  0.00000000000E+00 0.  1.
         21    1    1    2  504  503 -0.12571255848E+03 -0.17177206696E+00  0.50242610013E+02  0.13538093192E+03  0.00000000000E+00 0. -1.
         21    1    1    2  505  504 -0.38725730410E+02  0.35776272121E+01 -0.44134286634E+02  0.58824458085E+02  0.00000000000E+00 0. -1.
         21    1    1    2  506  502  0.13338875837E+03 -0.19974502370E+02 -0.17552784334E+03  0.22136297205E+03  0.00000000000E+00 0.  1.
<scales pt_clust_3="35.19366" pt_clust_4="14000.00000" pt_clust_5="37.15438" pt_clust_6="108.33412"></scales>
<clustering>
<clus scale="   35.194">  1  3  2 -1</clus>
<clus scale="   37.154">  2  5  1 -1</clus>
<clus scale="  108.334">  2  6  1 -1</clus>
<clus scale="   35.194">  1  3  2 -1</clus>
</clustering>
</event>
<event>
 6    0  0.8991567E+002  0.2097248E+03  0.7546771E-02  0.1141784E+00
         21   -1    0    0  505  501  0.00000000000E+00  0.00000000000E+00  0.11592059424E+03  0.11592059424E+03  0.00000000000E+00 0.  1.
         21   -1    0    0  503  502 -0.00000000000E+00 -0.00000000000E+00 -0.72435842737E+03  0.72435842737E+03  0.00000000000E+00 0.  1.
         21    1    1    2  503  504 -0.33361535708E+02  0.25110553413E+02 -0.68612253440E+02  0.80319196209E+02  0.00000000000E+00 0. -1.
         21    1    1    2  504  506 -0.15728442400E+03 -0.57805840947E+02 -0.30666544219E+03  0.34946187018E+03  0.00000000000E+00 0.  1.
         21    1    1    2  505  502 -0.36348407641E+01  0.53403479514E+02 -0.20647777874E+03  0.21330311016E+03  0.00000000000E+00 0. -1.
         21    1    1    2  506  501  0.19428080047E+03 -0.20708191980E+02 -0.26682358772E+02  0.19719484506E+03  0.00000000000E+00 0.  1.
<scales pt_clust_3="40.13231" pt_clust_4="40.13231" pt_clust_5="53.52704" pt_clust_6="193.70326"></scales>
<clustering>
<clus scale="   40.132">  3  4 -1 -1</clus>
<clus scale="   53.527">  2  5  1 -1</clus>
<clus scale="  193.703">  1  6  2 -1</clus>
<clus scale="  193.703">  1  3  2 -1</clus>
</clustering>
</event>
<event>
 6    0  0.8991567E+002  0.7480274E+02  0.7546771E-02  0.1344483E+00
         21   -1    0    0  504  501  0.00000000000E+00  0.00000000000E+00  0.75774563566E+03  0.75774563566E+03  0.00000000000E+00 0. -1.
         21   -1    0    0  505  502 -0.00000000000E+00 -0.00000000000E+00 -0.24214919256E+03  0.24214919256E+03  0.00000000000E+00 0. -1.
         21    1    1    2  503  502 -0.64660138566E+01 -0.32566565533E+02 -0.20196661166E+03  0.20467755801E+03  0.00000000000E+00 0. -1.
         21    1    1    2  504  506 -0.55311414043E+02  0.48362360456E+02  0.53100203475E+03  0.53606103323E+03  0.00000000000E+00 0. -1.
         21    1    1    2  505  501 -0.15040702763E+02 -0.73216579824E+02  0.12355466243E+03  0.14440444906E+03  0.00000000000E+00 0. -1.
         21    1    1    2  506  503  0.76818130663E+02  0.57420784901E+02  0.63006357575E+02  0.11475178793E+03  0.00000000000E+00 0. -1.
<scales pt_clust_3="33.20227" pt_clust_4="72.41777" pt_clust_5="74.80274" pt_clust_6="14000.00000"></scales>
<clustering>
<clus scale="   33.202">  2  3  1 -1</clus>
<clus scale="   72.418">  1  4  2 -1</clus>
<clus scale="   74.803">  1  5  2 -1</clus>
<clus scale="   72.418">  1  3  2 -1</clus>
</clustering>
</event>
<event>
 6    0  0.8991567E+002  0.1287055E+03  0.7546771E-02  0.1229389E+00
         21   -1    0    0  504  501  0.00000000000E+00  0.00000000000E+00  0.22211701690E+03  0.22211701690E+03  0.00000000000E+00 0. -1.
         21   -1    0    0  506  502 -0.00000000000E+00 -0.00000000000E+00 -0.18451460840E+04  0.18451460840E+04  0.00000000000E+00 0. -1.
         21    1    1    2  503  501  0.10763270581E+02  0.39227878531E+02  0.17620017059E+03  0.18083466085E+03  0.00000000000E+00 0. -1.
         21    1    1    2  504  502 -0.87558275724E+02 -0.22728963526E+01 -0.14226413433E+04  0.14253350516E+04  0.00000000000E+00 0. -1.
         21    1    1    2  505  503  0.11360649572E+03  0.13819734298E+02 -0.43946586767E+02  0.12259169390E+03  0.00000000000E+00 0. -1.
         21    1    1    2  506  505 -0.36811490573E+02 -0.50774716477E+02 -0.33264130763E+03  0.33850169455E+03  0.00000000000E+00 0. -1.
<scales pt_clust_3="40.67769" pt_clust_4="128.70547" pt_clust_5="14000.00000" pt_clust_6="60.16354"></scales>
<clustering>
<clus scale="   40.678">  1  3  2 -1</clus>
<clus scale="   60.164">  2  6  1 -1</clus>
<clus scale="  128.705">  2  4  1 -1</clus>
<clus scale="   40.678">  1  3  2 -1</clus>
</clustering>
</event>
<event>
 6    0  0.8991567E+002  0.1379646E+03  0.7546771E-02  0.1216094E+00
         21   -1    0    0  503  501  0.00000000000E+00  0.00000000000E+00  0.16263105725E+03  0.16263105725E+03  0.00000000000E+00 0.  1.
         21   -1    0    0  504  502 -0.00000000000E+00 -0.00000000000E+00 -0.24111080834E+03  0.24111080834E+03  0.00000000000E+00 0.  1.
         21    1    1    2  503  506  0.61507838318E+02  0.77860873932E+02 -0.42647344192E+02  0.10800150846E+03  0.00000000000E+00 0.  1.
         21    1    1    2  504  505 -0.31436406105E+02  0.41986660614E+01 -0.65419419079E+02  0.72701972588E+02  0.00000000000E+00 0.  1.
         21    1    1    2  505  501 -0.73673557357E+02 -0.10052750394E+03  0.84462418671E+02  0.15055720597E+03  0.00000000000E+00 0.  1.
         21    1    1    2  506  502  0.43602125144E+02  0.18467963945E+02 -0.54875406488E+02  0.72481178567E+02  0.00000000000E+00 0.  1.
<scales pt_clust_3="33.32861" pt_clust_4="31.71555" pt_clust_5="127.66465" pt_clust_6="33.32861"></scales>
<clustering>
<clus scale="   31.716">  2  4  1 -1</clus>
<clus scale="   33.329">  3  6 -1 -1</clus>
<clus scale="  127.665">  1  5  2 -1</clus>
<clus scale="  127.665">  1  3  2 -1</clus>
</clustering>
</event>
<event>
 6    0  0.8991567E+002  0.9429296E+02  0.7546771E-02  0.1292777E+00
         21   -1    0    0  503  501  0.00000000000E+00  0.00000000000E+00  0.65296984745E+02  0.65296984745E+02  0.00000000000E+00 0. -1.
         21   -1    0    0  505  502 -0.00000000000E+00 -0.00000000000E+00 -0.19701534095E+04  0.19701534095E+04  0.00000000000E+00 0.  1.
         21    1    1    2  503  506  0.64832463232E+02  0.33208751651E+02 -0.93828593109E+02  0.11878499215E+03  0.00000000000E+00 0. -1.
         21    1    1    2  504  501  0.31005131310E+02 -0.28019004434E+01  0.30068325283E+02  0.43281323905E+02  0.00000000000E+00 0. -1.
         21    1    1    2  505  504 -0.39907973249E+02  0.49339557228E+02 -0.53121670044E+02  0.82758383651E+02  0.00000000000E+00 0. -1.
         21    1    1    2  506  502 -0.55929621293E+02 -0.79746408435E+02 -0.17879744869E+04  0.17906256946E+04  0.00000000000E+00 0.  1.
<scales pt_clust_3="94.29296" pt_clust_4="31.13148" pt_clust_5="53.50192" pt_clust_6="14000.00000"></scales>
<clustering>
<clus scale="   31.131">  1  4  2 -1</clus>
<clus scale="   53.502">  1  5  2 -1</clus>
<clus scale="   94.293">  1  3  2 -1</clus>
<clus scale="   31.131">  1  3  2 -1</clus>
</clustering>
</event>
<event>
 6    0  0.8991567E+002  0.1703845E+03  0.7546771E-02  0.1177448E+00
         21   -1    0    0  506  501  0.00000000000E+00  0.00000000000E+00  0.50770776324E+03  0.50770776324E+03  0.00000000000E+00 0. -1.
         21   -1    0    0  504  502 -0.00000000000E+00 -0.00000000000E+00 -0.19649211014E+03  0.19649211014E+03  0.00000000000E+00 0. -1.
         21    1    1    2  503  501  0.31042261579E+02 -0.11646880049E+02  0.18667176336E+03  0.18959329908E+03  0.00000000000E+00 0. -1.
         21    1    1    2  504  503 -0.59509657949E+02  0.15615208932E+03 -0.80615780868E+02  0.18553646141E+03  0.00000000000E+00 0. -1.
         21    1    1    2  505  502  0.73802474174E+02 -0.16352234439E+03  0.83564552028E+02  0.19791259855E+03  0.00000000000E+00 0. -1.
         21    1    1    2  506  505 -0.45335077804E+02  0.19017135123E+02  0.12159511858E+03  0.13115751435E+03  0.00000000000E+00 0. -1.
<scales pt_clust_3="33.15527" pt_clust_4="14000.00000" pt_clust_5="170.38447" pt_clust_6="36.06398"></scales>
<clustering>
<clus scale="   33.155">  1  3  2 -1</clus>
<clus scale="   36.064">  1  6  2 -1</clus>
<clus scale="  170.384">  1  5  2 -1</clus>
<clus scale="   33.155">  1  3  2 -1</clus>
</clustering>
</event>
<event>
 6    0  0.8991567E+002  0.8814498E+02  0.7546771E-02  0.1307407E+00
         21   -1    0    0  503  501  0.00000000000E+00  0.00000000000E+00  0.57905886741E+02  0.57905886741E+02  0.00000000000E+00 0.  1.
         21   -1    0    0  504  502 -0.00000000000E+00 -0.00000000000E+00 -0.21176188093E+04  0.21176188093E+04  0.00000000000E+00 0. -1.
         21    1    1    2  503  506  0.62235521280E+02 -0.36984846125E+02 -0.10819842565E+02  0.73199781045E+02  0.00000000000E+00 0.  1.
         21    1    1    2  504  505 -0.84660627543E+02 -0.83178430743E+01 -0.63216591672E+02  0.10598559257E+03  0.00000000000E+00 0.  1.
         21    1    1    2  505  501 -0.17119680375E+02 -0.35833207588E+02 -0.88325304515E+02  0.96842457837E+02  0.00000000000E+00 0. -1.
         21    1    1    2  506  502  0.39544786638E+02  0.81135896788E+02 -0.18973511838E+04  0.18994968646E+04  0.00000000000E+00 0. -1.
<scales pt_clust_3="77.95094" pt_clust_4="88.14498" pt_clust_5="39.71275" pt_clust_6="14000.00000"></scales>
<clustering>
<clus scale="   39.713">  1  5  2 -1</clus>
<clus scale="   77.951">  1  3  2 -1</clus>
<clus scale="   88.145">  1  4  2 -1</clus>
<clus scale="   39.713">  1  3  2 -1</clus>
</clustering>
</event>
<event>
 6    0  0.8991567E+002  0.7330544E+02  0.7546771E-02  0.1349200E+00
         21   -1    0    0  506  501  0.00000000000E+00  0.00000000000E+00  0.10831678752E+04  0.10831678752E+04  0.00000000000E+00 0.  1.
         21   -1    0    0  505  502 -0.00000000000E+00 -0.00000000000E+00 -0.52642261000E+02  0.52642261000E+02  0.00000000000E+00 0. -1.
         21    1    1    2  503  502 -0.10144752113E+03  0.64429511934E+02  0.34011190887E+03  0.36071993583E+03  0.00000000000E+00 0.  1.
         21    1    1    2  504  501  0.31973336879E+02  0.63751244889E+01  0.22143394813E+03  0.22382120067E+03  0.00000000000E+00 0. -1.
         21    1    1    2  505  504  0.52378016962E+02 -0.16394009876E+02 -0.20418403300E+02  0.58558785967E+02  0.00000000000E+00 0. -1.
         21    1    1    2  506  503  0.17096167292E+02 -0.54410626547E+02  0.48939816048E+03  0.49271021371E+03  0.00000000000E+00 0.  1.
<scales pt_clust_3="73.30544" pt_clust_4="32.60271" pt_clust_5="55.51878" pt_clust_6="14000.00000"></scales>
<clustering>
<clus scale="   32.603">  1  4  2 -1</clus>
<clus scale="   55.519">  2  5  1 -1</clus>
<clus scale="   73.305">  2  3  1 -1</clus>
<clus scale="   32.603">  1  3  2 -1</clus>
</clustering>
</event>
<event>
 6    0  0.8991567E+002  0.8799987E+02  0.7546771E-02  0.1307769E+00
         21   -1    0    0  503  501  0.00000000000E+00  0.00000000000E+00  0.21101091704E+04  0.21101091704E+04  0.00000000000E+00 0.  1.
         21   -1    0    0  504  502 -0.00000000000E+00 -0.00000000000E+00 -0.56768441758E+02  0.56768441758E+02  0.00000000000E+00 0. -1.
         21    1    1    2  503  506  0.53352217206E+02  0.69251465292E+02  0.17677505971E+04  0.17699108447E+04  0.00000000000E+00 0.  1.
         21    1    1    2  504  501  0.26031935662E+02 -0.30008972587E+02  0.25197912218E+03  0.25509150931E+03  0.00000000000E+00 0.  1.
         21    1    1    2  505  502  0.16750496003E+02 -0.36794967916E+02  0.13798934867E+01  0.40451858873E+02  0.00000000000E+00 0. -1.
         21    1    1    2  506  505 -0.96134648871E+02 -0.24475247898E+01  0.32231115843E+02  0.10142339927E+03  0.00000000000E+00 0. -1.
<scales pt_clust_3="14000.00000" pt_clust_4="39.72657" pt_clust_5="40.85772" pt_clust_6="87.99987"></scales>
<clustering>
<clus scale="   39.727">  1  4  2 -1</clus>
<clus scale="   40.858">  2  5  1 -1</clus>
<clus scale="   88.000">  2  6  1 -1</clus>
<clus scale="   39.727">  1  3  2 -1</clus>
</clustering>
</event>
<event>
 6    0  0.8991567E+002  0.1094622E+03  0.7546771E-02  0.1261569E+00
         21   -1    0    0  503  501  0.00000000000E+00  0.00000000000E+00  0.22815428608E+03  0.22815428608E+03  0.00000000000E+00 0. -1.
         21   -1    0    0  506  502 -0.00000000000E+00 -0.00000000000E+00 -0.52535976393E+03  0.52535976393E+03  0.00000000000E+00 0. -1.
         21    1    1    2  503  504  0.17159367471E+02  0.54618867135E+02  0.11578775682E+03  0.12916837526E+03  0.00000000000E+00 0. -1.
         21    1    1    2  504  505 -0.11228403989E+03  0.90228647086E+01  0.63161027724E+02  0.12914500813E+03  0.00000000000E+00 0. -1.
         21    1    1    2  505  502  0.65555451813E+02 -0.39136465582E+02 -0.42176405109E+03  0.42861882249E+03  0.00000000000E+00 0. -1.
         21    1    1    2  506  501  0.29569220611E+02 -0.24505266261E+02 -0.54390211303E+02  0.66581844129E+02  0.00000000000E+00 0. -1.
<scales pt_clust_3="57.04427" pt_clust_4="109.46219" pt_clust_5="14000.00000" pt_clust_6="38.40374"></scales>
<clustering>
<clus scale="   38.404">  2  6  1 -1</clus>
<clus scale="   57.044">  1  3  2 -1</clus>
<clus scale="  109.462">  1  4  2 -1</clus>
<clus scale="   57.044">  1  3  2 -1</clus>
</clustering>
</event>
<event>
 6    0  0.8991567E+002  0.1304515E+03  0.7546771E-02  0.1226787E+00
         21   -1    0    0  505  501  0.00000000000E+00  0.00000000000E+00  0.46059348724E+03  0.46059348724E+03  0.00000000000E+00 0. -1.
         21   -1    0    0  503  502 -0.00000000000E+00 -0.00000000000E+00 -0.15085462114E+03  0.15085462114E+03  0.00000000000E+00 0. -1.
         21    1    1    2  503  504 -0.32760918145E+02  0.31048675044E+02 -0.35248564782E+02  0.57269182803E+02  0.00000000000E+00 0. -1.
         21    1    1    2  504  501 -0.12378086797E+02  0.65655816223E+02  0.55268959393E+02  0.86709636771E+02  0.00000000000E+00 0. -1.
         21    1    1    2  505  506 -0.35978320755E+02  0.61893692034E+02  0.28006372567E+03  0.28906912515E+03  0.00000000000E+00 0. -1.
         21    1    1    2  506  502  0.81117325697E+02 -0.15859818330E+03  0.96547458140E+01  0.17840016365E+03  0.00000000000E+00 0. -1.
<scales pt_clust_3="45.13644" pt_clust_4="72.41950" pt_clust_5="130.45155" pt_clust_6="14000.00000"></scales>
<clustering>
<clus scale="   45.136">  2  3  1 -1</clus>
<clus scale="   72.420">  1  4  2 -1</clus>
<clus scale="  130.452">  1  5  2 -1</clus>
<clus scale="   72.420">  1  3  2 -1</clus>
</clustering>
</event>
<event>
 6    0  0.8991567E+002  0.1994791E+03  0.7546771E-02  0.1150179E+00
         21   -1    0    0  504  501  0.00000000000E+00  0.00000000000E+00  0.17788232140E+03  0.17788232140E+03  0.00000000000E+00 0. -1.
         21   -1    0    0  506  502 -0.00000000000E+00 -0.00000000000E+00 -0.38899191544E+03  0.38899191544E+03  0.00000000000E+00 0. -1.
         21    1    1    2  503  505  0.84879848326E+02 -0.91305679597E+02  0.99731950481E+01  0.12506310566E+03  0.00000000000E+00 0. -1.
         21    1    1    2  504  502 -0.34599722437E+02 -0.18319709292E+02 -0.18887492046E+02  0.43468263101E+02  0.00000000000E+00 0.  1.
         21    1    1    2  505  501  0.48134189146E+02 -0.49672085061E+02  0.49197019875E+02  0.84879697005E+02  0.00000000000E+00 0. -1.
         21    1    1    2  506  503 -0.98414315034E+02  0.15929747395E+03 -0.25139231692E+03  0.31346317107E+03  0.00000000000E+00 0. -1.
<scales pt_clust_3="40.93883" pt_clust_4="39.15038" pt_clust_5="40.93883" pt_clust_6="191.79288"></scales>
<clustering>
<clus scale="   39.150">  2  4  1 -1</clus>
<clus scale="   40.939">  3  5 -1 -1</clus>
<clus scale="  191.793">  2  6  1 -1</clus>
<clus scale="  199.479">  1  3  2 -1</clus>
</clustering>
</event>
<event>
 6    0  0.8991567E+002  0.9440268E+02  0.7546771E-02  0.1292527E+00
         21   -1    0    0  503  501  0.00000000000E+00  0.00000000000E+00  0.17141988269E+03  0.17141988269E+03  0.00000000000E+00 0. -1.
         21   -1    0    0  506  502 -0.00000000000E+00 -0.00000000000E+00 -0.65936467566E+03  0.65936467566E+03  0.00000000000E+00 0.  1.
         21    1    1    2  503  504  0.46194508356E+02  0.16961183969E+02  0.10738342637E+03  0.11812203275E+03  0.00000000000E+00 0. -1.
         21    1    1    2  504  502  0.97333275187E+02  0.79835434241E+01 -0.11479392430E+03  0.15071545534E+03  0.00000000000E+00 0.  1.
         21    1    1    2  505  501 -0.10996998982E+03 -0.55193042783E+02 -0.56296784815E+02  0.13531074833E+03  0.00000000000E+00 0. -1.
         21    1    1    2  506  505 -0.33557793725E+02  0.30248315390E+02 -0.42423751023E+03  0.42663632193E+03  0.00000000000E+00 0.  1.
<scales pt_clust_3="48.73478" pt_clust_4="94.40268" pt_clust_5="14000.00000" pt_clust_6="45.17838"></scales>
<clustering>
<clus scale="   45.178">  2  6  1 -1</clus>
<clus scale="   48.735">  1  3  2 -1</clus>
<clus scale="   94.403">  2  4  1 -1</clus>
<clus scale="   48.735">  1  3  2 -1</clus>
</clustering>
</event>
<event>
 6    0  0.8991567E+002  0.1967746E+03  0.7546771E-02  0.1152489E+00
         21   -1    0    0  505  501  0.00000000000E+00  0.00000000000E+00  0.16982893461E+04  0.16982893461E+04  0.00000000000E+00 0.  1.
         21   -1    0    0  504  502 -0.00000000000E+00 -0.00000000000E+00 -0.11273439305E+04  0.11273439305E+04  0.00000000000E+00 0. -1.
         21    1    1    2  503  502 -0.16428503180E+03 -0.11263700982E+03 -0.10996590205E+04  0.11175538596E+04  0.00000000000E+00 0. -1.
         21    1    1    2  504  506  0.62656578512E+02  0.11539187332E+03  0.28015674578E+03  0.30940092673E+03  0.00000000000E+00 0.  1.
         21    1    1    2  505  503  0.63380456021E+02 -0.34218725476E+02  0.36519670434E+03  0.37223196563E+03  0.00000000000E+00 0.  1.
         21    1    1    2  506  501  0.38247997271E+02  0.31463861983E+02  0.10252509859E+04  0.10264465247E+04  0.00000000000E+00 0.  1.
<scales pt_clust_3="14000.00000" pt_clust_4="196.77456" pt_clust_5="86.04206" pt_clust_6="49.52660"></scales>
<clustering>
<clus scale="   49.527">  1  6  2 -1</clus>
<clus scale="   86.042">  1  5  2 -1</clus>
<clus scale="  196.775">  1  4  2 -1</clus>
<clus scale="   49.527">  1  3  2 -1</clus>
</clustering>
</event>
<event>
 6    0  0.8991567E+002  0.1117139E+03  0.7546771E-02  0.1257429E+00
         21   -1    0    0  504  501  0.00000000000E+00  0.00000000000E+00  0.40980745095E+03  0.40980745095E+03  0.00000000000E+00 0. -1.
         21   -1    0    0  503  502 -0.00000000000E+00 -0.00000000000E+00 -0.22330713383E+04  0.22330713383E+04  0.00000000000E+00 0. -1.
         21    1    1    2  503  506  0.34581723790E+02 -0.13386793499E+02 -0.20160033605E+04  0.20163443782E+04  0.00000000000E+00 0. -1.
         21    1    1    2  504  505 -0.43515189448E+02  0.53384812971E+02  0.12967309518E+03  0.14682854485E+03  0.00000000000E+00 0. -1.
         21    1    1    2  505  502 -0.69709195076E+02 -0.79403755240E+02  0.25092999587E+03  0.27226860093E+03  0.00000000000E+00 0. -1.
         21    1    1    2  506  501  0.78642660735E+02  0.39405735768E+02 -0.18786361787E+03  0.20743726526E+03  0.00000000000E+00 0. -1.
<scales pt_clust_3="37.08237" pt_clust_4="67.60260" pt_clust_5="111.71386" pt_clust_6="14000.00000"></scales>
<clustering>
<clus scale="   37.082">  2  3  1 -1</clus>
<clus scale="   67.603">  1  4  2 -1</clus>
<clus scale="  111.714">  1  5  2 -1</clus>
<clus scale="   67.603">  1  3  2 -1</clus>
</clustering>
</event>
<event>
 6    0  0.8991567E+002  0.1023961E+03  0.7546771E-02  0.1275336E+00
         21   -1    0    0  503  501  0.00000000000E+00  0.00000000000E+00  0.12312158738E+04  0.12312158738E+04  0.00000000000E+00 0.  1.
         21   -1    0    0  505  502 -0.00000000000E+00 -0.00000000000E+00 -0.36742629797E+02  0.36742629797E+02  0.00000000000E+00 0. -1.
         21    1    1    2  503  506 -0.80298373006E+02  0.10189289517E+03  0.34093222893E+03  0.36478044837E+03  0.00000000000E+00 0.  1.
         21    1    1    2  504  501 -0.17332240471E+02 -0.25869998029E+02  0.46447308319E+03  0.46551574449E+03  0.00000000000E+00 0.  1.
         21    1    1    2  505  504  0.65989711476E+02  0.13937171479E+02  0.29892197180E+03  0.30643634248E+03  0.00000000000E+00 0. -1.
         21    1    1    2  506  502  0.31640902001E+02 -0.89960068616E+02  0.90145960084E+02  0.13122596825E+03  0.00000000000E+00 0. -1.
<scales pt_clust_3="102.39615" pt_clust_4="31.13942" pt_clust_5="59.25972" pt_clust_6="14000.00000"></scales>
<clustering>
<clus scale="   31.139">  1  4  2 -1</clus>
<clus scale="   59.260">  1  5  2 -1</clus>
<clus scale="  102.396">  1  3  2 -1</clus>
<clus scale="   31.139">  1  3  2 -1</clus>
</clustering>
</event>
<event>
 6    0  0.8991567E+002  0.7478599E+02  0.7546771E-02  0.1344535E+00
         21   -1    0    0  505  501  0.00000000000E+00  0.00000000000E+00  0.13212315932E+04  0.13212315932E+04  0.00000000000E+00 0. -1.
         21   -1    0    0  504  502 -0.00000000000E+00 -0.00000000000E+00 -0.97375241027E+03  0.97375241027E+03  0.00000000000E+00 0.  1.
         21    1    1    2  503  501  0.12567702516E+02  0.36826520587E+02  0.12685816081E+04  0.12691782523E+04  0.00000000000E+00 0. -1.
         21    1    1    2  504  506 -0.63119002736E+02 -0.44223490018E+02 -0.86000842624E+03  0.86345481572E+03  0.00000000000E+00 0.  1.
         21    1    1    2  505  502 -0.12618778553E+02  0.57779797207E+02 -0.55905767024E+02  0.81383003902E+02  0.00000000000E+00 0. -1.
         21    1    1    2  506  503  0.63170078774E+02 -0.50382827777E+02 -0.51882318991E+01  0.80967931537E+02  0.00000000000E+00 0. -1.
<scales pt_clust_3="38.91195" pt_clust_4="74.78599" pt_clust_5="67.42203" pt_clust_6="14000.00000"></scales>
<clustering>
<clus scale="   38.912">  1  3  2 -1</clus>
<clus scale="   67.422">  1  5  2 -1</clus>
<clus scale="   74.786">  2  4  1 -1</clus>
<clus scale="   38.912">  1  3  2 -1</clus>
</clustering>
</event>
<event>
 6    0  0.8991567E+002  0.2307269E+03  0.7546771E-02  0.1126129E+00
         21   -1    0    0  503  501  0.00000000000E+00  0.00000000000E+00  0.70225488957E+03  0.70225488957E+03  0.00000000000E+00 0.  1.
         21   -1    0    0  504  502 -0.00000000000E+00 -0.00000000000E+00 -0.91974138703E+03  0.91974138703E+03  0.00000000000E+00 0.  1.
         21    1    1    2  503  505 -0.15099656967E+02  0.30047996372E+02  0.52276239407E+03  0.52384291766E+03  0.00000000000E+00 0.  1.
         21    1    1    2  504  506  0.47240151457E+02  0.11520814558E+02 -0.53448625006E+03  0.53669349967E+03  0.00000000000E+00 0.  1.
         21    1    1    2  505  502  0.94093735365E+02 -0.23410327858E+03  0.56605886047E+00  0.25230595811E+03  0.00000000000E+00 0.  1.
         21    1    1    2  506  501 -0.12623422986E+03  0.19253446765E+03 -0.20632870033E+03  0.30915390115E+03  0.00000000000E+00 0.  1.
<scales pt_clust_3="33.62858" pt_clust_4="48.57855" pt_clust_5="230.72693" pt_clust_6="14000.00000"></scales>
<clustering>
<clus scale="   33.629">  1  3  2 -1</clus>
<clus scale="   48.579">  2  4  1 -1</clus>
<clus scale="  230.727">  1  5  2 -1</clus>
<clus scale="   33.629">  1  3  2 -1</clus>
</clustering>
</event>
<event>
 6    0  0.8991567E+002  0.1686662E+03  0.7546771E-02  0.1179246E+00
         21   -1    0    0  502  501  0.00000000000E+00  0.00000000000E+00  0.99053793333E+03  0.99053793333E+03  0.00000000000E+00 0.  1.
         21   -1    0    0  506  502 -0.00000000000E+00 -0.00000000000E+00 -0.27662420494E+03  0.27662420494E+03  0.00000000000E+00 0.  1.
         21    1    1    2  503  501  0.47431841782E+02 -0.81579750704E+02  0.69014973700E+03  0.69657138530E+03  0.00000000000E+00 0.  1.
         21    1    1    2  504  503 -0.20455841782E+03  0.56618528824E+02  0.19511798382E+03  0.28830683606E+03  0.00000000000E+00 0.  1.
         21    1    1    2  505  504  0.17791536473E+03 -0.46935140905E+01 -0.16987903229E+03  0.24603819154E+03  0.00000000000E+00 0.  1.
         21    1    1    2  506  505 -0.20788788693E+02  0.29654735970E+02 -0.14749601451E+01  0.36245725378E+02  0.00000000000E+00 0.  1.
<scales pt_clust_3="93.91700" pt_clust_4="14000.00000" pt_clust_5="168.66621" pt_clust_6="36.21570"></scales>
<clustering>
<clus scale="   36.216">  2  6  1 -1</clus>
<clus scale="   93.917">  1  3  2 -1</clus>
<clus scale="  168.666">  2  5  1 -1</clus>
<clus scale="   93.917">  1  3  2 -1</clus>
</clustering>
</event>
<event>
 6    0  0.8991567E+002  0.1017600E+03  0.7546771E-02  0.1276638E+00
         21   -1    0    0  505  501  0.00000000000E+00  0.00000000000E+00  0.68067684666E+03  0.68067684666E+03  0.00000000000E+00 0. -1.
         21   -1    0    0  503  502 -0.00000000000E+00 -0.00000000000E+00 -0.93248564289E+02  0.93248564289E+02  0.00000000000E+00 0.  1.
         21    1    1    2  503  506 -0.21872880643E+02  0.57368004420E+02  0.41129546648E+02  0.73899597064E+02  0.00000000000E+00 0. -1.
         21    1    1    2  504  502  0.12326942056E+03 -0.40375863263E+02 -0.22680858347E+01  0.12973320543E+03  0.00000000000E+00 0.  1.
         21    1    1    2  505  504 -0.15164497344E+02 -0.40599852241E+02  0.62404488026E+02  0.75977826420E+02  0.00000000000E+00 0. -1.
         21    1    1    2  506  501 -0.86232042570E+02  0.23607711084E+02  0.48616233354E+03  0.49431478203E+03  0.00000000000E+00 0. -1.
<scales pt_clust_3="58.39846" pt_clust_4="101.76004" pt_clust_5="43.33947" pt_clust_6="14000.00000"></scales>
<clustering>
<clus scale="   43.339">  1  5  2 -1</clus>
<clus scale="   58.398">  2  3  1 -1</clus>
<clus scale="  101.760">  2  4  1 -1</clus>
<clus scale="   43.339">  1  3  2 -1</clus>
</clustering>
</event>
<event>
 6    0  0.8991567E+002  0.9170210E+02  0.7546771E-02  0.1298781E+00
         21   -1    0    0  504  501  0.00000000000E+00  0.00000000000E+00  0.19057892612E+03  0.19057892612E+03  0.00000000000E+00 0.  1.
         21   -1    0    0  505  502 -0.00000000000E+00 -0.00000000000E+00 -0.15222016568E+03  0.15222016568E+03  0.00000000000E+00 0.  1.
         21    1    1    2  503  502  0.20134755383E+02  0.22944179837E+02 -0.35345880776E+01  0.30730067940E+02  0.00000000000E+00 0.  1.
         21    1    1    2  504  506 -0.29178002829E+01 -0.33471955202E+02  0.38713558214E+02  0.51260364153E+02  0.00000000000E+00 0.  1.
         21    1    1    2  505  501 -0.17074888613E+02 -0.10173515989E+03 -0.71909438840E+02  0.12574800982E+03  0.00000000000E+00 0.  1.
         21    1    1    2  506  503 -0.14206648695E+00  0.11226293525E+03  0.75089229150E+02  0.13506064989E+03  0.00000000000E+00 0.  1.
<scales pt_clust_3="30.52612" pt_clust_4="32.46704" pt_clust_5="91.70210" pt_clust_6="14000.00000"></scales>
<clustering>
<clus scale="   30.526">  2  3  1 -1</clus>
<clus scale="   32.467">  1  4  2 -1</clus>
<clus scale="   91.702">  2  5  1 -1</clus>
<clus scale="   32.467">  1  3  2 -1</clus>
</clustering>
</event>
<event>
 6    0  0.8991567E+002  0.1096639E+03  0.7546771E-02  0.1261193E+00
         21   -1    0    0  505  501  0.00000000000E+00  0.00000000000E+00  0.10378786230E+04  0.10378786230E+04  0.00000000000E+00 0.  1.
         21   -1    0    0  501  502 -0.00000000000E+00 -0.00000000000E+00 -0.51087888916E+02  0.51087888916E+02  0.00000000000E+00 0. -1.
         21    1    1    2  503  506 -0.10858311815E+03  0.12809533530E+02  0.58907966009E+03  0.59914040393E+03  0.00000000000E+00 0.  1.
         21    1    1    2  504  502  0.43197295725E+02  0.90263579126E+02  0.97174646430E+02  0.13948631468E+03  0.00000000000E+00 0. -1.
         21    1    1    2  505  503 -0.19526458865E+02 -0.61770879017E+02  0.20907527599E+03  0.21888214893E+03  0.00000000000E+00 0. -1.
         21    1    1    2  506  504  0.84912281285E+02 -0.41302233639E+02  0.91461151586E+02  0.13145764438E+03  0.00000000000E+00 0. -1.
<scales pt_clust_3="14000.00000" pt_clust_4="90.86377" pt_clust_5="64.78367" pt_clust_6="109.66394"></scales>
<clustering>
<clus scale="   64.784">  1  5  2 -1</clus>
<clus scale="   90.864">  2  4  1 -1</clus>
<clus scale="  109.664">  2  6  1 -1</clus>
<clus scale="   64.784">  1  3  2 -1</clus>
</clustering>
</event>
<event>
 6    0  0.8991567E+002  0.1076184E+03  0.7546771E-02  0.1265045E+00
         21   -1    0    0  506  501  0.00000000000E+00  0.00000000000E+00  0.62504672277E+03  0.62504672277E+03  0.00000000000E+00 0. -1.
         21   -1    0    0  505  502 -0.00000000000E+00 -0.00000000000E+00 -0.86125281543E+03  0.86125281543E+03  0.00000000000E+00 0. -1.
         21    1    1    2  503  501  0.35910628407E+02  0.78850452483E+01  0.59544282632E+02  0.69980488461E+02  0.00000000000E+00 0. -1.
         21    1    1    2  504  503  0.47188510175E+02 -0.94983829397E+02 -0.59502384258E+03  0.60440223078E+03  0.00000000000E+00 0. -1.
         21    1    1    2  505  504 -0.51947937175E+02 -0.12920167246E+02 -0.24850814645E+03  0.25420821732E+03  0.00000000000E+00 0. -1.
         21    1    1    2  506  502 -0.31151201407E+02  0.10001895140E+03  0.54778161374E+03  0.55770860163E+03  0.00000000000E+00 0. -1.
<scales pt_clust_3="36.76611" pt_clust_4="107.61840" pt_clust_5="53.34359" pt_clust_6="14000.00000"></scales>
<clustering>
<clus scale="   36.766">  1  3  2 -1</clus>
<clus scale="   53.344">  2  5  1 -1</clus>
<clus scale="  107.618">  2  4  1 -1</clus>
<clus scale="   36.766">  1  3  2 -1</clus>
</clustering>
</event>
<event>
 6    0  0.1933648E+003  0.9520551E+02  0.7546771E-02  0.1290714E+00
         21   -1    0    0  503  501  0.00000000000E+00  0.00000000000E+00  0.41122556720E+03  0.41122556720E+03  0.00000000000E+00 0.  1.
         21   -1    0    0  505  502 -0.00000000000E+00 -0.00000000000E+00 -0.17304596817E+04  0.17304596817E+04  0.00000000000E+00 0. -1.
         21    1    1    2  503  504  0.74385857016E+02 -0.59905592136E+02  0.39751283168E+03  0.40882561936E+03  0.00000000000E+00 0.  1.
         21    1    1    2  504  506 -0.52387443901E+02  0.60808804545E+02 -0.29759252691E+03  0.30822632441E+03  0.00000000000E+00 0. -1.
         21    1    1    2  505  501 -0.36693928883E+02 -0.43488766588E+02 -0.35547059796E+03  0.35999592115E+03  0.00000000000E+00 0.  1.
         21    1    1    2  506  502  0.14695515767E+02  0.42585554179E+02 -0.10636838214E+04  0.10646373840E+04  0.00000000000E+00 0. -1.
<scales pt_clust_3="14000.00000" pt_clust_4="95.20551" pt_clust_5="35.42667" pt_clust_6="45.04983"></scales>
<clustering>
<clus scale="   45.050">  2  6  1 -1</clus>
<clus scale="   35.427">  2  5  1 -1</clus>
<clus scale="   95.206">  2  4  1 -1</clus>
<clus scale="   95.206">  1  3  2 -1</clus>
</clustering>
</event>
<event>
 6    0  0.8991567E+002  0.1249699E+03  0.7546771E-02  0.1235116E+00
         21   -1    0    0  504  501  0.00000000000E+00  0.00000000000E+00  0.52799646188E+02  0.52799646188E+02  0.00000000000E+00 0.  1.
         21   -1    0    0  505  502 -0.00000000000E+00 -0.00000000000E+00 -0.16599232748E+04  0.16599232748E+04  0.00000000000E+00 0.  1.
         21    1    1    2  503  502 -0.10033485841E+03 -0.93330997895E+02 -0.13092169465E+04  0.13163687827E+04  0.00000000000E+00 0.  1.
         21    1    1    2  504  506  0.43390494266E+02  0.22656122298E+02  0.13906129354E+02  0.50886297801E+02  0.00000000000E+00 0.  1.
         21    1    1    2  505  501  0.24498062427E+02 -0.27334787120E+02 -0.37976896990E+02  0.52816572726E+02  0.00000000000E+00 0. -1.
         21    1    1    2  506  503  0.32446301718E+02  0.98009662717E+02 -0.27383591440E+03  0.29265126771E+03  0.00000000000E+00 0.  1.
<scales pt_clust_3="14000.00000" pt_clust_4="60.96046" pt_clust_5="36.70621" pt_clust_6="124.96994"></scales>
<clustering>
<clus scale="   36.706">  1  5  2 -1</clus>
<clus scale="   60.960">  1  4  2 -1</clus>
<clus scale="  124.970">  1  6  2 -1</clus>
<clus scale="   36.706">  1  3  2 -1</clus>
</clustering>
</event>
<event>
 6    0  0.8991567E+002  0.1342308E+03  0.7546771E-02  0.1221310E+00
         21   -1    0    0  503  501  0.00000000000E+00  0.00000000000E+00  0.17480852501E+03  0.17480852501E+03  0.00000000000E+00 0.  1.
         21   -1    0    0  501  502 -0.00000000000E+00 -0.00000000000E+00 -0.46608986464E+03  0.46608986464E+03  0.00000000000E+00 0.  1.
         21    1    1    2  503  505  0.10057992997E+03  0.64292438016E+02  0.12654733113E+03  0.17396570615E+03  0.00000000000E+00 0.  1.
         21    1    1    2  504  502  0.33153659146E+02 -0.10884712584E+01 -0.16672025126E+03  0.16998821155E+03  0.00000000000E+00 0.  1.
         21    1    1    2  505  506 -0.33699804439E+02  0.13721474577E+01 -0.27130525111E+02  0.43285390153E+02  0.00000000000E+00 0. -1.
         21    1    1    2  506  504 -0.10003378468E+03 -0.64576114216E+02 -0.22397789438E+03  0.25365908180E+03  0.00000000000E+00 0.  1.
<scales pt_clust_3="121.55966" pt_clust_4="33.17152" pt_clust_5="30.30047" pt_clust_6="30.30047"></scales>
<clustering>
<clus scale="   30.300">  5  6 -1 -1</clus>
<clus scale="   33.172">  2  4  1 -1</clus>
<clus scale="  121.560">  1  3  2 -1</clus>
<clus scale="  121.560">  1  3  2 -1</clus>
</clustering>
</event>
<event>
 6    0  0.8991567E+002  0.2382561E+03  0.7546771E-02  0.1120960E+00
         21   -1    0    0  503  501  0.00000000000E+00  0.00000000000E+00  0.10431910812E+04  0.10431910812E+04  0.00000000000E+00 0. -1.
         21   -1    0    0  506  502 -0.00000000000E+00 -0.00000000000E+00 -0.67243464479E+03  0.67243464479E+03  0.00000000000E+00 0. -1.
         21    1    1    2  503  504  0.43629735485E+02  0.84609983192E+02  0.40981780558E+03  0.42072917280E+03  0.00000000000E+00 0. -1.
         21    1    1    2  504  505 -0.12755109872E+03  0.14258909107E+03  0.53890816785E+03  0.57185920038E+03  0.00000000000E+00 0. -1.
         21    1    1    2  505  502 -0.77512102126E+02  0.31966085007E+02 -0.18785615324E+02  0.85923546888E+02  0.00000000000E+00 0. -1.
         21    1    1    2  506  501  0.16143346536E+03 -0.25916515927E+03 -0.55918392166E+03  0.63711380597E+03  0.00000000000E+00 0. -1.
<scales pt_clust_3="95.13691" pt_clust_4="14000.00000" pt_clust_5="83.84484" pt_clust_6="238.25608"></scales>
<clustering>
<clus scale="   83.845">  2  5  1 -1</clus>
<clus scale="   95.137">  1  3  2 -1</clus>
<clus scale="  238.256">  2  6  1 -1</clus>
<clus scale="   95.137">  1  3  2 -1</clus>
</clustering>
</event>
<event>
 6    0  0.1890651E+003  0.9439658E+02  0.7546771E-02  0.1292541E+00
         21   -1    0    0  503  501  0.00000000000E+00  0.00000000000E+00  0.10068933788E+04  0.10068933788E+04  0.00000000000E+00 0. -1.
         21   -1    0    0  506  502 -0.00000000000E+00 -0.00000000000E+00 -0.27549228970E+04  0.27549228970E+04  0.00000000000E+00 0.  1.
         21    1    1    2  503  502 -0.25187977769E+02 -0.22733992926E+02 -0.71549701949E+02  0.79187300165E+02  0.00000000000E+00 0. -1.
         21    1    1    2  504  505 -0.20408487225E+02 -0.57089194550E+02 -0.15082966856E+04  0.15095146817E+04  0.00000000000E+00 0.  1.
         21    1    1    2  505  501  0.89741531756E+02  0.29548426388E+02  0.99927950279E+03  0.10037361091E+04  0.00000000000E+00 0. -1.
         21    1    1    2  506  504 -0.44145066763E+02  0.50274761088E+02 -0.11674626335E+04  0.11693781848E+04  0.00000000000E+00 0.  1.
<scales pt_clust_3="33.93035" pt_clust_4="14000.00000" pt_clust_5="94.39658" pt_clust_6="68.32413"></scales>
<clustering>
<clus scale="   33.930">  2  3  1 -1</clus>
<clus scale="   68.324">  2  6  1 -1</clus>
<clus scale="   94.397">  1  5  2 -1</clus>
<clus scale="   94.397">  1  3  2 -1</clus>
</clustering>
</event>
<event>
 6    0  0.8991567E+002  0.5761261E+02  0.7546771E-02  0.1408133E+00
         21   -1    0    0  503  501  0.00000000000E+00  0.00000000000E+00  0.25156144593E+04  0.25156144593E+04  0.00000000000E+00 0. -1.
         21   -1    0    0  506  502 -0.00000000000E+00 -0.00000000000E+00 -0.15891541701E+03  0.15891541701E+03  0.00000000000E+00 0.  1.
         21    1    1    2  503  505  0.77648828471E+02 -0.38013440694E+02  0.15889116595E+04  0.15912619595E+04  0.00000000000E+00 0. -1.
         21    1    1    2  504  501 -0.51493424372E+02 -0.63796694962E+01  0.89489522084E+03  0.89639819792E+03  0.00000000000E+00 0. -1.
         21    1    1    2  505  502  0.24217246031E+02  0.60923300624E+02 -0.11517624699E+03  0.13252807791E+03  0.00000000000E+00 0.  1.
         21    1    1    2  506  504 -0.50372650130E+02 -0.16530190434E+02 -0.11931591040E+02  0.54341640955E+02  0.00000000000E+00 0. -1.
<scales pt_clust_3="51.91346" pt_clust_4="51.88712" pt_clust_5="14000.00000" pt_clust_6="57.61261"></scales>
<clustering>
<clus scale="   51.887">  1  4  2 -1</clus>
<clus scale="   51.913">  1  3  2 -1</clus>
<clus scale="   57.613">  1  6  2 -1</clus>
<clus scale="   51.887">  1  3  2 -1</clus>
</clustering>
</event>
<event>
 6    0  0.8991567E+002  0.1882801E+03  0.7546771E-02  0.1160022E+00
         21   -1    0    0  506  501  0.00000000000E+00  0.00000000000E+00  0.65024770035E+03  0.65024770035E+03  0.00000000000E+00 0. -1.
         21   -1    0    0  503  502 -0.00000000000E+00 -0.00000000000E+00 -0.99891078643E+03  0.99891078643E+03  0.00000000000E+00 0. -1.
         21    1    1    2  503  504  0.13949873059E+03  0.85082165264E+01 -0.67183662572E+03  0.68621916123E+03  0.00000000000E+00 0. -1.
         21    1    1    2  504  505  0.26637870637E+02  0.38408420802E+02 -0.29140097943E+03  0.29512592864E+03  0.00000000000E+00 0. -1.
         21    1    1    2  505  501 -0.19691083224E+03 -0.54791463781E+02  0.38350961418E+03  0.43457520008E+03  0.00000000000E+00 0. -1.
         21    1    1    2  506  502  0.30774231009E+02  0.78748264527E+01  0.23106490490E+03  0.23323819683E+03  0.00000000000E+00 0. -1.
<scales pt_clust_3="42.49964" pt_clust_4="42.49964" pt_clust_5="173.32179" pt_clust_6="31.76580"></scales>
<clustering>
<clus scale="   31.766">  1  6  2 -1</clus>
<clus scale="   42.500">  3  4 -1 -1</clus>
<clus scale="  173.322">  1  5  2 -1</clus>
<clus scale="   31.766">  1  3  2 -1</clus>
</clustering>
</event>
<event>
 6    0  0.8991567E+002  0.8636886E+02  0.7546771E-02  0.1311891E+00
         21   -1    0    0  506  501  0.00000000000E+00  0.00000000000E+00  0.12093092371E+04  0.12093092371E+04  0.00000000000E+00 0.  1.
         21   -1    0    0  505  502 -0.00000000000E+00 -0.00000000000E+00 -0.31228002688E+02  0.31228002688E+02  0.00000000000E+00 0. -1.
         21    1    1    2  503  501 -0.46718689511E+02 -0.73558764815E+00  0.78694960965E+03  0.78833550292E+03  0.00000000000E+00 0.  1.
         21    1    1    2  504  503 -0.44954301854E+02 -0.40204759600E+02  0.20354958219E+03  0.21229635974E+03  0.00000000000E+00 0. -1.
         21    1    1    2  505  504  0.27523159320E+01 -0.33301989828E+02  0.48571557361E+02  0.58955864458E+02  0.00000000000E+00 0. -1.
         21    1    1    2  506  502  0.88920675434E+02  0.74242337076E+02  0.13901048519E+03  0.18094951265E+03  0.00000000000E+00 0. -1.
<scales pt_clust_3="46.67363" pt_clust_4="14000.00000" pt_clust_5="33.41553" pt_clust_6="86.36886"></scales>
<clustering>
<clus scale="   33.416">  2  5  1 -1</clus>
<clus scale="   46.674">  1  3  2 -1</clus>
<clus scale="   86.369">  2  6  1 -1</clus>
<clus scale="   46.674">  1  3  2 -1</clus>
</clustering>
</event>
<event>
 6    0  0.8991567E+002  0.1300959E+03  0.7546771E-02  0.1227313E+00
         21   -1    0    0  505  501  0.00000000000E+00  0.00000000000E+00  0.58195782540E+03  0.58195782540E+03  0.00000000000E+00 0.  1.
         21   -1    0    0  503  502 -0.00000000000E+00 -0.00000000000E+00 -0.13684961926E+03  0.13684961926E+03  0.00000000000E+00 0. -1.
         21    1    1    2  503  506 -0.88435487953E+01  0.32812717000E+02  0.67814973998E+01  0.34653592298E+02  0.00000000000E+00 0.  1.
         21    1    1    2  504  501 -0.87772948609E+02  0.80761267472E+02  0.29485113149E+03  0.31806235643E+03  0.00000000000E+00 0.  1.
         21    1    1    2  505  502  0.27485491595E+02  0.33272735102E+02 -0.79405704859E+02  0.90375843639E+02  0.00000000000E+00 0. -1.
         21    1    1    2  506  504  0.69131005810E+02 -0.14684671957E+03  0.22288128210E+03  0.27571565230E+03  0.00000000000E+00 0. -1.
<scales pt_clust_3="33.98357" pt_clust_4="14000.00000" pt_clust_5="59.88093" pt_clust_6="130.09592"></scales>
<clustering>
<clus scale="   33.984">  2  3  1 -1</clus>
<clus scale="   59.881">  2  5  1 -1</clus>
<clus scale="  130.096">  2  6  1 -1</clus>
<clus scale="  130.096">  1  3  2 -1</clus>
</clustering>
</event>
<event>
 6    0  0.8991567E+002  0.9007884E+02  0.7546771E-02  0.1302661E+00
         21   -1    0    0  503  501  0.00000000000E+00  0.00000000000E+00  0.24574879920E+04  0.24574879920E+04  0.00000000000E+00 0. -1.
         21   -1    0    0  505  502 -0.00000000000E+00 -0.00000000000E+00 -0.87654736940E+01  0.87654736940E+01  0.00000000000E+00 0. -1.
         21    1    1    2  503  504  0.15463884371E+02  0.38430877721E+02  0.92269390725E+03  0.92362335969E+03  0.00000000000E+00 0. -1.
         21    1    1    2  504  502  0.32981077608E+02  0.68743383182E+02  0.52277658867E+03  0.52830745392E+03  0.00000000000E+00 0. -1.
         21    1    1    2  505  506  0.26206171509E+02 -0.21861944491E+02  0.16972607299E+03  0.17312321593E+03  0.00000000000E+00 0. -1.
         21    1    1    2  506  501 -0.74651133488E+02 -0.85312316411E+02  0.83352594939E+03  0.84119943614E+03  0.00000000000E+00 0. -1.
<scales pt_clust_3="40.79092" pt_clust_4="14000.00000" pt_clust_5="34.12782" pt_clust_6="90.07884"></scales>
<clustering>
<clus scale="   34.128">  2  5  1 -1</clus>
<clus scale="   40.791">  1  3  2 -1</clus>
<clus scale="   90.079">  1  6  2 -1</clus>
<clus scale="   40.791">  1  3  2 -1</clus>
</clustering>
</event>
<event>
 6    0  0.8991567E+002  0.6151470E+02  0.7546771E-02  0.1391583E+00
         21   -1    0    0  504  501  0.00000000000E+00  0.00000000000E+00  0.19357909798E+04  0.19357909798E+04  0.00000000000E+00 0.  1.
         21   -1    0    0  505  502 -0.00000000000E+00 -0.00000000000E+00 -0.15701878690E+02  0.15701878690E+02  0.00000000000E+00 0.  1.
         21    1    1    2  503  501  0.37638962535E+02  0.41976538232E+02  0.15118581592E+03  0.16135635159E+03  0.00000000000E+00 0.  1.
         21    1    1    2  504  506  0.26971659399E+02 -0.51772233659E+02  0.11362332983E+04  0.11377319292E+04  0.00000000000E+00 0.  1.
         21    1    1    2  505  503  0.25642797839E+02 -0.44730668349E+02  0.26215573288E+03  0.26717786970E+03  0.00000000000E+00 0.  1.
         21    1    1    2  506  502 -0.90253419773E+02  0.54526363776E+02  0.37051425406E+03  0.38522670804E+03  0.00000000000E+00 0.  1.
<scales pt_clust_3="53.57493" pt_clust_4="14000.00000" pt_clust_5="51.55954" pt_clust_6="61.51470"></scales>
<clustering>
<clus scale="   51.560">  2  5  1 -1</clus>
<clus scale="   53.575">  2  3  1 -1</clus>
<clus scale="   61.515">  2  6  1 -1</clus>
<clus scale="   61.515">  1  3  2 -1</clus>
</clustering>
</event>
<event>
 6    0  0.8991567E+002  0.1915872E+03  0.7546771E-02  0.1157038E+00
         21   -1    0    0  506  501  0.00000000000E+00  0.00000000000E+00  0.17859261826E+03  0.17859261826E+03  0.00000000000E+00 0.  1.
         21   -1    0    0  504  502 -0.00000000000E+00 -0.00000000000E+00 -0.15572703905E+04  0.15572703905E+04  0.00000000000E+00 0.  1.
         21    1    1    2  503  502 -0.33930940231E+02  0.14460821938E+02 -0.61463939989E+03  0.61574509009E+03  0.00000000000E+00 0.  1.
         21    1    1    2  504  501 -0.13836554244E+02  0.17816433944E+03  0.46044821089E+02  0.18453755074E+03  0.00000000000E+00 0.  1.
         21    1    1    2  505  503  0.10386256758E+02 -0.20521908871E+03 -0.85293502718E+03  0.87733739763E+03  0.00000000000E+00 0.  1.
         21    1    1    2  506  505  0.37381237716E+02  0.12593927326E+02  0.42851833716E+02  0.58242970318E+02  0.00000000000E+00 0.  1.
<scales pt_clust_3="36.88393" pt_clust_4="191.58721" pt_clust_5="14000.00000" pt_clust_6="39.22127"></scales>
<clustering>
<clus scale="   36.884">  2  3  1 -1</clus>
<clus scale="   39.221">  1  6  2 -1</clus>
<clus scale="  191.587">  1  4  2 -1</clus>
<clus scale="   39.221">  1  3  2 -1</clus>
</clustering>
</event>
<event>
 6    0  0.8991567E+002  0.8878144E+02  0.7546771E-02  0.1305830E+00
         21   -1    0    0  504  501  0.00000000000E+00  0.00000000000E+00  0.22808073843E+04  0.22808073843E+04  0.00000000000E+00 0. -1.
         21   -1    0    0  505  502 -0.00000000000E+00 -0.00000000000E+00 -0.17167870614E+03  0.17167870614E+03  0.00000000000E+00 0.  1.
         21    1    1    2  503  502  0.11729909896E+03  0.94417930961E+02 -0.75291048193E+02  0.16835250590E+03  0.00000000000E+00 0.  1.
         21    1    1    2  504  503 -0.51961457851E+01  0.31881645837E+02  0.44842854418E+03  0.44959047867E+03  0.00000000000E+00 0. -1.
         21    1    1    2  505  506 -0.51380035307E+02 -0.37277754993E+02 -0.26480300306E+02  0.68780413998E+02  0.00000000000E+00 0.  1.
         21    1    1    2  506  501 -0.60722917866E+02 -0.89021821804E+02  0.17624714824E+04  0.17657626918E+04  0.00000000000E+00 0. -1.
<scales pt_clust_3="88.78144" pt_clust_4="32.30231" pt_clust_5="63.31192" pt_clust_6="14000.00000"></scales>
<clustering>
<clus scale="   32.302">  1  4  2 -1</clus>
<clus scale="   63.312">  2  5  1 -1</clus>
<clus scale="   88.781">  2  3  1 -1</clus>
<clus scale="   32.302">  1  3  2 -1</clus>
</clustering>
</event>
<event>
 6    0  0.8991567E+002  0.7215639E+02  0.7546771E-02  0.1352910E+00
         21   -1    0    0  502  501  0.00000000000E+00  0.00000000000E+00  0.10790228616E+04  0.10790228616E+04  0.00000000000E+00 0.  1.
         21   -1    0    0  506  502 -0.00000000000E+00 -0.00000000000E+00 -0.19865236923E+03  0.19865236923E+03  0.00000000000E+00 0.  1.
         21    1    1    2  503  501 -0.33649832130E+02 -0.35806627488E+01  0.88863920836E+03  0.88928329287E+03  0.00000000000E+00 0.  1.
         21    1    1    2  504  503  0.15708050387E+02  0.71692363692E+02  0.13693657249E+03  0.15536461227E+03  0.00000000000E+00 0.  1.
         21    1    1    2  505  504 -0.38657598177E+02 -0.10658266991E+03 -0.82594175718E+02  0.14027142718E+03  0.00000000000E+00 0.  1.
         21    1    1    2  506  505  0.56599379921E+02  0.38470968965E+02 -0.62611112787E+02  0.92755898491E+02  0.00000000000E+00 0.  1.
<scales pt_clust_3="33.83980" pt_clust_4="72.15639" pt_clust_5="14000.00000" pt_clust_6="66.08166"></scales>
<clustering>
<clus scale="   33.840">  1  3  2 -1</clus>
<clus scale="   66.082">  2  6  1 -1</clus>
<clus scale="   72.156">  1  4  2 -1</clus>
<clus scale="   33.840">  1  3  2 -1</clus>
</clustering>
</event>
<event>
 6    0  0.8991567E+002  0.1079616E+03  0.7546771E-02  0.1264392E+00
         21   -1    0    0  506  501  0.00000000000E+00  0.00000000000E+00  0.76340080234E+03  0.76340080234E+03  0.00000000000E+00 0.  1.
         21   -1    0    0  504  502 -0.00000000000E+00 -0.00000000000E+00 -0.11990969317E+03  0.11990969317E+03  0.00000000000E+00 0. -1.
         21    1    1    2  503  502 -0.13063139046E+01  0.34229545491E+02 -0.92023940561E+02  0.98192534731E+02  0.00000000000E+00 0. -1.
         21    1    1    2  504  501  0.10651561641E+03  0.34668774663E+02  0.29626755796E+03  0.31673643046E+03  0.00000000000E+00 0.  1.
         21    1    1    2  505  503 -0.10183344988E+03 -0.35953325254E+02  0.20406953817E+03  0.23088323785E+03  0.00000000000E+00 0.  1.
         21    1    1    2  506  505 -0.33758526274E+01 -0.32944994900E+02  0.23517795359E+03  0.23749829247E+03  0.00000000000E+00 0.  1.
<scales pt_clust_3="34.06258" pt_clust_4="107.96164" pt_clust_5="14000.00000" pt_clust_6="33.11750"></scales>
<clustering>
<clus scale="   33.118">  1  6  2 -1</clus>
<clus scale="   34.063">  2  3  1 -1</clus>
<clus scale="  107.962">  1  4  2 -1</clus>
<clus scale="   33.118">  1  3  2 -1</clus>
</clustering>
</event>
<event>
 6    0  0.8991567E+002  0.7236441E+02  0.7546771E-02  0.1352232E+00
         21   -1    0    0  504  501  0.00000000000E+00  0.00000000000E+00  0.10001659765E+03  0.10001659765E+03  0.00000000000E+00 0.  1.
         21   -1    0    0  506  502 -0.00000000000E+00 -0.00000000000E+00 -0.16123593412E+04  0.16123593412E+04  0.00000000000E+00 0.  1.
         21    1    1    2  503  501  0.28383109976E+02  0.15832569823E+02  0.77256498418E+02  0.83814305145E+02  0.00000000000E+00 0.  1.
         21    1    1    2  504  505 -0.75253701608E+02 -0.61522039813E+02 -0.27916399227E+03  0.29560212375E+03  0.00000000000E+00 0.  1.
         21    1    1    2  505  502  0.65834992748E+02 -0.23848375916E+02 -0.11937899484E+04  0.11958417254E+04  0.00000000000E+00 0.  1.
         21    1    1    2  506  503 -0.18964401116E+02  0.69537845907E+02 -0.11664530123E+03  0.13711778448E+03  0.00000000000E+00 0.  1.
<scales pt_clust_3="32.50033" pt_clust_4="72.36441" pt_clust_5="71.15445" pt_clust_6="14000.00000"></scales>
<clustering>
<clus scale="   32.500">  1  3  2 -1</clus>
<clus scale="   71.154">  2  5  1 -1</clus>
<clus scale="   72.364">  2  4  1 -1</clus>
<clus scale="   32.500">  1  3  2 -1</clus>
</clustering>
</event>
<event>
 6    0  0.8991567E+002  0.1011238E+03  0.7546771E-02  0.1277950E+00
         21   -1    0    0  504  501  0.00000000000E+00  0.00000000000E+00  0.74017743706E+03  0.74017743706E+03  0.00000000000E+00 0. -1.
         21   -1    0    0  506  502 -0.00000000000E+00 -0.00000000000E+00 -0.46723032811E+03  0.46723032811E+03  0.00000000000E+00 0.  1.
         21    1    1    2  503  501 -0.11711615116E+02  0.30686128504E+02  0.10547345482E+03  0.11046922686E+03  0.00000000000E+00 0.  1.
         21    1    1    2  504  505  0.63126874990E+01  0.70692698604E+02  0.59312177697E+03  0.59735312000E+03  0.00000000000E+00 0. -1.
         21    1    1    2  505  502  0.31091420926E+02 -0.12383579425E+03 -0.76643946169E+02  0.14891700667E+03  0.00000000000E+00 0.  1.
         21    1    1    2  506  503 -0.25692493309E+02  0.22456967139E+02 -0.34900417667E+03  0.35066841164E+03  0.00000000000E+00 0.  1.
<scales pt_clust_3="32.84510" pt_clust_4="14000.00000" pt_clust_5="101.12384" pt_clust_6="34.16179"></scales>
<clustering>
<clus scale="   32.845">  1  3  2 -1</clus>
<clus scale="   34.162">  2  6  1 -1</clus>
<clus scale="  101.124">  2  5  1 -1</clus>
<clus scale="   32.845">  1  3  2 -1</clus>
</clustering>
</event>
<event>
 6    0  0.8991567E+002  0.6986924E+02  0.7546771E-02  0.1360538E+00
         21   -1    0    0  505  501  0.00000000000E+00  0.00000000000E+00  0.62145393273E+02  0.62145393273E+02  0.00000000000E+00 0. -1.
         21   -1    0    0  506  502 -0.00000000000E+00 -0.00000000000E+00 -0.39852386049E+03  0.39852386049E+03  0.00000000000E+00 0. -1.
         21    1    1    2  503  502  0.27030878913E+02 -0.27214902780E+02 -0.12269507788E+03  0.12855116291E+03  0.00000000000E+00 0. -1.
         21    1    1    2  504  501 -0.55733072476E+02  0.25895654012E+02 -0.34356516956E+02  0.70406892572E+02  0.00000000000E+00 0. -1.
         21    1    1    2  505  503  0.97207488112E+02  0.18403917332E+02 -0.42367370581E+02  0.10762431885E+03  0.00000000000E+00 0. -1.
         21    1    1    2  506  504 -0.68505294549E+02 -0.17084668564E+02 -0.13695950180E+03  0.15408687943E+03  0.00000000000E+00 0. -1.
<scales pt_clust_3="38.35778" pt_clust_4="54.60851" pt_clust_5="14000.00000" pt_clust_6="69.86924"></scales>
<clustering>
<clus scale="   38.358">  2  3  1 -1</clus>
<clus scale="   54.609">  1  4  2 -1</clus>
<clus scale="   69.869">  2  6  1 -1</clus>
<clus scale="   54.609">  1  3  2 -1</clus>
</clustering>
</event>
<event>
 6    0  0.8991567E+002  0.7675858E+02  0.7546771E-02  0.1338510E+00
         21   -1    0    0  504  501  0.00000000000E+00  0.00000000000E+00  0.14331864999E+04  0.14331864999E+04  0.00000000000E+00 0. -1.
         21   -1    0    0  506  502 -0.00000000000E+00 -0.00000000000E+00 -0.35555965950E+03  0.35555965950E+03  0.00000000000E+00 0.  1.
         21    1    1    2  503  502 -0.19365237957E+02 -0.96644003463E+02 -0.33126143483E+03  0.34561425614E+03  0.00000000000E+00 0.  1.
         21    1    1    2  504  503 -0.36640404642E+02  0.16034420620E+02  0.13250613128E+03  0.13841060914E+03  0.00000000000E+00 0. -1.
         21    1    1    2  505  501  0.70070153572E+02  0.52757802177E+02  0.12698093592E+04  0.12728350329E+04  0.00000000000E+00 0. -1.
         21    1    1    2  506  505 -0.14064510973E+02  0.27851780667E+02  0.65727846874E+01  0.31886261207E+02  0.00000000000E+00 0.  1.
<scales pt_clust_3="76.75858" pt_clust_4="40.20270" pt_clust_5="14000.00000" pt_clust_6="31.20148"></scales>
<clustering>
<clus scale="   31.201">  2  6  1 -1</clus>
<clus scale="   40.203">  1  4  2 -1</clus>
<clus scale="   76.759">  2  3  1 -1</clus>
<clus scale="   40.203">  1  3  2 -1</clus>
</clustering>
</event>
<event>
 6    0  0.8991567E+002  0.8878504E+02  0.7546771E-02  0.1305821E+00
         21   -1    0    0  505  501  0.00000000000E+00  0.00000000000E+00  0.26624574685E+03  0.26624574685E+03  0.00000000000E+00 0.  1.
         21   -1    0    0  504  502 -0.00000000000E+00 -0.00000000000E+00 -0.48887169948E+03  0.48887169948E+03  0.00000000000E+00 0. -1.
         21    1    1    2  503  502 -0.30063994431E+02 -0.17812340159E+02 -0.29725868146E+03  0.29930560791E+03  0.00000000000E+00 0. -1.
         21    1    1    2  504  506  0.11431799475E+03  0.35882301127E+02 -0.14591553805E+03  0.18880542287E+03  0.00000000000E+00 0.  1.
         21    1    1    2  505  503 -0.14971566131E+02 -0.31466613176E+02 -0.62138543621E+00  0.34852283384E+02  0.00000000000E+00 0.  1.
         21    1    1    2  506  501 -0.69282434191E+02  0.13396652208E+02  0.22116965232E+03  0.23215413217E+03  0.00000000000E+00 0.  1.
<scales pt_clust_3="35.06347" pt_clust_4="88.78504" pt_clust_5="34.84674" pt_clust_6="14000.00000"></scales>
<clustering>
<clus scale="   34.847">  1  5  2 -1</clus>
<clus scale="   35.063">  2  3  1 -1</clus>
<clus scale="   88.785">  2  4  1 -1</clus>
<clus scale="   34.847">  1  3  2 -1</clus>
</clustering>
</event>
<event>
 6    0  0.8991567E+002  0.1022666E+03  0.7546771E-02  0.1275601E+00
         21   -1    0    0  505  501  0.00000000000E+00  0.00000000000E+00  0.50064746610E+03  0.50064746610E+03  0.00000000000E+00 0.  1.
         21   -1    0    0  503  502 -0.00000000000E+00 -0.00000000000E+00 -0.12278831495E+03  0.12278831495E+03  0.00000000000E+00 0.  1.
         21    1    1    2  503  501  0.35988223656E+02 -0.15108088546E+02  0.13607899797E+02  0.41334991452E+02  0.00000000000E+00 0.  1.
         21    1    1    2  504  506 -0.94109624285E+02  0.39472121190E+02  0.12065471487E+03  0.15802604202E+03  0.00000000000E+00 0.  1.
         21    1    1    2  505  504  0.16622251242E+02  0.45845001135E+02  0.31312735566E+03  0.31690188423E+03  0.00000000000E+00 0.  1.
         21    1    1    2  506  502  0.41499149387E+02 -0.70209033779E+02 -0.69530819175E+02  0.10717286335E+03  0.00000000000E+00 0.  1.
<scales pt_clust_3="39.03084" pt_clust_4="102.26659" pt_clust_5="48.73652" pt_clust_6="14000.00000"></scales>
<clustering>
<clus scale="   39.031">  2  3  1 -1</clus>
<clus scale="   48.737">  1  5  2 -1</clus>
<clus scale="  102.267">  1  4  2 -1</clus>
<clus scale="   48.737">  1  3  2 -1</clus>
</clustering>
</event>
<event>
 6    0  0.8991567E+002  0.7067611E+02  0.7546771E-02  0.1357809E+00
         21   -1    0    0  504  501  0.00000000000E+00  0.00000000000E+00  0.33176149012E+03  0.33176149012E+03  0.00000000000E+00 0. -1.
         21   -1    0    0  505  502 -0.00000000000E+00 -0.00000000000E+00 -0.10139716603E+04  0.10139716603E+04  0.00000000000E+00 0.  1.
         21    1    1    2  503  501 -0.13345676589E+02  0.34677121288E+02  0.26200530995E+03  0.26462689256E+03  0.00000000000E+00 0. -1.
         21    1    1    2  504  506  0.36487031125E+02 -0.97636833575E+02  0.15805004041E+02  0.10542320837E+03  0.00000000000E+00 0.  1.
         21    1    1    2  505  503 -0.66878516973E+02  0.26758388757E+02 -0.83811415956E+03  0.84120395378E+03  0.00000000000E+00 0.  1.
         21    1    1    2  506  502  0.43737162437E+02  0.36201323530E+02 -0.12190632462E+03  0.13447909572E+03  0.00000000000E+00 0.  1.
<scales pt_clust_3="37.15656" pt_clust_4="70.67611" pt_clust_5="14000.00000" pt_clust_6="57.95255"></scales>
<clustering>
<clus scale="   37.157">  1  3  2 -1</clus>
<clus scale="   57.953">  2  6  1 -1</clus>
<clus scale="   70.676">  1  4  2 -1</clus>
<clus scale="   37.157">  1  3  2 -1</clus>
</clustering>
</event>
<event>
 6    0  0.8991567E+002  0.8656942E+02  0.7546771E-02  0.1311379E+00
         21   -1    0    0  504  501  0.00000000000E+00  0.00000000000E+00  0.70521176264E+03  0.70521176264E+03  0.00000000000E+00 0. -1.
         21   -1    0    0  503  502 -0.00000000000E+00 -0.00000000000E+00 -0.16200884444E+03  0.16200884444E+03  0.00000000000E+00 0.  1.
         21    1    1    2  503  506 -0.11246696892E+03 -0.64704073475E+02  0.22667847842E+03  0.26118684653E+03  0.00000000000E+00 0. -1.
         21    1    1    2  504  502  0.84616687252E+02 -0.13529763006E+02 -0.12608706512E+03  0.15244994667E+03  0.00000000000E+00 0.  1.
         21    1    1    2  505  501  0.31198573719E+02  0.13020760992E+02  0.14374118772E+03  0.14766319875E+03  0.00000000000E+00 0. -1.
         21    1    1    2  506  505 -0.33482920491E+01  0.65213075488E+02  0.29887031718E+03  0.30592061513E+03  0.00000000000E+00 0. -1.
<scales pt_clust_3="14000.00000" pt_clust_4="86.56942" pt_clust_5="33.80667" pt_clust_6="73.50324"></scales>
<clustering>
<clus scale="   33.807">  1  5  2 -1</clus>
<clus scale="   73.503">  1  6  2 -1</clus>
<clus scale="   86.569">  2  4  1 -1</clus>
<clus scale="   33.807">  1  3  2 -1</clus>
</clustering>
</event>
<event>
 6    0  0.8991567E+002  0.9296245E+02  0.7546771E-02  0.1295832E+00
         21   -1    0    0  505  501  0.00000000000E+00  0.00000000000E+00  0.56631575760E+03  0.56631575760E+03  0.00000000000E+00 0.  1.
         21   -1    0    0  506  502 -0.00000000000E+00 -0.00000000000E+00 -0.86383799235E+03  0.86383799235E+03  0.00000000000E+00 0. -1.
         21    1    1    2  503  504 -0.23590614080E+02 -0.35069420731E+02 -0.12531687518E+02  0.44084288983E+02  0.00000000000E+00 0.  1.
         21    1    1    2  504  501  0.69576796913E+02  0.61869602064E+02  0.54216745437E+03  0.55010392373E+03  0.00000000000E+00 0.  1.
         21    1    1    2  505  502 -0.79631339969E+02 -0.23987923863E+02 -0.47819672646E+03  0.48537478302E+03  0.00000000000E+00 0. -1.
         21    1    1    2  506  503  0.33645157136E+02 -0.28122574701E+01 -0.34896127514E+03  0.35059075422E+03  0.00000000000E+00 0. -1.
<scales pt_clust_3="41.39185" pt_clust_4="14000.00000" pt_clust_5="92.96245" pt_clust_6="33.76248"></scales>
<clustering>
<clus scale="   33.762">  2  6  1 -1</clus>
<clus scale="   41.392">  2  3  1 -1</clus>
<clus scale="   92.962">  2  5  1 -1</clus>
<clus scale="   92.962">  1  3  2 -1</clus>
</clustering>
</event>
<event>
 6    0  0.8991567E+002  0.9128644E+02  0.7546771E-02  0.1299766E+00
         21   -1    0    0  505  501  0.00000000000E+00  0.00000000000E+00  0.16305862357E+04  0.16305862357E+04  0.00000000000E+00 0. -1.
         21   -1    0    0  504  502 -0.00000000000E+00 -0.00000000000E+00 -0.47100993484E+03  0.47100993484E+03  0.00000000000E+00 0.  1.
         21    1    1    2  503  501  0.11768079951E+03 -0.91818033540E+01  0.20361211722E+03  0.23535286352E+03  0.00000000000E+00 0.  1.
         21    1    1    2  504  503 -0.15361025979E+02  0.30947557070E+02 -0.35010910679E+03  0.35180974839E+03  0.00000000000E+00 0.  1.
         21    1    1    2  505  506 -0.29251130913E+02 -0.16171323336E+02  0.13971416724E+04  0.13975414102E+04  0.00000000000E+00 0. -1.
         21    1    1    2  506  502 -0.73068642620E+02 -0.55944303794E+01 -0.91068381953E+02  0.11689214848E+03  0.00000000000E+00 0. -1.
<scales pt_clust_3="91.28644" pt_clust_4="34.54496" pt_clust_5="33.42365" pt_clust_6="14000.00000"></scales>
<clustering>
<clus scale="   33.424">  1  5  2 -1</clus>
<clus scale="   34.545">  2  4  1 -1</clus>
<clus scale="   91.286">  1  3  2 -1</clus>
<clus scale="   33.424">  1  3  2 -1</clus>
</clustering>
</event>
<event>
 6    0  0.8991567E+002  0.6385443E+02  0.7546771E-02  0.1382333E+00
         21   -1    0    0  506  501  0.00000000000E+00  0.00000000000E+00  0.18473929457E+03  0.18473929457E+03  0.00000000000E+00 0.  1.
         21   -1    0    0  503  502 -0.00000000000E+00 -0.00000000000E+00 -0.18108731514E+03  0.18108731514E+03  0.00000000000E+00 0.  1.
         21    1    1    2  503  504  0.20957981613E+02  0.57392404187E+02 -0.99371218319E+02  0.11665232137E+03  0.00000000000E+00 0.  1.
         21    1    1    2  504  501 -0.69761529781E+02  0.24792981543E+02  0.11071350584E+03  0.13318724919E+03  0.00000000000E+00 0.  1.
         21    1    1    2  505  502  0.52763573261E+02 -0.25624223123E+02 -0.85778233899E+01  0.59280473413E+02  0.00000000000E+00 0.  1.
         21    1    1    2  506  505 -0.39600250940E+01 -0.56561162607E+02  0.88751529598E+00  0.56706565736E+02  0.00000000000E+00 0.  1.
<scales pt_clust_3="58.08670" pt_clust_4="14000.00000" pt_clust_5="63.85443" pt_clust_6="56.69962"></scales>
<clustering>
<clus scale="   56.700">  1  6  2 -1</clus>
<clus scale="   58.087">  2  3  1 -1</clus>
<clus scale="   63.854">  2  5  1 -1</clus>
<clus scale="   56.700">  1  3  2 -1</clus>
</clustering>
</event>
<event>
 6    0  0.8991567E+002  0.9884328E+02  0.7546771E-02  0.1282747E+00
         21   -1    0    0  505  501  0.00000000000E+00  0.00000000000E+00  0.27479230588E+03  0.27479230588E+03  0.00000000000E+00 0. -1.
         21   -1    0    0  506  502 -0.00000000000E+00 -0.00000000000E+00 -0.32987509528E+03  0.32987509528E+03  0.00000000000E+00 0. -1.
         21    1    1    2  503  501 -0.21036116090E+02 -0.23311588533E+02  0.33758203842E+02  0.46103846550E+02  0.00000000000E+00 0. -1.
         21    1    1    2  504  503  0.10535540817E+03 -0.34804963952E+02  0.19208827665E+03  0.22183113752E+03  0.00000000000E+00 0. -1.
         21    1    1    2  505  502 -0.54593872124E+02  0.67410243797E+02 -0.43080571781E+02  0.96853329872E+02  0.00000000000E+00 0. -1.
         21    1    1    2  506  504 -0.29725419958E+02 -0.92936913115E+01 -0.23784869811E+03  0.23987908722E+03  0.00000000000E+00 0. -1.
<scales pt_clust_3="33.23585" pt_clust_4="98.84328" pt_clust_5="14000.00000" pt_clust_6="31.14439"></scales>
<clustering>
<clus scale="   31.144">  2  6  1 -1</clus>
<clus scale="   33.236">  1  3  2 -1</clus>
<clus scale="   98.843">  1  4  2 -1</clus>
<clus scale="   33.236">  1  3  2 -1</clus>
</clustering>
</event>
<event>
 6    0  0.8991567E+002  0.8329455E+02  0.7546771E-02  0.1319954E+00
         21   -1    0    0  506  501  0.00000000000E+00  0.00000000000E+00  0.37137221771E+03  0.37137221771E+03  0.00000000000E+00 0. -1.
         21   -1    0    0  503  502 -0.00000000000E+00 -0.00000000000E+00 -0.29221176990E+03  0.29221176990E+03  0.00000000000E+00 0.  1.
         21    1    1    2  503  505 -0.13567927999E+02  0.70782611335E+02 -0.14795843945E+03  0.16457814722E+03  0.00000000000E+00 0.  1.
         21    1    1    2  504  502 -0.36412767751E+02 -0.96493288994E+02 -0.44636222886E+02  0.11237987751E+03  0.00000000000E+00 0.  1.
         21    1    1    2  505  501  0.57792560849E+02  0.66234717778E+02 -0.21489021630E+02  0.90491966379E+02  0.00000000000E+00 0.  1.
         21    1    1    2  506  504 -0.78118650989E+01 -0.40524040119E+02  0.29324413177E+03  0.29613399650E+03  0.00000000000E+00 0. -1.
<scales pt_clust_3="67.93795" pt_clust_4="14000.00000" pt_clust_5="83.29455" pt_clust_6="41.27012"></scales>
<clustering>
<clus scale="   41.270">  1  6  2 -1</clus>
<clus scale="   67.938">  2  3  1 -1</clus>
<clus scale="   83.295">  1  5  2 -1</clus>
<clus scale="   41.270">  1  3  2 -1</clus>
</clustering>
</event>
<event>
 6    0  0.8991567E+002  0.1036302E+03  0.7546771E-02  0.1272842E+00
         21   -1    0    0  506  501  0.00000000000E+00  0.00000000000E+00  0.27992839521E+03  0.27992839521E+03  0.00000000000E+00 0. -1.
         21   -1    0    0  505  502 -0.00000000000E+00 -0.00000000000E+00 -0.46764268626E+03  0.46764268626E+03  0.00000000000E+00 0.  1.
         21    1    1    2  503  502 -0.54342131929E+02 -0.18046636776E+01 -0.14205819800E+03  0.15210803968E+03  0.00000000000E+00 0.  1.
         21    1    1    2  504  501 -0.46561043419E+02 -0.68752784693E+02 -0.62121696809E+01  0.83267443935E+02  0.00000000000E+00 0.  1.
         21    1    1    2  505  504 -0.40306220252E+02  0.62294104263E+02 -0.24874700430E+03  0.25957700007E+03  0.00000000000E+00 0.  1.
         21    1    1    2  506  503  0.14120939560E+03  0.82633441083E+01  0.20930308094E+03  0.25261859779E+03  0.00000000000E+00 0. -1.
<scales pt_clust_3="54.37209" pt_clust_4="87.71188" pt_clust_5="14000.00000" pt_clust_6="103.63023"></scales>
<clustering>
<clus scale="   54.372">  2  3  1 -1</clus>
<clus scale="   87.712">  1  4  2 -1</clus>
<clus scale="  103.630">  1  6  2 -1</clus>
<clus scale="   87.712">  1  3  2 -1</clus>
</clustering>
</event>
<event>
 6    0  0.8991567E+002  0.1928375E+03  0.7546771E-02  0.1155927E+00
         21   -1    0    0  504  501  0.00000000000E+00  0.00000000000E+00  0.10370224606E+03  0.10370224606E+03  0.00000000000E+00 0. -1.
         21   -1    0    0  505  502 -0.00000000000E+00 -0.00000000000E+00 -0.16843483236E+04  0.16843483236E+04  0.00000000000E+00 0. -1.
         21    1    1    2  503  506  0.11890365940E+03 -0.77471276010E+02 -0.10076986942E+03  0.17405299598E+03  0.00000000000E+00 0. -1.
         21    1    1    2  504  502 -0.21006966986E+03  0.12176310489E+03 -0.12620546385E+04  0.12851993738E+04  0.00000000000E+00 0. -1.
         21    1    1    2  505  503  0.49569504667E+02 -0.36782513028E+00 -0.25367777452E+03  0.25847569397E+03  0.00000000000E+00 0.  1.
         21    1    1    2  506  501  0.41596505795E+02 -0.43924003750E+02  0.35856204931E+02  0.70322505870E+02  0.00000000000E+00 0. -1.
<scales pt_clust_3="14000.00000" pt_clust_4="192.83753" pt_clust_5="49.57087" pt_clust_6="60.91053"></scales>
<clustering>
<clus scale="   49.571">  2  5  1 -1</clus>
<clus scale="   60.911">  1  6  2 -1</clus>
<clus scale="  192.838">  2  4  1 -1</clus>
<clus scale="   60.911">  1  3  2 -1</clus>
</clustering>
</event>
<event>
 6    0  0.8991567E+002  0.1001587E+03  0.7546771E-02  0.1279963E+00
         21   -1    0    0  504  501  0.00000000000E+00  0.00000000000E+00  0.45827909269E+03  0.45827909269E+03  0.00000000000E+00 0.  1.
         21   -1    0    0  506  502 -0.00000000000E+00 -0.00000000000E+00 -0.92600905366E+02  0.92600905366E+02  0.00000000000E+00 0.  1.
         21    1    1    2  503  505  0.27630538116E+01 -0.90921431291E+02  0.32188205965E+02  0.96490526673E+02  0.00000000000E+00 0.  1.
         21    1    1    2  504  502 -0.25280685062E+02  0.24945549957E+02 -0.47281253552E+00  0.35519249028E+02  0.00000000000E+00 0. -1.
         21    1    1    2  505  501 -0.20161065157E+02  0.10051795822E+03  0.34751093258E+03  0.36231778418E+03  0.00000000000E+00 0.  1.
         21    1    1    2  506  503  0.42678696406E+02 -0.34542076883E+02 -0.13548138679E+02  0.56552438179E+02  0.00000000000E+00 0.  1.
<scales pt_clust_3="100.15866" pt_clust_4="35.51610" pt_clust_5="14000.00000" pt_clust_6="38.33527"></scales>
<clustering>
<clus scale="   35.516">  2  4  1 -1</clus>
<clus scale="   38.335">  2  6  1 -1</clus>
<clus scale="  100.159">  2  3  1 -1</clus>
<clus scale="  100.159">  1  3  2 -1</clus>
</clustering>
</event>
<event>
 6    0  0.8991567E+002  0.8023505E+02  0.7546771E-02  0.1328386E+00
         21   -1    0    0  506  501  0.00000000000E+00  0.00000000000E+00  0.19576368693E+04  0.19576368693E+04  0.00000000000E+00 0. -1.
         21   -1    0    0  503  502 -0.00000000000E+00 -0.00000000000E+00 -0.80563867169E+02  0.80563867169E+02  0.00000000000E+00 0.  1.
         21    1    1    2  503  504  0.33039900950E+02 -0.19650495316E+02 -0.38198462894E+02  0.54193169204E+02  0.00000000000E+00 0.  1.
         21    1    1    2  504  501 -0.76611523037E+02  0.29346937988E+02  0.91934872159E+02  0.12321764870E+03  0.00000000000E+00 0.  1.
         21    1    1    2  505  502  0.94677919671E+02 -0.24630164933E+02  0.11234312109E+03  0.14896821928E+03  0.00000000000E+00 0.  1.
         21    1    1    2  506  505 -0.51106297584E+02  0.14933722261E+02  0.17109934718E+04  0.17118216993E+04  0.00000000000E+00 0. -1.
<scales pt_clust_3="38.44187" pt_clust_4="80.23505" pt_clust_5="14000.00000" pt_clust_6="52.79508"></scales>
<clustering>
<clus scale="   38.442">  2  3  1 -1</clus>
<clus scale="   52.795">  1  6  2 -1</clus>
<clus scale="   80.235">  2  4  1 -1</clus>
<clus scale="   52.795">  1  3  2 -1</clus>
</clustering>
</event>
<event>
 6    0  0.8991567E+002  0.8833498E+02  0.7546771E-02  0.1306935E+00
         21   -1    0    0  505  501  0.00000000000E+00  0.00000000000E+00  0.90809639306E+03  0.90809639306E+03  0.00000000000E+00 0.  1.
         21   -1    0    0  503  502 -0.00000000000E+00 -0.00000000000E+00 -0.18695765885E+03  0.18695765885E+03  0.00000000000E+00 0. -1.
         21    1    1    2  503  504 -0.52797352354E+02 -0.22459621821E+02 -0.16222089010E+03  0.17206862646E+03  0.00000000000E+00 0. -1.
         21    1    1    2  504  501 -0.32924031346E+02 -0.50214755927E+02  0.22725211098E+03  0.23505113379E+03  0.00000000000E+00 0. -1.
         21    1    1    2  505  506 -0.12958022807E+01 -0.32859724205E+02  0.36294820789E+03  0.36443496291E+03  0.00000000000E+00 0.  1.
         21    1    1    2  506  502  0.87017185980E+02  0.10553410195E+03  0.29315930544E+03  0.32349932875E+03  0.00000000000E+00 0. -1.
<scales pt_clust_3="57.50366" pt_clust_4="14000.00000" pt_clust_5="32.88526" pt_clust_6="88.33498"></scales>
<clustering>
<clus scale="   32.885">  1  5  2 -1</clus>
<clus scale="   57.504">  2  3  1 -1</clus>
<clus scale="   88.335">  2  6  1 -1</clus>
<clus scale="   32.885">  1  3  2 -1</clus>
</clustering>
</event>
<event>
 6    0  0.8991567E+002  0.7728626E+02  0.7546771E-02  0.1336934E+00
         21   -1    0    0  506  501  0.00000000000E+00  0.00000000000E+00  0.76054248624E+03  0.76054248624E+03  0.00000000000E+00 0. -1.
         21   -1    0    0  503  502 -0.00000000000E+00 -0.00000000000E+00 -0.60149742675E+02  0.60149742675E+02  0.00000000000E+00 0. -1.
         21    1    1    2  503  504 -0.55643008311E+02 -0.32106392186E+02  0.12790172416E+03  0.14312866881E+03  0.00000000000E+00 0.  1.
         21    1    1    2  504  501 -0.75803103487E+02 -0.89664424133E+01  0.50298592451E+03  0.50874487501E+03  0.00000000000E+00 0. -1.
         21    1    1    2  505  502  0.52347305541E+02 -0.44129338871E+00 -0.48749809851E+01  0.52575665253E+02  0.00000000000E+00 0. -1.
         21    1    1    2  506  505  0.79098806258E+02  0.41514127988E+02  0.74380075875E+02  0.11624301984E+03  0.00000000000E+00 0. -1.
<scales pt_clust_3="53.69628" pt_clust_4="77.28626" pt_clust_5="52.34917" pt_clust_6="14000.00000"></scales>
<clustering>
<clus scale="   52.349">  2  5  1 -1</clus>
<clus scale="   53.696">  2  3  1 -1</clus>
<clus scale="   77.286">  1  4  2 -1</clus>
<clus scale="   77.286">  1  3  2 -1</clus>
</clustering>
</event>
<event>
 6    0  0.8991567E+002  0.9910448E+02  0.7546771E-02  0.1282190E+00
         21   -1    0    0  505  501  0.00000000000E+00  0.00000000000E+00  0.43840033415E+03  0.43840033415E+03  0.00000000000E+00 0.  1.
         21   -1    0    0  506  502 -0.00000000000E+00 -0.00000000000E+00 -0.47616586074E+03  0.47616586074E+03  0.00000000000E+00 0. -1.
         21    1    1    2  503  504 -0.11122727521E+03 -0.27194673380E+01 -0.13423474911E+03  0.17434984979E+03  0.00000000000E+00 0. -1.
         21    1    1    2  504  501  0.93206240872E+02  0.32872122394E+02  0.39755077385E+03  0.40965180038E+03  0.00000000000E+00 0.  1.
         21    1    1    2  505  502  0.52372989194E+02 -0.18441912105E+02 -0.43760479062E+02  0.70696631086E+02  0.00000000000E+00 0. -1.
         21    1    1    2  506  503 -0.34351954854E+02 -0.11710742951E+02 -0.25732107226E+03  0.25986791363E+03  0.00000000000E+00 0. -1.
<scales pt_clust_3="14000.00000" pt_clust_4="99.10448" pt_clust_5="48.38725" pt_clust_6="36.29323"></scales>
<clustering>
<clus scale="   36.293">  2  6  1 -1</clus>
<clus scale="   48.387">  2  5  1 -1</clus>
<clus scale="   99.104">  1  4  2 -1</clus>
<clus scale="   99.104">  1  3  2 -1</clus>
</clustering>
</event>
<event>
 6    0  0.8991567E+002  0.9578057E+02  0.7546771E-02  0.1289428E+00
         21   -1    0    0  505  501  0.00000000000E+00  0.00000000000E+00  0.47538780394E+03  0.47538780394E+03  0.00000000000E+00 0. -1.
         21   -1    0    0  504  502 -0.00000000000E+00 -0.00000000000E+00 -0.16055084765E+04  0.16055084765E+04  0.00000000000E+00 0. -1.
         21    1    1    2  503  501 -0.96537809084E+02  0.46211600684E+02  0.19450687209E+03  0.22200897259E+03  0.00000000000E+00 0. -1.
         21    1    1    2  504  503  0.13500906651E+03 -0.62671290573E+02 -0.18334862266E+03  0.23616065746E+03  0.00000000000E+00 0. -1.
         21    1    1    2  505  506  0.57944748235E+01 -0.33808382795E+02  0.23868552102E+03  0.24113763835E+03  0.00000000000E+00 0. -1.
         21    1    1    2  506  502 -0.44265732248E+02  0.50268072684E+02 -0.13799644430E+04  0.13815890120E+04  0.00000000000E+00 0. -1.
<scales pt_clust_3="95.78057" pt_clust_4="14000.00000" pt_clust_5="34.30135" pt_clust_6="66.87940"></scales>
<clustering>
<clus scale="   34.301">  1  5  2 -1</clus>
<clus scale="   66.879">  2  6  1 -1</clus>
<clus scale="   95.781">  1  3  2 -1</clus>
<clus scale="   34.301">  1  3  2 -1</clus>
</clustering>
</event>
<event>
 6    0  0.8991567E+002  0.1302716E+03  0.7546771E-02  0.1227053E+00
         21   -1    0    0  504  501  0.00000000000E+00  0.00000000000E+00  0.97787436800E+03  0.97787436800E+03  0.00000000000E+00 0. -1.
         21   -1    0    0  503  502 -0.00000000000E+00 -0.00000000000E+00 -0.10842800107E+04  0.10842800107E+04  0.00000000000E+00 0. -1.
         21    1    1    2  503  501  0.25629848541E+02 -0.58116201141E+02 -0.70954911124E+02  0.95231199635E+02  0.00000000000E+00 0.  1.
         21    1    1    2  504  506  0.38892696161E+02  0.14142695273E+03  0.81020022440E+03  0.82337028631E+03  0.00000000000E+00 0. -1.
         21    1    1    2  505  502 -0.75186495412E+02  0.12513070299E+02 -0.97735882348E+03  0.98032640271E+03  0.00000000000E+00 0. -1.
         21    1    1    2  506  505  0.10663950710E+02 -0.95823821889E+02  0.13170786751E+03  0.16322649004E+03  0.00000000000E+00 0. -1.
<scales pt_clust_3="63.51678" pt_clust_4="130.27157" pt_clust_5="66.90226" pt_clust_6="14000.00000"></scales>
<clustering>
<clus scale="   63.517">  2  3  1 -1</clus>
<clus scale="   66.902">  2  5  1 -1</clus>
<clus scale="  130.272">  1  4  2 -1</clus>
<clus scale="  130.272">  1  3  2 -1</clus>
</clustering>
</event>
<event>
 6    0  0.8991567E+002  0.7477725E+02  0.7546771E-02  0.1344562E+00
         21   -1    0    0  505  501  0.00000000000E+00  0.00000000000E+00  0.91070812604E+03  0.91070812604E+03  0.00000000000E+00 0.  1.
         21   -1    0    0  504  502 -0.00000000000E+00 -0.00000000000E+00 -0.52672227960E+03  0.52672227960E+03  0.00000000000E+00 0. -1.
         21    1    1    2  503  506 -0.94848881034E+01 -0.66326844551E+02  0.12199303686E+03  0.13918158805E+03  0.00000000000E+00 0.  1.
         21    1    1    2  504  501  0.20095081975E+02 -0.28026688600E+02  0.42032075374E+03  0.42173314266E+03  0.00000000000E+00 0.  1.
         21    1    1    2  505  503 -0.70046337414E+02  0.48066284171E+02  0.35126132839E+03  0.36138812637E+03  0.00000000000E+00 0.  1.
         21    1    1    2  506  502  0.59436143542E+02  0.46287248980E+02 -0.50958927256E+03  0.51512754856E+03  0.00000000000E+00 0. -1.
<scales pt_clust_3="14000.00000" pt_clust_4="34.48634" pt_clust_5="61.94796" pt_clust_6="74.77725"></scales>
<clustering>
<clus scale="   34.486">  1  4  2 -1</clus>
<clus scale="   61.948">  1  5  2 -1</clus>
<clus scale="   74.777">  2  6  1 -1</clus>
<clus scale="   34.486">  1  3  2 -1</clus>
</clustering>
</event>
<event>
 6    0  0.8991567E+002  0.1087511E+03  0.7546771E-02  0.1262900E+00
         21   -1    0    0  506  501  0.00000000000E+00  0.00000000000E+00  0.13804747959E+03  0.13804747959E+03  0.00000000000E+00 0.  1.
         21   -1    0    0  504  502 -0.00000000000E+00 -0.00000000000E+00 -0.52680876929E+03  0.52680876929E+03  0.00000000000E+00 0.  1.
         21    1    1    2  503  502  0.39015278347E+02 -0.15010979993E+02 -0.10595464311E+03  0.11390306344E+03  0.00000000000E+00 0.  1.
         21    1    1    2  504  501  0.53114776824E+02  0.13672759716E+02  0.52535213769E+02  0.75947827889E+02  0.00000000000E+00 0.  1.
         21    1    1    2  505  503 -0.24264852001E+02 -0.97087726482E+02 -0.34093593208E+03  0.35531974257E+03  0.00000000000E+00 0.  1.
         21    1    1    2  506  505 -0.67865203170E+02  0.98425946759E+02  0.55940717210E+01  0.11968561499E+03  0.00000000000E+00 0.  1.
<scales pt_clust_3="41.80337" pt_clust_4="55.80643" pt_clust_5="14000.00000" pt_clust_6="108.75115"></scales>
<clustering>
<clus scale="   41.803">  2  3  1 -1</clus>
<clus scale="   55.806">  1  4  2 -1</clus>
<clus scale="  108.751">  1  6  2 -1</clus>
<clus scale="   55.806">  1  3  2 -1</clus>
</clustering>
</event>
<event>
 6    0  0.8991567E+002  0.1135800E+03  0.7546771E-02  0.1254080E+00
         21   -1    0    0  503  501  0.00000000000E+00  0.00000000000E+00  0.47259699997E+03  0.47259699997E+03  0.00000000000E+00 0. -1.
         21   -1    0    0  504  502 -0.00000000000E+00 -0.00000000000E+00 -0.23823566126E+03  0.23823566126E+03  0.00000000000E+00 0. -1.
         21    1    1    2  503  506 -0.12515425315E+03 -0.71534696266E+02  0.10462812842E+03  0.17812311783E+03  0.00000000000E+00 0. -1.
         21    1    1    2  504  505  0.13402184250E+03  0.36534215024E+02 -0.53496805862E+02  0.14885735243E+03  0.00000000000E+00 0. -1.
         21    1    1    2  505  501  0.30307203612E+02  0.94614028405E+02  0.26043284430E+03  0.27873931792E+03  0.00000000000E+00 0. -1.
         21    1    1    2  506  502 -0.39174792964E+02 -0.59613547163E+02 -0.77202828142E+02  0.10511287306E+03  0.00000000000E+00 0. -1.
<scales pt_clust_3="113.57997" pt_clust_4="14000.00000" pt_clust_5="95.08016" pt_clust_6="71.33330"></scales>
<clustering>
<clus scale="   71.333">  2  6  1 -1</clus>
<clus scale="   95.080">  1  5  2 -1</clus>
<clus scale="  113.580">  1  3  2 -1</clus>
<clus scale="   95.080">  1  3  2 -1</clus>
</clustering>
</event>
<event>
 6    0  0.8991567E+002  0.1062682E+03  0.7546771E-02  0.1267641E+00
         21   -1    0    0  505  501  0.00000000000E+00  0.00000000000E+00  0.24234726492E+03  0.24234726492E+03  0.00000000000E+00 0. -1.
         21   -1    0    0  503  502 -0.00000000000E+00 -0.00000000000E+00 -0.68206267371E+03  0.68206267371E+03  0.00000000000E+00 0. -1.
         21    1    1    2  503  501  0.20025257189E+02 -0.62047015704E+02 -0.54675659293E+03  0.55063019804E+03  0.00000000000E+00 0. -1.
         21    1    1    2  504  502  0.30911815728E+02 -0.35544112803E+02 -0.10128278503E+03  0.11170106020E+03  0.00000000000E+00 0. -1.
         21    1    1    2  505  506 -0.52804916576E+02 -0.32557335972E+01  0.10561472901E+03  0.11812463756E+03  0.00000000000E+00 0. -1.
         21    1    1    2  506  504  0.18678436595E+01  0.10084686210E+03  0.10270924015E+03  0.14395404283E+03  0.00000000000E+00 0. -1.
<scales pt_clust_3="14000.00000" pt_clust_4="47.10546" pt_clust_5="52.59523" pt_clust_6="106.26815"></scales>
<clustering>
<clus scale="   47.105">  2  4  1 -1</clus>
<clus scale="   52.595">  1  5  2 -1</clus>
<clus scale="  106.268">  1  6  2 -1</clus>
<clus scale="   52.595">  1  3  2 -1</clus>
</clustering>
</event>
<event>
 6    0  0.8991567E+002  0.2718033E+03  0.7546771E-02  0.1100252E+00
         21   -1    0    0  504  501  0.00000000000E+00  0.00000000000E+00  0.18461736895E+03  0.18461736895E+03  0.00000000000E+00 0.  1.
         21   -1    0    0  505  502 -0.00000000000E+00 -0.00000000000E+00 -0.88078300464E+03  0.88078300464E+03  0.00000000000E+00 0.  1.
         21    1    1    2  503  501  0.91882639518E+02  0.10806974792E+03 -0.92270868580E+02  0.16921998419E+03  0.00000000000E+00 0.  1.
         21    1    1    2  504  506 -0.15608477529E+03 -0.16941875402E+03 -0.13812893785E+02  0.23077254457E+03  0.00000000000E+00 0.  1.
         21    1    1    2  505  503  0.15268930959E+03  0.11454990869E+03 -0.28236235647E+03  0.34082870653E+03  0.00000000000E+00 0.  1.
         21    1    1    2  506  502 -0.88487173813E+02 -0.53200902591E+02 -0.30771951686E+03  0.32457913830E+03  0.00000000000E+00 0.  1.
<scales pt_clust_3="88.01653" pt_clust_4="251.89752" pt_clust_5="88.01653" pt_clust_6="103.24881"></scales>
<clustering>
<clus scale="   88.017">  3  5 -1 -1</clus>
<clus scale="  103.249">  2  6  1 -1</clus>
<clus scale="  251.898">  1  4  2 -1</clus>
<clus scale="  251.898">  1  3  2 -1</clus>
</clustering>
</event>
<event>
 6    0  0.8991567E+002  0.1260355E+03  0.7546771E-02  0.1233460E+00
         21   -1    0    0  505  501  0.00000000000E+00  0.00000000000E+00  0.81409793833E+03  0.81409793833E+03  0.00000000000E+00 0.  1.
         21   -1    0    0  503  502 -0.00000000000E+00 -0.00000000000E+00 -0.11873243545E+04  0.11873243545E+04  0.00000000000E+00 0.  1.
         21    1    1    2  503  506 -0.18241674653E+02  0.28025898808E+02 -0.26712947969E+03  0.26921435441E+03  0.00000000000E+00 0.  1.
         21    1    1    2  504  502  0.13650378759E+03  0.69125701948E+02 -0.21907273399E+03  0.26721622233E+03  0.00000000000E+00 0.  1.
         21    1    1    2  505  504 -0.27097622902E+02 -0.95726527294E+02  0.78274648341E+03  0.78904366576E+03  0.00000000000E+00 0.  1.
         21    1    1    2  506  501 -0.91164490036E+02 -0.14250734615E+01 -0.66977068592E+03  0.67594805037E+03  0.00000000000E+00 0.  1.
<scales pt_clust_3="32.45932" pt_clust_4="114.07107" pt_clust_5="99.48793" pt_clust_6="32.45932"></scales>
<clustering>
<clus scale="   32.459">  3  6 -1 -1</clus>
<clus scale="   99.488">  1  5  2 -1</clus>
<clus scale="  114.071">  1  4  2 -1</clus>
<clus scale="   99.488">  1  3  2 -1</clus>
</clustering>
</event>
<event>
 6    0  0.8991567E+002  0.9582815E+02  0.7546771E-02  0.1289322E+00
         21   -1    0    0  505  501  0.00000000000E+00  0.00000000000E+00  0.32842126685E+03  0.32842126685E+03  0.00000000000E+00 0. -1.
         21   -1    0    0  503  502 -0.00000000000E+00 -0.00000000000E+00 -0.13038988706E+03  0.13038988706E+03  0.00000000000E+00 0. -1.
         21    1    1    2  503  506 -0.55349043731E+02  0.32049782583E+02 -0.20570071754E+02  0.67185065733E+02  0.00000000000E+00 0. -1.
         21    1    1    2  504  501  0.96664740039E+02  0.30947885613E+02  0.24969965577E+03  0.26953990740E+03  0.00000000000E+00 0. -1.
         21    1    1    2  505  502  0.13192028953E+02 -0.34392026796E+02  0.20151173203E+02  0.41987032719E+02  0.00000000000E+00 0. -1.
         21    1    1    2  506  504 -0.54507725262E+02 -0.28605641400E+02 -0.51249377420E+02  0.80099148055E+02  0.00000000000E+00 0. -1.
<scales pt_clust_3="61.73960" pt_clust_4="14000.00000" pt_clust_5="36.83532" pt_clust_6="95.82815"></scales>
<clustering>
<clus scale="   36.835">  1  5  2 -1</clus>
<clus scale="   61.740">  2  3  1 -1</clus>
<clus scale="   95.828">  2  6  1 -1</clus>
<clus scale="   36.835">  1  3  2 -1</clus>
</clustering>
</event>
<event>
 6    0  0.8991567E+002  0.8878172E+02  0.7546771E-02  0.1305829E+00
         21   -1    0    0  505  501  0.00000000000E+00  0.00000000000E+00  0.38360882364E+03  0.38360882364E+03  0.00000000000E+00 0. -1.
         21   -1    0    0  504  502 -0.00000000000E+00 -0.00000000000E+00 -0.83417098861E+02  0.83417098861E+02  0.00000000000E+00 0. -1.
         21    1    1    2  503  501 -0.87429074052E+02  0.19266187220E+02  0.88338120356E+02  0.12577222455E+03  0.00000000000E+00 0. -1.
         21    1    1    2  504  503  0.28534646563E+02 -0.11452348987E+03  0.12292300168E+03  0.17041103288E+03  0.00000000000E+00 0. -1.
         21    1    1    2  505  506  0.36153889747E+02  0.15567235279E+02  0.77847703137E+02  0.87233637100E+02  0.00000000000E+00 0. -1.
         21    1    1    2  506  502  0.22740537742E+02  0.79690067369E+02  0.11082899599E+02  0.83609027967E+02  0.00000000000E+00 0. -1.
<scales pt_clust_3="78.58944" pt_clust_4="14000.00000" pt_clust_5="39.36296" pt_clust_6="88.78172"></scales>
<clustering>
<clus scale="   39.363">  1  5  2 -1</clus>
<clus scale="   78.589">  1  3  2 -1</clus>
<clus scale="   88.782">  2  6  1 -1</clus>
<clus scale="   39.363">  1  3  2 -1</clus>
</clustering>
</event>
<event>
 6    0  0.8991567E+002  0.1189252E+03  0.7546771E-02  0.1244881E+00
         21   -1    0    0  504  501  0.00000000000E+00  0.00000000000E+00  0.72031396157E+02  0.72031396157E+02  0.00000000000E+00 0. -1.
         21   -1    0    0  503  502 -0.00000000000E+00 -0.00000000000E+00 -0.31241092228E+03  0.31241092228E+03  0.00000000000E+00 0. -1.
         21    1    1    2  503  505 -0.24931073551E+02 -0.18750788857E+02 -0.11944561894E+03  0.12345204087E+03  0.00000000000E+00 0.  1.
         21    1    1    2  504  506 -0.18593425247E+02  0.33763945083E+02  0.77352263481E+01  0.39313524093E+02  0.00000000000E+00 0.  1.
         21    1    1    2  505  501  0.50409180887E+02 -0.91002416288E+02 -0.79109109250E+02  0.13069344457E+03  0.00000000000E+00 0. -1.
         21    1    1    2  506  502 -0.68846820893E+01  0.75989260062E+02 -0.49560024287E+02  0.90983308906E+02  0.00000000000E+00 0. -1.
<scales pt_clust_3="31.19536" pt_clust_4="36.96698" pt_clust_5="107.75044" pt_clust_6="36.96698"></scales>
<clustering>
<clus scale="   31.195">  2  3  1 -1</clus>
<clus scale="   36.967">  4  6 -1 -1</clus>
<clus scale="  107.750">  2  5  1 -1</clus>
<clus scale="  118.925">  1  3  2 -1</clus>
</clustering>
</event>
<event>
 6    0  0.8991567E+002  0.8692607E+02  0.7546771E-02  0.1310471E+00
         21   -1    0    0  504  501  0.00000000000E+00  0.00000000000E+00  0.49395636939E+03  0.49395636939E+03  0.00000000000E+00 0.  1.
         21   -1    0    0  503  502 -0.00000000000E+00 -0.00000000000E+00 -0.30527810920E+03  0.30527810920E+03  0.00000000000E+00 0.  1.
         21    1    1    2  503  501 -0.69231198884E+02  0.24652155280E+02 -0.24978342475E+03  0.26036982724E+03  0.00000000000E+00 0.  1.
         21    1    1    2  504  506  0.91798225311E+02  0.56886385320E+01  0.38778623353E+03  0.39854414774E+03  0.00000000000E+00 0.  1.
         21    1    1    2  505  502  0.45255031588E+02 -0.15081773741E+01 -0.81718785737E+01  0.46011651595E+02  0.00000000000E+00 0.  1.
         21    1    1    2  506  505 -0.67822058015E+02 -0.28832616438E+02  0.58847329977E+02  0.94308852021E+02  0.00000000000E+00 0.  1.
<scales pt_clust_3="36.20392" pt_clust_4="14000.00000" pt_clust_5="45.28016" pt_clust_6="86.92607"></scales>
<clustering>
<clus scale="   45.280">  2  5  1 -1</clus>
<clus scale="   36.204">  2  3  1 -1</clus>
<clus scale="   86.926">  2  6  1 -1</clus>
<clus scale="   86.926">  1  3  2 -1</clus>
</clustering>
</event>
<event>
 6    0  0.8991567E+002  0.1176435E+03  0.7546771E-02  0.1247036E+00
         21   -1    0    0  506  501  0.00000000000E+00  0.00000000000E+00  0.95271029351E+03  0.95271029351E+03  0.00000000000E+00 0. -1.
         21   -1    0    0  505  502 -0.00000000000E+00 -0.00000000000E+00 -0.65375799985E+03  0.65375799985E+03  0.00000000000E+00 0. -1.
         21    1    1    2  503  504 -0.69254753691E+02  0.41149394935E+02  0.13487269459E+03  0.15709913226E+03  0.00000000000E+00 0. -1.
         21    1    1    2  504  501 -0.59519845524E+02  0.10032395523E+01  0.57297939687E+03  0.57606337129E+03  0.00000000000E+00 0. -1.
         21    1    1    2  505  503 -0.20780932417E+02  0.36518045162E+02 -0.60953893926E+03  0.61098537892E+03  0.00000000000E+00 0. -1.
         21    1    1    2  506  502  0.14955553163E+03 -0.78670679649E+02  0.20063914146E+03  0.26232041088E+03  0.00000000000E+00 0. -1.
<scales pt_clust_3="117.64345" pt_clust_4="60.30036" pt_clust_5="42.01684" pt_clust_6="14000.00000"></scales>
<clustering>
<clus scale="   42.017">  2  5  1 -1</clus>
<clus scale="   60.300">  1  4  2 -1</clus>
<clus scale="  117.643">  1  3  2 -1</clus>
<clus scale="   60.300">  1  3  2 -1</clus>
</clustering>
</event>
<event>
 6    0  0.8991567E+002  0.1586194E+03  0.7546771E-02  0.1190264E+00
         21   -1    0    0  505  501  0.00000000000E+00  0.00000000000E+00  0.16526553973E+03  0.16526553973E+03  0.00000000000E+00 0. -1.
         21   -1    0    0  506  502 -0.00000000000E+00 -0.00000000000E+00 -0.21086818351E+04  0.21086818351E+04  0.00000000000E+00 0.  1.
         21    1    1    2  503  502  0.58002012635E+02  0.68951490072E+02 -0.33473329836E+03  0.34664812488E+03  0.00000000000E+00 0.  1.
         21    1    1    2  504  501  0.64149959025E+02 -0.40013118818E+02 -0.48322119718E+01  0.75760261305E+02  0.00000000000E+00 0. -1.
         21    1    1    2  505  503 -0.81308208741E+02 -0.12383445069E+03  0.77382210177E+02  0.16713468353E+03  0.00000000000E+00 0. -1.
         21    1    1    2  506  504 -0.40843762918E+02  0.94896079438E+02 -0.16812329952E+04  0.16844043051E+04  0.00000000000E+00 0.  1.
<scales pt_clust_3="90.65801" pt_clust_4="75.60600" pt_clust_5="158.61940" pt_clust_6="14000.00000"></scales>
<clustering>
<clus scale="   75.606">  1  4  2 -1</clus>
<clus scale="   90.658">  2  3  1 -1</clus>
<clus scale="  158.619">  1  5  2 -1</clus>
<clus scale="   75.606">  1  3  2 -1</clus>
</clustering>
</event>
<event>
 6    0  0.8991567E+002  0.7585260E+02  0.7546771E-02  0.1341251E+00
         21   -1    0    0  505  501  0.00000000000E+00  0.00000000000E+00  0.89380479584E+03  0.89380479584E+03  0.00000000000E+00 0.  1.
         21   -1    0    0  504  502 -0.00000000000E+00 -0.00000000000E+00 -0.30845420894E+03  0.30845420894E+03  0.00000000000E+00 0. -1.
         21    1    1    2  503  502  0.40357252854E+02  0.37241854236E+02 -0.16338868668E+03  0.17237031792E+03  0.00000000000E+00 0. -1.
         21    1    1    2  504  501  0.57591870731E+02 -0.86154312065E+02  0.42147436531E+02  0.11187401605E+03  0.00000000000E+00 0. -1.
         21    1    1    2  505  506 -0.28426797718E+02  0.19869105097E+02  0.79845343359E+03  0.79920632492E+03  0.00000000000E+00 0.  1.
         21    1    1    2  506  503 -0.69522325867E+02  0.29043352732E+02 -0.91861596552E+02  0.11880834589E+03  0.00000000000E+00 0. -1.
<scales pt_clust_3="54.58790" pt_clust_4="75.85260" pt_clust_5="34.68233" pt_clust_6="14000.00000"></scales>
<clustering>
<clus scale="   34.682">  1  5  2 -1</clus>
<clus scale="   54.588">  2  3  1 -1</clus>
<clus scale="   75.853">  1  4  2 -1</clus>
<clus scale="   34.682">  1  3  2 -1</clus>
</clustering>
</event>
<event>
 6    0  0.8991567E+002  0.1082119E+03  0.7546771E-02  0.1263917E+00
         21   -1    0    0  503  501  0.00000000000E+00  0.00000000000E+00  0.56977767921E+03  0.56977767921E+03  0.00000000000E+00 0. -1.
         21   -1    0    0  506  502 -0.00000000000E+00 -0.00000000000E+00 -0.10842592855E+03  0.10842592855E+03  0.00000000000E+00 0.  1.
         21    1    1    2  503  504  0.10003567617E+03  0.43529310142E+02  0.37981457221E+03  0.39517217338E+03  0.00000000000E+00 0. -1.
         21    1    1    2  504  502 -0.16018695504E+02  0.37189498519E+02 -0.41219908453E+02  0.57781815986E+02  0.00000000000E+00 0.  1.
         21    1    1    2  505  501 -0.10506116709E+03 -0.22499287263E+02  0.12303180603E+03  0.16334286655E+03  0.00000000000E+00 0.  1.
         21    1    1    2  506  505  0.21044186423E+02 -0.58219521398E+02 -0.27471912111E+00  0.61906751850E+02  0.00000000000E+00 0.  1.
<scales pt_clust_3="14000.00000" pt_clust_4="40.49268" pt_clust_5="108.21190" pt_clust_6="40.59932"></scales>
<clustering>
<clus scale="   40.493">  2  4  1 -1</clus>
<clus scale="   40.599">  2  6  1 -1</clus>
<clus scale="  108.212">  2  5  1 -1</clus>
<clus scale="  108.212">  1  3  2 -1</clus>
</clustering>
</event>
<event>
 6    0  0.8991567E+002  0.8448828E+02  0.7546771E-02  0.1316776E+00
         21   -1    0    0  504  501  0.00000000000E+00  0.00000000000E+00  0.36501859634E+03  0.36501859634E+03  0.00000000000E+00 0. -1.
         21   -1    0    0  503  502 -0.00000000000E+00 -0.00000000000E+00 -0.11629082248E+03  0.11629082248E+03  0.00000000000E+00 0. -1.
         21    1    1    2  503  506 -0.54072319900E+02  0.63399344059E+02 -0.55688799516E+02  0.10022242762E+03  0.00000000000E+00 0. -1.
         21    1    1    2  504  505  0.34534733363E+02 -0.20977459466E+02  0.18636435855E+03  0.19069445653E+03  0.00000000000E+00 0. -1.
         21    1    1    2  505  502  0.33747824894E+02 -0.89178513738E+02  0.10032510313E+03  0.13840827040E+03  0.00000000000E+00 0. -1.
         21    1    1    2  506  501 -0.14210238357E+02  0.46756629145E+02  0.17727111695E+02  0.51984264275E+02  0.00000000000E+00 0. -1.
<scales pt_clust_3="14000.00000" pt_clust_4="40.40670" pt_clust_5="84.48828" pt_clust_6="43.24969"></scales>
<clustering>
<clus scale="   40.407">  1  4  2 -1</clus>
<clus scale="   43.250">  1  6  2 -1</clus>
<clus scale="   84.488">  1  5  2 -1</clus>
<clus scale="   40.407">  1  3  2 -1</clus>
</clustering>
</event>
<event>
 6    0  0.8991567E+002  0.1285513E+03  0.7546771E-02  0.1229621E+00
         21   -1    0    0  506  501  0.00000000000E+00  0.00000000000E+00  0.11052314880E+03  0.11052314880E+03  0.00000000000E+00 0. -1.
         21   -1    0    0  505  502 -0.00000000000E+00 -0.00000000000E+00 -0.11120796599E+04  0.11120796599E+04  0.00000000000E+00 0. -1.
         21    1    1    2  503  504 -0.31895131354E+02  0.37806801076E+02 -0.10484185298E+03  0.11592440531E+03  0.00000000000E+00 0. -1.
         21    1    1    2  504  501  0.69433917192E+02 -0.86216151179E+02  0.63476323558E+02  0.12760696389E+03  0.00000000000E+00 0. -1.
         21    1    1    2  505  503  0.18384468798E+02  0.94685944327E+02 -0.30540409028E+03  0.32027343802E+03  0.00000000000E+00 0.  1.
         21    1    1    2  506  502 -0.55923254637E+02 -0.46276594224E+02 -0.65478689136E+03  0.65879800142E+03  0.00000000000E+00 0. -1.
<scales pt_clust_3="46.57476" pt_clust_4="110.88496" pt_clust_5="46.57476" pt_clust_6="72.58742"></scales>
<clustering>
<clus scale="   46.575">  3  5 -1 -1</clus>
<clus scale="   72.587">  2  6  1 -1</clus>
<clus scale="  110.885">  1  4  2 -1</clus>
<clus scale="  110.885">  1  3  2 -1</clus>
</clustering>
</event>
<event>
 6    0  0.8991567E+002  0.8185547E+02  0.7546771E-02  0.1323867E+00
         21   -1    0    0  503  501  0.00000000000E+00  0.00000000000E+00  0.54819512998E+03  0.54819512998E+03  0.00000000000E+00 0.  1.
         21   -1    0    0  505  502 -0.00000000000E+00 -0.00000000000E+00 -0.50826063689E+02  0.50826063689E+02  0.00000000000E+00 0.  1.
         21    1    1    2  503  504  0.32030431830E+02 -0.88770909937E+02  0.28560816211E+03  0.30079601939E+03  0.00000000000E+00 0.  1.
         21    1    1    2  504  502 -0.60713417817E+02  0.38543429301E+02  0.91807642790E+02  0.11662057417E+03  0.00000000000E+00 0.  1.
         21    1    1    2  505  506 -0.31342281564E+02  0.11858202423E+02 -0.86309243621E+01  0.34604167866E+02  0.00000000000E+00 0.  1.
         21    1    1    2  506  501  0.60025267551E+02  0.38369278213E+02  0.12858418575E+03  0.14700043225E+03  0.00000000000E+00 0.  1.
<scales pt_clust_3="14000.00000" pt_clust_4="81.85547" pt_clust_5="33.51053" pt_clust_6="65.47916"></scales>
<clustering>
<clus scale="   33.511">  2  5  1 -1</clus>
<clus scale="   65.479">  2  6  1 -1</clus>
<clus scale="   81.855">  2  4  1 -1</clus>
<clus scale="   81.855">  1  3  2 -1</clus>
</clustering>
</event>
<event>
 6    0  0.8991567E+002  0.1095632E+03  0.7546771E-02  0.1261381E+00
         21   -1    0    0  504  501  0.00000000000E+00  0.00000000000E+00  0.19273388514E+03  0.19273388514E+03  0.00000000000E+00 0. -1.
         21   -1    0    0  505  502 -0.00000000000E+00 -0.00000000000E+00 -0.13203464177E+04  0.13203464177E+04  0.00000000000E+00 0.  1.
         21    1    1    2  503  502  0.38584562700E+02  0.23430402723E+02 -0.10895108323E+04  0.10904455997E+04  0.00000000000E+00 0.  1.
         21    1    1    2  504  506 -0.79328751487E+02 -0.10349526687E+03  0.11922522319E+03  0.17668892133E+03  0.00000000000E+00 0. -1.
         21    1    1    2  505  501  0.82208101930E+02  0.23407758331E+02 -0.14365070007E+02  0.86674393043E+02  0.00000000000E+00 0. -1.
         21    1    1    2  506  503 -0.41463913143E+02  0.56657105817E+02 -0.14296185343E+03  0.15927138873E+03  0.00000000000E+00 0.  1.
<scales pt_clust_3="45.14147" pt_clust_4="14000.00000" pt_clust_5="109.56325" pt_clust_6="73.81605"></scales>
<clustering>
<clus scale="   45.141">  2  3  1 -1</clus>
<clus scale="   73.816">  2  6  1 -1</clus>
<clus scale="  109.563">  2  5  1 -1</clus>
<clus scale="  109.563">  1  3  2 -1</clus>
</clustering>
</event>
<event>
 6    0  0.8991567E+002  0.1060560E+03  0.7546771E-02  0.1268053E+00
         21   -1    0    0  504  501  0.00000000000E+00  0.00000000000E+00  0.88749694683E+03  0.88749694683E+03  0.00000000000E+00 0. -1.
         21   -1    0    0  503  502 -0.00000000000E+00 -0.00000000000E+00 -0.10370734040E+03  0.10370734040E+03  0.00000000000E+00 0.  1.
         21    1    1    2  503  506  0.11355114683E+03 -0.10090857743E+02 -0.30804198181E+02  0.11808720076E+03  0.00000000000E+00 0.  1.
         21    1    1    2  504  505 -0.23062053733E+01  0.33568836003E+02  0.20621968017E+03  0.20894674399E+03  0.00000000000E+00 0. -1.
         21    1    1    2  505  502 -0.77325135659E+02  0.63197105068E+02  0.80828434657E+02  0.12847679379E+03  0.00000000000E+00 0. -1.
         21    1    1    2  506  501 -0.33919805803E+02 -0.86675083327E+02  0.52754568978E+03  0.53569354868E+03  0.00000000000E+00 0. -1.
<scales pt_clust_3="14000.00000" pt_clust_4="33.64796" pt_clust_5="106.05604" pt_clust_6="70.19729"></scales>
<clustering>
<clus scale="   33.648">  1  4  2 -1</clus>
<clus scale="   70.197">  1  6  2 -1</clus>
<clus scale="  106.056">  1  5  2 -1</clus>
<clus scale="   33.648">  1  3  2 -1</clus>
</clustering>
</event>
<event>
 6    0  0.8991567E+002  0.1357339E+03  0.7546771E-02  0.1219187E+00
         21   -1    0    0  503  501  0.00000000000E+00  0.00000000000E+00  0.51178372769E+03  0.51178372769E+03  0.00000000000E+00 0. -1.
         21   -1    0    0  504  502 -0.00000000000E+00 -0.00000000000E+00 -0.19882426739E+03  0.19882426739E+03  0.00000000000E+00 0. -1.
         21    1    1    2  503  505  0.67924158049E+02  0.48666362635E+02  0.16193547449E+03  0.18222295134E+03  0.00000000000E+00 0. -1.
         21    1    1    2  504  501 -0.25577228564E+02  0.46128278753E+02 -0.18104407083E+02  0.55765421881E+02  0.00000000000E+00 0.  1.
         21    1    1    2  505  506 -0.13204433821E+03 -0.16252656456E+03  0.25587522277E+03  0.33063986612E+03  0.00000000000E+00 0. -1.
         21    1    1    2  506  502  0.89697408721E+02  0.67731923174E+02 -0.86746829874E+02  0.14197975574E+03  0.00000000000E+00 0. -1.
<scales pt_clust_3="84.00379" pt_clust_4="52.74479" pt_clust_5="14000.00000" pt_clust_6="135.73390"></scales>
<clustering>
<clus scale="   52.745">  2  4  1 -1</clus>
<clus scale="   84.004">  1  3  2 -1</clus>
<clus scale="  135.734">  2  6  1 -1</clus>
<clus scale="   84.004">  1  3  2 -1</clus>
</clustering>
</event>
<event>
 6    0  0.8991567E+002  0.1274284E+03  0.7546771E-02  0.1231322E+00
         21   -1    0    0  505  501  0.00000000000E+00  0.00000000000E+00  0.17779300322E+03  0.17779300322E+03  0.00000000000E+00 0. -1.
         21   -1    0    0  504  502 -0.00000000000E+00 -0.00000000000E+00 -0.44307068800E+03  0.44307068800E+03  0.00000000000E+00 0. -1.
         21    1    1    2  503  506  0.15774620029E+01  0.46079184406E+02 -0.80552629206E+01  0.46804560489E+02  0.00000000000E+00 0. -1.
         21    1    1    2  504  501 -0.14358379186E+01 -0.46535278651E+02  0.50093256279E+02  0.68388069970E+02  0.00000000000E+00 0. -1.
         21    1    1    2  505  503 -0.29201935093E+02  0.10991583637E+03  0.54811374502E+02  0.12624789453E+03  0.00000000000E+00 0. -1.
         21    1    1    2  506  502  0.29060311008E+02 -0.10945974213E+03 -0.36212705264E+03  0.37942316624E+03  0.00000000000E+00 0. -1.
<scales pt_clust_3="32.85999" pt_clust_4="46.55742" pt_clust_5="32.85999" pt_clust_6="116.50979"></scales>
<clustering>
<clus scale="   32.860">  3  5 -1 -1</clus>
<clus scale="   46.557">  1  4  2 -1</clus>
<clus scale="  116.510">  2  6  1 -1</clus>
<clus scale="   46.557">  1  3  2 -1</clus>
</clustering>
</event>
<event>
 6    0  0.8991567E+002  0.9404188E+02  0.7546771E-02  0.1293349E+00
         21   -1    0    0  504  501  0.00000000000E+00  0.00000000000E+00  0.13335263168E+03  0.13335263168E+03  0.00000000000E+00 0. -1.
         21   -1    0    0  506  502 -0.00000000000E+00 -0.00000000000E+00 -0.51855842060E+03  0.51855842060E+03  0.00000000000E+00 0. -1.
         21    1    1    2  503  505 -0.11384688382E+03 -0.29340127521E+02 -0.64177355000E+02  0.13394285697E+03  0.00000000000E+00 0. -1.
         21    1    1    2  504  503  0.34974977716E+02  0.15694394273E+02  0.77723542144E+02  0.86663210656E+02  0.00000000000E+00 0. -1.
         21    1    1    2  505  502  0.99343783338E+02 -0.36837286140E+02 -0.21568145281E+03  0.24030119023E+03  0.00000000000E+00 0. -1.
         21    1    1    2  506  501 -0.20471877234E+02  0.50483019388E+02 -0.18307052325E+03  0.19100379443E+03  0.00000000000E+00 0. -1.
<scales pt_clust_3="14000.00000" pt_clust_4="38.33488" pt_clust_5="94.04188" pt_clust_6="54.66534"></scales>
<clustering>
<clus scale="   38.335">  1  4  2 -1</clus>
<clus scale="   54.665">  2  6  1 -1</clus>
<clus scale="   94.042">  2  5  1 -1</clus>
<clus scale="   38.335">  1  3  2 -1</clus>
</clustering>
</event>
<event>
 6    0  0.8991567E+002  0.1147968E+03  0.7546771E-02  0.1251936E+00
         21   -1    0    0  506  501  0.00000000000E+00  0.00000000000E+00  0.19561121879E+04  0.19561121879E+04  0.00000000000E+00 0. -1.
         21   -1    0    0  505  502 -0.00000000000E+00 -0.00000000000E+00 -0.69220759219E+02  0.69220759219E+02  0.00000000000E+00 0. -1.
         21    1    1    2  503  501 -0.75731037331E+02 -0.92042836877E+02  0.17019176404E+04  0.17060863778E+04  0.00000000000E+00 0. -1.
         21    1    1    2  504  503  0.83636160146E+02  0.28004919758E+02  0.86487345959E+02  0.12352871660E+03  0.00000000000E+00 0. -1.
         21    1    1    2  505  504  0.34086698229E+02  0.30513062708E+01 -0.31246295665E+02  0.46341606132E+02  0.00000000000E+00 0. -1.
         21    1    1    2  506  502 -0.41991821044E+02  0.60986610848E+02  0.12973273802E+03  0.14937624661E+03  0.00000000000E+00 0. -1.
<scales pt_clust_3="14000.00000" pt_clust_4="114.79677" pt_clust_5="34.22300" pt_clust_6="69.28761"></scales>
<clustering>
<clus scale="   34.223">  2  5  1 -1</clus>
<clus scale="   69.288">  2  6  1 -1</clus>
<clus scale="  114.797">  2  4  1 -1</clus>
<clus scale="  114.797">  1  3  2 -1</clus>
</clustering>
</event>
<event>
 6    0  0.8991567E+002  0.8320668E+02  0.7546771E-02  0.1320190E+00
         21   -1    0    0  504  501  0.00000000000E+00  0.00000000000E+00  0.30115002137E+03  0.30115002137E+03  0.00000000000E+00 0. -1.
         21   -1    0    0  506  502 -0.00000000000E+00 -0.00000000000E+00 -0.67109597965E+03  0.67109597965E+03  0.00000000000E+00 0.  1.
         21    1    1    2  503  505 -0.26015509334E+02 -0.38759333725E+02 -0.11801844273E+03  0.12691511140E+03  0.00000000000E+00 0. -1.
         21    1    1    2  504  503 -0.77077740393E+02  0.31070343908E+02  0.28285037210E+03  0.29480616909E+03  0.00000000000E+00 0. -1.
         21    1    1    2  505  502  0.16889651792E+02  0.35189921263E+02 -0.12875415014E+03  0.13454078220E+03  0.00000000000E+00 0.  1.
         21    1    1    2  506  501  0.86203597935E+02 -0.27500931445E+02 -0.40602373751E+03  0.41598393833E+03  0.00000000000E+00 0.  1.
<scales pt_clust_3="37.93185" pt_clust_4="14000.00000" pt_clust_5="39.03320" pt_clust_6="83.20668"></scales>
<clustering>
<clus scale="   39.033">  2  5  1 -1</clus>
<clus scale="   37.932">  2  3  1 -1</clus>
<clus scale="   83.207">  2  6  1 -1</clus>
<clus scale="   83.207">  1  3  2 -1</clus>
</clustering>
</event>
<event>
 6    0  0.9218638E+002  0.8705541E+02  0.7546771E-02  0.1310143E+00
         21   -1    0    0  505  501  0.00000000000E+00  0.00000000000E+00  0.35330920005E+03  0.35330920005E+03  0.00000000000E+00 0.  1.
         21   -1    0    0  506  502 -0.00000000000E+00 -0.00000000000E+00 -0.60140334849E+03  0.60140334849E+03  0.00000000000E+00 0. -1.
         21    1    1    2  503  501  0.83292273623E+02  0.38547875690E+02  0.30932590564E+03  0.32265470316E+03  0.00000000000E+00 0.  1.
         21    1    1    2  504  502 -0.13087008380E+02  0.31410955303E+02 -0.14884919214E+02  0.37141334406E+02  0.00000000000E+00 0.  1.
         21    1    1    2  505  504 -0.63256749420E+02  0.23181774803E+01 -0.18602067142E+02  0.65975959228E+02  0.00000000000E+00 0. -1.
         21    1    1    2  506  503 -0.69485158232E+01 -0.72277008473E+02 -0.52393306773E+03  0.52894055175E+03  0.00000000000E+00 0. -1.
<scales pt_clust_3="14000.00000" pt_clust_4="34.02819" pt_clust_5="87.05541" pt_clust_6="47.47255"></scales>
<clustering>
<clus scale="   34.028">  2  4  1 -1</clus>
<clus scale="   47.473">  2  6  1 -1</clus>
<clus scale="   87.055">  2  5  1 -1</clus>
<clus scale="   87.055">  1  3  2 -1</clus>
</clustering>
</event>
<event>
 6    0  0.8991567E+002  0.1294519E+03  0.7546771E-02  0.1228271E+00
         21   -1    0    0  504  501  0.00000000000E+00  0.00000000000E+00  0.14107883003E+04  0.14107883003E+04  0.00000000000E+00 0.  1.
         21   -1    0    0  503  502 -0.00000000000E+00 -0.00000000000E+00 -0.10215821316E+03  0.10215821316E+03  0.00000000000E+00 0. -1.
         21    1    1    2  503  506  0.30411891941E+02  0.15147006111E+02 -0.29358297177E+02  0.44902389455E+02  0.00000000000E+00 0. -1.
         21    1    1    2  504  502 -0.17599039126E+02 -0.11875750441E+03  0.19144471054E+02  0.12157130337E+03  0.00000000000E+00 0. -1.
         21    1    1    2  505  501 -0.51492782626E+02  0.12062693722E+03  0.12867303903E+04  0.12933976426E+04  0.00000000000E+00 0.  1.
         21    1    1    2  506  505  0.38679929811E+02 -0.17016438922E+02  0.32113522994E+02  0.53075178029E+02  0.00000000000E+00 0. -1.
<scales pt_clust_3="33.97521" pt_clust_4="14000.00000" pt_clust_5="129.45186" pt_clust_6="45.95417"></scales>
<clustering>
<clus scale="   33.975">  2  3  1 -1</clus>
<clus scale="   45.954">  2  6  1 -1</clus>
<clus scale="  129.452">  1  5  2 -1</clus>
<clus scale="  129.452">  1  3  2 -1</clus>
</clustering>
</event>
<event>
 6    0  0.8991567E+002  0.1848104E+03  0.7546771E-02  0.1163227E+00
         21   -1    0    0  503  501  0.00000000000E+00  0.00000000000E+00  0.21156106913E+03  0.21156106913E+03  0.00000000000E+00 0.  1.
         21   -1    0    0  504  502 -0.00000000000E+00 -0.00000000000E+00 -0.14945476220E+04  0.14945476220E+04  0.00000000000E+00 0. -1.
         21    1    1    2  503  506  0.46083676026E+02  0.47215007226E+01  0.51391573428E+02  0.69188811122E+02  0.00000000000E+00 0.  1.
         21    1    1    2  504  505 -0.93355035500E+02 -0.15915660605E+03 -0.13763400174E+04  0.13886532437E+04  0.00000000000E+00 0. -1.
         21    1    1    2  505  501 -0.32924185426E+02 -0.17928939026E+02  0.44443285766E+02  0.58143395930E+02  0.00000000000E+00 0.  1.
         21    1    1    2  506  502  0.80195544901E+02  0.17236404435E+03 -0.24813947130E+01  0.19012324036E+03  0.00000000000E+00 0.  1.
<scales pt_clust_3="33.75879" pt_clust_4="14000.00000" pt_clust_5="37.48932" pt_clust_6="184.81042"></scales>
<clustering>
<clus scale="   37.489">  1  5  2 -1</clus>
<clus scale="   33.759">  1  3  2 -1</clus>
<clus scale="  184.810">  1  6  2 -1</clus>
<clus scale="   37.489">  1  3  2 -1</clus>
</clustering>
</event>
<event>
 6    0  0.8991567E+002  0.1023963E+03  0.7546771E-02  0.1275336E+00
         21   -1    0    0  503  501  0.00000000000E+00  0.00000000000E+00  0.12043783322E+03  0.12043783322E+03  0.00000000000E+00 0. -1.
         21   -1    0    0  506  502 -0.00000000000E+00 -0.00000000000E+00 -0.34158945935E+03  0.34158945935E+03  0.00000000000E+00 0. -1.
         21    1    1    2  503  502 -0.78983205322E+02 -0.30407084184E+02 -0.21326986373E+03  0.22944928038E+03  0.00000000000E+00 0. -1.
         21    1    1    2  504  505  0.24182964680E+02  0.35961678059E+02  0.13699328392E+02  0.45450298876E+02  0.00000000000E+00 0. -1.
         21    1    1    2  505  501 -0.72472709398E+01 -0.78389431148E+02  0.22362598234E+02  0.81838326300E+02  0.00000000000E+00 0. -1.
         21    1    1    2  506  504  0.62047511582E+02  0.72834837273E+02 -0.43943689027E+02  0.10528938702E+03  0.00000000000E+00 0. -1.
<scales pt_clust_3="89.16077" pt_clust_4="33.88709" pt_clust_5="78.72373" pt_clust_6="33.88709"></scales>
<clustering>
<clus scale="   33.887">  4  6 -1 -1</clus>
<clus scale="   78.724">  1  5  2 -1</clus>
<clus scale="   89.161">  2  3  1 -1</clus>
<clus scale="   78.724">  1  3  2 -1</clus>
</clustering>
</event>
<event>
 6    0  0.8991567E+002  0.1052332E+03  0.7546771E-02  0.1269661E+00
         21   -1    0    0  506  501  0.00000000000E+00  0.00000000000E+00  0.14779241793E+04  0.14779241793E+04  0.00000000000E+00 0. -1.
         21   -1    0    0  503  502 -0.00000000000E+00 -0.00000000000E+00 -0.10660346909E+03  0.10660346909E+03  0.00000000000E+00 0. -1.
         21    1    1    2  503  504  0.12067468551E+02  0.27570381383E+02  0.51497127940E+02  0.59646491204E+02  0.00000000000E+00 0.  1.
         21    1    1    2  504  501 -0.95840811483E+02  0.45409135001E+02  0.13548983388E+04  0.13590426628E+04  0.00000000000E+00 0. -1.
         21    1    1    2  505  502  0.20496193101E+02 -0.43396426139E+02  0.40593717781E+02  0.62858520954E+02  0.00000000000E+00 0.  1.
         21    1    1    2  506  505  0.63277149830E+02 -0.29583090245E+02 -0.75668474353E+02  0.10297997344E+03  0.00000000000E+00 0. -1.
<scales pt_clust_3="30.09568" pt_clust_4="105.23317" pt_clust_5="45.91203" pt_clust_6="14000.00000"></scales>
<clustering>
<clus scale="   30.096">  2  3  1 -1</clus>
<clus scale="   45.912">  2  5  1 -1</clus>
<clus scale="  105.233">  1  4  2 -1</clus>
<clus scale="  105.233">  1  3  2 -1</clus>
</clustering>
</event>
<event>
 6    0  0.8991567E+002  0.1114854E+03  0.7546771E-02  0.1257844E+00
         21   -1    0    0  504  501  0.00000000000E+00  0.00000000000E+00  0.11821500955E+03  0.11821500955E+03  0.00000000000E+00 0.  1.
         21   -1    0    0  505  502 -0.00000000000E+00 -0.00000000000E+00 -0.79030548980E+03  0.79030548980E+03  0.00000000000E+00 0.  1.
         21    1    1    2  503  506 -0.88182664888E+01 -0.10074558510E+03 -0.64159491175E+02  0.11976591773E+03  0.00000000000E+00 0.  1.
         21    1    1    2  504  503 -0.13470082925E+02 -0.48507443604E+02  0.67866006054E+02  0.84499763294E+02  0.00000000000E+00 0.  1.
         21    1    1    2  505  501  0.24785467610E+02  0.10280995747E+03 -0.20044383367E+03  0.22663172156E+03  0.00000000000E+00 0.  1.
         21    1    1    2  506  502 -0.24971181961E+01  0.46443071233E+02 -0.47535316145E+03  0.47762309677E+03  0.00000000000E+00 0.  1.
<scales pt_clust_3="14000.00000" pt_clust_4="49.17628" pt_clust_5="111.48544" pt_clust_6="46.51015"></scales>
<clustering>
<clus scale="   46.510">  2  6  1 -1</clus>
<clus scale="   49.176">  1  4  2 -1</clus>
<clus scale="  111.485">  2  5  1 -1</clus>
<clus scale="   49.176">  1  3  2 -1</clus>
</clustering>
</event>
<event>
 6    0  0.8991567E+002  0.2412115E+03  0.7546771E-02  0.1118988E+00
         21   -1    0    0  506  501  0.00000000000E+00  0.00000000000E+00  0.14214249643E+03  0.14214249643E+03  0.00000000000E+00 0.  1.
         21   -1    0    0  504  502 -0.00000000000E+00 -0.00000000000E+00 -0.11516635990E+04  0.11516635990E+04  0.00000000000E+00 0.  1.
         21    1    1    2  503  502  0.19708653988E+03  0.12979835516E+03 -0.76041712754E+03  0.79619402476E+03  0.00000000000E+00 0.  1.
         21    1    1    2  504  505  0.34878495401E+02 -0.23549589567E+02 -0.83039434475E+02  0.93094791949E+02  0.00000000000E+00 0. -1.
         21    1    1    2  505  501 -0.21788226850E+03 -0.79301898682E+02 -0.23441155937E+03  0.32971237955E+03  0.00000000000E+00 0.  1.
         21    1    1    2  506  503 -0.14082766778E+02 -0.26946866911E+02  0.68347018827E+02  0.74804899164E+02  0.00000000000E+00 0.  1.
<scales pt_clust_3="241.21148" pt_clust_4="42.38183" pt_clust_5="14000.00000" pt_clust_6="30.40490"></scales>
<clustering>
<clus scale="   30.405">  1  6  2 -1</clus>
<clus scale="   42.382">  2  4  1 -1</clus>
<clus scale="  241.211">  2  3  1 -1</clus>
<clus scale="   30.405">  1  3  2 -1</clus>
</clustering>
</event>
<event>
 6    0  0.8991567E+002  0.5863211E+02  0.7546771E-02  0.1403663E+00
         21   -1    0    0  506  501  0.00000000000E+00  0.00000000000E+00  0.63708452111E+03  0.63708452111E+03  0.00000000000E+00 0.  1.
         21   -1    0    0  503  502 -0.00000000000E+00 -0.00000000000E+00 -0.52030082447E+02  0.52030082447E+02  0.00000000000E+00 0.  1.
         21    1    1    2  503  505 -0.43552544678E+02  0.24558823159E+02  0.13841725963E+02  0.51880182349E+02  0.00000000000E+00 0.  1.
         21    1    1    2  504  502  0.53766146374E+02 -0.61978673504E+02  0.50875889684E+02  0.96542791633E+02  0.00000000000E+00 0.  1.
         21    1    1    2  505  501  0.44939061035E+01 -0.52761821837E+02  0.24254689841E+03  0.24825995038E+03  0.00000000000E+00 0.  1.
         21    1    1    2  506  504 -0.14707507800E+02  0.90181672181E+02  0.27778992460E+03  0.29243167919E+03  0.00000000000E+00 0.  1.
<scales pt_clust_3="49.99960" pt_clust_4="58.63211" pt_clust_5="50.64187" pt_clust_6="14000.00000"></scales>
<clustering>
<clus scale="   50.000">  2  3  1 -1</clus>
<clus scale="   50.642">  1  5  2 -1</clus>
<clus scale="   58.632">  2  4  1 -1</clus>
<clus scale="   50.642">  1  3  2 -1</clus>
</clustering>
</event>
<event>
 6    0  0.8991567E+002  0.1373906E+03  0.7546771E-02  0.1216884E+00
         21   -1    0    0  504  501  0.00000000000E+00  0.00000000000E+00  0.28912901936E+03  0.28912901936E+03  0.00000000000E+00 0. -1.
         21   -1    0    0  503  502 -0.00000000000E+00 -0.00000000000E+00 -0.10035790751E+04  0.10035790751E+04  0.00000000000E+00 0. -1.
         21    1    1    2  503  501  0.16673084508E+02 -0.27480271835E+02  0.21482237115E+03  0.21721373859E+03  0.00000000000E+00 0. -1.
         21    1    1    2  504  506 -0.84243951899E+02 -0.78040516742E+02  0.19691374317E+02  0.11651229938E+03  0.00000000000E+00 0. -1.
         21    1    1    2  505  502  0.33979821664E+02  0.54242582080E+02 -0.68545073860E+03  0.68843271351E+03  0.00000000000E+00 0. -1.
         21    1    1    2  506  505  0.33591045727E+02  0.51278206496E+02 -0.26351306260E+03  0.27054934296E+03  0.00000000000E+00 0. -1.
<scales pt_clust_3="32.14276" pt_clust_4="124.34766" pt_clust_5="57.00550" pt_clust_6="57.00550"></scales>
<clustering>
<clus scale="   32.143">  1  3  2 -1</clus>
<clus scale="   57.006">  5  6 -1 -1</clus>
<clus scale="  124.348">  1  4  2 -1</clus>
<clus scale="   32.143">  1  3  2 -1</clus>
</clustering>
</event>
<event>
 6    0  0.8991567E+002  0.1464660E+03  0.7546771E-02  0.1204884E+00
         21   -1    0    0  504  501  0.00000000000E+00  0.00000000000E+00  0.30919123832E+03  0.30919123832E+03  0.00000000000E+00 0. -1.
         21   -1    0    0  505  502 -0.00000000000E+00 -0.00000000000E+00 -0.18207201119E+04  0.18207201119E+04  0.00000000000E+00 0.  1.
         21    1    1    2  503  502 -0.14868533868E+03 -0.71605501538E+02  0.24444792440E+02  0.16682993037E+03  0.00000000000E+00 0. -1.
         21    1    1    2  504  503  0.28143703270E+02 -0.40514162010E+02  0.15409354527E+03  0.16179705205E+03  0.00000000000E+00 0. -1.
         21    1    1    2  505  506 -0.79026031378E+01  0.87514335072E+02 -0.16659912457E+04  0.16683069384E+04  0.00000000000E+00 0.  1.
         21    1    1    2  506  501  0.12844423855E+03  0.24605328477E+02 -0.24075965583E+02  0.13297742938E+03  0.00000000000E+00 0. -1.
<scales pt_clust_3="146.46602" pt_clust_4="49.33017" pt_clust_5="87.54234" pt_clust_6="14000.00000"></scales>
<clustering>
<clus scale="   49.330">  1  4  2 -1</clus>
<clus scale="   87.542">  2  5  1 -1</clus>
<clus scale="  146.466">  1  3  2 -1</clus>
<clus scale="   49.330">  1  3  2 -1</clus>
</clustering>
</event>
<event>
 6    0  0.8991567E+002  0.1050456E+03  0.7546771E-02  0.1270030E+00
         21   -1    0    0  506  501  0.00000000000E+00  0.00000000000E+00  0.19505018168E+03  0.19505018168E+03  0.00000000000E+00 0. -1.
         21   -1    0    0  503  502 -0.00000000000E+00 -0.00000000000E+00 -0.23246141747E+03  0.23246141747E+03  0.00000000000E+00 0.  1.
         21    1    1    2  503  501 -0.60697061315E+02  0.83583841487E+02  0.33546720981E+01  0.10335204708E+03  0.00000000000E+00 0. -1.
         21    1    1    2  504  502 -0.43688825470E+02 -0.25827765423E+02 -0.96428096943E+02  0.10896864144E+03  0.00000000000E+00 0.  1.
         21    1    1    2  505  504  0.12064988703E+03 -0.31557922389E+02 -0.26447086014E+02  0.12748233629E+03  0.00000000000E+00 0.  1.
         21    1    1    2  506  505 -0.16264000247E+02 -0.26198153675E+02  0.82109275071E+02  0.87708574340E+02  0.00000000000E+00 0. -1.
<scales pt_clust_3="105.04555" pt_clust_4="52.31456" pt_clust_5="14000.00000" pt_clust_6="30.83603"></scales>
<clustering>
<clus scale="   30.836">  1  6  2 -1</clus>
<clus scale="   52.315">  2  4  1 -1</clus>
<clus scale="  105.046">  1  3  2 -1</clus>
<clus scale="   30.836">  1  3  2 -1</clus>
</clustering>
</event>
<event>
 6    0  0.8991567E+002  0.9490459E+02  0.7546771E-02  0.1291391E+00
         21   -1    0    0  506  501  0.00000000000E+00  0.00000000000E+00  0.11320832235E+03  0.11320832235E+03  0.00000000000E+00 0.  1.
         21   -1    0    0  505  502 -0.00000000000E+00 -0.00000000000E+00 -0.36014884879E+03  0.36014884879E+03  0.00000000000E+00 0.  1.
         21    1    1    2  503  504  0.85889774398E+02 -0.24268845892E+02 -0.62970365227E+02  0.10923047708E+03  0.00000000000E+00 0.  1.
         21    1    1    2  504  501 -0.43751814871E+02 -0.93194269920E+01  0.34865969986E+02  0.56716037301E+02  0.00000000000E+00 0.  1.
         21    1    1    2  505  503  0.37645685841E+02 -0.26246449701E+02 -0.20090987674E+03  0.20608457574E+03  0.00000000000E+00 0.  1.
         21    1    1    2  506  502 -0.79783645367E+02  0.59834722585E+02 -0.17926254456E+02  0.10132608101E+03  0.00000000000E+00 0.  1.
<scales pt_clust_3="14000.00000" pt_clust_4="44.73335" pt_clust_5="44.73671" pt_clust_6="94.90459"></scales>
<clustering>
<clus scale="   44.733">  1  4  2 -1</clus>
<clus scale="   44.737">  2  5  1 -1</clus>
<clus scale="   94.905">  2  6  1 -1</clus>
<clus scale="   44.733">  1  3  2 -1</clus>
</clustering>
</event>
<event>
 6    0  0.8991567E+002  0.1044883E+03  0.7546771E-02  0.1271131E+00
         21   -1    0    0  505  501  0.00000000000E+00  0.00000000000E+00  0.27546578670E+03  0.27546578670E+03  0.00000000000E+00 0.  1.
         21   -1    0    0  501  502 -0.00000000000E+00 -0.00000000000E+00 -0.12484339544E+03  0.12484339544E+03  0.00000000000E+00 0.  1.
         21    1    1    2  503  502  0.27510853642E+02  0.97530928797E+02 -0.41108444222E+02  0.10935736521E+03  0.00000000000E+00 0.  1.
         21    1    1    2  504  506 -0.19217560855E+02  0.27419653749E+02  0.34505048403E+02  0.48080665784E+02  0.00000000000E+00 0.  1.
         21    1    1    2  505  504 -0.29996495423E+02 -0.54565131344E+01  0.10732254922E+03  0.11156922893E+03  0.00000000000E+00 0.  1.
         21    1    1    2  506  503  0.21703202635E+02 -0.11949406941E+03  0.49903237858E+02  0.13130192222E+03  0.00000000000E+00 0.  1.
<scales pt_clust_3="104.48831" pt_clust_4="37.29596" pt_clust_5="30.48874" pt_clust_6="14000.00000"></scales>
<clustering>
<clus scale="   30.489">  1  5  2 -1</clus>
<clus scale="   37.296">  1  4  2 -1</clus>
<clus scale="  104.488">  2  3  1 -1</clus>
<clus scale="   30.489">  1  3  2 -1</clus>
</clustering>
</event>
<event>
 6    0  0.8991567E+002  0.7425356E+02  0.7546771E-02  0.1346198E+00
         21   -1    0    0  504  501  0.00000000000E+00  0.00000000000E+00  0.87023659874E+02  0.87023659874E+02  0.00000000000E+00 0.  1.
         21   -1    0    0  503  502 -0.00000000000E+00 -0.00000000000E+00 -0.25341567898E+03  0.25341567898E+03  0.00000000000E+00 0.  1.
         21    1    1    2  503  501  0.58569973779E+02 -0.49148345975E+02 -0.43853833319E+02  0.88142841101E+02  0.00000000000E+00 0.  1.
         21    1    1    2  504  505 -0.28484002464E+02 -0.15930769815E+02  0.22684574730E+02  0.39745663335E+02  0.00000000000E+00 0.  1.
         21    1    1    2  505  506  0.16944847853E+02  0.96903016338E+02 -0.89616094531E+02  0.13307278776E+03  0.00000000000E+00 0.  1.
         21    1    1    2  506  502 -0.47030819168E+02 -0.31823900549E+02 -0.55606665984E+02  0.79478046652E+02  0.00000000000E+00 0.  1.
<scales pt_clust_3="14000.00000" pt_clust_4="32.63630" pt_clust_5="74.25356" pt_clust_6="63.74354"></scales>
<clustering>
<clus scale="   32.636">  1  4  2 -1</clus>
<clus scale="   63.744">  2  6  1 -1</clus>
<clus scale="   74.254">  2  5  1 -1</clus>
<clus scale="   32.636">  1  3  2 -1</clus>
</clustering>
</event>
<event>
 6    0  0.8991567E+002  0.1285045E+03  0.7546771E-02  0.1229692E+00
         21   -1    0    0  506  501  0.00000000000E+00  0.00000000000E+00  0.11369100754E+03  0.11369100754E+03  0.00000000000E+00 0. -1.
         21   -1    0    0  505  502 -0.00000000000E+00 -0.00000000000E+00 -0.39930882425E+03  0.39930882425E+03  0.00000000000E+00 0. -1.
         21    1    1    2  503  504  0.98412502698E+02 -0.24248425503E+02 -0.10230784010E+03  0.14401354440E+03  0.00000000000E+00 0. -1.
         21    1    1    2  504  502  0.50740946407E+02  0.33876559467E+02 -0.88459609690E+02  0.10745867797E+03  0.00000000000E+00 0. -1.
         21    1    1    2  505  501 -0.82090712134E+02  0.51795786582E+02 -0.13152981561E+03  0.16346798133E+03  0.00000000000E+00 0. -1.
         21    1    1    2  506  503 -0.67062736972E+02 -0.61423920546E+02  0.36679448688E+02  0.98059628091E+02  0.00000000000E+00 0. -1.
<scales pt_clust_3="52.08375" pt_clust_4="52.08375" pt_clust_5="109.57551" pt_clust_6="90.94124"></scales>
<clustering>
<clus scale="   52.084">  3  4 -1 -1</clus>
<clus scale="   90.941">  1  6  2 -1</clus>
<clus scale="  109.576">  2  5  1 -1</clus>
<clus scale="   90.941">  1  3  2 -1</clus>
</clustering>
</event>
<event>
 6    0  0.8991567E+002  0.1371207E+03  0.7546771E-02  0.1217257E+00
         21   -1    0    0  503  501  0.00000000000E+00  0.00000000000E+00  0.25487472611E+04  0.25487472611E+04  0.00000000000E+00 0.  1.
         21   -1    0    0  505  502 -0.00000000000E+00 -0.00000000000E+00 -0.11088445882E+03  0.11088445882E+03  0.00000000000E+00 0. -1.
         21    1    1    2  503  506  0.28801730995E+02  0.38206855789E+02  0.11883817055E+04  0.11893445176E+04  0.00000000000E+00 0.  1.
         21    1    1    2  504  502 -0.65973111867E+02  0.18628313394E+02  0.80895870597E+02  0.10603587803E+03  0.00000000000E+00 0.  1.
         21    1    1    2  505  501 -0.28645942875E+02  0.83378552206E+02 -0.72127368433E+02  0.11390755150E+03  0.00000000000E+00 0. -1.
         21    1    1    2  506  504  0.65817323747E+02 -0.14021372139E+03  0.12407125946E+04  0.12503437728E+04  0.00000000000E+00 0.  1.
<scales pt_clust_3="47.84667" pt_clust_4="67.43085" pt_clust_5="14000.00000" pt_clust_6="137.12073"></scales>
<clustering>
<clus scale="   47.847">  1  3  2 -1</clus>
<clus scale="   67.431">  2  4  1 -1</clus>
<clus scale="  137.121">  1  6  2 -1</clus>
<clus scale="   47.847">  1  3  2 -1</clus>
</clustering>
</event>
<event>
 6    0  0.8991567E+002  0.6402810E+02  0.7546771E-02  0.1381665E+00
         21   -1    0    0  506  501  0.00000000000E+00  0.00000000000E+00  0.16540690502E+04  0.16540690502E+04  0.00000000000E+00 0. -1.
         21   -1    0    0  505  502 -0.00000000000E+00 -0.00000000000E+00 -0.12908728191E+03  0.12908728191E+03  0.00000000000E+00 0.  1.
         21    1    1    2  503  504 -0.34572110207E+02  0.86649069595E+02  0.34818779558E+03  0.36046918461E+03  0.00000000000E+00 0.  1.
         21    1    1    2  504  502 -0.23707831591E+02 -0.29977429076E+02 -0.75693014968E+02  0.84794693511E+02  0.00000000000E+00 0.  1.
         21    1    1    2  505  501  0.70023829195E+02  0.41733911703E+01 -0.12615285097E+02  0.71273412063E+02  0.00000000000E+00 0.  1.
         21    1    1    2  506  503 -0.11743887397E+02 -0.60845031689E+02  0.12651022728E+04  0.12666190419E+04  0.00000000000E+00 0. -1.
<scales pt_clust_3="64.02810" pt_clust_4="38.21920" pt_clust_5="54.14644" pt_clust_6="14000.00000"></scales>
<clustering>
<clus scale="   38.219">  2  4  1 -1</clus>
<clus scale="   54.146">  2  5  1 -1</clus>
<clus scale="   64.028">  2  3  1 -1</clus>
<clus scale="   64.028">  1  3  2 -1</clus>
</clustering>
</event>
<event>
 6    0  0.8991567E+002  0.1098762E+03  0.7546771E-02  0.1260799E+00
         21   -1    0    0  506  501  0.00000000000E+00  0.00000000000E+00  0.14595645610E+04  0.14595645610E+04  0.00000000000E+00 0.  1.
         21   -1    0    0  504  502 -0.00000000000E+00 -0.00000000000E+00 -0.27045580053E+03  0.27045580053E+03  0.00000000000E+00 0. -1.
         21    1    1    2  503  505 -0.12955809366E+03 -0.13289115326E+02  0.13196892360E+03  0.18541223534E+03  0.00000000000E+00 0. -1.
         21    1    1    2  504  503  0.51444699205E+02 -0.58690283853E+02 -0.22995657769E+03  0.24283972928E+03  0.00000000000E+00 0. -1.
         21    1    1    2  505  501  0.81298964780E+02  0.11100467882E+03  0.11750362930E+04  0.11830646010E+04  0.00000000000E+00 0.  1.
         21    1    1    2  506  502 -0.31855703298E+01 -0.39025279644E+02  0.11206012162E+03  0.11870379593E+03  0.00000000000E+00 0. -1.
<scales pt_clust_3="109.87617" pt_clust_4="78.17623" pt_clust_5="14000.00000" pt_clust_6="39.15508"></scales>
<clustering>
<clus scale="   39.155">  1  6  2 -1</clus>
<clus scale="   78.176">  2  4  1 -1</clus>
<clus scale="  109.876">  2  3  1 -1</clus>
<clus scale="   39.155">  1  3  2 -1</clus>
</clustering>
</event>
<event>
 6    0  0.8991567E+002  0.6780740E+02  0.7546771E-02  0.1367712E+00
         21   -1    0    0  504  501  0.00000000000E+00  0.00000000000E+00  0.72568883083E+03  0.72568883083E+03  0.00000000000E+00 0. -1.
         21   -1    0    0  506  502 -0.00000000000E+00 -0.00000000000E+00 -0.39237256179E+02  0.39237256179E+02  0.00000000000E+00 0. -1.
         21    1    1    2  503  502  0.22991322285E+02 -0.52658838597E+02  0.25792071416E+02  0.62982419219E+02  0.00000000000E+00 0. -1.
         21    1    1    2  504  503  0.52113997386E+02  0.42244547001E+02  0.74746137300E+02  0.10043632568E+03  0.00000000000E+00 0. -1.
         21    1    1    2  505  501  0.18050215916E+01 -0.37431763878E+02  0.27904218312E+03  0.28154739390E+03  0.00000000000E+00 0. -1.
         21    1    1    2  506  505 -0.76910341263E+02  0.47846055474E+02  0.30687118281E+03  0.31995994820E+03  0.00000000000E+00 0. -1.
<scales pt_clust_3="60.96433" pt_clust_4="14000.00000" pt_clust_5="37.47526" pt_clust_6="67.80740"></scales>
<clustering>
<clus scale="   37.475">  1  5  2 -1</clus>
<clus scale="   60.964">  2  3  1 -1</clus>
<clus scale="   67.807">  1  6  2 -1</clus>
<clus scale="   37.475">  1  3  2 -1</clus>
</clustering>
</event>
<event>
 6    0  0.8991567E+002  0.1261512E+03  0.7546771E-02  0.1233281E+00
         21   -1    0    0  503  501  0.00000000000E+00  0.00000000000E+00  0.78837270426E+03  0.78837270426E+03  0.00000000000E+00 0. -1.
         21   -1    0    0  506  502 -0.00000000000E+00 -0.00000000000E+00 -0.15444715090E+04  0.15444715090E+04  0.00000000000E+00 0. -1.
         21    1    1    2  503  502  0.53291534671E+02  0.84276739690E+02  0.76285250414E+02  0.12554678790E+03  0.00000000000E+00 0. -1.
         21    1    1    2  504  501  0.56712667716E+02 -0.14296783114E+02  0.66921042079E+03  0.67176135046E+03  0.00000000000E+00 0. -1.
         21    1    1    2  505  504 -0.97993759343E+02 -0.10344506851E+03 -0.28704276430E+03  0.32046405041E+03  0.00000000000E+00 0. -1.
         21    1    1    2  506  505 -0.12010443044E+02  0.33465111936E+02 -0.12145517117E+04  0.12150720245E+04  0.00000000000E+00 0. -1.
<scales pt_clust_3="126.15124" pt_clust_4="58.41036" pt_clust_5="14000.00000" pt_clust_6="35.55509"></scales>
<clustering>
<clus scale="   35.555">  2  6  1 -1</clus>
<clus scale="   58.410">  1  4  2 -1</clus>
<clus scale="  126.151">  1  3  2 -1</clus>
<clus scale="   58.410">  1  3  2 -1</clus>
</clustering>
</event>
<event>
 6    0  0.8991567E+002  0.8090884E+02  0.7546771E-02  0.1326492E+00
         21   -1    0    0  506  501  0.00000000000E+00  0.00000000000E+00  0.11085396980E+04  0.11085396980E+04  0.00000000000E+00 0.  1.
         21   -1    0    0  503  502 -0.00000000000E+00 -0.00000000000E+00 -0.67272361053E+02  0.67272361053E+02  0.00000000000E+00 0.  1.
         21    1    1    2  503  505 -0.58457736757E+02  0.60827553222E+02  0.82720298567E+02  0.11815221544E+03  0.00000000000E+00 0.  1.
         21    1    1    2  504  501 -0.25683410449E+02  0.26664152178E+02  0.80216518629E+03  0.80301905375E+03  0.00000000000E+00 0.  1.
         21    1    1    2  505  504  0.46297539150E+02 -0.16425180812E+02  0.16640509014E+03  0.17350476282E+03  0.00000000000E+00 0.  1.
         21    1    1    2  506  502  0.37843608056E+02 -0.71066524588E+02 -0.10023238034E+02  0.81136027068E+02  0.00000000000E+00 0.  1.
<scales pt_clust_3="80.90884" pt_clust_4="37.02181" pt_clust_5="32.07091" pt_clust_6="14000.00000"></scales>
<clustering>
<clus scale="   37.022">  1  4  2 -1</clus>
<clus scale="   32.071">  1  5  2 -1</clus>
<clus scale="   80.909">  1  3  2 -1</clus>
<clus scale="   37.022">  1  3  2 -1</clus>
</clustering>
</event>
<event>
 6    0  0.8991567E+002  0.9723638E+02  0.7546771E-02  0.1286217E+00
         21   -1    0    0  504  501  0.00000000000E+00  0.00000000000E+00  0.28774154403E+03  0.28774154403E+03  0.00000000000E+00 0.  1.
         21   -1    0    0  506  502 -0.00000000000E+00 -0.00000000000E+00 -0.21068270696E+03  0.21068270696E+03  0.00000000000E+00 0. -1.
         21    1    1    2  503  505 -0.16977086035E+02 -0.84911133067E+02  0.50552118721E+02  0.10026783470E+03  0.00000000000E+00 0.  1.
         21    1    1    2  504  503 -0.35582276397E+02 -0.40180859084E+01  0.17053087203E+03  0.17424988299E+03  0.00000000000E+00 0.  1.
         21    1    1    2  505  502 -0.40331817210E+02  0.19613909963E+02 -0.79437895623E+02  0.91223572636E+02  0.00000000000E+00 0. -1.
         21    1    1    2  506  501  0.92891179642E+02  0.69315309012E+02 -0.64586258052E+02  0.13268296065E+03  0.00000000000E+00 0. -1.
<scales pt_clust_3="14000.00000" pt_clust_4="35.80843" pt_clust_5="46.40347" pt_clust_6="97.23638"></scales>
<clustering>
<clus scale="   35.808">  1  4  2 -1</clus>
<clus scale="   46.403">  2  5  1 -1</clus>
<clus scale="   97.236">  2  6  1 -1</clus>
<clus scale="   35.808">  1  3  2 -1</clus>
</clustering>
</event>
<event>
 6    0  0.8991567E+002  0.7065452E+02  0.7546771E-02  0.1357881E+00
         21   -1    0    0  506  501  0.00000000000E+00  0.00000000000E+00  0.22582183998E+03  0.22582183998E+03  0.00000000000E+00 0.  1.
         21   -1    0    0  503  502 -0.00000000000E+00 -0.00000000000E+00 -0.31001892879E+03  0.31001892879E+03  0.00000000000E+00 0.  1.
         21    1    1    2  503  501  0.14660962728E+02  0.98517724453E+02  0.86118139207E+02  0.13167011719E+03  0.00000000000E+00 0.  1.
         21    1    1    2  504  505 -0.25803116587E+02 -0.87496013103E+02 -0.19297847117E+02  0.93240334823E+02  0.00000000000E+00 0.  1.
         21    1    1    2  505  502  0.13009200906E+02  0.40729480547E+02 -0.22031254343E+03  0.22442314204E+03  0.00000000000E+00 0.  1.
         21    1    1    2  506  504 -0.18670470470E+01 -0.51751191897E+02  0.69295162527E+02  0.86507174714E+02  0.00000000000E+00 0.  1.
<scales pt_clust_3="70.65452" pt_clust_4="14000.00000" pt_clust_5="42.75664" pt_clust_6="47.75582"></scales>
<clustering>
<clus scale="   42.757">  2  5  1 -1</clus>
<clus scale="   47.756">  1  6  2 -1</clus>
<clus scale="   70.655">  1  3  2 -1</clus>
<clus scale="   47.756">  1  3  2 -1</clus>
</clustering>
</event>
<event>
 6    0  0.8991567E+002  0.1456999E+03  0.7546771E-02  0.1205859E+00
         21   -1    0    0  506  501  0.00000000000E+00  0.00000000000E+00  0.13810693119E+03  0.13810693119E+03  0.00000000000E+00 0.  1.
         21   -1    0    0  503  502 -0.00000000000E+00 -0.00000000000E+00 -0.17973336672E+04  0.17973336672E+04  0.00000000000E+00 0.  1.
         21    1    1    2  503  504  0.13393131036E+02 -0.27225707415E+02 -0.58882732413E+02  0.66240405189E+02  0.00000000000E+00 0.  1.
         21    1    1    2  504  501  0.35645596949E+02  0.24798549636E+02  0.32254451141E+02  0.54091831770E+02  0.00000000000E+00 0.  1.
         21    1    1    2  505  502  0.71787177670E+02 -0.92513667059E+02 -0.16555967549E+04  0.16597327472E+04  0.00000000000E+00 0.  1.
         21    1    1    2  506  505 -0.12082590565E+03  0.94940824838E+02  0.22998300089E+02  0.15537561426E+03  0.00000000000E+00 0.  1.
<scales pt_clust_3="30.34164" pt_clust_4="43.39497" pt_clust_5="145.69986" pt_clust_6="14000.00000"></scales>
<clustering>
<clus scale="   30.342">  2  3  1 -1</clus>
<clus scale="   43.395">  1  4  2 -1</clus>
<clus scale="  145.700">  2  5  1 -1</clus>
<clus scale="   43.395">  1  3  2 -1</clus>
</clustering>
</event>
<event>
 6    0  0.8991567E+002  0.1081559E+03  0.7546771E-02  0.1264024E+00
         21   -1    0    0  505  501  0.00000000000E+00  0.00000000000E+00  0.12433640576E+04  0.12433640576E+04  0.00000000000E+00 0. -1.
         21   -1    0    0  504  502 -0.00000000000E+00 -0.00000000000E+00 -0.33387338916E+03  0.33387338916E+03  0.00000000000E+00 0. -1.
         21    1    1    2  503  502 -0.10577246096E+03 -0.63803389496E+02 -0.77193824288E+02  0.14566252956E+03  0.00000000000E+00 0.  1.
         21    1    1    2  504  506  0.55901251192E+02  0.68824439637E+01 -0.13493142529E+03  0.14621493580E+03  0.00000000000E+00 0. -1.
         21    1    1    2  505  503  0.23578281531E+02  0.22099220955E+02  0.11974408833E+04  0.11978768634E+04  0.00000000000E+00 0. -1.
         21    1    1    2  506  501  0.26292928237E+02  0.34821724578E+02 -0.75824965264E+02  0.87483118000E+02  0.00000000000E+00 0. -1.
<scales pt_clust_3="99.98143" pt_clust_4="36.90363" pt_clust_5="32.31580" pt_clust_6="36.90363"></scales>
<clustering>
<clus scale="   32.316">  1  5  2 -1</clus>
<clus scale="   36.904">  4  6 -1 -1</clus>
<clus scale="   99.981">  1  3  2 -1</clus>
<clus scale="   32.316">  1  3  2 -1</clus>
</clustering>
</event>
<event>
 6    0  0.8991567E+002  0.1122786E+03  0.7546771E-02  0.1256408E+00
         21   -1    0    0  506  501  0.00000000000E+00  0.00000000000E+00  0.49279546517E+03  0.49279546517E+03  0.00000000000E+00 0. -1.
         21   -1    0    0  503  502 -0.00000000000E+00 -0.00000000000E+00 -0.55955347062E+03  0.55955347062E+03  0.00000000000E+00 0.  1.
         21    1    1    2  503  504  0.11179486337E+03 -0.47136682347E+02 -0.41152498732E+03  0.42903703044E+03  0.00000000000E+00 0.  1.
         21    1    1    2  504  505 -0.86855195404E+02 -0.64723402726E+02 -0.88514963333E+01  0.10867977188E+03  0.00000000000E+00 0. -1.
         21    1    1    2  505  501 -0.59651825740E+02  0.38982874883E+02  0.41001466555E+03  0.41616106355E+03  0.00000000000E+00 0. -1.
         21    1    1    2  506  502  0.34712157774E+02  0.72877210190E+02 -0.56396187346E+02  0.98471069912E+02  0.00000000000E+00 0. -1.
<scales pt_clust_3="112.27860" pt_clust_4="14000.00000" pt_clust_5="71.26012" pt_clust_6="85.30172"></scales>
<clustering>
<clus scale="   71.260">  1  5  2 -1</clus>
<clus scale="   85.302">  1  6  2 -1</clus>
<clus scale="  112.279">  2  3  1 -1</clus>
<clus scale="   71.260">  1  3  2 -1</clus>
</clustering>
</event>
<event>
 6    0  0.8991567E+002  0.1185083E+03  0.7546771E-02  0.1245578E+00
         21   -1    0    0  505  501  0.00000000000E+00  0.00000000000E+00  0.75844031824E+03  0.75844031824E+03  0.00000000000E+00 0.  1.
         21   -1    0    0  506  502 -0.00000000000E+00 -0.00000000000E+00 -0.23960850058E+03  0.23960850058E+03  0.00000000000E+00 0. -1.
         21    1    1    2  503  502 -0.64462275003E+02  0.30300262433E+02 -0.12784449637E+03  0.14634789392E+03  0.00000000000E+00 0. -1.
         21    1    1    2  504  503  0.86859819040E+02  0.85086458718E+02 -0.44446967137E+02  0.12945990309E+03  0.00000000000E+00 0. -1.
         21    1    1    2  505  504 -0.62947250647E+02 -0.14072167328E+03  0.59811906014E+03  0.61766605524E+03  0.00000000000E+00 0.  1.
         21    1    1    2  506  501  0.40549706611E+02  0.25334952126E+02  0.93004221025E+02  0.10457496657E+03  0.00000000000E+00 0.  1.
<scales pt_clust_3="70.86714" pt_clust_4="14000.00000" pt_clust_5="118.50834" pt_clust_6="47.81358"></scales>
<clustering>
<clus scale="   47.814">  1  6  2 -1</clus>
<clus scale="   70.867">  2  3  1 -1</clus>
<clus scale="  118.508">  1  5  2 -1</clus>
<clus scale="   47.814">  1  3  2 -1</clus>
</clustering>
</event>
<event>
 6    0  0.8991567E+002  0.3926598E+03  0.7546771E-02  0.1046351E+00
         21   -1    0    0  503  501  0.00000000000E+00  0.00000000000E+00  0.84704353705E+03  0.84704353705E+03  0.00000000000E+00 0.  1.
         21   -1    0    0  506  502 -0.00000000000E+00 -0.00000000000E+00 -0.70164338964E+03  0.70164338964E+03  0.00000000000E+00 0.  1.
         21    1    1    2  503  502  0.89663534165E+02  0.12450231766E+03  0.23138127655E+03  0.27762865774E+03  0.00000000000E+00 0.  1.
         21    1    1    2  504  501 -0.31515189266E+02  0.62170306170E+02  0.36350173939E+02  0.78610999670E+02  0.00000000000E+00 0.  1.
         21    1    1    2  505  504 -0.42037549585E+03 -0.30360505660E+02  0.37049507278E+03  0.56116300375E+03  0.00000000000E+00 0.  1.
         21    1    1    2  506  505  0.36222715096E+03 -0.15631211817E+03 -0.49282637586E+03  0.63128426554E+03  0.00000000000E+00 0.  1.
<scales pt_clust_3="164.96504" pt_clust_4="69.70189" pt_clust_5="14000.00000" pt_clust_6="392.65976"></scales>
<clustering>
<clus scale="   69.702">  1  4  2 -1</clus>
<clus scale="  164.965">  1  3  2 -1</clus>
<clus scale="  392.660">  2  6  1 -1</clus>
<clus scale="   69.702">  1  3  2 -1</clus>
</clustering>
</event>
<event>
 6    0  0.8991567E+002  0.1066673E+03  0.7546771E-02  0.1266869E+00
         21   -1    0    0  506  501  0.00000000000E+00  0.00000000000E+00  0.65789853380E+03  0.65789853380E+03  0.00000000000E+00 0. -1.
         21   -1    0    0  503  502 -0.00000000000E+00 -0.00000000000E+00 -0.21996325917E+03  0.21996325917E+03  0.00000000000E+00 0. -1.
         21    1    1    2  503  501 -0.49592862356E+02  0.25967205957E+02 -0.17701840558E+03  0.18565899842E+03  0.00000000000E+00 0. -1.
         21    1    1    2  504  505 -0.52990069969E+02  0.73098404630E+02  0.11701149647E+03  0.14779382457E+03  0.00000000000E+00 0. -1.
         21    1    1    2  505  502  0.91509127751E+01 -0.31807184707E+02 -0.23993169544E+00  0.33098244226E+02  0.00000000000E+00 0. -1.
         21    1    1    2  506  504  0.93432019550E+02 -0.67258425879E+02  0.49818211544E+03  0.51131072576E+03  0.00000000000E+00 0. -1.
<scales pt_clust_3="41.49997" pt_clust_4="106.66727" pt_clust_5="33.09737" pt_clust_6="14000.00000"></scales>
<clustering>
<clus scale="   33.097">  2  5  1 -1</clus>
<clus scale="   41.500">  2  3  1 -1</clus>
<clus scale="  106.667">  2  4  1 -1</clus>
<clus scale="  106.667">  1  3  2 -1</clus>
</clustering>
</event>
<event>
 6    0  0.8991567E+002  0.2755669E+03  0.7546771E-02  0.1098135E+00
         21   -1    0    0  505  501  0.00000000000E+00  0.00000000000E+00  0.39936405460E+03  0.39936405460E+03  0.00000000000E+00 0. -1.
         21   -1    0    0  506  502 -0.00000000000E+00 -0.00000000000E+00 -0.11562946396E+04  0.11562946396E+04  0.00000000000E+00 0. -1.
         21    1    1    2  503  502 -0.67385112402E+02  0.27818301167E+03 -0.52066925791E+03  0.59415740127E+03  0.00000000000E+00 0. -1.
         21    1    1    2  504  501  0.11438817488E+03 -0.24237119277E+03 -0.45930087646E+03  0.53177602875E+03  0.00000000000E+00 0. -1.
         21    1    1    2  505  503 -0.10685417645E+02 -0.28581478586E+02  0.32232132652E+03  0.32376243852E+03  0.00000000000E+00 0. -1.
         21    1    1    2  506  504 -0.36317644832E+02 -0.72303403115E+01 -0.99281777137E+02  0.10596282564E+03  0.00000000000E+00 0.  1.
<scales pt_clust_3="14000.00000" pt_clust_4="275.56690" pt_clust_5="30.51359" pt_clust_6="37.75041"></scales>
<clustering>
<clus scale="   30.514">  1  5  2 -1</clus>
<clus scale="   37.750">  2  6  1 -1</clus>
<clus scale="  275.567">  2  4  1 -1</clus>
<clus scale="   30.514">  1  3  2 -1</clus>
</clustering>
</event>
<event>
 6    0  0.8991567E+002  0.7646798E+02  0.7546771E-02  0.1339385E+00
         21   -1    0    0  505  501  0.00000000000E+00  0.00000000000E+00  0.54517710296E+03  0.54517710296E+03  0.00000000000E+00 0. -1.
         21   -1    0    0  506  502 -0.00000000000E+00 -0.00000000000E+00 -0.18398182622E+03  0.18398182622E+03  0.00000000000E+00 0. -1.
         21    1    1    2  503  501 -0.83900349998E+02 -0.51462053122E+01  0.15117292207E+03  0.17297110893E+03  0.00000000000E+00 0.  1.
         21    1    1    2  504  502  0.80991397789E+02 -0.24587153453E+02 -0.98313942940E+02  0.12972958802E+03  0.00000000000E+00 0. -1.
         21    1    1    2  505  504  0.16087468405E+02 -0.32462156875E+02  0.34907450256E+03  0.35094957844E+03  0.00000000000E+00 0. -1.
         21    1    1    2  506  503 -0.13178516196E+02  0.62195515640E+02 -0.40738204943E+02  0.75508653788E+02  0.00000000000E+00 0. -1.
<scales pt_clust_3="14000.00000" pt_clust_4="76.46798" pt_clust_5="36.22980" pt_clust_6="60.45574"></scales>
<clustering>
<clus scale="   36.230">  1  5  2 -1</clus>
<clus scale="   60.456">  2  6  1 -1</clus>
<clus scale="   76.468">  2  4  1 -1</clus>
<clus scale="   36.230">  1  3  2 -1</clus>
</clustering>
</event>
<event>
 6    0  0.8991567E+002  0.8450464E+02  0.7546771E-02  0.1316733E+00
         21   -1    0    0  504  501  0.00000000000E+00  0.00000000000E+00  0.10093859687E+04  0.10093859687E+04  0.00000000000E+00 0. -1.
         21   -1    0    0  503  502 -0.00000000000E+00 -0.00000000000E+00 -0.63612341553E+03  0.63612341553E+03  0.00000000000E+00 0. -1.
         21    1    1    2  503  501 -0.39584117446E+02 -0.18645957309E+02 -0.47180288060E+02  0.64347134042E+02  0.00000000000E+00 0. -1.
         21    1    1    2  504  506  0.87070108705E+02 -0.28553463721E+02  0.80509041280E+03  0.81028826778E+03  0.00000000000E+00 0. -1.
         21    1    1    2  505  502  0.21866796578E+02  0.44746213027E+02 -0.57040604016E+03  0.57257613557E+03  0.00000000000E+00 0. -1.
         21    1    1    2  506  505 -0.69352787837E+02  0.24532080035E+01  0.18575846854E+03  0.19829784680E+03  0.00000000000E+00 0. -1.
<scales pt_clust_3="43.75585" pt_clust_4="84.50464" pt_clust_5="31.44858" pt_clust_6="14000.00000"></scales>
<clustering>
<clus scale="   43.756">  2  3  1 -1</clus>
<clus scale="   31.449">  2  5  1 -1</clus>
<clus scale="   84.505">  1  4  2 -1</clus>
<clus scale="   84.505">  1  3  2 -1</clus>
</clustering>
</event>
<event>
 6    0  0.9495724E+002  0.1832120E+03  0.7546771E-02  0.1164730E+00
         21   -1    0    0  506  501  0.00000000000E+00  0.00000000000E+00  0.39209173384E+03  0.39209173384E+03  0.00000000000E+00 0.  1.
         21   -1    0    0  504  502 -0.00000000000E+00 -0.00000000000E+00 -0.62669618873E+03  0.62669618873E+03  0.00000000000E+00 0. -1.
         21    1    1    2  503  501  0.45887250151E+01  0.52860869960E+02  0.32227313747E+03  0.32661185390E+03  0.00000000000E+00 0.  1.
         21    1    1    2  504  503  0.98269787116E+01 -0.18205992032E+03 -0.50406939101E+03  0.53603016245E+03  0.00000000000E+00 0. -1.
         21    1    1    2  505  502 -0.34265023033E+02  0.74270743591E+02 -0.53500442410E+02  0.97737057942E+02  0.00000000000E+00 0. -1.
         21    1    1    2  506  505  0.19849319307E+02  0.54928306767E+02  0.69224105783E+00  0.58408848293E+02  0.00000000000E+00 0. -1.
<scales pt_clust_3="53.05966" pt_clust_4="169.92357" pt_clust_5="62.52975" pt_clust_6="62.52975"></scales>
<clustering>
<clus scale="   53.060">  1  3  2 -1</clus>
<clus scale="   62.530">  5  6 -1 -1</clus>
<clus scale="  169.924">  2  4  1 -1</clus>
<clus scale="   53.060">  1  3  2 -1</clus>
</clustering>
</event>
<event>
 6    0  0.8991567E+002  0.1465176E+03  0.7546771E-02  0.1204819E+00
         21   -1    0    0  503  501  0.00000000000E+00  0.00000000000E+00  0.89134730913E+03  0.89134730913E+03  0.00000000000E+00 0. -1.
         21   -1    0    0  506  502 -0.00000000000E+00 -0.00000000000E+00 -0.19645825286E+03  0.19645825286E+03  0.00000000000E+00 0. -1.
         21    1    1    2  503  505 -0.11481832475E+03 -0.75201338883E+01  0.64412299512E+03  0.65431967184E+03  0.00000000000E+00 0. -1.
         21    1    1    2  504  501  0.79006504886E+02 -0.86714482317E+01  0.68095968953E+02  0.10466270977E+03  0.00000000000E+00 0.  1.
         21    1    1    2  505  502 -0.25051731495E+02  0.14907101802E+03  0.60995185437E+02  0.16300358987E+03  0.00000000000E+00 0. -1.
         21    1    1    2  506  504  0.60863551360E+02 -0.13287943590E+03 -0.78325093234E+02  0.16581959052E+03  0.00000000000E+00 0. -1.
<scales pt_clust_3="53.11940" pt_clust_4="79.48095" pt_clust_5="146.51756" pt_clust_6="14000.00000"></scales>
<clustering>
<clus scale="   79.481">  1  4  2 -1</clus>
<clus scale="   53.119">  1  3  2 -1</clus>
<clus scale="  146.518">  1  5  2 -1</clus>
<clus scale="   79.481">  1  3  2 -1</clus>
</clustering>
</event>
<event>
 6    0  0.8991567E+002  0.8690447E+02  0.7546771E-02  0.1310526E+00
         21   -1    0    0  503  501  0.00000000000E+00  0.00000000000E+00  0.11494471079E+03  0.11494471079E+03  0.00000000000E+00 0.  1.
         21   -1    0    0  506  502 -0.00000000000E+00 -0.00000000000E+00 -0.49848443972E+03  0.49848443972E+03  0.00000000000E+00 0.  1.
         21    1    1    2  503  502  0.70295660731E+02 -0.15604389742E+02 -0.65938272525E+02  0.97636226271E+02  0.00000000000E+00 0.  1.
         21    1    1    2  504  505 -0.75157734596E+02 -0.82858353377E+02 -0.70225356128E+01  0.11208705456E+03  0.00000000000E+00 0.  1.
         21    1    1    2  505  501  0.65162944340E+02  0.36081031961E+02  0.66923843425E+01  0.74785280575E+02  0.00000000000E+00 0.  1.
         21    1    1    2  506  504 -0.60300870475E+02  0.62381711158E+02 -0.31727130514E+03  0.32892058909E+03  0.00000000000E+00 0.  1.
<scales pt_clust_3="72.00678" pt_clust_4="14000.00000" pt_clust_5="86.90447" pt_clust_6="50.61537"></scales>
<clustering>
<clus scale="   72.007">  2  3  1 -1</clus>
<clus scale="   50.615">  2  6  1 -1</clus>
<clus scale="   86.904">  1  5  2 -1</clus>
<clus scale="   86.904">  1  3  2 -1</clus>
</clustering>
</event>
<event>
 6    0  0.8991567E+002  0.8460338E+02  0.7546771E-02  0.1316473E+00
         21   -1    0    0  503  501  0.00000000000E+00  0.00000000000E+00  0.10058689566E+04  0.10058689566E+04  0.00000000000E+00 0.  1.
         21   -1    0    0  506  502 -0.00000000000E+00 -0.00000000000E+00 -0.17965928950E+03  0.17965928950E+03  0.00000000000E+00 0. -1.
         21    1    1    2  503  504  0.34477246007E+02 -0.43965347855E+02  0.80187888056E+03  0.80382297267E+03  0.00000000000E+00 0.  1.
         21    1    1    2  504  502 -0.25978578798E+02  0.13301438257E+03 -0.13362460528E+03  0.19032405960E+03  0.00000000000E+00 0. -1.
         21    1    1    2  505  501 -0.21772742974E+02 -0.40891681532E+02  0.12003703702E+03  0.12866651550E+03  0.00000000000E+00 0.  1.
         21    1    1    2  506  505  0.13274075765E+02 -0.48157353186E+02  0.37918354791E+02  0.62714698304E+02  0.00000000000E+00 0. -1.
<scales pt_clust_3="14000.00000" pt_clust_4="84.60338" pt_clust_5="46.32690" pt_clust_6="51.90507"></scales>
<clustering>
<clus scale="   46.327">  1  5  2 -1</clus>
<clus scale="   51.905">  2  6  1 -1</clus>
<clus scale="   84.603">  2  4  1 -1</clus>
<clus scale="   46.327">  1  3  2 -1</clus>
</clustering>
</event>
<event>
 6    0  0.8991567E+002  0.8115157E+02  0.7546771E-02  0.1325815E+00
         21   -1    0    0  505  501  0.00000000000E+00  0.00000000000E+00  0.67837081700E+03  0.67837081700E+03  0.00000000000E+00 0. -1.
         21   -1    0    0  503  502 -0.00000000000E+00 -0.00000000000E+00 -0.83998737491E+03  0.83998737491E+03  0.00000000000E+00 0.  1.
         21    1    1    2  503  504 -0.35247328838E+02 -0.70451974763E+02  0.13839097058E+03  0.15924168951E+03  0.00000000000E+00 0. -1.
         21    1    1    2  504  501  0.50649120139E+02  0.52345432122E+02  0.46630951151E+03  0.47196391616E+03  0.00000000000E+00 0. -1.
         21    1    1    2  505  506  0.27016755380E+02 -0.51704745574E+02  0.43785766597E+02  0.72941614615E+02  0.00000000000E+00 0. -1.
         21    1    1    2  506  502 -0.42418546681E+02  0.69811288215E+02 -0.81010280660E+03  0.81421097163E+03  0.00000000000E+00 0.  1.
<scales pt_clust_3="81.15157" pt_clust_4="72.31087" pt_clust_5="58.33769" pt_clust_6="14000.00000"></scales>
<clustering>
<clus scale="   58.338">  1  5  2 -1</clus>
<clus scale="   72.311">  1  4  2 -1</clus>
<clus scale="   81.152">  1  3  2 -1</clus>
<clus scale="   58.338">  1  3  2 -1</clus>
</clustering>
</event>
<event>
 6    0  0.8991567E+002  0.9785834E+02  0.7546771E-02  0.1284865E+00
         21   -1    0    0  504  501  0.00000000000E+00  0.00000000000E+00  0.62014212671E+03  0.62014212671E+03  0.00000000000E+00 0.  1.
         21   -1    0    0  503  502 -0.00000000000E+00 -0.00000000000E+00 -0.53192804822E+03  0.53192804822E+03  0.00000000000E+00 0.  1.
         21    1    1    2  503  505 -0.38511593919E+02 -0.11539000075E+03  0.19967476296E+03  0.23381190326E+03  0.00000000000E+00 0.  1.
         21    1    1    2  504  506  0.62576589128E+02  0.52440938891E+02 -0.84196453935E+02  0.11728138997E+03  0.00000000000E+00 0.  1.
         21    1    1    2  505  501 -0.16944469278E+02  0.33441152081E+02  0.38538930534E+03  0.38720839656E+03  0.00000000000E+00 0.  1.
         21    1    1    2  506  502 -0.71205259310E+01  0.29507909781E+02 -0.41265353588E+03  0.41376848515E+03  0.00000000000E+00 0.  1.
<scales pt_clust_3="14000.00000" pt_clust_4="97.85834" pt_clust_5="37.71537" pt_clust_6="30.35488"></scales>
<clustering>
<clus scale="   30.355">  2  6  1 -1</clus>
<clus scale="   37.715">  1  5  2 -1</clus>
<clus scale="   97.858">  2  4  1 -1</clus>
<clus scale="   37.715">  1  3  2 -1</clus>
</clustering>
</event>
<event>
 6    0  0.8991567E+002  0.1792587E+03  0.7546771E-02  0.1168522E+00
         21   -1    0    0  506  501  0.00000000000E+00  0.00000000000E+00  0.52651155800E+03  0.52651155800E+03  0.00000000000E+00 0. -1.
         21   -1    0    0  504  502 -0.00000000000E+00 -0.00000000000E+00 -0.32259111772E+03  0.32259111772E+03  0.00000000000E+00 0. -1.
         21    1    1    2  503  505 -0.11151892282E+03  0.75896515785E+02 -0.22532180692E+03  0.26261505656E+03  0.00000000000E+00 0. -1.
         21    1    1    2  504  501  0.66140655166E+02 -0.15855958702E+02  0.40564264363E+02  0.79192532700E+02  0.00000000000E+00 0. -1.
         21    1    1    2  505  502 -0.26341113982E+02  0.58360828023E+02 -0.26762989374E+02  0.69398113329E+02  0.00000000000E+00 0. -1.
         21    1    1    2  506  503  0.71719381636E+02 -0.11840138511E+03  0.41544097220E+03  0.43789697314E+03  0.00000000000E+00 0. -1.
<scales pt_clust_3="14000.00000" pt_clust_4="65.35227" pt_clust_5="64.03000" pt_clust_6="179.25865"></scales>
<clustering>
<clus scale="   64.030">  2  5  1 -1</clus>
<clus scale="   65.352">  1  4  2 -1</clus>
<clus scale="  179.259">  1  6  2 -1</clus>
<clus scale="   65.352">  1  3  2 -1</clus>
</clustering>
</event>
<event>
 6    0  0.8991567E+002  0.1075745E+03  0.7546771E-02  0.1265129E+00
         21   -1    0    0  505  501  0.00000000000E+00  0.00000000000E+00  0.11366094853E+04  0.11366094853E+04  0.00000000000E+00 0. -1.
         21   -1    0    0  506  502 -0.00000000000E+00 -0.00000000000E+00 -0.45891277185E+03  0.45891277185E+03  0.00000000000E+00 0.  1.
         21    1    1    2  503  504 -0.78341260445E+02  0.31405396251E+01  0.45706631450E+02  0.90754130682E+02  0.00000000000E+00 0.  1.
         21    1    1    2  504  501 -0.26494795609E+02  0.16956261849E+02  0.15728509900E+03  0.16039978609E+03  0.00000000000E+00 0. -1.
         21    1    1    2  505  502  0.12960553077E+03 -0.61164945448E+02  0.90254310660E+03  0.91385053670E+03  0.00000000000E+00 0. -1.
         21    1    1    2  506  503 -0.24769474715E+02  0.41068143974E+02 -0.42783812357E+03  0.43051780371E+03  0.00000000000E+00 0.  1.
<scales pt_clust_3="107.57452" pt_clust_4="31.45614" pt_clust_5="14000.00000" pt_clust_6="47.99821"></scales>
<clustering>
<clus scale="   31.456">  1  4  2 -1</clus>
<clus scale="   47.998">  2  6  1 -1</clus>
<clus scale="  107.575">  2  3  1 -1</clus>
<clus scale="   31.456">  1  3  2 -1</clus>
</clustering>
</event>
<event>
 6    0  0.8991567E+002  0.8710530E+02  0.7546771E-02  0.1310017E+00
         21   -1    0    0  503  501  0.00000000000E+00  0.00000000000E+00  0.28183816368E+04  0.28183816368E+04  0.00000000000E+00 0. -1.
         21   -1    0    0  504  502 -0.00000000000E+00 -0.00000000000E+00 -0.22654329927E+02  0.22654329927E+02  0.00000000000E+00 0. -1.
         21    1    1    2  503  506 -0.70213572199E+02  0.88472488814E+02  0.18848790741E+04  0.18882601651E+04  0.00000000000E+00 0. -1.
         21    1    1    2  504  501  0.46492192062E+02 -0.47065891630E+02  0.78852517082E+03  0.79129556242E+03  0.00000000000E+00 0. -1.
         21    1    1    2  505  502  0.32044687184E+02  0.63367890834E-01 -0.64533182918E-02  0.32044750488E+02  0.00000000000E+00 0. -1.
         21    1    1    2  506  505 -0.83233070464E+01 -0.41469965074E+02  0.12232951523E+03  0.12943548872E+03  0.00000000000E+00 0. -1.
<scales pt_clust_3="14000.00000" pt_clust_4="87.10530" pt_clust_5="32.04475" pt_clust_6="42.37110"></scales>
<clustering>
<clus scale="   32.045">  2  5  1 -1</clus>
<clus scale="   42.371">  2  6  1 -1</clus>
<clus scale="   87.105">  1  4  2 -1</clus>
<clus scale="   87.105">  1  3  2 -1</clus>
</clustering>
</event>
<event>
 6    0  0.1265238E+003  0.2541721E+03  0.7546771E-02  0.1110696E+00
         21   -1    0    0  503  501  0.00000000000E+00  0.00000000000E+00  0.18043309530E+04  0.18043309530E+04  0.00000000000E+00 0. -1.
         21   -1    0    0  505  502 -0.00000000000E+00 -0.00000000000E+00 -0.43042979832E+03  0.43042979832E+03  0.00000000000E+00 0. -1.
         21    1    1    2  503  502 -0.18712104360E+02 -0.54417710052E+02  0.39708517024E+02  0.69915637314E+02  0.00000000000E+00 0.  1.
         21    1    1    2  504  506 -0.33186782414E+02  0.19104954348E+03  0.11435004475E+04  0.11598252299E+04  0.00000000000E+00 0. -1.
         21    1    1    2  505  504  0.20774790197E+02 -0.18073649952E+03 -0.38551734342E+03  0.42628734000E+03  0.00000000000E+00 0. -1.
         21    1    1    2  506  501  0.31124096577E+02  0.44104666092E+02  0.57620953361E+03  0.57873254409E+03  0.00000000000E+00 0.  1.
<scales pt_clust_3="57.54503" pt_clust_4="52.44145" pt_clust_5="233.93268" pt_clust_6="52.44145"></scales>
<clustering>
<clus scale="   52.441">  4  6 -1 -1</clus>
<clus scale="   57.545">  2  3  1 -1</clus>
<clus scale="  233.933">  2  5  1 -1</clus>
<clus scale="  254.172">  1  3  2 -1</clus>
</clustering>
</event>
<event>
 6    0  0.8991567E+002  0.1402154E+03  0.7546771E-02  0.1213039E+00
         21   -1    0    0  504  501  0.00000000000E+00  0.00000000000E+00  0.28724499703E+03  0.28724499703E+03  0.00000000000E+00 0. -1.
         21   -1    0    0  506  502 -0.00000000000E+00 -0.00000000000E+00 -0.11459803609E+04  0.11459803609E+04  0.00000000000E+00 0. -1.
         21    1    1    2  503  502 -0.26450184936E+02 -0.15610348537E+02 -0.25628989361E+02  0.40001754465E+02  0.00000000000E+00 0. -1.
         21    1    1    2  504  503  0.11243580119E+03  0.89694201205E+02  0.25546106801E+03  0.29316755684E+03  0.00000000000E+00 0. -1.
         21    1    1    2  505  501 -0.79534815394E+02 -0.10095215258E+02 -0.36841314842E+03  0.37703573857E+03  0.00000000000E+00 0. -1.
         21    1    1    2  506  505 -0.64508008630E+01 -0.63988637410E+02 -0.72015429407E+03  0.72302030803E+03  0.00000000000E+00 0. -1.
<scales pt_clust_3="30.71311" pt_clust_4="14000.00000" pt_clust_5="140.21535" pt_clust_6="77.77376"></scales>
<clustering>
<clus scale="   30.713">  2  3  1 -1</clus>
<clus scale="   77.774">  2  6  1 -1</clus>
<clus scale="  140.215">  2  5  1 -1</clus>
<clus scale="  140.215">  1  3  2 -1</clus>
</clustering>
</event>
<event>
 6    0  0.8991567E+002  0.1674102E+03  0.7546771E-02  0.1180576E+00
         21   -1    0    0  506  501  0.00000000000E+00  0.00000000000E+00  0.70449910095E+02  0.70449910095E+02  0.00000000000E+00 0. -1.
         21   -1    0    0  501  502 -0.00000000000E+00 -0.00000000000E+00 -0.73150205781E+03  0.73150205781E+03  0.00000000000E+00 0. -1.
         21    1    1    2  503  505 -0.40944297625E+02 -0.66651303861E+02 -0.30703836747E+03  0.31684600504E+03  0.00000000000E+00 0. -1.
         21    1    1    2  504  503  0.11887159665E+03  0.13689655143E+03 -0.23885795065E+03  0.29987371154E+03  0.00000000000E+00 0. -1.
         21    1    1    2  505  502 -0.61382589978E+02 -0.29830689649E+02 -0.12318817014E+03  0.14082974707E+03  0.00000000000E+00 0. -1.
         21    1    1    2  506  504 -0.16544709050E+02 -0.40414557921E+02  0.80323405392E+01  0.44402504254E+02  0.00000000000E+00 0. -1.
<scales pt_clust_3="64.40266" pt_clust_4="153.08015" pt_clust_5="64.40266" pt_clust_6="43.66994"></scales>
<clustering>
<clus scale="   43.670">  1  6  2 -1</clus>
<clus scale="   64.403">  3  5 -1 -1</clus>
<clus scale="  153.080">  1  4  2 -1</clus>
<clus scale="   43.670">  1  3  2 -1</clus>
</clustering>
</event>
<event>
 6    0  0.8991567E+002  0.9075074E+02  0.7546771E-02  0.1301044E+00
         21   -1    0    0  503  501  0.00000000000E+00  0.00000000000E+00  0.85946474523E+03  0.85946474523E+03  0.00000000000E+00 0.  1.
         21   -1    0    0  506  502 -0.00000000000E+00 -0.00000000000E+00 -0.17289725448E+03  0.17289725448E+03  0.00000000000E+00 0. -1.
         21    1    1    2  503  505  0.19455076339E+02 -0.85032808774E+02  0.64477495995E+02  0.10847315821E+03  0.00000000000E+00 0.  1.
         21    1    1    2  504  501  0.20914483775E+02 -0.85044757570E+02  0.65851630829E+03  0.66431449985E+03  0.00000000000E+00 0.  1.
         21    1    1    2  505  502 -0.14416620067E+02  0.31463696154E+02 -0.99309144215E+02  0.10516705394E+03  0.00000000000E+00 0. -1.
         21    1    1    2  506  504 -0.25952940048E+02  0.13861387019E+03  0.62882830679E+02  0.15440728772E+03  0.00000000000E+00 0. -1.
<scales pt_clust_3="76.71165" pt_clust_4="90.75074" pt_clust_5="34.60929" pt_clust_6="14000.00000"></scales>
<clustering>
<clus scale="   34.609">  2  5  1 -1</clus>
<clus scale="   76.712">  2  3  1 -1</clus>
<clus scale="   90.751">  1  4  2 -1</clus>
<clus scale="   90.751">  1  3  2 -1</clus>
</clustering>
</event>
<event>
 6    0  0.8991567E+002  0.1460913E+03  0.7546771E-02  0.1205360E+00
         21   -1    0    0  505  501  0.00000000000E+00  0.00000000000E+00  0.15434697343E+04  0.15434697343E+04  0.00000000000E+00 0. -1.
         21   -1    0    0  503  502 -0.00000000000E+00 -0.00000000000E+00 -0.13364678875E+03  0.13364678875E+03  0.00000000000E+00 0. -1.
         21    1    1    2  503  504 -0.10697453105E+03  0.12776295375E+03  0.17133801797E+03  0.23900552095E+03  0.00000000000E+00 0. -1.
         21    1    1    2  504  501  0.25526052863E+02 -0.16664504006E+02  0.10534483062E+04  0.10538892821E+04  0.00000000000E+00 0. -1.
         21    1    1    2  505  506  0.26972741089E+02  0.20496249971E+02  0.23184155236E+03  0.23430350066E+03  0.00000000000E+00 0. -1.
         21    1    1    2  506  502  0.54475737102E+02 -0.13159469971E+03 -0.46804930978E+02  0.14991821934E+03  0.00000000000E+00 0. -1.
<scales pt_clust_3="14000.00000" pt_clust_4="30.48418" pt_clust_5="41.08818" pt_clust_6="146.09126"></scales>
<clustering>
<clus scale="   30.484">  1  4  2 -1</clus>
<clus scale="   41.088">  1  5  2 -1</clus>
<clus scale="  146.091">  2  6  1 -1</clus>
<clus scale="   30.484">  1  3  2 -1</clus>
</clustering>
</event>
<event>
 6    0  0.8991567E+002  0.1011315E+03  0.7546771E-02  0.1277934E+00
         21   -1    0    0  506  501  0.00000000000E+00  0.00000000000E+00  0.58100074023E+03  0.58100074023E+03  0.00000000000E+00 0. -1.
         21   -1    0    0  504  502 -0.00000000000E+00 -0.00000000000E+00 -0.73711662604E+03  0.73711662604E+03  0.00000000000E+00 0.  1.
         21    1    1    2  503  505 -0.54332159779E+02  0.23467366215E+02 -0.13914068891E+03  0.15120460368E+03  0.00000000000E+00 0. -1.
         21    1    1    2  504  503  0.89336110924E+01  0.36770584777E+02 -0.23371748664E+03  0.23676095301E+03  0.00000000000E+00 0.  1.
         21    1    1    2  505  501 -0.82712486802E+02  0.56591608173E+02  0.54755797177E+03  0.55665402005E+03  0.00000000000E+00 0. -1.
         21    1    1    2  506  502  0.12811103549E+03 -0.11682955916E+03 -0.33081568202E+03  0.37349778953E+03  0.00000000000E+00 0.  1.
<scales pt_clust_3="61.97511" pt_clust_4="37.84026" pt_clust_5="101.13147" pt_clust_6="14000.00000"></scales>
<clustering>
<clus scale="   37.840">  2  4  1 -1</clus>
<clus scale="   61.975">  2  3  1 -1</clus>
<clus scale="  101.131">  1  5  2 -1</clus>
<clus scale="  101.131">  1  3  2 -1</clus>
</clustering>
</event>
<event>
 6    0  0.8991567E+002  0.8396967E+02  0.7546771E-02  0.1318149E+00
         21   -1    0    0  504  501  0.00000000000E+00  0.00000000000E+00  0.18469771158E+02  0.18469771158E+02  0.00000000000E+00 0.  1.
         21   -1    0    0  506  502 -0.00000000000E+00 -0.00000000000E+00 -0.13527850730E+04  0.13527850730E+04  0.00000000000E+00 0. -1.
         21    1    1    2  503  501  0.65229611772E+01  0.36592823400E+02 -0.44311152536E+02  0.57836510838E+02  0.00000000000E+00 0.  1.
         21    1    1    2  504  505  0.50132703349E+02 -0.14135692095E+02 -0.13946074564E+03  0.14887043128E+03  0.00000000000E+00 0.  1.
         21    1    1    2  505  502  0.22578899024E+01  0.69826077614E+02 -0.39870235925E+03  0.40477691442E+03  0.00000000000E+00 0.  1.
         21    1    1    2  506  503 -0.58913554429E+02 -0.92283208919E+02 -0.75184104447E+03  0.75977098766E+03  0.00000000000E+00 0. -1.
<scales pt_clust_3="37.16966" pt_clust_4="52.75723" pt_clust_5="83.96967" pt_clust_6="14000.00000"></scales>
<clustering>
<clus scale="   37.170">  1  3  2 -1</clus>
<clus scale="   52.757">  1  4  2 -1</clus>
<clus scale="   83.970">  2  5  1 -1</clus>
<clus scale="   37.170">  1  3  2 -1</clus>
</clustering>
</event>
<event>
 6    0  0.8991567E+002  0.1285480E+03  0.7546771E-02  0.1229626E+00
         21   -1    0    0  505  501  0.00000000000E+00  0.00000000000E+00  0.22587733391E+04  0.22587733391E+04  0.00000000000E+00 0.  1.
         21   -1    0    0  503  502 -0.00000000000E+00 -0.00000000000E+00 -0.23576758573E+03  0.23576758573E+03  0.00000000000E+00 0.  1.
         21    1    1    2  503  501  0.10115613285E+03 -0.84685264842E+02  0.23470705735E+02  0.13399638548E+03  0.00000000000E+00 0.  1.
         21    1    1    2  504  502 -0.39447745549E+02 -0.28513987772E+02 -0.16413983158E+03  0.17120472084E+03  0.00000000000E+00 0.  1.
         21    1    1    2  505  506 -0.24459071566E+02 -0.17676507445E+02  0.18120900667E+04  0.18123413351E+04  0.00000000000E+00 0.  1.
         21    1    1    2  506  504 -0.37249315737E+02  0.13087576006E+03  0.35158481251E+03  0.37699848340E+03  0.00000000000E+00 0.  1.
<scales pt_clust_3="14000.00000" pt_clust_4="48.91286" pt_clust_5="30.17789" pt_clust_6="128.54803"></scales>
<clustering>
<clus scale="   30.178">  1  5  2 -1</clus>
<clus scale="   48.913">  2  4  1 -1</clus>
<clus scale="  128.548">  1  6  2 -1</clus>
<clus scale="   30.178">  1  3  2 -1</clus>
</clustering>
</event>
<event>
 6    0  0.8991567E+002  0.1143976E+03  0.7546771E-02  0.1252636E+00
         21   -1    0    0  505  501  0.00000000000E+00  0.00000000000E+00  0.41955556101E+03  0.41955556101E+03  0.00000000000E+00 0. -1.
         21   -1    0    0  506  502 -0.00000000000E+00 -0.00000000000E+00 -0.52653007491E+03  0.52653007491E+03  0.00000000000E+00 0. -1.
         21    1    1    2  503  502 -0.89625956025E+02 -0.63603051237E+02 -0.24808196251E+03  0.27133525433E+03  0.00000000000E+00 0. -1.
         21    1    1    2  504  501 -0.17886751128E+01  0.79974285009E+02  0.36848696912E+03  0.37706992989E+03  0.00000000000E+00 0. -1.
         21    1    1    2  505  503  0.12311341265E+03 -0.30928515615E+02 -0.89147514714E+02  0.15511532753E+03  0.00000000000E+00 0. -1.
         21    1    1    2  506  504 -0.31698781517E+02  0.14557281843E+02 -0.13823200579E+03  0.14256512417E+03  0.00000000000E+00 0. -1.
<scales pt_clust_3="14000.00000" pt_clust_4="80.16467" pt_clust_5="114.39758" pt_clust_6="34.88162"></scales>
<clustering>
<clus scale="   34.882">  2  6  1 -1</clus>
<clus scale="   80.165">  1  4  2 -1</clus>
<clus scale="  114.398">  1  5  2 -1</clus>
<clus scale="   80.165">  1  3  2 -1</clus>
</clustering>
</event>
<event>
 6    0  0.8991567E+002  0.1334020E+03  0.7546771E-02  0.1222493E+00
         21   -1    0    0  505  501  0.00000000000E+00  0.00000000000E+00  0.50471511217E+03  0.50471511217E+03  0.00000000000E+00 0. -1.
         21   -1    0    0  504  502 -0.00000000000E+00 -0.00000000000E+00 -0.33680351391E+03  0.33680351391E+03  0.00000000000E+00 0. -1.
         21    1    1    2  503  502  0.76872786849E+02  0.10999049133E+03 -0.28560791545E+03  0.31556174501E+03  0.00000000000E+00 0. -1.
         21    1    1    2  504  506  0.12444772972E+02 -0.59043358516E+02  0.26972262607E+02  0.66094580029E+02  0.00000000000E+00 0. -1.
         21    1    1    2  505  503 -0.62870053576E+02 -0.96859821797E+02  0.33160351552E+03  0.35113439054E+03  0.00000000000E+00 0. -1.
         21    1    1    2  506  501 -0.26447506245E+02  0.45912688986E+02  0.94943735584E+02  0.10872791051E+03  0.00000000000E+00 0. -1.
<scales pt_clust_3="133.40203" pt_clust_4="54.55453" pt_clust_5="14000.00000" pt_clust_6="52.98533"></scales>
<clustering>
<clus scale="   52.985">  1  6  2 -1</clus>
<clus scale="   54.555">  1  4  2 -1</clus>
<clus scale="  133.402">  2  3  1 -1</clus>
<clus scale="   52.985">  1  3  2 -1</clus>
</clustering>
</event>
<event>
 6    0  0.8991567E+002  0.9002242E+02  0.7546771E-02  0.1302797E+00
         21   -1    0    0  506  501  0.00000000000E+00  0.00000000000E+00  0.54775573181E+03  0.54775573181E+03  0.00000000000E+00 0. -1.
         21   -1    0    0  503  502 -0.00000000000E+00 -0.00000000000E+00 -0.25707624843E+03  0.25707624843E+03  0.00000000000E+00 0. -1.
         21    1    1    2  503  504  0.30708327561E+01  0.39530774571E+02 -0.18544540704E+03  0.18963678742E+03  0.00000000000E+00 0. -1.
         21    1    1    2  504  501 -0.35518662159E+02  0.76301175619E+02  0.91795636113E+01  0.84662324269E+02  0.00000000000E+00 0. -1.
         21    1    1    2  505  502  0.50411707247E+02 -0.81071861230E+02  0.42860884669E+02  0.10464722808E+03  0.00000000000E+00 0. -1.
         21    1    1    2  506  505 -0.17963877844E+02 -0.34760088960E+02  0.42408444214E+03  0.42588564047E+03  0.00000000000E+00 0. -1.
<scales pt_clust_3="39.03541" pt_clust_4="90.02242" pt_clust_5="14000.00000" pt_clust_6="39.12754"></scales>
<clustering>
<clus scale="   39.128">  1  6  2 -1</clus>
<clus scale="   39.035">  2  3  1 -1</clus>
<clus scale="   90.022">  1  4  2 -1</clus>
<clus scale="   39.128">  1  3  2 -1</clus>
</clustering>
</event>
<event>
 6    0  0.8991567E+002  0.1722353E+03  0.7546771E-02  0.1175537E+00
         21   -1    0    0  504  501  0.00000000000E+00  0.00000000000E+00  0.11774915407E+03  0.11774915407E+03  0.00000000000E+00 0.  1.
         21   -1    0    0  503  502 -0.00000000000E+00 -0.00000000000E+00 -0.16584712407E+04  0.16584712407E+04  0.00000000000E+00 0.  1.
         21    1    1    2  503  501  0.47699217408E+02 -0.42076164827E+02 -0.53337720526E+02  0.83009224901E+02  0.00000000000E+00 0. -1.
         21    1    1    2  504  505 -0.12564107991E+03  0.19693039505E+03 -0.48220649823E+02  0.23852147183E+03  0.00000000000E+00 0.  1.
         21    1    1    2  505  506  0.80148354210E+02 -0.96410448063E+02 -0.12599883844E+04  0.12662106705E+04  0.00000000000E+00 0.  1.
         21    1    1    2  506  502 -0.22064917101E+01 -0.58443782161E+02 -0.17917533186E+03  0.18847902755E+03  0.00000000000E+00 0. -1.
<scales pt_clust_3="65.34958" pt_clust_4="14000.00000" pt_clust_5="172.23533" pt_clust_6="58.48542"></scales>
<clustering>
<clus scale="   58.485">  2  6  1 -1</clus>
<clus scale="   65.350">  1  3  2 -1</clus>
<clus scale="  172.235">  2  5  1 -1</clus>
<clus scale="   65.350">  1  3  2 -1</clus>
</clustering>
</event>
<event>
 6    0  0.8991567E+002  0.1215345E+03  0.7546771E-02  0.1240587E+00
         21   -1    0    0  504  501  0.00000000000E+00  0.00000000000E+00  0.94428245309E+03  0.94428245309E+03  0.00000000000E+00 0.  1.
         21   -1    0    0  501  502 -0.00000000000E+00 -0.00000000000E+00 -0.10547564917E+03  0.10547564917E+03  0.00000000000E+00 0. -1.
         21    1    1    2  503  505 -0.47073309073E+02 -0.10489999567E+03  0.17762167093E+03  0.21158772059E+03  0.00000000000E+00 0.  1.
         21    1    1    2  504  503 -0.75405022411E+02 -0.68281840925E+01  0.64064439064E+03  0.64510291951E+03  0.00000000000E+00 0.  1.
         21    1    1    2  505  506  0.85311029901E+02  0.79570592739E+02  0.58934411470E+02  0.13070086422E+03  0.00000000000E+00 0. -1.
         21    1    1    2  506  502  0.37167301582E+02  0.32157587027E+02 -0.38393669128E+02  0.62366597946E+02  0.00000000000E+00 0. -1.
<scales pt_clust_3="14000.00000" pt_clust_4="74.10756" pt_clust_5="121.53447" pt_clust_6="49.14793"></scales>
<clustering>
<clus scale="   49.148">  2  6  1 -1</clus>
<clus scale="   74.108">  1  4  2 -1</clus>
<clus scale="  121.534">  2  5  1 -1</clus>
<clus scale="   74.108">  1  3  2 -1</clus>
</clustering>
</event>
<event>
 6    0  0.8991567E+002  0.1095636E+03  0.7546771E-02  0.1261380E+00
         21   -1    0    0  506  501  0.00000000000E+00  0.00000000000E+00  0.23516587291E+04  0.23516587291E+04  0.00000000000E+00 0.  1.
         21   -1    0    0  504  502 -0.00000000000E+00 -0.00000000000E+00 -0.76915758448E+03  0.76915758448E+03  0.00000000000E+00 0. -1.
         21    1    1    2  503  502 -0.79012952909E+01 -0.10695513410E+03 -0.25078905166E+03  0.27275809724E+03  0.00000000000E+00 0. -1.
         21    1    1    2  504  505 -0.75496659340E+02  0.35005598650E+02 -0.49946873671E+03  0.50635378587E+03  0.00000000000E+00 0. -1.
         21    1    1    2  505  501  0.11897607463E+03  0.29079241704E+02  0.20411654722E+04  0.20448367645E+04  0.00000000000E+00 0.  1.
         21    1    1    2  506  503 -0.35578119997E+02  0.42870293746E+02  0.29159346082E+03  0.29686766597E+03  0.00000000000E+00 0. -1.
<scales pt_clust_3="109.56363" pt_clust_4="83.30160" pt_clust_5="14000.00000" pt_clust_6="55.71054"></scales>
<clustering>
<clus scale="   55.711">  1  6  2 -1</clus>
<clus scale="   83.302">  2  4  1 -1</clus>
<clus scale="  109.564">  2  3  1 -1</clus>
<clus scale="   55.711">  1  3  2 -1</clus>
</clustering>
</event>
<event>
 6    0  0.8991567E+002  0.1197297E+03  0.7546771E-02  0.1243544E+00
         21   -1    0    0  505  501  0.00000000000E+00  0.00000000000E+00  0.60893720714E+02  0.60893720714E+02  0.00000000000E+00 0.  1.
         21   -1    0    0  503  502 -0.00000000000E+00 -0.00000000000E+00 -0.17813283699E+04  0.17813283699E+04  0.00000000000E+00 0.  1.
         21    1    1    2  503  506  0.12465615184E+03 -0.21608096058E+02 -0.78289334536E+03  0.79304984473E+03  0.00000000000E+00 0.  1.
         21    1    1    2  504  502  0.98119709977E+00 -0.51729105614E+02 -0.74721156856E+03  0.74900066175E+03  0.00000000000E+00 0.  1.
         21    1    1    2  505  504 -0.65487962524E+02 -0.34536058843E+02 -0.15489493204E+03  0.17167950538E+03  0.00000000000E+00 0.  1.
         21    1    1    2  506  501 -0.60149386421E+02  0.10787326052E+03 -0.35434803210E+02  0.12849207874E+03  0.00000000000E+00 0.  1.
<scales pt_clust_3="14000.00000" pt_clust_4="51.73841" pt_clust_5="78.05531" pt_clust_6="119.72969"></scales>
<clustering>
<clus scale="   51.738">  2  4  1 -1</clus>
<clus scale="   78.055">  2  5  1 -1</clus>
<clus scale="  119.730">  1  6  2 -1</clus>
<clus scale="  119.730">  1  3  2 -1</clus>
</clustering>
</event>
<event>
 6    0  0.8991567E+002  0.1181356E+03  0.7546771E-02  0.1246205E+00
         21   -1    0    0  503  501  0.00000000000E+00  0.00000000000E+00  0.34603347989E+02  0.34603347989E+02  0.00000000000E+00 0.  1.
         21   -1    0    0  506  502 -0.00000000000E+00 -0.00000000000E+00 -0.12866934495E+04  0.12866934495E+04  0.00000000000E+00 0.  1.
         21    1    1    2  503  502  0.10207692499E+03 -0.70494285501E+02 -0.83395041864E+03  0.84312658816E+03  0.00000000000E+00 0.  1.
         21    1    1    2  504  505 -0.64597201321E+02  0.12431433020E+02 -0.24412478959E+03  0.25283245804E+03  0.00000000000E+00 0.  1.
         21    1    1    2  505  501  0.20664852831E+02 -0.27511966595E+02 -0.19997747531E+02  0.39797667705E+02  0.00000000000E+00 0.  1.
         21    1    1    2  506  504 -0.58144576498E+02  0.85574819075E+02 -0.15401714578E+03  0.18554008362E+03  0.00000000000E+00 0.  1.
<scales pt_clust_3="118.13559" pt_clust_4="61.42495" pt_clust_5="34.40849" pt_clust_6="14000.00000"></scales>
<clustering>
<clus scale="   34.408">  1  5  2 -1</clus>
<clus scale="   61.425">  1  4  2 -1</clus>
<clus scale="  118.136">  2  3  1 -1</clus>
<clus scale="   34.408">  1  3  2 -1</clus>
</clustering>
</event>
<event>
 6    0  0.8991567E+002  0.1358331E+03  0.7546771E-02  0.1219048E+00
         21   -1    0    0  504  501  0.00000000000E+00  0.00000000000E+00  0.68454731397E+03  0.68454731397E+03  0.00000000000E+00 0. -1.
         21   -1    0    0  503  502 -0.00000000000E+00 -0.00000000000E+00 -0.92867947729E+02  0.92867947729E+02  0.00000000000E+00 0. -1.
         21    1    1    2  503  505 -0.33367033546E+02 -0.21479738614E+02  0.29881134135E+02  0.49675147466E+02  0.00000000000E+00 0. -1.
         21    1    1    2  504  506  0.10201252426E+02 -0.17038926113E+03  0.37244477268E+03  0.40969705217E+03  0.00000000000E+00 0. -1.
         21    1    1    2  505  501 -0.41554600961E+02  0.56488194177E+02  0.14581061907E+03  0.16179752030E+03  0.00000000000E+00 0. -1.
         21    1    1    2  506  502  0.64720382081E+02  0.13538080557E+03  0.43542840357E+02  0.15624554176E+03  0.00000000000E+00 0. -1.
<scales pt_clust_3="39.68297" pt_clust_4="14000.00000" pt_clust_5="70.46765" pt_clust_6="135.83309"></scales>
<clustering>
<clus scale="   39.683">  2  3  1 -1</clus>
<clus scale="   70.468">  1  5  2 -1</clus>
<clus scale="  135.833">  2  6  1 -1</clus>
<clus scale="   70.468">  1  3  2 -1</clus>
</clustering>
</event>
<event>
 6    0  0.8991567E+002  0.1040508E+03  0.7546771E-02  0.1272001E+00
         21   -1    0    0  503  501  0.00000000000E+00  0.00000000000E+00  0.16464794101E+03  0.16464794101E+03  0.00000000000E+00 0. -1.
         21   -1    0    0  506  502 -0.00000000000E+00 -0.00000000000E+00 -0.33678774432E+03  0.33678774432E+03  0.00000000000E+00 0. -1.
         21    1    1    2  503  505  0.32089270965E+02 -0.11858976438E+02  0.55425764672E+02  0.65133493862E+02  0.00000000000E+00 0. -1.
         21    1    1    2  504  501  0.23584972748E+02  0.35946071907E+02  0.38847956214E+02  0.57944238084E+02  0.00000000000E+00 0. -1.
         21    1    1    2  505  502 -0.13195211260E+03 -0.76065342024E+02 -0.84035249637E+02  0.17395177337E+03  0.00000000000E+00 0. -1.
         21    1    1    2  506  504  0.76277868884E+02  0.51978246555E+02 -0.18237827456E+03  0.20440618001E+03  0.00000000000E+00 0. -1.
<scales pt_clust_3="34.21048" pt_clust_4="49.05681" pt_clust_5="104.05076" pt_clust_6="14000.00000"></scales>
<clustering>
<clus scale="   34.210">  1  3  2 -1</clus>
<clus scale="   49.057">  1  4  2 -1</clus>
<clus scale="  104.051">  1  5  2 -1</clus>
<clus scale="   34.210">  1  3  2 -1</clus>
</clustering>
</event>
<event>
 6    0  0.8991567E+002  0.1343011E+03  0.7546771E-02  0.1221210E+00
         21   -1    0    0  506  501  0.00000000000E+00  0.00000000000E+00  0.89307532895E+02  0.89307532895E+02  0.00000000000E+00 0. -1.
         21   -1    0    0  503  502 -0.00000000000E+00 -0.00000000000E+00 -0.84776458026E+03  0.84776458026E+03  0.00000000000E+00 0. -1.
         21    1    1    2  503  505 -0.79095069519E+02 -0.66983279248E+02 -0.20705694379E+03  0.23154992484E+03  0.00000000000E+00 0. -1.
         21    1    1    2  504  502  0.88848958320E+02  0.14593780945E+03 -0.53906465191E+03  0.56549330727E+03  0.00000000000E+00 0. -1.
         21    1    1    2  505  501  0.24011753068E+01 -0.10713059115E+03 -0.55420957390E+00  0.10715893034E+03  0.00000000000E+00 0. -1.
         21    1    1    2  506  504 -0.12155064107E+02  0.28176060950E+02 -0.11781242081E+02  0.32869950701E+02  0.00000000000E+00 0. -1.
<scales pt_clust_3="134.30108" pt_clust_4="14000.00000" pt_clust_5="88.25508" pt_clust_6="30.68609"></scales>
<clustering>
<clus scale="   30.686">  1  6  2 -1</clus>
<clus scale="   88.255">  1  5  2 -1</clus>
<clus scale="  134.301">  2  3  1 -1</clus>
<clus scale="   30.686">  1  3  2 -1</clus>
</clustering>
</event>
<event>
 6    0  0.8991567E+002  0.5933596E+02  0.7546771E-02  0.1400640E+00
         21   -1    0    0  504  501  0.00000000000E+00  0.00000000000E+00  0.31962549616E+02  0.31962549616E+02  0.00000000000E+00 0.  1.
         21   -1    0    0  505  502 -0.00000000000E+00 -0.00000000000E+00 -0.14823738591E+04  0.14823738591E+04  0.00000000000E+00 0.  1.
         21    1    1    2  503  501  0.99052654960E+01  0.35314191322E+02 -0.31467956457E+02  0.48326376617E+02  0.00000000000E+00 0. -1.
         21    1    1    2  504  506 -0.54241601865E+02  0.25143820312E+01 -0.21637950550E+02  0.58452325821E+02  0.00000000000E+00 0.  1.
         21    1    1    2  505  503  0.94108591257E+02 -0.56566968599E+02 -0.11060324723E+04  0.11114693332E+04  0.00000000000E+00 0.  1.
         21    1    1    2  506  502 -0.49772254888E+02  0.18738395246E+02 -0.29127293026E+03  0.29608837315E+03  0.00000000000E+00 0.  1.
<scales pt_clust_3="36.67706" pt_clust_4="14000.00000" pt_clust_5="59.33596" pt_clust_6="53.63777"></scales>
<clustering>
<clus scale="   36.677">  1  3  2 -1</clus>
<clus scale="   53.638">  2  6  1 -1</clus>
<clus scale="   59.336">  2  5  1 -1</clus>
<clus scale="   36.677">  1  3  2 -1</clus>
</clustering>
</event>
<event>
 6    0  0.8991567E+002  0.1096472E+03  0.7546771E-02  0.1261225E+00
         21   -1    0    0  505  501  0.00000000000E+00  0.00000000000E+00  0.73988886650E+02  0.73988886650E+02  0.00000000000E+00 0.  1.
         21   -1    0    0  503  502 -0.00000000000E+00 -0.00000000000E+00 -0.98476225818E+03  0.98476225818E+03  0.00000000000E+00 0. -1.
         21    1    1    2  503  504 -0.22346978671E+02  0.84463577552E+02 -0.32342667232E+03  0.33501984383E+03  0.00000000000E+00 0. -1.
         21    1    1    2  504  501 -0.47498977301E+02 -0.33272549982E+02  0.10044991681E+02  0.58856752245E+02  0.00000000000E+00 0.  1.
         21    1    1    2  505  506  0.93335838588E+02 -0.80545835623E+02 -0.81890660485E+02  0.14800436033E+03  0.00000000000E+00 0.  1.
         21    1    1    2  506  502 -0.23489882616E+02  0.29354808053E+02 -0.51550103040E+03  0.51687018843E+03  0.00000000000E+00 0. -1.
<scales pt_clust_3="109.64722" pt_clust_4="58.15095" pt_clust_5="14000.00000" pt_clust_6="37.59627"></scales>
<clustering>
<clus scale="   37.596">  2  6  1 -1</clus>
<clus scale="   58.151">  1  4  2 -1</clus>
<clus scale="  109.647">  2  3  1 -1</clus>
<clus scale="   58.151">  1  3  2 -1</clus>
</clustering>
</event>
<event>
 6    0  0.8991567E+002  0.1164965E+03  0.7546771E-02  0.1248991E+00
         21   -1    0    0  504  501  0.00000000000E+00  0.00000000000E+00  0.81071906780E+02  0.81071906780E+02  0.00000000000E+00 0.  1.
         21   -1    0    0  506  502 -0.00000000000E+00 -0.00000000000E+00 -0.12404854483E+04  0.12404854483E+04  0.00000000000E+00 0.  1.
         21    1    1    2  503  502  0.47826696426E+02  0.29468857857E+02 -0.40693784249E+03  0.41079704736E+03  0.00000000000E+00 0.  1.
         21    1    1    2  504  503 -0.26803925707E+02 -0.87491137188E+02 -0.14907307171E+03  0.17491692379E+03  0.00000000000E+00 0.  1.
         21    1    1    2  505  501  0.29386366738E+02  0.12276964991E+03  0.65347909592E+00  0.12623934618E+03  0.00000000000E+00 0.  1.
         21    1    1    2  506  505 -0.50409137457E+02 -0.64747370575E+02 -0.60405610638E+03  0.60960403771E+03  0.00000000000E+00 0.  1.
<scales pt_clust_3="56.17657" pt_clust_4="14000.00000" pt_clust_5="116.49654" pt_clust_6="45.94134"></scales>
<clustering>
<clus scale="   56.177">  2  3  1 -1</clus>
<clus scale="   45.941">  2  6  1 -1</clus>
<clus scale="  116.497">  1  5  2 -1</clus>
<clus scale="  116.497">  1  3  2 -1</clus>
</clustering>
</event>
<event>
 6    0  0.8991567E+002  0.9453922E+02  0.7546771E-02  0.1292217E+00
         21   -1    0    0  503  501  0.00000000000E+00  0.00000000000E+00  0.34901532445E+03  0.34901532445E+03  0.00000000000E+00 0. -1.
         21   -1    0    0  506  502 -0.00000000000E+00 -0.00000000000E+00 -0.15039839560E+03  0.15039839560E+03  0.00000000000E+00 0. -1.
         21    1    1    2  503  505 -0.28151370813E+02  0.12327375565E+02  0.31552601012E+02  0.44045777295E+02  0.00000000000E+00 0. -1.
         21    1    1    2  504  502 -0.36431232169E+02  0.16073968766E+02 -0.80151105164E+02  0.89497524034E+02  0.00000000000E+00 0. -1.
         21    1    1    2  505  504  0.42768955743E+02  0.80317970340E+02  0.23776457299E+03  0.25458230909E+03  0.00000000000E+00 0. -1.
         21    1    1    2  506  501  0.21813647239E+02 -0.10871931467E+03  0.94508600165E+01  0.11128810962E+03  0.00000000000E+00 0. -1.
<scales pt_clust_3="30.73213" pt_clust_4="40.28115" pt_clust_5="94.53922" pt_clust_6="14000.00000"></scales>
<clustering>
<clus scale="   30.732">  1  3  2 -1</clus>
<clus scale="   40.281">  2  4  1 -1</clus>
<clus scale="   94.539">  1  5  2 -1</clus>
<clus scale="   30.732">  1  3  2 -1</clus>
</clustering>
</event>
<event>
 6    0  0.8991567E+002  0.6990658E+02  0.7546771E-02  0.1360411E+00
         21   -1    0    0  505  501  0.00000000000E+00  0.00000000000E+00  0.68311872767E+03  0.68311872767E+03  0.00000000000E+00 0.  1.
         21   -1    0    0  506  502 -0.00000000000E+00 -0.00000000000E+00 -0.83260307796E+02  0.83260307796E+02  0.00000000000E+00 0.  1.
         21    1    1    2  503  502  0.24980376552E+02 -0.84039679080E+02  0.87337668865E+01  0.88107692947E+02  0.00000000000E+00 0.  1.
         21    1    1    2  504  503 -0.53788659094E+02 -0.13247619881E+02  0.15435059664E+03  0.16399032277E+03  0.00000000000E+00 0.  1.
         21    1    1    2  505  504 -0.77730857552E+01  0.38415460811E+02  0.44296311720E+03  0.44469370548E+03  0.00000000000E+00 0.  1.
         21    1    1    2  506  501  0.36581368297E+02  0.58871838150E+02 -0.61890608484E+01  0.69587314273E+02  0.00000000000E+00 0.  1.
<scales pt_clust_3="69.90658" pt_clust_4="60.22960" pt_clust_5="39.19399" pt_clust_6="14000.00000"></scales>
<clustering>
<clus scale="   39.194">  1  5  2 -1</clus>
<clus scale="   60.230">  1  4  2 -1</clus>
<clus scale="   69.907">  1  3  2 -1</clus>
<clus scale="   39.194">  1  3  2 -1</clus>
</clustering>
</event>
<event>
 6    0  0.8991567E+002  0.8990586E+02  0.7546771E-02  0.1303080E+00
         21   -1    0    0  503  501  0.00000000000E+00  0.00000000000E+00  0.10321139621E+03  0.10321139621E+03  0.00000000000E+00 0. -1.
         21   -1    0    0  504  502 -0.00000000000E+00 -0.00000000000E+00 -0.89999725925E+03  0.89999725925E+03  0.00000000000E+00 0.  1.
         21    1    1    2  503  506 -0.47600296964E+02  0.40169168128E+02  0.70890517450E+02  0.94365331576E+02  0.00000000000E+00 0. -1.
         21    1    1    2  504  505  0.13577828575E+02 -0.27139314310E+02 -0.45643882019E+03  0.45744649566E+03  0.00000000000E+00 0.  1.
         21    1    1    2  505  501  0.98850118388E+02 -0.69468563059E+01 -0.34321365806E+03  0.35723272498E+03  0.00000000000E+00 0.  1.
         21    1    1    2  506  502 -0.64827649999E+02 -0.60829975121E+01 -0.68023902239E+02  0.94164103240E+02  0.00000000000E+00 0. -1.
<scales pt_clust_3="61.54666" pt_clust_4="30.34633" pt_clust_5="14000.00000" pt_clust_6="89.90586"></scales>
<clustering>
<clus scale="   30.346">  2  4  1 -1</clus>
<clus scale="   61.547">  1  3  2 -1</clus>
<clus scale="   89.906">  1  6  2 -1</clus>
<clus scale="   61.547">  1  3  2 -1</clus>
</clustering>
</event>
<event>
 6    0  0.8991567E+002  0.1303675E+03  0.7546771E-02  0.1226911E+00
         21   -1    0    0  503  501  0.00000000000E+00  0.00000000000E+00  0.65467812049E+03  0.65467812049E+03  0.00000000000E+00 0.  1.
         21   -1    0    0  504  502 -0.00000000000E+00 -0.00000000000E+00 -0.94769286182E+02  0.94769286182E+02  0.00000000000E+00 0.  1.
         21    1    1    2  503  502  0.40216256922E+02 -0.32949776233E+01  0.19722491282E+03  0.20131038332E+03  0.00000000000E+00 0.  1.
         21    1    1    2  504  506  0.92379900191E+02  0.95175552153E+02 -0.10834572125E+02  0.13307824631E+03  0.00000000000E+00 0.  1.
         21    1    1    2  505  501 -0.29369884732E+02 -0.21773218834E+02  0.18771811380E+03  0.19124527036E+03  0.00000000000E+00 0.  1.
         21    1    1    2  506  505 -0.10322627238E+03 -0.70107355695E+02  0.18580037982E+03  0.22381350668E+03  0.00000000000E+00 0.  1.
<scales pt_clust_3="30.38143" pt_clust_4="130.36751" pt_clust_5="36.56040" pt_clust_6="14000.00000"></scales>
<clustering>
<clus scale="   36.560">  1  5  2 -1</clus>
<clus scale="   30.381">  1  3  2 -1</clus>
<clus scale="  130.368">  2  4  1 -1</clus>
<clus scale="   36.560">  1  3  2 -1</clus>
</clustering>
</event>
<event>
 6    0  0.8991567E+002  0.7687961E+02  0.7546771E-02  0.1338147E+00
         21   -1    0    0  505  501  0.00000000000E+00  0.00000000000E+00  0.97491629113E+02  0.97491629113E+02  0.00000000000E+00 0. -1.
         21   -1    0    0  504  502 -0.00000000000E+00 -0.00000000000E+00 -0.21941653665E+04  0.21941653665E+04  0.00000000000E+00 0.  1.
         21    1    1    2  503  502  0.89691272350E+02 -0.60906616163E+01 -0.10751235185E+04  0.10788754333E+04  0.00000000000E+00 0.  1.
         21    1    1    2  504  506 -0.32960919757E+02 -0.49042860285E+02 -0.10730098652E+04  0.10746356570E+04  0.00000000000E+00 0.  1.
         21    1    1    2  505  503 -0.17818753189E+02  0.65565911695E+02 -0.57370467790E+01  0.68185852252E+02  0.00000000000E+00 0. -1.
         21    1    1    2  506  501 -0.38911599403E+02 -0.10432389793E+02  0.57196693126E+02  0.69960053098E+02  0.00000000000E+00 0. -1.
<scales pt_clust_3="14000.00000" pt_clust_4="59.82115" pt_clust_5="76.87961" pt_clust_6="40.28582"></scales>
<clustering>
<clus scale="   40.286">  1  6  2 -1</clus>
<clus scale="   59.821">  2  4  1 -1</clus>
<clus scale="   76.880">  1  5  2 -1</clus>
<clus scale="   40.286">  1  3  2 -1</clus>
</clustering>
</event>
<event>
 6    0  0.8991567E+002  0.1414770E+03  0.7546771E-02  0.1211355E+00
         21   -1    0    0  506  501  0.00000000000E+00  0.00000000000E+00  0.31031138231E+03  0.31031138231E+03  0.00000000000E+00 0.  1.
         21   -1    0    0  504  502 -0.00000000000E+00 -0.00000000000E+00 -0.29462449356E+03  0.29462449356E+03  0.00000000000E+00 0.  1.
         21    1    1    2  503  501  0.80862969965E+02 -0.11301005172E+03  0.49095795152E+02  0.14737872575E+03  0.00000000000E+00 0.  1.
         21    1    1    2  504  503  0.45505729856E+02 -0.22565115457E+02 -0.12455295487E+03  0.13451168891E+03  0.00000000000E+00 0.  1.
         21    1    1    2  505  502 -0.13740256572E+03  0.10395285494E+03 -0.48861504153E+02  0.17908966387E+03  0.00000000000E+00 0.  1.
         21    1    1    2  506  505  0.11033865897E+02  0.31622312240E+02  0.14000555261E+03  0.14395579735E+03  0.00000000000E+00 0.  1.
<scales pt_clust_3="141.47699" pt_clust_4="50.67965" pt_clust_5="14000.00000" pt_clust_6="33.49204"></scales>
<clustering>
<clus scale="   33.492">  1  6  2 -1</clus>
<clus scale="   50.680">  2  4  1 -1</clus>
<clus scale="  141.477">  1  3  2 -1</clus>
<clus scale="   33.492">  1  3  2 -1</clus>
</clustering>
</event>
<event>
 6    0  0.8991567E+002  0.8561820E+02  0.7546771E-02  0.1313824E+00
         21   -1    0    0  506  501  0.00000000000E+00  0.00000000000E+00  0.18256199171E+04  0.18256199171E+04  0.00000000000E+00 0. -1.
         21   -1    0    0  504  502 -0.00000000000E+00 -0.00000000000E+00 -0.21021634440E+03  0.21021634440E+03  0.00000000000E+00 0.  1.
         21    1    1    2  503  502  0.94523826011E+02 -0.55771078861E+02 -0.12364185537E+03  0.16532536200E+03  0.00000000000E+00 0.  1.
         21    1    1    2  504  505 -0.48358390555E+02 -0.10456803867E+02 -0.39478510038E+02  0.63296377771E+02  0.00000000000E+00 0. -1.
         21    1    1    2  505  501 -0.34081230418E+02  0.11882047181E+03  0.26163521021E+03  0.28936623508E+03  0.00000000000E+00 0. -1.
         21    1    1    2  506  503 -0.12084205038E+02 -0.52592589078E+02  0.15168887279E+04  0.15178482866E+04  0.00000000000E+00 0. -1.
<scales pt_clust_3="85.61820" pt_clust_4="49.47604" pt_clust_5="14000.00000" pt_clust_6="54.02669"></scales>
<clustering>
<clus scale="   49.476">  2  4  1 -1</clus>
<clus scale="   54.027">  1  6  2 -1</clus>
<clus scale="   85.618">  2  3  1 -1</clus>
<clus scale="   54.027">  1  3  2 -1</clus>
</clustering>
</event>
<event>
 6    0  0.8991567E+002  0.6935799E+02  0.7546771E-02  0.1362290E+00
         21   -1    0    0  505  501  0.00000000000E+00  0.00000000000E+00  0.10655537998E+03  0.10655537998E+03  0.00000000000E+00 0. -1.
         21   -1    0    0  503  502 -0.00000000000E+00 -0.00000000000E+00 -0.69730926090E+03  0.69730926090E+03  0.00000000000E+00 0.  1.
         21    1    1    2  503  504 -0.58902022276E+02  0.21138608974E+02 -0.39570874174E+03  0.40062663080E+03  0.00000000000E+00 0.  1.
         21    1    1    2  504  501  0.32510170920E+02 -0.35139084739E+02  0.56286465200E+02  0.73890680429E+02  0.00000000000E+00 0. -1.
         21    1    1    2  505  506 -0.64390098561E+02  0.50425820797E+02 -0.29563113961E+02  0.86964509444E+02  0.00000000000E+00 0. -1.
         21    1    1    2  506  502  0.90781949916E+02 -0.36425345032E+02 -0.22176849041E+03  0.24238282021E+03  0.00000000000E+00 0.  1.
<scales pt_clust_3="14000.00000" pt_clust_4="47.87135" pt_clust_5="49.35702" pt_clust_6="69.35799"></scales>
<clustering>
<clus scale="   47.871">  1  4  2 -1</clus>
<clus scale="   49.357">  1  5  2 -1</clus>
<clus scale="   69.358">  1  6  2 -1</clus>
<clus scale="   47.871">  1  3  2 -1</clus>
</clustering>
</event>
<event>
 6    0  0.8991567E+002  0.1277632E+03  0.7546771E-02  0.1230813E+00
         21   -1    0    0  504  501  0.00000000000E+00  0.00000000000E+00  0.65818563129E+03  0.65818563129E+03  0.00000000000E+00 0. -1.
         21   -1    0    0  503  502 -0.00000000000E+00 -0.00000000000E+00 -0.64759355533E+02  0.64759355533E+02  0.00000000000E+00 0. -1.
         21    1    1    2  503  506  0.26845274247E+02  0.38129794770E+02 -0.11705324084E+02  0.48078733454E+02  0.00000000000E+00 0. -1.
         21    1    1    2  504  505 -0.10206266984E+02 -0.33982841289E+02  0.33425135267E+03  0.33612939198E+03  0.00000000000E+00 0. -1.
         21    1    1    2  505  502 -0.23195681729E+02 -0.85672947983E+02  0.23155824385E+03  0.24798611647E+03  0.00000000000E+00 0. -1.
         21    1    1    2  506  501  0.65566744666E+01  0.81525994502E+02  0.39322003323E+02  0.90750744928E+02  0.00000000000E+00 0. -1.
<scales pt_clust_3="42.90065" pt_clust_4="35.48241" pt_clust_5="115.08990" pt_clust_6="42.90065"></scales>
<clustering>
<clus scale="   35.482">  1  4  2 -1</clus>
<clus scale="   42.901">  3  6 -1 -1</clus>
<clus scale="  115.090">  1  5  2 -1</clus>
<clus scale="   35.482">  1  3  2 -1</clus>
</clustering>
</event>
<event>
 6    0  0.8991567E+002  0.1507951E+03  0.7546771E-02  0.1199499E+00
         21   -1    0    0  506  501  0.00000000000E+00  0.00000000000E+00  0.25160166014E+03  0.25160166014E+03  0.00000000000E+00 0. -1.
         21   -1    0    0  504  502 -0.00000000000E+00 -0.00000000000E+00 -0.33208401075E+03  0.33208401075E+03  0.00000000000E+00 0. -1.
         21    1    1    2  503  502 -0.37069671750E+02 -0.33206941930E+01 -0.99159760725E+02  0.10591433199E+03  0.00000000000E+00 0. -1.
         21    1    1    2  504  501 -0.40347350458E+02 -0.39046458504E+01 -0.70888913786E+01  0.41151030718E+02  0.00000000000E+00 0. -1.
         21    1    1    2  505  503  0.15048029132E+02  0.14802492996E+03 -0.14424722433E+03  0.20723195892E+03  0.00000000000E+00 0. -1.
         21    1    1    2  506  505  0.62368993076E+02 -0.14079958992E+03  0.17001352582E+03  0.22938834926E+03  0.00000000000E+00 0. -1.
<scales pt_clust_3="37.21811" pt_clust_4="44.44650" pt_clust_5="150.79506" pt_clust_6="14000.00000"></scales>
<clustering>
<clus scale="   37.218">  2  3  1 -1</clus>
<clus scale="   44.447">  2  4  1 -1</clus>
<clus scale="  150.795">  2  5  1 -1</clus>
<clus scale="  150.795">  1  3  2 -1</clus>
</clustering>
</event>
<event>
 6    0  0.8991567E+002  0.1116726E+03  0.7546771E-02  0.1257504E+00
         21   -1    0    0  505  501  0.00000000000E+00  0.00000000000E+00  0.88299618020E+02  0.88299618020E+02  0.00000000000E+00 0.  1.
         21   -1    0    0  506  502 -0.00000000000E+00 -0.00000000000E+00 -0.17222750192E+04  0.17222750192E+04  0.00000000000E+00 0. -1.
         21    1    1    2  503  502 -0.24477422894E+02 -0.26926790091E+02 -0.13718209091E+03  0.14192646802E+03  0.00000000000E+00 0. -1.
         21    1    1    2  504  501 -0.28281466468E+01  0.97023305259E+02 -0.72132441686E+02  0.12093225095E+03  0.00000000000E+00 0.  1.
         21    1    1    2  505  503 -0.90548363947E+02 -0.29490590940E+02  0.20315695099E+02  0.97372627749E+02  0.00000000000E+00 0.  1.
         21    1    1    2  506  504  0.11785393349E+03 -0.40605924229E+02 -0.14449765637E+04  0.14503432905E+04  0.00000000000E+00 0. -1.
<scales pt_clust_3="36.38951" pt_clust_4="95.47883" pt_clust_5="14000.00000" pt_clust_6="111.67258"></scales>
<clustering>
<clus scale="   36.390">  2  3  1 -1</clus>
<clus scale="   95.479">  1  4  2 -1</clus>
<clus scale="  111.673">  2  6  1 -1</clus>
<clus scale="   95.479">  1  3  2 -1</clus>
</clustering>
</event>
<event>
 6    0  0.8991567E+002  0.2126121E+03  0.7546771E-02  0.1139514E+00
         21   -1    0    0  505  501  0.00000000000E+00  0.00000000000E+00  0.24103408813E+04  0.24103408813E+04  0.00000000000E+00 0. -1.
         21   -1    0    0  503  502 -0.00000000000E+00 -0.00000000000E+00 -0.49886994218E+02  0.49886994218E+02  0.00000000000E+00 0. -1.
         21    1    1    2  503  506  0.19834551690E+02  0.13999686692E+03  0.19314011049E+03  0.23936506526E+03  0.00000000000E+00 0. -1.
         21    1    1    2  504  502  0.19739785006E+03 -0.11124262021E+02  0.64810492974E+03  0.67759107164E+03  0.00000000000E+00 0. -1.
         21    1    1    2  505  504 -0.57680713363E+01 -0.30563884219E+02  0.32656802950E+03  0.32804588026E+03  0.00000000000E+00 0. -1.
         21    1    1    2  506  501 -0.21146433041E+03 -0.98308720678E+02  0.11926408173E+04  0.12152258583E+04  0.00000000000E+00 0. -1.
<scales pt_clust_3="138.16938" pt_clust_4="212.61212" pt_clust_5="31.10340" pt_clust_6="14000.00000"></scales>
<clustering>
<clus scale="   31.103">  1  5  2 -1</clus>
<clus scale="  138.169">  2  3  1 -1</clus>
<clus scale="  212.612">  2  4  1 -1</clus>
<clus scale="   31.103">  1  3  2 -1</clus>
</clustering>
</event>
<event>
 6    0  0.8991567E+002  0.8056689E+02  0.7546771E-02  0.1327450E+00
         21   -1    0    0  504  501  0.00000000000E+00  0.00000000000E+00  0.17121163282E+04  0.17121163282E+04  0.00000000000E+00 0.  1.
         21   -1    0    0  506  502 -0.00000000000E+00 -0.00000000000E+00 -0.75913106077E+02  0.75913106077E+02  0.00000000000E+00 0.  1.
         21    1    1    2  503  505  0.30278094147E+02 -0.13099200791E+03  0.27168774494E+03  0.30313346874E+03  0.00000000000E+00 0.  1.
         21    1    1    2  504  503  0.83014672287E+01  0.65983336410E+02  0.13785839590E+04  0.13801871058E+04  0.00000000000E+00 0.  1.
         21    1    1    2  505  502 -0.41663230060E+01  0.67973911535E+02 -0.16535248604E+02  0.70080135154E+02  0.00000000000E+00 0.  1.
         21    1    1    2  506  501 -0.34413238369E+02 -0.29652400312E+01  0.24667667376E+01  0.34628724517E+02  0.00000000000E+00 0.  1.
<scales pt_clust_3="80.56689" pt_clust_4="66.40807" pt_clust_5="14000.00000" pt_clust_6="34.54075"></scales>
<clustering>
<clus scale="   34.541">  2  6  1 -1</clus>
<clus scale="   66.408">  1  4  2 -1</clus>
<clus scale="   80.567">  1  3  2 -1</clus>
<clus scale="   66.408">  1  3  2 -1</clus>
</clustering>
</event>
<event>
 6    0  0.8991567E+002  0.1086851E+03  0.7546771E-02  0.1263024E+00
         21   -1    0    0  504  501  0.00000000000E+00  0.00000000000E+00  0.26252194158E+03  0.26252194158E+03  0.00000000000E+00 0.  1.
         21   -1    0    0  503  502 -0.00000000000E+00 -0.00000000000E+00 -0.72669000136E+03  0.72669000136E+03  0.00000000000E+00 0. -1.
         21    1    1    2  503  501  0.79391003021E+02 -0.33995069932E+02 -0.42785594325E+01  0.86469082400E+02  0.00000000000E+00 0.  1.
         21    1    1    2  504  506  0.28293599247E+02 -0.38312131791E+02  0.11902565542E+03  0.12820083404E+03  0.00000000000E+00 0.  1.
         21    1    1    2  505  502 -0.32802802956E+02 -0.66137876494E+02 -0.60970657489E+03  0.61415987337E+03  0.00000000000E+00 0. -1.
         21    1    1    2  506  505 -0.74881799312E+02  0.13844507822E+03  0.30791419127E+02  0.16038215313E+03  0.00000000000E+00 0.  1.
<scales pt_clust_3="14000.00000" pt_clust_4="47.62717" pt_clust_5="74.17753" pt_clust_6="108.68512"></scales>
<clustering>
<clus scale="   47.627">  1  4  2 -1</clus>
<clus scale="   74.178">  2  5  1 -1</clus>
<clus scale="  108.685">  1  6  2 -1</clus>
<clus scale="   47.627">  1  3  2 -1</clus>
</clustering>
</event>
<event>
 6    0  0.8991567E+002  0.1289149E+03  0.7546771E-02  0.1229075E+00
         21   -1    0    0  504  501  0.00000000000E+00  0.00000000000E+00  0.50299085557E+02  0.50299085557E+02  0.00000000000E+00 0.  1.
         21   -1    0    0  503  502 -0.00000000000E+00 -0.00000000000E+00 -0.26264977428E+04  0.26264977428E+04  0.00000000000E+00 0.  1.
         21    1    1    2  503  505 -0.43627285811E+02 -0.12097034721E+01 -0.18294717583E+04  0.18299922726E+04  0.00000000000E+00 0.  1.
         21    1    1    2  504  502 -0.11490869401E+03  0.78335065224E+02 -0.22800352511E+03  0.26706927540E+03  0.00000000000E+00 0.  1.
         21    1    1    2  505  506  0.12334622360E+03 -0.77182171025E+02 -0.52429167029E+03  0.54410764921E+03  0.00000000000E+00 0.  1.
         21    1    1    2  506  501  0.35189756223E+02  0.56809273197E-01  0.55682964909E+01  0.35627631077E+02  0.00000000000E+00 0.  1.
<scales pt_clust_3="43.33581" pt_clust_4="128.91488" pt_clust_5="14000.00000" pt_clust_6="35.18980"></scales>
<clustering>
<clus scale="   35.190">  1  6  2 -1</clus>
<clus scale="   43.336">  2  3  1 -1</clus>
<clus scale="  128.915">  1  4  2 -1</clus>
<clus scale="   35.190">  1  3  2 -1</clus>
</clustering>
</event>
<event>
 6    0  0.8991567E+002  0.9547048E+02  0.7546771E-02  0.1290120E+00
         21   -1    0    0  504  501  0.00000000000E+00  0.00000000000E+00  0.10450830553E+04  0.10450830553E+04  0.00000000000E+00 0. -1.
         21   -1    0    0  506  502 -0.00000000000E+00 -0.00000000000E+00 -0.24752317939E+03  0.24752317939E+03  0.00000000000E+00 0. -1.
         21    1    1    2  503  502 -0.11222086647E+03  0.16272196519E+02 -0.17038545431E+03  0.20466927051E+03  0.00000000000E+00 0. -1.
         21    1    1    2  504  505  0.17948839772E+02 -0.36343296557E+02  0.85285828037E+03  0.85382096628E+03  0.00000000000E+00 0. -1.
         21    1    1    2  505  503  0.68725208553E+02 -0.20822264211E+02 -0.32521868373E+02  0.78831420766E+02  0.00000000000E+00 0.  1.
         21    1    1    2  506  501  0.25546818147E+02  0.40893364249E+02  0.14760891824E+03  0.15528457715E+03  0.00000000000E+00 0. -1.
<scales pt_clust_3="14000.00000" pt_clust_4="40.53389" pt_clust_5="95.47048" pt_clust_6="41.55124"></scales>
<clustering>
<clus scale="   40.534">  1  4  2 -1</clus>
<clus scale="   41.551">  1  6  2 -1</clus>
<clus scale="   95.470">  1  5  2 -1</clus>
<clus scale="   40.534">  1  3  2 -1</clus>
</clustering>
</event>
<event>
 6    0  0.8991567E+002  0.1025302E+03  0.7546771E-02  0.1275063E+00
         21   -1    0    0  504  501  0.00000000000E+00  0.00000000000E+00  0.62231168105E+03  0.62231168105E+03  0.00000000000E+00 0.  1.
         21   -1    0    0  505  502 -0.00000000000E+00 -0.00000000000E+00 -0.49707704515E+03  0.49707704515E+03  0.00000000000E+00 0. -1.
         21    1    1    2  503  506  0.32074042695E+02 -0.56697812878E+02 -0.65707422869E+02  0.92524870278E+02  0.00000000000E+00 0.  1.
         21    1    1    2  504  503 -0.51212989504E+02  0.11185514994E+03  0.38390859286E+03  0.40313788278E+03  0.00000000000E+00 0.  1.
         21    1    1    2  505  501  0.58720109485E+02 -0.20751945335E+01  0.20861016515E+03  0.21672692194E+03  0.00000000000E+00 0.  1.
         21    1    1    2  506  502 -0.39581162676E+02 -0.53082142532E+02 -0.40157669925E+03  0.40699905119E+03  0.00000000000E+00 0. -1.
<scales pt_clust_3="102.53025" pt_clust_4="14000.00000" pt_clust_5="58.75677" pt_clust_6="65.99414"></scales>
<clustering>
<clus scale="   58.757">  1  5  2 -1</clus>
<clus scale="   65.994">  2  6  1 -1</clus>
<clus scale="  102.530">  2  3  1 -1</clus>
<clus scale="   58.757">  1  3  2 -1</clus>
</clustering>
</event>
<event>
 6    0  0.8991567E+002  0.2360166E+03  0.7546771E-02  0.1122475E+00
         21   -1    0    0  504  501  0.00000000000E+00  0.00000000000E+00  0.24719288565E+03  0.24719288565E+03  0.00000000000E+00 0.  1.
         21   -1    0    0  503  502 -0.00000000000E+00 -0.00000000000E+00 -0.21544194130E+04  0.21544194130E+04  0.00000000000E+00 0. -1.
         21    1    1    2  503  506 -0.21212855682E+02  0.26745836327E+02 -0.10445645261E+04  0.10451221815E+04  0.00000000000E+00 0. -1.
         21    1    1    2  504  505 -0.70773253754E+02 -0.62874902190E+02  0.34106703444E+02  0.10062491735E+03  0.00000000000E+00 0.  1.
         21    1    1    2  505  502  0.76209061326E+02 -0.24803486201E+03 -0.93351034100E+03  0.96890178581E+03  0.00000000000E+00 0. -1.
         21    1    1    2  506  501  0.15777048110E+02  0.28416392787E+03  0.36741636299E+02  0.28696341403E+03  0.00000000000E+00 0.  1.
<scales pt_clust_3="34.13686" pt_clust_4="94.61682" pt_clust_5="14000.00000" pt_clust_6="236.01660"></scales>
<clustering>
<clus scale="   34.137">  2  3  1 -1</clus>
<clus scale="   94.617">  1  4  2 -1</clus>
<clus scale="  236.017">  1  6  2 -1</clus>
<clus scale="   94.617">  1  3  2 -1</clus>
</clustering>
</event>
<event>
 6    0  0.8991567E+002  0.1299297E+03  0.7546771E-02  0.1227560E+00
         21   -1    0    0  504  501  0.00000000000E+00  0.00000000000E+00  0.22540361466E+03  0.22540361466E+03  0.00000000000E+00 0. -1.
         21   -1    0    0  506  502 -0.00000000000E+00 -0.00000000000E+00 -0.74652815408E+03  0.74652815408E+03  0.00000000000E+00 0.  1.
         21    1    1    2  503  502 -0.16528151560E+02  0.10712694418E+03 -0.66488318042E+03  0.67366089805E+03  0.00000000000E+00 0.  1.
         21    1    1    2  504  505 -0.47470611707E+00 -0.63476388886E+02  0.14226011172E+03  0.15578002657E+03  0.00000000000E+00 0. -1.
         21    1    1    2  505  503  0.29342521441E+02 -0.75745128663E+02  0.40273676821E+02  0.90665743947E+02  0.00000000000E+00 0. -1.
         21    1    1    2  506  501 -0.12339663764E+02  0.32094573371E+02 -0.38775147531E+02  0.51825100171E+02  0.00000000000E+00 0.  1.
<scales pt_clust_3="129.92965" pt_clust_4="63.16978" pt_clust_5="14000.00000" pt_clust_6="34.38501"></scales>
<clustering>
<clus scale="   34.385">  2  6  1 -1</clus>
<clus scale="   63.170">  1  4  2 -1</clus>
<clus scale="  129.930">  2  3  1 -1</clus>
<clus scale="   63.170">  1  3  2 -1</clus>
</clustering>
</event>
<event>
 6    0  0.8991567E+002  0.6139444E+02  0.7546771E-02  0.1392071E+00
         21   -1    0    0  505  501  0.00000000000E+00  0.00000000000E+00  0.28761602396E+03  0.28761602396E+03  0.00000000000E+00 0.  1.
         21   -1    0    0  506  502 -0.00000000000E+00 -0.00000000000E+00 -0.58388381949E+03  0.58388381949E+03  0.00000000000E+00 0.  1.
         21    1    1    2  503  502  0.73830395883E+02  0.16282814372E+02 -0.32871851285E+03  0.33730093105E+03  0.00000000000E+00 0.  1.
         21    1    1    2  504  501 -0.40155827856E+02  0.71668988895E+02  0.10829282439E+03  0.13592744496E+03  0.00000000000E+00 0.  1.
         21    1    1    2  505  503 -0.12349154721E+02 -0.57327892209E+02  0.15432881066E+03  0.16509503520E+03  0.00000000000E+00 0.  1.
         21    1    1    2  506  504 -0.21325413305E+02 -0.30623911057E+02 -0.23017091773E+03  0.23317643224E+03  0.00000000000E+00 0.  1.
<scales pt_clust_3="55.14321" pt_clust_4="61.39444" pt_clust_5="14000.00000" pt_clust_6="37.31752"></scales>
<clustering>
<clus scale="   37.318">  2  6  1 -1</clus>
<clus scale="   55.143">  2  3  1 -1</clus>
<clus scale="   61.394">  2  4  1 -1</clus>
<clus scale="   61.394">  1  3  2 -1</clus>
</clustering>
</event>
<event>
 6    0  0.8991567E+002  0.1108749E+03  0.7546771E-02  0.1258958E+00
         21   -1    0    0  505  501  0.00000000000E+00  0.00000000000E+00  0.44466775625E+02  0.44466775625E+02  0.00000000000E+00 0.  1.
         21   -1    0    0  503  502 -0.00000000000E+00 -0.00000000000E+00 -0.12613335057E+04  0.12613335057E+04  0.00000000000E+00 0.  1.
         21    1    1    2  503  504  0.65083420824E+02  0.52189593301E+02 -0.41374748444E+03  0.42207414775E+03  0.00000000000E+00 0.  1.
         21    1    1    2  504  501 -0.71357766560E+02 -0.11007255229E+03 -0.11779885083E+03  0.17630787524E+03  0.00000000000E+00 0.  1.
         21    1    1    2  505  506 -0.18560273038E+02  0.31502438992E+02 -0.21108907677E+02  0.42219348420E+02  0.00000000000E+00 0.  1.
         21    1    1    2  506  502  0.24834618774E+02  0.26380519994E+02 -0.66421148717E+03  0.66519890996E+03  0.00000000000E+00 0.  1.
<scales pt_clust_3="110.87486" pt_clust_4="14000.00000" pt_clust_5="37.14660" pt_clust_6="36.23107"></scales>
<clustering>
<clus scale="   36.231">  2  6  1 -1</clus>
<clus scale="   37.147">  1  5  2 -1</clus>
<clus scale="  110.875">  2  3  1 -1</clus>
<clus scale="   37.147">  1  3  2 -1</clus>
</clustering>
</event>
<event>
 6    0  0.8991567E+002  0.6267862E+02  0.7546771E-02  0.1386923E+00
         21   -1    0    0  505  501  0.00000000000E+00  0.00000000000E+00  0.79919121612E+02  0.79919121612E+02  0.00000000000E+00 0.  1.
         21   -1    0    0  503  502 -0.00000000000E+00 -0.00000000000E+00 -0.91059433305E+03  0.91059433305E+03  0.00000000000E+00 0. -1.
         21    1    1    2  503  506 -0.31467118098E+02 -0.29136411462E+02 -0.21044257413E+03  0.21476775130E+03  0.00000000000E+00 0.  1.
         21    1    1    2  504  502  0.73815871856E+01  0.84363272426E+02 -0.61735293469E+03  0.62313425161E+03  0.00000000000E+00 0. -1.
         21    1    1    2  505  504 -0.15044807533E+02 -0.81954875250E+02  0.36527832339E+02  0.90979285259E+02  0.00000000000E+00 0.  1.
         21    1    1    2  506  501  0.39130338445E+02  0.26728014286E+02 -0.39407534963E+02  0.61632166491E+02  0.00000000000E+00 0.  1.
<scales pt_clust_3="42.88485" pt_clust_4="62.67862" pt_clust_5="14000.00000" pt_clust_6="44.31963"></scales>
<clustering>
<clus scale="   42.885">  2  3  1 -1</clus>
<clus scale="   44.320">  1  6  2 -1</clus>
<clus scale="   62.679">  2  4  1 -1</clus>
<clus scale="   44.320">  1  3  2 -1</clus>
</clustering>
</event>
<event>
 6    0  0.8991567E+002  0.1141276E+03  0.7546771E-02  0.1253112E+00
         21   -1    0    0  504  501  0.00000000000E+00  0.00000000000E+00  0.68979975779E+03  0.68979975779E+03  0.00000000000E+00 0. -1.
         21   -1    0    0  503  502 -0.00000000000E+00 -0.00000000000E+00 -0.43284711929E+03  0.43284711929E+03  0.00000000000E+00 0.  1.
         21    1    1    2  503  506 -0.18524943617E+02  0.33733805148E+02 -0.10379808159E+03  0.11070313857E+03  0.00000000000E+00 0.  1.
         21    1    1    2  504  505 -0.25324546146E+02  0.60454611720E+02  0.45415553288E+02  0.79741238993E+02  0.00000000000E+00 0. -1.
         21    1    1    2  505  502 -0.64561814422E+02 -0.11184584904E+03 -0.28975101525E+03  0.31722763541E+03  0.00000000000E+00 0.  1.
         21    1    1    2  506  501  0.10841130419E+03  0.17657432169E+02  0.60508618206E+03  0.61497486412E+03  0.00000000000E+00 0. -1.
<scales pt_clust_3="38.48562" pt_clust_4="67.56230" pt_clust_5="114.12761" pt_clust_6="14000.00000"></scales>
<clustering>
<clus scale="   38.486">  2  3  1 -1</clus>
<clus scale="   67.562">  1  4  2 -1</clus>
<clus scale="  114.128">  2  5  1 -1</clus>
<clus scale="   67.562">  1  3  2 -1</clus>
</clustering>
</event>
<event>
 6    0  0.8991567E+002  0.1139141E+03  0.7546771E-02  0.1253489E+00
         21   -1    0    0  505  501  0.00000000000E+00  0.00000000000E+00  0.37105312705E+03  0.37105312705E+03  0.00000000000E+00 0.  1.
         21   -1    0    0  504  502 -0.00000000000E+00 -0.00000000000E+00 -0.89496597429E+02  0.89496597429E+02  0.00000000000E+00 0.  1.
         21    1    1    2  503  501  0.11995234191E+03  0.31496098120E+02  0.74616115878E+02  0.14473469962E+03  0.00000000000E+00 0.  1.
         21    1    1    2  504  503 -0.11202995951E+02  0.34188670141E+02 -0.24186399212E+02  0.43351518903E+02  0.00000000000E+00 0.  1.
         21    1    1    2  505  506 -0.33011862346E+02  0.87270745404E+01  0.86913190452E+02  0.93380124011E+02  0.00000000000E+00 0.  1.
         21    1    1    2  506  502 -0.75737483611E+02 -0.74411842802E+02  0.14421362250E+03  0.17908338194E+03  0.00000000000E+00 0.  1.
<scales pt_clust_3="14000.00000" pt_clust_4="36.62400" pt_clust_5="34.14594" pt_clust_6="113.91408"></scales>
<clustering>
<clus scale="   34.146">  1  5  2 -1</clus>
<clus scale="   36.624">  2  4  1 -1</clus>
<clus scale="  113.914">  1  6  2 -1</clus>
<clus scale="   34.146">  1  3  2 -1</clus>
</clustering>
</event>
<event>
 6    0  0.8991567E+002  0.1020824E+03  0.7546771E-02  0.1275977E+00
         21   -1    0    0  505  501  0.00000000000E+00  0.00000000000E+00  0.10822189309E+03  0.10822189309E+03  0.00000000000E+00 0. -1.
         21   -1    0    0  504  502 -0.00000000000E+00 -0.00000000000E+00 -0.48606604295E+03  0.48606604295E+03  0.00000000000E+00 0.  1.
         21    1    1    2  503  502 -0.63893252804E+02 -0.82342962007E+02 -0.34640458945E+03  0.36174417858E+03  0.00000000000E+00 0.  1.
         21    1    1    2  504  501  0.41486088545E+02 -0.37854220697E+02 -0.65133083182E+02  0.86002070278E+02  0.00000000000E+00 0. -1.
         21    1    1    2  505  506 -0.24349924438E+02  0.63960262585E+02  0.25129917964E+02  0.72906424867E+02  0.00000000000E+00 0. -1.
         21    1    1    2  506  503  0.46757088697E+02  0.56236920119E+02  0.85636048054E+01  0.73635262308E+02  0.00000000000E+00 0. -1.
<scales pt_clust_3="102.08240" pt_clust_4="56.16082" pt_clust_5="65.53741" pt_clust_6="14000.00000"></scales>
<clustering>
<clus scale="   56.161">  2  4  1 -1</clus>
<clus scale="   65.537">  1  5  2 -1</clus>
<clus scale="  102.082">  2  3  1 -1</clus>
<clus scale="   65.537">  1  3  2 -1</clus>
</clustering>
</event>
<event>
 6    0  0.8991567E+002  0.7971212E+02  0.7546771E-02  0.1329870E+00
         21   -1    0    0  506  501  0.00000000000E+00  0.00000000000E+00  0.24505384501E+03  0.24505384501E+03  0.00000000000E+00 0. -1.
         21   -1    0    0  504  502 -0.00000000000E+00 -0.00000000000E+00 -0.11909411128E+04  0.11909411128E+04  0.00000000000E+00 0.  1.
         21    1    1    2  503  505  0.18086637809E+02 -0.10395609554E+03 -0.15289762258E+02  0.10661975941E+03  0.00000000000E+00 0.  1.
         21    1    1    2  504  501  0.13673237276E+02  0.10642130623E+03 -0.72556012443E+03  0.73345071137E+03  0.00000000000E+00 0.  1.
         21    1    1    2  505  502 -0.35755482402E+02 -0.34286941910E+02 -0.39761776746E+03  0.40069182411E+03  0.00000000000E+00 0.  1.
         21    1    1    2  506  503  0.39956073170E+01  0.31821731214E+02  0.19258038637E+03  0.19523266292E+03  0.00000000000E+00 0. -1.
<scales pt_clust_3="14000.00000" pt_clust_4="79.71212" pt_clust_5="48.79360" pt_clust_6="32.07160"></scales>
<clustering>
<clus scale="   32.072">  1  6  2 -1</clus>
<clus scale="   48.794">  2  5  1 -1</clus>
<clus scale="   79.712">  2  4  1 -1</clus>
<clus scale="   32.072">  1  3  2 -1</clus>
</clustering>
</event>
<event>
 6    0  0.8991567E+002  0.2613514E+03  0.7546771E-02  0.1106334E+00
         21   -1    0    0  504  501  0.00000000000E+00  0.00000000000E+00  0.12025461262E+04  0.12025461262E+04  0.00000000000E+00 0.  1.
         21   -1    0    0  506  502 -0.00000000000E+00 -0.00000000000E+00 -0.23560021943E+03  0.23560021943E+03  0.00000000000E+00 0. -1.
         21    1    1    2  503  505 -0.24821231254E+03 -0.22159314000E+03  0.23625704656E+03  0.40808119760E+03  0.00000000000E+00 0. -1.
         21    1    1    2  504  503  0.22593100556E+02  0.22405260217E+02  0.87634254587E+02  0.93232003385E+02  0.00000000000E+00 0. -1.
         21    1    1    2  505  502  0.17481993393E+03  0.16374432472E+03 -0.46922002611E+02  0.24408172301E+03  0.00000000000E+00 0. -1.
         21    1    1    2  506  501  0.50799278048E+02  0.35443555058E+02  0.68997660828E+03  0.69275142166E+03  0.00000000000E+00 0.  1.
<scales pt_clust_3="261.35140" pt_clust_4="31.81892" pt_clust_5="14000.00000" pt_clust_6="81.50117"></scales>
<clustering>
<clus scale="   31.819">  1  4  2 -1</clus>
<clus scale="   81.501">  1  6  2 -1</clus>
<clus scale="  261.351">  1  3  2 -1</clus>
<clus scale="   31.819">  1  3  2 -1</clus>
</clustering>
</event>
<event>
 6    0  0.8991567E+002  0.6227104E+02  0.7546771E-02  0.1388541E+00
         21   -1    0    0  504  501  0.00000000000E+00  0.00000000000E+00  0.68417982324E+03  0.68417982324E+03  0.00000000000E+00 0. -1.
         21   -1    0    0  505  502 -0.00000000000E+00 -0.00000000000E+00 -0.40653644085E+03  0.40653644085E+03  0.00000000000E+00 0. -1.
         21    1    1    2  503  502  0.67104825236E+01 -0.62722449842E+02 -0.93469826584E+02  0.11276411119E+03  0.00000000000E+00 0. -1.
         21    1    1    2  504  503  0.44132182181E+02  0.92842434980E+02 -0.26282473313E+03  0.28221305352E+03  0.00000000000E+00 0. -1.
         21    1    1    2  505  506 -0.12473621370E+02 -0.75130035226E+02  0.19706591329E+02  0.78666785653E+02  0.00000000000E+00 0. -1.
         21    1    1    2  506  501 -0.38369043334E+02  0.45010050088E+02  0.61423135078E+03  0.61707231373E+03  0.00000000000E+00 0. -1.
<scales pt_clust_3="56.40128" pt_clust_4="62.27104" pt_clust_5="14000.00000" pt_clust_6="59.14464"></scales>
<clustering>
<clus scale="   59.145">  1  6  2 -1</clus>
<clus scale="   56.401">  2  3  1 -1</clus>
<clus scale="   62.271">  2  4  1 -1</clus>
<clus scale="   59.145">  1  3  2 -1</clus>
</clustering>
</event>
<event>
 6    0  0.8991567E+002  0.1001175E+03  0.7546771E-02  0.1280049E+00
         21   -1    0    0  505  501  0.00000000000E+00  0.00000000000E+00  0.46700069627E+03  0.46700069627E+03  0.00000000000E+00 0.  1.
         21   -1    0    0  503  502 -0.00000000000E+00 -0.00000000000E+00 -0.11136711278E+04  0.11136711278E+04  0.00000000000E+00 0.  1.
         21    1    1    2  503  504 -0.23899363315E+02  0.32630502467E+02 -0.10436967774E+04  0.10444802020E+04  0.00000000000E+00 0.  1.
         21    1    1    2  504  501 -0.59915803243E+02  0.40415827817E+02  0.18799834218E+02  0.74677817208E+02  0.00000000000E+00 0.  1.
         21    1    1    2  505  506  0.51995215575E+02 -0.96066437891E+02  0.40134228398E+03  0.41594217368E+03  0.00000000000E+00 0.  1.
         21    1    1    2  506  502  0.31819950983E+02  0.23020107607E+02 -0.23115772280E+02  0.45571631119E+02  0.00000000000E+00 0.  1.
<scales pt_clust_3="55.32866" pt_clust_4="100.11749" pt_clust_5="14000.00000" pt_clust_6="39.27384"></scales>
<clustering>
<clus scale="   39.274">  2  6  1 -1</clus>
<clus scale="   55.329">  2  3  1 -1</clus>
<clus scale="  100.117">  2  4  1 -1</clus>
<clus scale="  100.117">  1  3  2 -1</clus>
</clustering>
</event>
<event>
 6    0  0.8991567E+002  0.1315611E+03  0.7546771E-02  0.1225158E+00
         21   -1    0    0  503  501  0.00000000000E+00  0.00000000000E+00  0.21242222011E+03  0.21242222011E+03  0.00000000000E+00 0. -1.
         21   -1    0    0  501  502 -0.00000000000E+00 -0.00000000000E+00 -0.16491649576E+04  0.16491649576E+04  0.00000000000E+00 0. -1.
         21    1    1    2  503  505 -0.37190214094E+02  0.16087334469E+02  0.69753302912E+02  0.80668690468E+02  0.00000000000E+00 0. -1.
         21    1    1    2  504  502 -0.39250768179E+01 -0.42702911010E+02 -0.11500608362E+04  0.11508600575E+04  0.00000000000E+00 0. -1.
         21    1    1    2  505  506 -0.85347460057E+02 -0.27545565641E+02  0.11105555831E+03  0.14274552237E+03  0.00000000000E+00 0. -1.
         21    1    1    2  506  504  0.12646275097E+03  0.54161142182E+02 -0.46749076246E+03  0.48731290737E+03  0.00000000000E+00 0. -1.
<scales pt_clust_3="30.62130" pt_clust_4="42.88292" pt_clust_5="30.62130" pt_clust_6="123.42212"></scales>
<clustering>
<clus scale="   30.621">  3  5 -1 -1</clus>
<clus scale="   42.883">  2  4  1 -1</clus>
<clus scale="  123.422">  2  6  1 -1</clus>
<clus scale="  131.561">  1  3  2 -1</clus>
</clustering>
</event>
<event>
 6    0  0.8991567E+002  0.1244950E+03  0.7546771E-02  0.1235861E+00
         21   -1    0    0  504  501  0.00000000000E+00  0.00000000000E+00  0.18054564235E+03  0.18054564235E+03  0.00000000000E+00 0. -1.
         21   -1    0    0  506  502 -0.00000000000E+00 -0.00000000000E+00 -0.74814119553E+03  0.74814119553E+03  0.00000000000E+00 0. -1.
         21    1    1    2  503  501  0.57361994619E+01  0.45952482376E+02  0.64655209507E+02  0.79528804450E+02  0.00000000000E+00 0. -1.
         21    1    1    2  504  505  0.90709252929E+02 -0.12312338155E+03  0.34143652460E+02  0.15669500520E+03  0.00000000000E+00 0. -1.
         21    1    1    2  505  502 -0.46761680595E+02  0.97540262032E+02 -0.58523630486E+03  0.59514896456E+03  0.00000000000E+00 0. -1.
         21    1    1    2  506  503 -0.49683771796E+02 -0.20369362862E+02 -0.81158110291E+02  0.97314063677E+02  0.00000000000E+00 0.  1.
<scales pt_clust_3="46.30912" pt_clust_4="124.49500" pt_clust_5="14000.00000" pt_clust_6="52.09025"></scales>
<clustering>
<clus scale="   46.309">  1  3  2 -1</clus>
<clus scale="   52.090">  2  6  1 -1</clus>
<clus scale="  124.495">  1  4  2 -1</clus>
<clus scale="   46.309">  1  3  2 -1</clus>
</clustering>
</event>
<event>
 6    0  0.8991567E+002  0.1271732E+03  0.7546771E-02  0.1231711E+00
         21   -1    0    0  504  501  0.00000000000E+00  0.00000000000E+00  0.53994885969E+02  0.53994885969E+02  0.00000000000E+00 0. -1.
         21   -1    0    0  505  502 -0.00000000000E+00 -0.00000000000E+00 -0.18613920293E+04  0.18613920293E+04  0.00000000000E+00 0. -1.
         21    1    1    2  503  501  0.68700382453E+02 -0.65546354301E+02 -0.34058625570E+02  0.10087644466E+03  0.00000000000E+00 0. -1.
         21    1    1    2  504  502 -0.29407465121E+01  0.16039563396E+03 -0.45676695542E+03  0.48411926108E+03  0.00000000000E+00 0. -1.
         21    1    1    2  505  506 -0.52842341152E+02  0.32965754518E+02 -0.38550482123E+03  0.39050354823E+03  0.00000000000E+00 0. -1.
         21    1    1    2  506  503 -0.12917294789E+02 -0.12781503417E+03 -0.93106674111E+03  0.93988766130E+03  0.00000000000E+00 0. -1.
<scales pt_clust_3="92.16206" pt_clust_4="127.17321" pt_clust_5="62.28205" pt_clust_6="14000.00000"></scales>
<clustering>
<clus scale="   62.282">  2  5  1 -1</clus>
<clus scale="   92.162">  1  3  2 -1</clus>
<clus scale="  127.173">  1  4  2 -1</clus>
<clus scale="   92.162">  1  3  2 -1</clus>
</clustering>
</event>
<event>
 6    0  0.8991567E+002  0.1408606E+03  0.7546771E-02  0.1212176E+00
         21   -1    0    0  503  501  0.00000000000E+00  0.00000000000E+00  0.51482239625E+03  0.51482239625E+03  0.00000000000E+00 0.  1.
         21   -1    0    0  504  502 -0.00000000000E+00 -0.00000000000E+00 -0.13618978211E+04  0.13618978211E+04  0.00000000000E+00 0. -1.
         21    1    1    2  503  506 -0.42012521401E+02  0.15639724593E+02  0.19487920897E+03  0.19996889515E+03  0.00000000000E+00 0.  1.
         21    1    1    2  504  505  0.31100933931E+02 -0.26862855510E+02 -0.12958376100E+04  0.12964891024E+04  0.00000000000E+00 0. -1.
         21    1    1    2  505  501  0.10733458884E+03 -0.88586145615E+02  0.91021776352E+02  0.16629246203E+03  0.00000000000E+00 0. -1.
         21    1    1    2  506  502 -0.96423001371E+02  0.99809276531E+02  0.16286119978E+03  0.21396975784E+03  0.00000000000E+00 0.  1.
<scales pt_clust_3="43.34149" pt_clust_4="41.09600" pt_clust_5="14000.00000" pt_clust_6="140.86062"></scales>
<clustering>
<clus scale="   41.096">  2  4  1 -1</clus>
<clus scale="   43.341">  1  3  2 -1</clus>
<clus scale="  140.861">  2  6  1 -1</clus>
<clus scale="   43.341">  1  3  2 -1</clus>
</clustering>
</event>
<event>
 6    0  0.8991567E+002  0.1299381E+03  0.7546771E-02  0.1227548E+00
         21   -1    0    0  503  501  0.00000000000E+00  0.00000000000E+00  0.49873652341E+02  0.49873652341E+02  0.00000000000E+00 0.  1.
         21   -1    0    0  504  502 -0.00000000000E+00 -0.00000000000E+00 -0.29768191746E+04  0.29768191746E+04  0.00000000000E+00 0. -1.
         21    1    1    2  503  502  0.30875541550E+02  0.24667391775E+02 -0.13008662893E+03  0.13595701640E+03  0.00000000000E+00 0.  1.
         21    1    1    2  504  505 -0.12472299895E+03 -0.43242173386E+02 -0.26572645439E+04  0.26605414051E+04  0.00000000000E+00 0. -1.
         21    1    1    2  505  506  0.75869487466E+02  0.83198660992E+02 -0.10810628957E+03  0.15609345330E+03  0.00000000000E+00 0.  1.
         21    1    1    2  506  501  0.17977969938E+02 -0.64623879381E+02 -0.31488059822E+02  0.74100952090E+02  0.00000000000E+00 0. -1.
<scales pt_clust_3="39.51935" pt_clust_4="14000.00000" pt_clust_5="129.93810" pt_clust_6="62.27342"></scales>
<clustering>
<clus scale="   39.519">  1  3  2 -1</clus>
<clus scale="   62.273">  1  6  2 -1</clus>
<clus scale="  129.938">  1  5  2 -1</clus>
<clus scale="   39.519">  1  3  2 -1</clus>
</clustering>
</event>
<event>
 6    0  0.8991567E+002  0.1937577E+03  0.7546771E-02  0.1155115E+00
         21   -1    0    0  506  501  0.00000000000E+00  0.00000000000E+00  0.53235477883E+03  0.53235477883E+03  0.00000000000E+00 0. -1.
         21   -1    0    0  505  502 -0.00000000000E+00 -0.00000000000E+00 -0.15660499742E+03  0.15660499742E+03  0.00000000000E+00 0. -1.
         21    1    1    2  503  501  0.33220406162E+01  0.33617726821E+02  0.65484908814E+02  0.73684874926E+02  0.00000000000E+00 0. -1.
         21    1    1    2  504  502 -0.24488252632E+02 -0.74043986391E+02 -0.32542908964E+02  0.84505783006E+02  0.00000000000E+00 0. -1.
         21    1    1    2  505  503  0.20689581427E+03  0.47976077599E+02  0.13360042285E+03  0.25091164773E+03  0.00000000000E+00 0. -1.
         21    1    1    2  506  504 -0.18572960225E+03 -0.75498180291E+01  0.20920735871E+03  0.27985747059E+03  0.00000000000E+00 0. -1.
<scales pt_clust_3="33.78147" pt_clust_4="76.13899" pt_clust_5="14000.00000" pt_clust_6="193.75769"></scales>
<clustering>
<clus scale="   33.781">  1  3  2 -1</clus>
<clus scale="   76.139">  2  4  1 -1</clus>
<clus scale="  193.758">  1  6  2 -1</clus>
<clus scale="   33.781">  1  3  2 -1</clus>
</clustering>
</event>
<event>
 6    0  0.8991567E+002  0.9632206E+02  0.7546771E-02  0.1288226E+00
         21   -1    0    0  503  501  0.00000000000E+00  0.00000000000E+00  0.12110726501E+03  0.12110726501E+03  0.00000000000E+00 0.  1.
         21   -1    0    0  506  502 -0.00000000000E+00 -0.00000000000E+00 -0.15740052042E+04  0.15740052042E+04  0.00000000000E+00 0.  1.
         21    1    1    2  503  505  0.18423985045E+01  0.12867255606E+03  0.69417605713E+02  0.14621499615E+03  0.00000000000E+00 0.  1.
         21    1    1    2  504  501  0.15722944219E+02 -0.33506750043E+02 -0.37317144934E+02  0.52559324381E+02  0.00000000000E+00 0. -1.
         21    1    1    2  505  502  0.13305288844E+02 -0.58766243060E+02 -0.13763572898E+04  0.13776755392E+04  0.00000000000E+00 0.  1.
         21    1    1    2  506  504 -0.30870631568E+02 -0.36399562960E+02 -0.10864111013E+03  0.11866260948E+03  0.00000000000E+00 0. -1.
<scales pt_clust_3="96.32206" pt_clust_4="37.01234" pt_clust_5="14000.00000" pt_clust_6="48.42968"></scales>
<clustering>
<clus scale="   37.012">  1  4  2 -1</clus>
<clus scale="   48.430">  2  6  1 -1</clus>
<clus scale="   96.322">  1  3  2 -1</clus>
<clus scale="   37.012">  1  3  2 -1</clus>
</clustering>
</event>
<event>
 6    0  0.8991567E+002  0.1209258E+03  0.7546771E-02  0.1241578E+00
         21   -1    0    0  503  501  0.00000000000E+00  0.00000000000E+00  0.21030203318E+03  0.21030203318E+03  0.00000000000E+00 0. -1.
         21   -1    0    0  504  502 -0.00000000000E+00 -0.00000000000E+00 -0.48487964215E+03  0.48487964215E+03  0.00000000000E+00 0.  1.
         21    1    1    2  503  506  0.12584279646E+02 -0.38213360591E+02  0.28745476145E+02  0.49446207344E+02  0.00000000000E+00 0.  1.
         21    1    1    2  504  505 -0.98786310431E+02  0.57647437424E+02  0.27653763627E+02  0.11767197123E+03  0.00000000000E+00 0.  1.
         21    1    1    2  505  501 -0.31335822719E+02  0.13669615798E+02  0.86544260665E+02  0.93052142563E+02  0.00000000000E+00 0. -1.
         21    1    1    2  506  502  0.11753785350E+03 -0.33103692631E+02 -0.41752110941E+03  0.43501135419E+03  0.00000000000E+00 0.  1.
<scales pt_clust_3="33.86486" pt_clust_4="120.92578" pt_clust_5="34.18760" pt_clust_6="14000.00000"></scales>
<clustering>
<clus scale="   34.188">  1  5  2 -1</clus>
<clus scale="   33.865">  1  3  2 -1</clus>
<clus scale="  120.926">  1  4  2 -1</clus>
<clus scale="   34.188">  1  3  2 -1</clus>
</clustering>
</event>
<event>
 6    0  0.8991567E+002  0.1498869E+03  0.7546771E-02  0.1200612E+00
         21   -1    0    0  505  501  0.00000000000E+00  0.00000000000E+00  0.35290646203E+03  0.35290646203E+03  0.00000000000E+00 0.  1.
         21   -1    0    0  506  502 -0.00000000000E+00 -0.00000000000E+00 -0.28735981990E+03  0.28735981990E+03  0.00000000000E+00 0. -1.
         21    1    1    2  503  502  0.16421953114E+03  0.71344695387E+02 -0.18283036425E+03  0.25590049250E+03  0.00000000000E+00 0. -1.
         21    1    1    2  504  501  0.30099440876E+02 -0.42017057584E+01  0.26056395176E+02  0.40032067170E+02  0.00000000000E+00 0.  1.
         21    1    1    2  505  503 -0.93602890777E+02 -0.48253551914E+02  0.66041234432E+01  0.10551550066E+03  0.00000000000E+00 0. -1.
         21    1    1    2  506  504 -0.10071608124E+03 -0.18889437715E+02  0.21571648775E+03  0.23881822160E+03  0.00000000000E+00 0.  1.
<scales pt_clust_3="14000.00000" pt_clust_4="30.39129" pt_clust_5="149.88694" pt_clust_6="82.29062"></scales>
<clustering>
<clus scale="   30.391">  1  4  2 -1</clus>
<clus scale="   82.291">  1  6  2 -1</clus>
<clus scale="  149.887">  1  5  2 -1</clus>
<clus scale="   30.391">  1  3  2 -1</clus>
</clustering>
</event>
<event>
 6    0  0.8991567E+002  0.1093196E+03  0.7546771E-02  0.1261835E+00
         21   -1    0    0  505  501  0.00000000000E+00  0.00000000000E+00  0.32527489196E+03  0.32527489196E+03  0.00000000000E+00 0. -1.
         21   -1    0    0  503  502 -0.00000000000E+00 -0.00000000000E+00 -0.73198290130E+03  0.73198290130E+03  0.00000000000E+00 0.  1.
         21    1    1    2  503  504  0.66502914715E+02 -0.27979940272E+02 -0.75196091694E+02  0.10421116509E+03  0.00000000000E+00 0. -1.
         21    1    1    2  504  501  0.12476720886E+02  0.33005397344E+02  0.18813537017E+02  0.39987172855E+02  0.00000000000E+00 0. -1.
         21    1    1    2  505  506 -0.54033425656E+02  0.71541614009E+02  0.27156266558E+03  0.28597918624E+03  0.00000000000E+00 0. -1.
         21    1    1    2  506  502 -0.24946209944E+02 -0.76567071081E+02 -0.62188812025E+03  0.62708026908E+03  0.00000000000E+00 0.  1.
<scales pt_clust_3="72.10627" pt_clust_4="35.28491" pt_clust_5="14000.00000" pt_clust_6="109.31958"></scales>
<clustering>
<clus scale="   35.285">  1  4  2 -1</clus>
<clus scale="   72.106">  2  3  1 -1</clus>
<clus scale="  109.320">  2  6  1 -1</clus>
<clus scale="   35.285">  1  3  2 -1</clus>
</clustering>
</event>
<event>
 6    0  0.8991567E+002  0.7736199E+02  0.7546771E-02  0.1336709E+00
         21   -1    0    0  505  501  0.00000000000E+00  0.00000000000E+00  0.88258848752E+03  0.88258848752E+03  0.00000000000E+00 0.  1.
         21   -1    0    0  504  502 -0.00000000000E+00 -0.00000000000E+00 -0.22119206619E+03  0.22119206619E+03  0.00000000000E+00 0. -1.
         21    1    1    2  503  501  0.34529269271E+02  0.27234859523E+02 -0.23841074892E+02  0.50024042836E+02  0.00000000000E+00 0.  1.
         21    1    1    2  504  503  0.40692361834E+02  0.11249880222E+02 -0.17069094340E+03  0.17583465607E+03  0.00000000000E+00 0. -1.
         21    1    1    2  505  506  0.39202331117E+02 -0.44789272150E+02  0.51099900190E+03  0.51445396452E+03  0.00000000000E+00 0.  1.
         21    1    1    2  506  502 -0.11442396222E+03  0.63045324049E+01  0.34492943772E+03  0.36346789028E+03  0.00000000000E+00 0.  1.
<scales pt_clust_3="14000.00000" pt_clust_4="42.21881" pt_clust_5="60.19873" pt_clust_6="77.36199"></scales>
<clustering>
<clus scale="   42.219">  2  4  1 -1</clus>
<clus scale="   60.199">  1  5  2 -1</clus>
<clus scale="   77.362">  1  6  2 -1</clus>
<clus scale="   60.199">  1  3  2 -1</clus>
</clustering>
</event>
<event>
 6    0  0.8991567E+002  0.8969685E+02  0.7546771E-02  0.1303587E+00
         21   -1    0    0  503  501  0.00000000000E+00  0.00000000000E+00  0.13321480999E+03  0.13321480999E+03  0.00000000000E+00 0.  1.
         21   -1    0    0  504  502 -0.00000000000E+00 -0.00000000000E+00 -0.23402091016E+03  0.23402091016E+03  0.00000000000E+00 0.  1.
         21    1    1    2  503  506  0.41998039326E+02  0.55502251218E+02  0.68007844864E+01  0.69932723865E+02  0.00000000000E+00 0.  1.
         21    1    1    2  504  505  0.35572049533E+02 -0.15177456568E+02 -0.10398990863E+03  0.11094875841E+03  0.00000000000E+00 0.  1.
         21    1    1    2  505  501 -0.10149186433E+03 -0.63113171369E+02  0.44887457969E+02  0.12766657671E+03  0.00000000000E+00 0.  1.
         21    1    1    2  506  502  0.23921775471E+02  0.22788376720E+02 -0.48504433990E+02  0.58687661155E+02  0.00000000000E+00 0.  1.
<scales pt_clust_3="89.69685" pt_clust_4="49.84676" pt_clust_5="14000.00000" pt_clust_6="33.03879"></scales>
<clustering>
<clus scale="   33.039">  2  6  1 -1</clus>
<clus scale="   49.847">  2  4  1 -1</clus>
<clus scale="   89.697">  1  3  2 -1</clus>
<clus scale="   89.697">  1  3  2 -1</clus>
</clustering>
</event>
<event>
 6    0  0.8991567E+002  0.8657934E+02  0.7546771E-02  0.1311353E+00
         21   -1    0    0  506  501  0.00000000000E+00  0.00000000000E+00  0.60288703757E+03  0.60288703757E+03  0.00000000000E+00 0. -1.
         21   -1    0    0  504  502 -0.00000000000E+00 -0.00000000000E+00 -0.49931204992E+03  0.49931204992E+03  0.00000000000E+00 0. -1.
         21    1    1    2  503  502 -0.36710012437E+02  0.11445737834E+02 -0.22616489942E+03  0.22941053084E+03  0.00000000000E+00 0. -1.
         21    1    1    2  504  505  0.26728757649E+02 -0.10063162685E+03 -0.25354462085E+03  0.27409127233E+03  0.00000000000E+00 0. -1.
         21    1    1    2  505  501 -0.25602820619E+02  0.46508030410E+02  0.46489104857E+03  0.46791258623E+03  0.00000000000E+00 0. -1.
         21    1    1    2  506  503  0.35584075406E+02  0.42677858602E+02  0.11839345935E+03  0.13078469809E+03  0.00000000000E+00 0.  1.
<scales pt_clust_3="38.45296" pt_clust_4="86.57934" pt_clust_5="53.24406" pt_clust_6="14000.00000"></scales>
<clustering>
<clus scale="   38.453">  2  3  1 -1</clus>
<clus scale="   53.244">  1  5  2 -1</clus>
<clus scale="   86.579">  2  4  1 -1</clus>
<clus scale="   53.244">  1  3  2 -1</clus>
</clustering>
</event>
<event>
 6    0  0.8991567E+002  0.1012753E+03  0.7546771E-02  0.1277637E+00
         21   -1    0    0  504  501  0.00000000000E+00  0.00000000000E+00  0.10635697099E+04  0.10635697099E+04  0.00000000000E+00 0.  1.
         21   -1    0    0  503  502 -0.00000000000E+00 -0.00000000000E+00 -0.10728300398E+03  0.10728300398E+03  0.00000000000E+00 0.  1.
         21    1    1    2  503  501  0.48067247852E+02  0.33644460342E+02 -0.79434095548E+02  0.98753154700E+02  0.00000000000E+00 0.  1.
         21    1    1    2  504  505 -0.27964464885E+02 -0.19518673458E+02  0.44228298032E+03  0.44359578965E+03  0.00000000000E+00 0.  1.
         21    1    1    2  505  506 -0.10070792737E+03  0.12604376809E+01  0.46724251493E+03  0.47797410295E+03  0.00000000000E+00 0.  1.
         21    1    1    2  506  502  0.80605144402E+02 -0.15386224564E+02  0.12619530620E+03  0.15052966657E+03  0.00000000000E+00 0.  1.
<scales pt_clust_3="58.14128" pt_clust_4="34.10264" pt_clust_5="101.27528" pt_clust_6="14000.00000"></scales>
<clustering>
<clus scale="   34.103">  1  4  2 -1</clus>
<clus scale="   58.141">  2  3  1 -1</clus>
<clus scale="  101.275">  1  5  2 -1</clus>
<clus scale="   34.103">  1  3  2 -1</clus>
</clustering>
</event>
<event>
 6    0  0.8991567E+002  0.9011195E+02  0.7546771E-02  0.1302581E+00
         21   -1    0    0  503  501  0.00000000000E+00  0.00000000000E+00  0.25507191499E+04  0.25507191499E+04  0.00000000000E+00 0.  1.
         21   -1    0    0  505  502 -0.00000000000E+00 -0.00000000000E+00 -0.13073008391E+03  0.13073008391E+03  0.00000000000E+00 0.  1.
         21    1    1    2  503  504 -0.37580014854E+02  0.61308942003E+01  0.27870102851E+03  0.28129007923E+03  0.00000000000E+00 0.  1.
         21    1    1    2  504  506  0.14654834654E+03  0.12749252906E+02  0.43961693674E+03  0.46357524998E+03  0.00000000000E+00 0.  1.
         21    1    1    2  505  501 -0.31914746774E+02  0.24582885437E+02  0.18022125625E+04  0.18026627499E+04  0.00000000000E+00 0.  1.
         21    1    1    2  506  502 -0.77053584909E+02 -0.43463032543E+02 -0.10054146178E+03  0.13392115472E+03  0.00000000000E+00 0.  1.
<scales pt_clust_3="38.07684" pt_clust_4="90.11195" pt_clust_5="68.40818" pt_clust_6="14000.00000"></scales>
<clustering>
<clus scale="   38.077">  1  3  2 -1</clus>
<clus scale="   68.408">  1  5  2 -1</clus>
<clus scale="   90.112">  1  4  2 -1</clus>
<clus scale="   38.077">  1  3  2 -1</clus>
</clustering>
</event>
<event>
 6    0  0.8991567E+002  0.1144841E+03  0.7546771E-02  0.1252484E+00
         21   -1    0    0  506  501  0.00000000000E+00  0.00000000000E+00  0.19080910778E+03  0.19080910778E+03  0.00000000000E+00 0. -1.
         21   -1    0    0  504  502 -0.00000000000E+00 -0.00000000000E+00 -0.43202457018E+03  0.43202457018E+03  0.00000000000E+00 0.  1.
         21    1    1    2  503  502  0.96460080559E+02 -0.29504308422E+02 -0.20865788616E+03  0.23176100796E+03  0.00000000000E+00 0.  1.
         21    1    1    2  504  505 -0.15009880931E+02 -0.38787981238E+02 -0.10105977989E+03  0.10928349887E+03  0.00000000000E+00 0.  1.
         21    1    1    2  505  501  0.54163287902E+02 -0.39448958153E+02  0.84506944296E+02  0.10784853124E+03  0.00000000000E+00 0. -1.
         21    1    1    2  506  503 -0.13561348753E+03  0.10774124781E+03 -0.16004740648E+02  0.17394063988E+03  0.00000000000E+00 0. -1.
<scales pt_clust_3="14000.00000" pt_clust_4="41.59091" pt_clust_5="67.40402" pt_clust_6="114.48414"></scales>
<clustering>
<clus scale="   41.591">  2  4  1 -1</clus>
<clus scale="   67.404">  1  5  2 -1</clus>
<clus scale="  114.484">  1  6  2 -1</clus>
<clus scale="   67.404">  1  3  2 -1</clus>
</clustering>
</event>
<event>
 6    0  0.8991567E+002  0.8868264E+02  0.7546771E-02  0.1306074E+00
         21   -1    0    0  504  501  0.00000000000E+00  0.00000000000E+00  0.19397090653E+04  0.19397090653E+04  0.00000000000E+00 0. -1.
         21   -1    0    0  503  502 -0.00000000000E+00 -0.00000000000E+00 -0.13321995103E+03  0.13321995103E+03  0.00000000000E+00 0. -1.
         21    1    1    2  503  505  0.70315395600E+02  0.55665734163E+02 -0.97898978130E+02  0.13276723518E+03  0.00000000000E+00 0. -1.
         21    1    1    2  504  502  0.52257316459E+02  0.59238970654E+01  0.13692113201E+04  0.13702209890E+04  0.00000000000E+00 0. -1.
         21    1    1    2  505  506 -0.85987356111E+02 -0.21179296185E+02  0.10968913180E+03  0.14097550721E+03  0.00000000000E+00 0. -1.
         21    1    1    2  506  501 -0.36585355949E+02 -0.40410335044E+02  0.42548764058E+03  0.42896528500E+03  0.00000000000E+00 0. -1.
<scales pt_clust_3="14000.00000" pt_clust_4="52.59201" pt_clust_5="88.68264" pt_clust_6="36.06283"></scales>
<clustering>
<clus scale="   52.592">  1  4  2 -1</clus>
<clus scale="   36.063">  1  6  2 -1</clus>
<clus scale="   88.683">  1  5  2 -1</clus>
<clus scale="   52.592">  1  3  2 -1</clus>
</clustering>
</event>
<event>
 6    0  0.9292586E+002  0.7663361E+02  0.7546771E-02  0.1338886E+00
         21   -1    0    0  503  501  0.00000000000E+00  0.00000000000E+00  0.14568473879E+04  0.14568473879E+04  0.00000000000E+00 0. -1.
         21   -1    0    0  504  502 -0.00000000000E+00 -0.00000000000E+00 -0.25449329831E+03  0.25449329831E+03  0.00000000000E+00 0. -1.
         21    1    1    2  503  502 -0.83264143097E+01 -0.96129283011E+02  0.24343729778E+02  0.99512739922E+02  0.00000000000E+00 0.  1.
         21    1    1    2  504  506 -0.11549009099E+02  0.51465764238E+02 -0.14168520961E+03  0.15118466563E+03  0.00000000000E+00 0. -1.
         21    1    1    2  505  501  0.60676272205E+02  0.85589914902E+01  0.13788567076E+04  0.13802176229E+04  0.00000000000E+00 0. -1.
         21    1    1    2  506  505 -0.40800848796E+02  0.36104527282E+02 -0.59161138211E+02  0.80425657766E+02  0.00000000000E+00 0. -1.
<scales pt_clust_3="76.63361" pt_clust_4="52.74566" pt_clust_5="61.25111" pt_clust_6="14000.00000"></scales>
<clustering>
<clus scale="   52.746">  2  4  1 -1</clus>
<clus scale="   61.251">  1  5  2 -1</clus>
<clus scale="   76.634">  1  3  2 -1</clus>
<clus scale="   61.251">  1  3  2 -1</clus>
</clustering>
</event>
<event>
 6    0  0.8991567E+002  0.8793057E+02  0.7546771E-02  0.1307942E+00
         21   -1    0    0  506  501  0.00000000000E+00  0.00000000000E+00  0.13176595509E+04  0.13176595509E+04  0.00000000000E+00 0.  1.
         21   -1    0    0  503  502 -0.00000000000E+00 -0.00000000000E+00 -0.26969778657E+03  0.26969778657E+03  0.00000000000E+00 0.  1.
         21    1    1    2  503  504  0.51471254991E+02 -0.11186482345E+03  0.14988128868E+03  0.19397790985E+03  0.00000000000E+00 0.  1.
         21    1    1    2  504  501 -0.58627892977E+01  0.34145401538E+02  0.11161727643E+04  0.11167103118E+04  0.00000000000E+00 0.  1.
         21    1    1    2  505  502 -0.50868597909E+02  0.93580732774E+01 -0.19883584819E+03  0.20545287127E+03  0.00000000000E+00 0.  1.
         21    1    1    2  506  505  0.52601322158E+01  0.68361348632E+02 -0.19256440511E+02  0.71216244487E+02  0.00000000000E+00 0. -1.
<scales pt_clust_3="14000.00000" pt_clust_4="34.64507" pt_clust_5="51.92136" pt_clust_6="87.93057"></scales>
<clustering>
<clus scale="   34.645">  1  4  2 -1</clus>
<clus scale="   51.921">  2  5  1 -1</clus>
<clus scale="   87.931">  2  6  1 -1</clus>
<clus scale="   34.645">  1  3  2 -1</clus>
</clustering>
</event>
<event>
 6    0  0.8991567E+002  0.1410846E+03  0.7546771E-02  0.1211877E+00
         21   -1    0    0  505  501  0.00000000000E+00  0.00000000000E+00  0.28699303627E+03  0.28699303627E+03  0.00000000000E+00 0.  1.
         21   -1    0    0  503  502 -0.00000000000E+00 -0.00000000000E+00 -0.79781109554E+03  0.79781109554E+03  0.00000000000E+00 0.  1.
         21    1    1    2  503  501 -0.48223903538E+02  0.35914383275E+02 -0.20279148742E+03  0.21151778925E+03  0.00000000000E+00 0.  1.
         21    1    1    2  504  506  0.12074806380E+03 -0.40447206484E-01 -0.29552149824E+03  0.31923823780E+03  0.00000000000E+00 0.  1.
         21    1    1    2  505  504 -0.11422289206E+03 -0.43688085960E+02  0.25520721836E+03  0.28299512757E+03  0.00000000000E+00 0.  1.
         21    1    1    2  506  502  0.41698731791E+02  0.78141498911E+01 -0.26771229197E+03  0.27105297719E+03  0.00000000000E+00 0.  1.
<scales pt_clust_3="60.12809" pt_clust_4="40.90388" pt_clust_5="123.05626" pt_clust_6="40.90388"></scales>
<clustering>
<clus scale="   40.904">  4  6 -1 -1</clus>
<clus scale="   60.128">  2  3  1 -1</clus>
<clus scale="  123.056">  1  5  2 -1</clus>
<clus scale="  123.056">  1  3  2 -1</clus>
</clustering>
</event>
<event>
 6    0  0.8991567E+002  0.9724455E+02  0.7546771E-02  0.1286199E+00
         21   -1    0    0  506  501  0.00000000000E+00  0.00000000000E+00  0.31627347655E+03  0.31627347655E+03  0.00000000000E+00 0. -1.
         21   -1    0    0  503  502 -0.00000000000E+00 -0.00000000000E+00 -0.28783198407E+03  0.28783198407E+03  0.00000000000E+00 0.  1.
         21    1    1    2  503  505 -0.46921390639E+02  0.29267670628E+02 -0.28891926212E+01  0.55376537247E+02  0.00000000000E+00 0. -1.
         21    1    1    2  504  502  0.29250377946E+02 -0.13858929046E+02 -0.10966448966E+03  0.11434139590E+03  0.00000000000E+00 0.  1.
         21    1    1    2  505  501  0.84765475603E+02 -0.50411137160E+02  0.26854265696E+03  0.28607975673E+03  0.00000000000E+00 0. -1.
         21    1    1    2  506  504 -0.67094462910E+02  0.35002395578E+02 -0.12754748220E+03  0.14830777075E+03  0.00000000000E+00 0.  1.
<scales pt_clust_3="49.97756" pt_clust_4="32.36749" pt_clust_5="97.24455" pt_clust_6="14000.00000"></scales>
<clustering>
<clus scale="   32.367">  2  4  1 -1</clus>
<clus scale="   49.978">  2  3  1 -1</clus>
<clus scale="   97.245">  1  5  2 -1</clus>
<clus scale="   97.245">  1  3  2 -1</clus>
</clustering>
</event>
<event>
 6    0  0.8991567E+002  0.1506183E+03  0.7546771E-02  0.1199715E+00
         21   -1    0    0  505  501  0.00000000000E+00  0.00000000000E+00  0.14115398249E+04  0.14115398249E+04  0.00000000000E+00 0.  1.
         21   -1    0    0  503  502 -0.00000000000E+00 -0.00000000000E+00 -0.11448022128E+03  0.11448022128E+03  0.00000000000E+00 0.  1.
         21    1    1    2  503  504  0.44443319599E+02 -0.50638442668E+01 -0.45958706551E+02  0.64133095073E+02  0.00000000000E+00 0.  1.
         21    1    1    2  504  506  0.90607611679E+02 -0.86089870901E+02  0.19888481738E+02  0.12655732642E+03  0.00000000000E+00 0.  1.
         21    1    1    2  505  502 -0.10457610418E+03  0.51601318588E+02  0.65211777220E+03  0.66246241136E+03  0.00000000000E+00 0.  1.
         21    1    1    2  506  501 -0.30474827094E+02  0.39552396579E+02  0.67101205622E+03  0.67286721332E+03  0.00000000000E+00 0.  1.
<scales pt_clust_3="44.73087" pt_clust_4="14000.00000" pt_clust_5="150.61835" pt_clust_6="49.44762"></scales>
<clustering>
<clus scale="   44.731">  2  3  1 -1</clus>
<clus scale="   49.448">  1  6  2 -1</clus>
<clus scale="  150.618">  1  5  2 -1</clus>
<clus scale="   49.448">  1  3  2 -1</clus>
</clustering>
</event>
<event>
 6    0  0.8991567E+002  0.8408007E+02  0.7546771E-02  0.1317856E+00
         21   -1    0    0  503  501  0.00000000000E+00  0.00000000000E+00  0.12135363328E+04  0.12135363328E+04  0.00000000000E+00 0.  1.
         21   -1    0    0  506  502 -0.00000000000E+00 -0.00000000000E+00 -0.12935250555E+03  0.12935250555E+03  0.00000000000E+00 0. -1.
         21    1    1    2  503  505  0.40007864978E+02  0.22051255086E+02  0.99728252022E+03  0.99832825877E+03  0.00000000000E+00 0.  1.
         21    1    1    2  504  501  0.35440295795E+02  0.65102864296E+02  0.11253898335E+03  0.13475689325E+03  0.00000000000E+00 0.  1.
         21    1    1    2  505  502 -0.88345859835E+02 -0.37226362818E+02  0.57633354152E+02  0.11185882419E+03  0.00000000000E+00 0. -1.
         21    1    1    2  506  504  0.12897699061E+02 -0.49927756564E+02 -0.83271030434E+02  0.97944862173E+02  0.00000000000E+00 0. -1.
<scales pt_clust_3="45.68246" pt_clust_4="84.08007" pt_clust_5="14000.00000" pt_clust_6="51.20309"></scales>
<clustering>
<clus scale="   45.682">  1  3  2 -1</clus>
<clus scale="   51.203">  2  6  1 -1</clus>
<clus scale="   84.080">  2  4  1 -1</clus>
<clus scale="   45.682">  1  3  2 -1</clus>
</clustering>
</event>
<event>
 6    0  0.8991567E+002  0.6596331E+02  0.7546771E-02  0.1374384E+00
         21   -1    0    0  506  501  0.00000000000E+00  0.00000000000E+00  0.21393565343E+03  0.21393565343E+03  0.00000000000E+00 0.  1.
         21   -1    0    0  503  502 -0.00000000000E+00 -0.00000000000E+00 -0.10916351709E+04  0.10916351709E+04  0.00000000000E+00 0.  1.
         21    1    1    2  503  505  0.12585805756E+02 -0.38289922211E+02 -0.92023458708E+02  0.10046311563E+03  0.00000000000E+00 0.  1.
         21    1    1    2  504  502 -0.69497583174E+02  0.56359729413E+02 -0.91527888990E+03  0.91964220187E+03  0.00000000000E+00 0.  1.
         21    1    1    2  505  501  0.94959714390E+02  0.53059645975E+01 -0.45018876377E+02  0.10522452113E+03  0.00000000000E+00 0.  1.
         21    1    1    2  506  504 -0.38047936972E+02 -0.23375771800E+02  0.17462170748E+03  0.18024098573E+03  0.00000000000E+00 0.  1.
<scales pt_clust_3="40.30534" pt_clust_4="14000.00000" pt_clust_5="65.96331" pt_clust_6="44.68148"></scales>
<clustering>
<clus scale="   40.305">  2  3  1 -1</clus>
<clus scale="   44.681">  1  6  2 -1</clus>
<clus scale="   65.963">  1  5  2 -1</clus>
<clus scale="   44.681">  1  3  2 -1</clus>
</clustering>
</event>
<event>
 6    0  0.8991567E+002  0.6887803E+02  0.7546771E-02  0.1363950E+00
         21   -1    0    0  506  501  0.00000000000E+00  0.00000000000E+00  0.46106193421E+03  0.46106193421E+03  0.00000000000E+00 0.  1.
         21   -1    0    0  505  502 -0.00000000000E+00 -0.00000000000E+00 -0.26874646323E+03  0.26874646323E+03  0.00000000000E+00 0. -1.
         21    1    1    2  503  501 -0.23453821393E+02 -0.52461255830E+02  0.37510922606E+03  0.37948543658E+03  0.00000000000E+00 0.  1.
         21    1    1    2  504  502 -0.68103478570E+02  0.59639527480E+02 -0.26503943865E+02  0.94326115534E+02  0.00000000000E+00 0.  1.
         21    1    1    2  505  503  0.15716953420E+02 -0.34775599355E+02 -0.16991629599E+03  0.17414911019E+03  0.00000000000E+00 0. -1.
         21    1    1    2  506  504  0.75840346543E+02  0.27597327706E+02  0.13626484770E+02  0.81847735139E+02  0.00000000000E+00 0.  1.
<scales pt_clust_3="58.04207" pt_clust_4="68.87803" pt_clust_5="38.16235" pt_clust_6="14000.00000"></scales>
<clustering>
<clus scale="   38.162">  2  5  1 -1</clus>
<clus scale="   58.042">  1  3  2 -1</clus>
<clus scale="   68.878">  2  4  1 -1</clus>
<clus scale="   58.042">  1  3  2 -1</clus>
</clustering>
</event>
<event>
 6    0  0.8991567E+002  0.1567907E+03  0.7546771E-02  0.1192368E+00
         21   -1    0    0  502  501  0.00000000000E+00  0.00000000000E+00  0.12304837164E+04  0.12304837164E+04  0.00000000000E+00 0.  1.
         21   -1    0    0  505  502 -0.00000000000E+00 -0.00000000000E+00 -0.44289265396E+03  0.44289265396E+03  0.00000000000E+00 0.  1.
         21    1    1    2  503  504 -0.17090920123E+03 -0.35469193055E+02  0.33602819944E+02  0.17775592319E+03  0.00000000000E+00 0.  1.
         21    1    1    2  504  501  0.12446758066E+03  0.95109674336E+02  0.10894393185E+04  0.11006434743E+04  0.00000000000E+00 0.  1.
         21    1    1    2  505  506  0.30404380317E+02  0.99132538595E+01 -0.32044649520E+03  0.32203828225E+03  0.00000000000E+00 0.  1.
         21    1    1    2  506  503  0.16037240254E+02 -0.69553735140E+02 -0.15004580802E+02  0.72938690638E+02  0.00000000000E+00 0.  1.
<scales pt_clust_3="14000.00000" pt_clust_4="156.79074" pt_clust_5="31.97966" pt_clust_6="71.29218"></scales>
<clustering>
<clus scale="   31.980">  2  5  1 -1</clus>
<clus scale="   71.292">  2  6  1 -1</clus>
<clus scale="  156.791">  1  4  2 -1</clus>
<clus scale="  156.791">  1  3  2 -1</clus>
</clustering>
</event>
<event>
 6    0  0.8991567E+002  0.9977737E+02  0.7546771E-02  0.1280765E+00
         21   -1    0    0  503  501  0.00000000000E+00  0.00000000000E+00  0.29764721143E+03  0.29764721143E+03  0.00000000000E+00 0. -1.
         21   -1    0    0  504  502 -0.00000000000E+00 -0.00000000000E+00 -0.62805694595E+03  0.62805694595E+03  0.00000000000E+00 0. -1.
         21    1    1    2  503  506  0.18358850212E+02  0.98933747649E+02  0.27490806091E+03  0.29274455718E+03  0.00000000000E+00 0. -1.
         21    1    1    2  504  501  0.67437223641E+01 -0.85203955058E+02 -0.17047571563E+03  0.19070176026E+03  0.00000000000E+00 0. -1.
         21    1    1    2  505  502 -0.14331492466E+02  0.31238362168E+02 -0.17850326521E+03  0.18178185453E+03  0.00000000000E+00 0. -1.
         21    1    1    2  506  505 -0.10771080110E+02 -0.44968154758E+02 -0.25633881460E+03  0.26047598541E+03  0.00000000000E+00 0. -1.
<scales pt_clust_3="99.77737" pt_clust_4="14000.00000" pt_clust_5="34.36898" pt_clust_6="32.99384"></scales>
<clustering>
<clus scale="   34.369">  2  5  1 -1</clus>
<clus scale="   32.994">  2  6  1 -1</clus>
<clus scale="   99.777">  1  3  2 -1</clus>
<clus scale="   99.777">  1  3  2 -1</clus>
</clustering>
</event>
<event>
 6    0  0.8991567E+002  0.8152031E+02  0.7546771E-02  0.1324792E+00
         21   -1    0    0  503  501  0.00000000000E+00  0.00000000000E+00  0.24562516878E+02  0.24562516878E+02  0.00000000000E+00 0. -1.
         21   -1    0    0  506  502 -0.00000000000E+00 -0.00000000000E+00 -0.13042657443E+04  0.13042657443E+04  0.00000000000E+00 0. -1.
         21    1    1    2  503  505 -0.21894241544E+02  0.63020516413E+02 -0.37827393859E+03  0.38411211373E+03  0.00000000000E+00 0. -1.
         21    1    1    2  504  501  0.67748542875E+02  0.19886625335E+02 -0.77341980250E+02  0.10472404136E+03  0.00000000000E+00 0. -1.
         21    1    1    2  505  502 -0.43505961069E+02  0.17156811752E+02 -0.46084759008E+03  0.46321444939E+03  0.00000000000E+00 0. -1.
         21    1    1    2  506  504 -0.23483402614E+01 -0.10006395350E+03 -0.36323971851E+03  0.37677765671E+03  0.00000000000E+00 0. -1.
<scales pt_clust_3="81.52031" pt_clust_4="66.68954" pt_clust_5="46.76671" pt_clust_6="14000.00000"></scales>
<clustering>
<clus scale="   46.767">  2  5  1 -1</clus>
<clus scale="   66.690">  1  4  2 -1</clus>
<clus scale="   81.520">  2  3  1 -1</clus>
<clus scale="   66.690">  1  3  2 -1</clus>
</clustering>
</event>
<event>
 6    0  0.8991567E+002  0.1013568E+03  0.7546771E-02  0.1277468E+00
         21   -1    0    0  505  501  0.00000000000E+00  0.00000000000E+00  0.11778421463E+04  0.11778421463E+04  0.00000000000E+00 0.  1.
         21   -1    0    0  504  502 -0.00000000000E+00 -0.00000000000E+00 -0.92285402191E+02  0.92285402191E+02  0.00000000000E+00 0. -1.
         21    1    1    2  503  502 -0.36618144533E+02 -0.11193587995E+03  0.94474430347E+02  0.15098326966E+03  0.00000000000E+00 0. -1.
         21    1    1    2  504  506 -0.38671489865E+02  0.20745982670E+02 -0.45479912517E+02  0.63200493414E+02  0.00000000000E+00 0. -1.
         21    1    1    2  505  503  0.65391959444E+00  0.46573851370E+02  0.83657234439E+03  0.83786803176E+03  0.00000000000E+00 0.  1.
         21    1    1    2  506  501  0.74635714803E+02  0.44616045907E+02  0.19998988191E+03  0.21807575368E+03  0.00000000000E+00 0.  1.
<scales pt_clust_3="101.35677" pt_clust_4="43.88485" pt_clust_5="46.92805" pt_clust_6="14000.00000"></scales>
<clustering>
<clus scale="   43.885">  2  4  1 -1</clus>
<clus scale="   46.928">  1  5  2 -1</clus>
<clus scale="  101.357">  2  3  1 -1</clus>
<clus scale="   46.928">  1  3  2 -1</clus>
</clustering>
</event>
<event>
 6    0  0.1284684E+003  0.1384279E+03  0.7546771E-02  0.1215460E+00
         21   -1    0    0  504  501  0.00000000000E+00  0.00000000000E+00  0.11584507899E+04  0.11584507899E+04  0.00000000000E+00 0.  1.
         21   -1    0    0  503  502 -0.00000000000E+00 -0.00000000000E+00 -0.11137396099E+04  0.11137396099E+04  0.00000000000E+00 0.  1.
         21    1    1    2  503  505 -0.92266330275E+02  0.58652435154E+02 -0.10260576166E+04  0.10318659876E+04  0.00000000000E+00 0.  1.
         21    1    1    2  504  506  0.41441352517E+02  0.30073595792E+02  0.14655791974E+03  0.15524506659E+03  0.00000000000E+00 0. -1.
         21    1    1    2  505  501  0.83531990075E+02 -0.90613569503E+02  0.99735126788E+03  0.10049367960E+04  0.00000000000E+00 0.  1.
         21    1    1    2  506  502 -0.32707012318E+02  0.18875385574E+01 -0.73140391018E+02  0.80142549591E+02  0.00000000000E+00 0. -1.
<scales pt_clust_3="138.42790" pt_clust_4="51.09743" pt_clust_5="14000.00000" pt_clust_6="32.76143"></scales>
<clustering>
<clus scale="   32.761">  2  6  1 -1</clus>
<clus scale="   51.097">  1  4  2 -1</clus>
<clus scale="  138.428">  2  3  1 -1</clus>
<clus scale="   51.097">  1  3  2 -1</clus>
</clustering>
</event>
<event>
 6    0  0.8991567E+002  0.1082794E+03  0.7546771E-02  0.1263790E+00
         21   -1    0    0  505  501  0.00000000000E+00  0.00000000000E+00  0.72918682030E+03  0.72918682030E+03  0.00000000000E+00 0. -1.
         21   -1    0    0  503  502 -0.00000000000E+00 -0.00000000000E+00 -0.37913347078E+03  0.37913347078E+03  0.00000000000E+00 0.  1.
         21    1    1    2  503  506  0.19974948522E+02  0.41372593805E+02 -0.27008218716E+03  0.27396181834E+03  0.00000000000E+00 0.  1.
         21    1    1    2  504  501  0.30752251249E+02 -0.28520737541E+02  0.56759796267E+03  0.56914548285E+03  0.00000000000E+00 0. -1.
         21    1    1    2  505  502  0.50684272611E+02  0.85759890716E+02  0.71325189639E+02  0.12251912921E+03  0.00000000000E+00 0. -1.
         21    1    1    2  506  504 -0.10141147238E+03 -0.98611746980E+02 -0.18787615629E+02  0.14269386067E+03  0.00000000000E+00 0. -1.
<scales pt_clust_3="45.79627" pt_clust_4="41.94202" pt_clust_5="14000.00000" pt_clust_6="108.27939"></scales>
<clustering>
<clus scale="   41.942">  1  4  2 -1</clus>
<clus scale="   45.796">  2  3  1 -1</clus>
<clus scale="  108.279">  2  6  1 -1</clus>
<clus scale="   41.942">  1  3  2 -1</clus>
</clustering>
</event>
<event>
 6    0  0.8991567E+002  0.1868234E+03  0.7546771E-02  0.1161358E+00
         21   -1    0    0  503  501  0.00000000000E+00  0.00000000000E+00  0.23128790462E+02  0.23128790462E+02  0.00000000000E+00 0.  1.
         21   -1    0    0  506  502 -0.00000000000E+00 -0.00000000000E+00 -0.15678028730E+04  0.15678028730E+04  0.00000000000E+00 0. -1.
         21    1    1    2  503  504  0.79912688765E+02  0.86697097960E+02 -0.33704440267E+03  0.35707331739E+03  0.00000000000E+00 0.  1.
         21    1    1    2  504  502  0.62142703750E+02  0.85783428006E+01 -0.22270333300E+03  0.23137000265E+03  0.00000000000E+00 0.  1.
         21    1    1    2  505  501 -0.74725222934E+02 -0.36545983576E+02 -0.28527180563E+03  0.29715226895E+03  0.00000000000E+00 0. -1.
         21    1    1    2  506  505 -0.67330169581E+02 -0.58729457184E+02 -0.69965454123E+03  0.70533607446E+03  0.00000000000E+00 0. -1.
<scales pt_clust_3="181.51588" pt_clust_4="44.31352" pt_clust_5="72.50153" pt_clust_6="72.50153"></scales>
<clustering>
<clus scale="   44.314">  3  4 -1 -1</clus>
<clus scale="   72.502">  5  6 -1 -1</clus>
<clus scale="  181.516">  1  3  2 -1</clus>
<clus scale="  181.516">  1  3  2 -1</clus>
</clustering>
</event>
<event>
 6    0  0.8991567E+002  0.1065437E+03  0.7546771E-02  0.1267108E+00
         21   -1    0    0  506  501  0.00000000000E+00  0.00000000000E+00  0.10144777220E+04  0.10144777220E+04  0.00000000000E+00 0.  1.
         21   -1    0    0  504  502 -0.00000000000E+00 -0.00000000000E+00 -0.50415477494E+02  0.50415477494E+02  0.00000000000E+00 0.  1.
         21    1    1    2  503  502 -0.77430332972E+02  0.48423377733E+02  0.98998718400E+02  0.13468862691E+03  0.00000000000E+00 0.  1.
         21    1    1    2  504  505  0.71117059459E+02  0.24790369870E+02  0.67020166777E+02  0.10081617598E+03  0.00000000000E+00 0.  1.
         21    1    1    2  505  501  0.95438005073E+02 -0.87031921145E+02  0.56322646654E+03  0.57784688346E+03  0.00000000000E+00 0.  1.
         21    1    1    2  506  503 -0.89124731561E+02  0.13818173543E+02  0.23481689283E+03  0.25154151318E+03  0.00000000000E+00 0.  1.
<scales pt_clust_3="73.23127" pt_clust_4="75.31400" pt_clust_5="106.54371" pt_clust_6="14000.00000"></scales>
<clustering>
<clus scale="   75.314">  2  4  1 -1</clus>
<clus scale="   73.231">  2  3  1 -1</clus>
<clus scale="  106.544">  1  5  2 -1</clus>
<clus scale="  106.544">  1  3  2 -1</clus>
</clustering>
</event>
<event>
 6    0  0.8991567E+002  0.1006172E+03  0.7546771E-02  0.1279003E+00
         21   -1    0    0  505  501  0.00000000000E+00  0.00000000000E+00  0.15668856860E+03  0.15668856860E+03  0.00000000000E+00 0.  1.
         21   -1    0    0  503  502 -0.00000000000E+00 -0.00000000000E+00 -0.44721414426E+03  0.44721414426E+03  0.00000000000E+00 0.  1.
         21    1    1    2  503  506  0.10857472934E+03 -0.11549375176E+03 -0.11112416144E+03  0.19358682239E+03  0.00000000000E+00 0.  1.
         21    1    1    2  504  502 -0.35913477056E+02  0.57138614509E+02 -0.24654997345E+03  0.25561981244E+03  0.00000000000E+00 0.  1.
         21    1    1    2  505  504 -0.30362086583E+02  0.65846343623E+02  0.81798219148E+02  0.10930940456E+03  0.00000000000E+00 0.  1.
         21    1    1    2  506  501 -0.42299165702E+02 -0.74912063738E+01 -0.14649659911E+02  0.45386673458E+02  0.00000000000E+00 0.  1.
<scales pt_clust_3="100.61716" pt_clust_4="68.01855" pt_clust_5="14000.00000" pt_clust_6="42.95739"></scales>
<clustering>
<clus scale="   42.957">  1  6  2 -1</clus>
<clus scale="   68.019">  2  4  1 -1</clus>
<clus scale="  100.617">  2  3  1 -1</clus>
<clus scale="   42.957">  1  3  2 -1</clus>
</clustering>
</event>
<event>
 6    0  0.8991567E+002  0.1493557E+03  0.7546771E-02  0.1201267E+00
         21   -1    0    0  503  501  0.00000000000E+00  0.00000000000E+00  0.33437640118E+03  0.33437640118E+03  0.00000000000E+00 0. -1.
         21   -1    0    0  506  502 -0.00000000000E+00 -0.00000000000E+00 -0.20087382047E+03  0.20087382047E+03  0.00000000000E+00 0. -1.
         21    1    1    2  503  504  0.41910848978E+02 -0.83705978792E+02  0.71537605356E+02  0.11781697300E+03  0.00000000000E+00 0. -1.
         21    1    1    2  504  502 -0.13558378780E+03 -0.56810332801E+02  0.12046257924E+03  0.19005686103E+03  0.00000000000E+00 0. -1.
         21    1    1    2  505  501 -0.23115195653E+02  0.44063198672E+02  0.23620477024E+02  0.55079984406E+02  0.00000000000E+00 0. -1.
         21    1    1    2  506  505  0.11678813448E+03  0.96453112921E+02 -0.82118080903E+02  0.17229640321E+03  0.00000000000E+00 0. -1.
<scales pt_clust_3="77.64749" pt_clust_4="149.35574" pt_clust_5="49.75819" pt_clust_6="14000.00000"></scales>
<clustering>
<clus scale="   49.758">  1  5  2 -1</clus>
<clus scale="   77.647">  1  3  2 -1</clus>
<clus scale="  149.356">  1  4  2 -1</clus>
<clus scale="   49.758">  1  3  2 -1</clus>
</clustering>
</event>
<event>
 6    0  0.8991567E+002  0.1303509E+03  0.7546771E-02  0.1226936E+00
         21   -1    0    0  503  501  0.00000000000E+00  0.00000000000E+00  0.90051064348E+03  0.90051064348E+03  0.00000000000E+00 0. -1.
         21   -1    0    0  505  502 -0.00000000000E+00 -0.00000000000E+00 -0.70734598973E+02  0.70734598973E+02  0.00000000000E+00 0. -1.
         21    1    1    2  503  506 -0.42635080224E+02 -0.11828648471E+01  0.37872098187E+03  0.38111511560E+03  0.00000000000E+00 0. -1.
         21    1    1    2  504  501  0.89080274519E+02 -0.13173084707E+03  0.34896697167E+03  0.38349218857E+03  0.00000000000E+00 0. -1.
         21    1    1    2  505  504 -0.53812868868E+02  0.21026986659E+02  0.44319378280E+01  0.57944810783E+02  0.00000000000E+00 0. -1.
         21    1    1    2  506  502  0.73676745732E+01  0.11188672526E+03  0.97656153143E+02  0.14869312750E+03  0.00000000000E+00 0. -1.
<scales pt_clust_3="42.65149" pt_clust_4="130.35092" pt_clust_5="60.13660" pt_clust_6="14000.00000"></scales>
<clustering>
<clus scale="   42.651">  1  3  2 -1</clus>
<clus scale="   60.137">  2  5  1 -1</clus>
<clus scale="  130.351">  1  4  2 -1</clus>
<clus scale="   42.651">  1  3  2 -1</clus>
</clustering>
</event>
<event>
 6    0  0.8991567E+002  0.1236537E+03  0.7546771E-02  0.1237188E+00
         21   -1    0    0  503  501  0.00000000000E+00  0.00000000000E+00  0.85934248485E+03  0.85934248485E+03  0.00000000000E+00 0. -1.
         21   -1    0    0  504  502 -0.00000000000E+00 -0.00000000000E+00 -0.25531987587E+03  0.25531987587E+03  0.00000000000E+00 0.  1.
         21    1    1    2  503  502  0.58923382864E+02  0.29723696692E+02  0.81882981465E+02  0.10516789361E+03  0.00000000000E+00 0. -1.
         21    1    1    2  504  506 -0.72401133131E+02 -0.18669932571E+02  0.35374404637E+02  0.82715409473E+02  0.00000000000E+00 0. -1.
         21    1    1    2  505  501 -0.34844538791E+02  0.97361541787E+02  0.68660395969E+03  0.69434747005E+03  0.00000000000E+00 0. -1.
         21    1    1    2  506  505  0.48322289058E+02 -0.10841530591E+03 -0.19983873682E+03  0.23243158759E+03  0.00000000000E+00 0.  1.
<scales pt_clust_3="65.99593" pt_clust_4="69.80665" pt_clust_5="14000.00000" pt_clust_6="123.65368"></scales>
<clustering>
<clus scale="   65.996">  1  3  2 -1</clus>
<clus scale="   69.807">  2  4  1 -1</clus>
<clus scale="  123.654">  2  6  1 -1</clus>
<clus scale="   65.996">  1  3  2 -1</clus>
</clustering>
</event>
<event>
 6    0  0.8991567E+002  0.7754695E+02  0.7546771E-02  0.1336161E+00
         21   -1    0    0  506  501  0.00000000000E+00  0.00000000000E+00  0.14024733815E+04  0.14024733815E+04  0.00000000000E+00 0. -1.
         21   -1    0    0  505  502 -0.00000000000E+00 -0.00000000000E+00 -0.65678625084E+02  0.65678625084E+02  0.00000000000E+00 0. -1.
         21    1    1    2  503  504 -0.25910683708E+01 -0.41059509884E+02  0.82521418730E+02  0.92208359363E+02  0.00000000000E+00 0. -1.
         21    1    1    2  504  502  0.76974790945E+02  0.18811110443E+01 -0.29909374354E+02  0.82602831029E+02  0.00000000000E+00 0. -1.
         21    1    1    2  505  501 -0.95061062119E+02  0.63513956103E+02  0.80276578970E+03  0.81086592065E+03  0.00000000000E+00 0. -1.
         21    1    1    2  506  503  0.20677339545E+02 -0.24335557263E+02  0.48141692232E+03  0.48247489553E+03  0.00000000000E+00 0. -1.
<scales pt_clust_3="43.37369" pt_clust_4="77.54695" pt_clust_5="14000.00000" pt_clust_6="31.93386"></scales>
<clustering>
<clus scale="   31.934">  1  6  2 -1</clus>
<clus scale="   43.374">  1  3  2 -1</clus>
<clus scale="   77.547">  2  4  1 -1</clus>
<clus scale="   31.934">  1  3  2 -1</clus>
</clustering>
</event>
<event>
 6    0  0.8991567E+002  0.3531241E+03  0.7546771E-02  0.1061340E+00
         21   -1    0    0  506  501  0.00000000000E+00  0.00000000000E+00  0.25630155194E+03  0.25630155194E+03  0.00000000000E+00 0. -1.
         21   -1    0    0  505  502 -0.00000000000E+00 -0.00000000000E+00 -0.64287458799E+03  0.64287458799E+03  0.00000000000E+00 0. -1.
         21    1    1    2  503  502 -0.31735398329E+01 -0.40860691085E+02 -0.17231018603E+03  0.17711710150E+03  0.00000000000E+00 0. -1.
         21    1    1    2  504  503  0.10617818960E+02  0.15013680258E+03 -0.11112195932E+03  0.18708791359E+03  0.00000000000E+00 0. -1.
         21    1    1    2  505  501 -0.39222068669E+02 -0.31265976383E+03 -0.94350027355E+02  0.32893225176E+03  0.00000000000E+00 0. -1.
         21    1    1    2  506  504  0.31777789542E+02  0.20338365233E+03 -0.87908633413E+01  0.20603887308E+03  0.00000000000E+00 0. -1.
<scales pt_clust_3="40.98375" pt_clust_4="96.80765" pt_clust_5="333.61823" pt_clust_6="96.80765"></scales>
<clustering>
<clus scale="   40.984">  2  3  1 -1</clus>
<clus scale="   96.808">  4  6 -1 -1</clus>
<clus scale="  333.618">  1  5  2 -1</clus>
<clus scale="  333.618">  1  3  2 -1</clus>
</clustering>
</event>
<event>
 6    0  0.8991567E+002  0.5670377E+02  0.7546771E-02  0.1412209E+00
         21   -1    0    0  506  501  0.00000000000E+00  0.00000000000E+00  0.25083405037E+02  0.25083405037E+02  0.00000000000E+00 0.  1.
         21   -1    0    0  504  502 -0.00000000000E+00 -0.00000000000E+00 -0.13494376357E+04  0.13494376357E+04  0.00000000000E+00 0.  1.
         21    1    1    2  503  501 -0.81310894152E+01  0.43890828031E+02 -0.14328672145E+03  0.15007865919E+03  0.00000000000E+00 0.  1.
         21    1    1    2  504  503  0.10415346190E+03 -0.50293809899E+02 -0.31372023195E+03  0.33436177244E+03  0.00000000000E+00 0.  1.
         21    1    1    2  505  502 -0.52347515805E+02  0.41785551904E+01 -0.83252240298E+03  0.83417700411E+03  0.00000000000E+00 0.  1.
         21    1    1    2  506  505 -0.43674856679E+02  0.22244266780E+01 -0.34824874253E+02  0.55903604953E+02  0.00000000000E+00 0.  1.
<scales pt_clust_3="48.04393" pt_clust_4="56.70377" pt_clust_5="14000.00000" pt_clust_6="43.73147"></scales>
<clustering>
<clus scale="   43.731">  1  6  2 -1</clus>
<clus scale="   48.044">  1  3  2 -1</clus>
<clus scale="   56.704">  1  4  2 -1</clus>
<clus scale="   43.731">  1  3  2 -1</clus>
</clustering>
</event>
<event>
 6    0  0.8991567E+002  0.1253721E+03  0.7546771E-02  0.1234489E+00
         21   -1    0    0  504  501  0.00000000000E+00  0.00000000000E+00  0.30213198564E+03  0.30213198564E+03  0.00000000000E+00 0. -1.
         21   -1    0    0  503  502 -0.00000000000E+00 -0.00000000000E+00 -0.13084870176E+04  0.13084870176E+04  0.00000000000E+00 0.  1.
         21    1    1    2  503  501  0.11774406118E+02  0.34411183354E+02 -0.22436580468E+03  0.22729447967E+03  0.00000000000E+00 0.  1.
         21    1    1    2  504  506  0.94547145569E+02 -0.81600470666E+02  0.27518260488E+03  0.30219739505E+03  0.00000000000E+00 0. -1.
         21    1    1    2  505  502 -0.11300255124E+02 -0.63207599474E+02 -0.54100011495E+03  0.54479722905E+03  0.00000000000E+00 0. -1.
         21    1    1    2  506  505 -0.95021296562E+02  0.11039688679E+03 -0.51617171723E+03  0.53632989949E+03  0.00000000000E+00 0. -1.
<scales pt_clust_3="36.36985" pt_clust_4="125.37213" pt_clust_5="46.26783" pt_clust_6="14000.00000"></scales>
<clustering>
<clus scale="   36.370">  2  3  1 -1</clus>
<clus scale="   46.268">  2  5  1 -1</clus>
<clus scale="  125.372">  1  4  2 -1</clus>
<clus scale="  125.372">  1  3  2 -1</clus>
</clustering>
</event>
<event>
 6    0  0.8991567E+002  0.8715750E+02  0.7546771E-02  0.1309885E+00
         21   -1    0    0  506  501  0.00000000000E+00  0.00000000000E+00  0.11132189555E+04  0.11132189555E+04  0.00000000000E+00 0.  1.
         21   -1    0    0  504  502 -0.00000000000E+00 -0.00000000000E+00 -0.65371862705E+02  0.65371862705E+02  0.00000000000E+00 0. -1.
         21    1    1    2  503  502 -0.21940230848E+02 -0.31482678204E+02  0.17978891370E+02  0.42376565357E+02  0.00000000000E+00 0.  1.
         21    1    1    2  504  501  0.85551699571E+02  0.32287875347E+02  0.98131721409E+03  0.98556840192E+03  0.00000000000E+00 0.  1.
         21    1    1    2  505  503  0.21090215878E+01 -0.46771330994E+02 -0.14077298888E+02  0.48889423386E+02  0.00000000000E+00 0.  1.
         21    1    1    2  506  505 -0.65720490311E+02  0.45966133852E+02  0.62628286186E+02  0.10175642750E+03  0.00000000000E+00 0. -1.
<scales pt_clust_3="38.37359" pt_clust_4="87.15750" pt_clust_5="66.31093" pt_clust_6="14000.00000"></scales>
<clustering>
<clus scale="   38.374">  2  3  1 -1</clus>
<clus scale="   66.311">  2  5  1 -1</clus>
<clus scale="   87.158">  1  4  2 -1</clus>
<clus scale="   87.158">  1  3  2 -1</clus>
</clustering>
</event>
<event>
 6    0  0.8991567E+002  0.2065145E+03  0.7546771E-02  0.1144356E+00
         21   -1    0    0  505  501  0.00000000000E+00  0.00000000000E+00  0.81523567533E+03  0.81523567533E+03  0.00000000000E+00 0.  1.
         21   -1    0    0  503  502 -0.00000000000E+00 -0.00000000000E+00 -0.48175091412E+03  0.48175091412E+03  0.00000000000E+00 0. -1.
         21    1    1    2  503  501  0.28546795280E+02 -0.43725037310E+02  0.18459681892E+01  0.52251373256E+02  0.00000000000E+00 0. -1.
         21    1    1    2  504  502 -0.54512282611E+02 -0.16640426661E+03 -0.40119100189E+03  0.43773986442E+03  0.00000000000E+00 0. -1.
         21    1    1    2  505  506 -0.84976056956E+02  0.29852621846E+02  0.41818137582E+03  0.42777070069E+03  0.00000000000E+00 0.  1.
         21    1    1    2  506  504  0.11094154429E+03  0.18027668208E+03  0.31464841910E+03  0.37922465109E+03  0.00000000000E+00 0.  1.
<scales pt_clust_3="52.21876" pt_clust_4="206.51450" pt_clust_5="89.63282" pt_clust_6="14000.00000"></scales>
<clustering>
<clus scale="   52.219">  2  3  1 -1</clus>
<clus scale="   89.633">  1  5  2 -1</clus>
<clus scale="  206.515">  2  4  1 -1</clus>
<clus scale="   89.633">  1  3  2 -1</clus>
</clustering>
</event>
<event>
 6    0  0.8991567E+002  0.1517843E+03  0.7546771E-02  0.1198297E+00
         21   -1    0    0  503  501  0.00000000000E+00  0.00000000000E+00  0.98641832263E+03  0.98641832263E+03  0.00000000000E+00 0. -1.
         21   -1    0    0  504  502 -0.00000000000E+00 -0.00000000000E+00 -0.11268604891E+04  0.11268604891E+04  0.00000000000E+00 0. -1.
         21    1    1    2  503  502 -0.12381825962E+00  0.34283724140E+02  0.19179772952E+02  0.39284255909E+02  0.00000000000E+00 0. -1.
         21    1    1    2  504  506  0.13702809026E+03 -0.66067337795E+02 -0.11039525241E+04  0.11143844786E+04  0.00000000000E+00 0. -1.
         21    1    1    2  505  501 -0.42700924975E+02  0.59301419928E+01  0.90877612489E+02  0.10058467095E+03  0.00000000000E+00 0.  1.
         21    1    1    2  506  505 -0.94203347028E+02  0.25853471663E+02  0.85345297229E+03  0.85902540620E+03  0.00000000000E+00 0. -1.
<scales pt_clust_3="34.28395" pt_clust_4="151.78433" pt_clust_5="43.72662" pt_clust_6="14000.00000"></scales>
<clustering>
<clus scale="   34.284">  1  3  2 -1</clus>
<clus scale="   43.727">  1  5  2 -1</clus>
<clus scale="  151.784">  2  4  1 -1</clus>
<clus scale="   34.284">  1  3  2 -1</clus>
</clustering>
</event>
<event>
 6    0  0.8991567E+002  0.4482239E+03  0.7546771E-02  0.1028253E+00
         21   -1    0    0  504  501  0.00000000000E+00  0.00000000000E+00  0.61628606455E+03  0.61628606455E+03  0.00000000000E+00 0.  1.
         21   -1    0    0  503  502 -0.00000000000E+00 -0.00000000000E+00 -0.26738490564E+04  0.26738490564E+04  0.00000000000E+00 0. -1.
         21    1    1    2  503  505  0.90507971477E+02  0.41907432857E+03 -0.21990543002E+04  0.22404586140E+04  0.00000000000E+00 0. -1.
         21    1    1    2  504  506  0.57130994004E+02  0.55151217726E+02  0.31139925931E+03  0.32136444419E+03  0.00000000000E+00 0.  1.
         21    1    1    2  505  501 -0.10770017984E+03 -0.49716449351E+03  0.42970742564E+02  0.51050793046E+03  0.00000000000E+00 0.  1.
         21    1    1    2  506  502 -0.39938785639E+02  0.22938947218E+02 -0.21287869353E+03  0.21780413232E+03  0.00000000000E+00 0.  1.
<scales pt_clust_3="448.22386" pt_clust_4="79.38196" pt_clust_5="14000.00000" pt_clust_6="46.05759"></scales>
<clustering>
<clus scale="   46.058">  2  6  1 -1</clus>
<clus scale="   79.382">  1  4  2 -1</clus>
<clus scale="  448.224">  2  3  1 -1</clus>
<clus scale="   79.382">  1  3  2 -1</clus>
</clustering>
</event>
<event>
 6    0  0.8991567E+002  0.1517956E+03  0.7546771E-02  0.1198284E+00
         21   -1    0    0  504  501  0.00000000000E+00  0.00000000000E+00  0.20262870225E+04  0.20262870225E+04  0.00000000000E+00 0. -1.
         21   -1    0    0  505  502 -0.00000000000E+00 -0.00000000000E+00 -0.76289050537E+03  0.76289050537E+03  0.00000000000E+00 0.  1.
         21    1    1    2  503  506  0.10379198895E+03 -0.56017178925E+02 -0.88701964853E+02  0.14757621717E+03  0.00000000000E+00 0.  1.
         21    1    1    2  504  502 -0.98396591570E+02 -0.26771862302E+02  0.22607929819E+03  0.24801304586E+03  0.00000000000E+00 0. -1.
         21    1    1    2  505  503  0.29457543144E+02 -0.28273501096E+02 -0.63119932652E+03  0.63251855902E+03  0.00000000000E+00 0.  1.
         21    1    1    2  506  501 -0.34852940528E+02  0.11106254232E+03  0.17572185103E+04  0.17610697058E+04  0.00000000000E+00 0. -1.
<scales pt_clust_3="14000.00000" pt_clust_4="100.25873" pt_clust_5="40.83060" pt_clust_6="151.79563"></scales>
<clustering>
<clus scale="   40.831">  2  5  1 -1</clus>
<clus scale="  100.259">  1  4  2 -1</clus>
<clus scale="  151.796">  1  6  2 -1</clus>
<clus scale="  100.259">  1  3  2 -1</clus>
</clustering>
</event>
<event>
 6    0  0.8991567E+002  0.6165314E+02  0.7546771E-02  0.1391022E+00
         21   -1    0    0  503  501  0.00000000000E+00  0.00000000000E+00  0.75296522764E+03  0.75296522764E+03  0.00000000000E+00 0.  1.
         21   -1    0    0  505  502 -0.00000000000E+00 -0.00000000000E+00 -0.12418369640E+03  0.12418369640E+03  0.00000000000E+00 0.  1.
         21    1    1    2  503  506  0.59443632793E+02 -0.11483941364E+01  0.14136509835E+03  0.15335891015E+03  0.00000000000E+00 0.  1.
         21    1    1    2  504  501 -0.78524865806E+02  0.59343847543E+02  0.56918775865E+03  0.57763531002E+03  0.00000000000E+00 0.  1.
         21    1    1    2  505  504  0.55230018352E+02 -0.35101778746E+02 -0.79816759272E+02  0.10321436363E+03  0.00000000000E+00 0.  1.
         21    1    1    2  506  502 -0.36148785339E+02 -0.23093674660E+02 -0.19545664844E+01  0.42940340252E+02  0.00000000000E+00 0. -1.
<scales pt_clust_3="57.36774" pt_clust_4="14000.00000" pt_clust_5="61.65314" pt_clust_6="42.89583"></scales>
<clustering>
<clus scale="   42.896">  2  6  1 -1</clus>
<clus scale="   57.368">  1  3  2 -1</clus>
<clus scale="   61.653">  2  5  1 -1</clus>
<clus scale="   57.368">  1  3  2 -1</clus>
</clustering>
</event>
<event>
 6    0  0.8991567E+002  0.6980232E+02  0.7546771E-02  0.1360767E+00
         21   -1    0    0  504  501  0.00000000000E+00  0.00000000000E+00  0.22034952926E+04  0.22034952926E+04  0.00000000000E+00 0. -1.
         21   -1    0    0  505  502 -0.00000000000E+00 -0.00000000000E+00 -0.23680380197E+03  0.23680380197E+03  0.00000000000E+00 0.  1.
         21    1    1    2  503  501  0.32568820748E+02  0.38138462852E+02  0.10927733496E+04  0.10939236098E+04  0.00000000000E+00 0. -1.
         21    1    1    2  504  502  0.41243684670E+00 -0.32482190696E+02  0.10224548557E+03  0.10728188168E+03  0.00000000000E+00 0. -1.
         21    1    1    2  505  506  0.53098398210E+02  0.45077260531E+02 -0.22596936574E+03  0.23646046934E+03  0.00000000000E+00 0.  1.
         21    1    1    2  506  503 -0.86079655805E+02 -0.50733532687E+02  0.99764202115E+03  0.10026331337E+04  0.00000000000E+00 0. -1.
<scales pt_clust_3="39.05017" pt_clust_4="32.48481" pt_clust_5="14000.00000" pt_clust_6="69.80232"></scales>
<clustering>
<clus scale="   32.485">  1  4  2 -1</clus>
<clus scale="   39.050">  1  3  2 -1</clus>
<clus scale="   69.802">  1  6  2 -1</clus>
<clus scale="   32.485">  1  3  2 -1</clus>
</clustering>
</event>
<event>
 6    0  0.8991567E+002  0.9794298E+02  0.7546771E-02  0.1284682E+00
         21   -1    0    0  506  501  0.00000000000E+00  0.00000000000E+00  0.64917620503E+03  0.64917620503E+03  0.00000000000E+00 0. -1.
         21   -1    0    0  504  502 -0.00000000000E+00 -0.00000000000E+00 -0.62046148497E+03  0.62046148497E+03  0.00000000000E+00 0. -1.
         21    1    1    2  503  501 -0.32604685007E+01 -0.40404884162E+02  0.35175739878E+03  0.35408537518E+03  0.00000000000E+00 0. -1.
         21    1    1    2  504  505 -0.99457301748E+02 -0.35173143829E+02 -0.33686915859E+03  0.35300104097E+03  0.00000000000E+00 0. -1.
         21    1    1    2  505  503  0.67849827714E+01  0.11932008427E+03  0.26469615409E+03  0.29042619112E+03  0.00000000000E+00 0. -1.
         21    1    1    2  506  502  0.95932787477E+02 -0.43742056275E+02 -0.25086967423E+03  0.27212508272E+03  0.00000000000E+00 0. -1.
<scales pt_clust_3="40.53622" pt_clust_4="97.94298" pt_clust_5="81.55010" pt_clust_6="14000.00000"></scales>
<clustering>
<clus scale="   40.536">  1  3  2 -1</clus>
<clus scale="   81.550">  1  5  2 -1</clus>
<clus scale="   97.943">  2  4  1 -1</clus>
<clus scale="   40.536">  1  3  2 -1</clus>
</clustering>
</event>
<event>
 6    0  0.8991567E+002  0.9328254E+02  0.7546771E-02  0.1295092E+00
         21   -1    0    0  504  501  0.00000000000E+00  0.00000000000E+00  0.24920598511E+03  0.24920598511E+03  0.00000000000E+00 0.  1.
         21   -1    0    0  505  502 -0.00000000000E+00 -0.00000000000E+00 -0.18978848347E+03  0.18978848347E+03  0.00000000000E+00 0.  1.
         21    1    1    2  503  501  0.72984348653E+02  0.31581407020E+02  0.72359460079E+01  0.79852735283E+02  0.00000000000E+00 0.  1.
         21    1    1    2  504  506  0.37309812869E+02 -0.32613504499E+02  0.16950102452E+03  0.17659631968E+03  0.00000000000E+00 0.  1.
         21    1    1    2  505  503 -0.97140738501E+02 -0.29993608767E+02 -0.66204903941E+02  0.12132200521E+03  0.00000000000E+00 0.  1.
         21    1    1    2  506  502 -0.13153423021E+02  0.31025706247E+02 -0.51114564953E+02  0.61223408396E+02  0.00000000000E+00 0. -1.
<scales pt_clust_3="93.28254" pt_clust_4="48.75114" pt_clust_5="14000.00000" pt_clust_6="33.69877"></scales>
<clustering>
<clus scale="   33.699">  2  6  1 -1</clus>
<clus scale="   48.751">  1  4  2 -1</clus>
<clus scale="   93.283">  1  3  2 -1</clus>
<clus scale="   48.751">  1  3  2 -1</clus>
</clustering>
</event>
<event>
 6    0  0.8991567E+002  0.7503648E+02  0.7546771E-02  0.1343758E+00
         21   -1    0    0  505  501  0.00000000000E+00  0.00000000000E+00  0.76748192239E+02  0.76748192239E+02  0.00000000000E+00 0.  1.
         21   -1    0    0  503  502 -0.00000000000E+00 -0.00000000000E+00 -0.46753524596E+03  0.46753524596E+03  0.00000000000E+00 0.  1.
         21    1    1    2  503  504 -0.19777141301E+02 -0.70044825458E+02 -0.31584748151E+03  0.32412504450E+03  0.00000000000E+00 0.  1.
         21    1    1    2  504  501 -0.12871573371E+02  0.93663282891E+02 -0.69564633197E+02  0.11737855918E+03  0.00000000000E+00 0.  1.
         21    1    1    2  505  506 -0.20472043313E+02 -0.26032485144E+02  0.25041666315E+02  0.41519632610E+02  0.00000000000E+00 0.  1.
         21    1    1    2  506  502  0.53120757985E+02  0.24140277108E+01 -0.30416605321E+02  0.61260201910E+02  0.00000000000E+00 0.  1.
<scales pt_clust_3="14000.00000" pt_clust_4="75.03648" pt_clust_5="33.11789" pt_clust_6="46.36217"></scales>
<clustering>
<clus scale="   33.118">  1  5  2 -1</clus>
<clus scale="   46.362">  1  6  2 -1</clus>
<clus scale="   75.036">  1  4  2 -1</clus>
<clus scale="   33.118">  1  3  2 -1</clus>
</clustering>
</event>
<event>
 6    0  0.8991567E+002  0.1055512E+03  0.7546771E-02  0.1269037E+00
         21   -1    0    0  503  501  0.00000000000E+00  0.00000000000E+00  0.15584085576E+04  0.15584085576E+04  0.00000000000E+00 0.  1.
         21   -1    0    0  505  502 -0.00000000000E+00 -0.00000000000E+00 -0.37613174169E+03  0.37613174169E+03  0.00000000000E+00 0. -1.
         21    1    1    2  503  504 -0.30828936598E+02 -0.15420042327E+01  0.10805103580E+04  0.10809511714E+04  0.00000000000E+00 0.  1.
         21    1    1    2  504  506 -0.20275507655E+02 -0.42948117932E+02  0.44360877325E+03  0.44614390139E+03  0.00000000000E+00 0.  1.
         21    1    1    2  505  501  0.12450762597E+03 -0.14398391181E+02 -0.22352198519E+03  0.25626459072E+03  0.00000000000E+00 0. -1.
         21    1    1    2  506  502 -0.73403181718E+02  0.58888513345E+02 -0.11832033021E+03  0.15118063577E+03  0.00000000000E+00 0. -1.
<scales pt_clust_3="30.86748" pt_clust_4="66.10395" pt_clust_5="105.55125" pt_clust_6="14000.00000"></scales>
<clustering>
<clus scale="   30.867">  1  3  2 -1</clus>
<clus scale="   66.104">  1  4  2 -1</clus>
<clus scale="  105.551">  2  5  1 -1</clus>
<clus scale="   30.867">  1  3  2 -1</clus>
</clustering>
</event>
<event>
 6    0  0.8991567E+002  0.1465229E+03  0.7546771E-02  0.1204812E+00
         21   -1    0    0  504  501  0.00000000000E+00  0.00000000000E+00  0.10369538080E+04  0.10369538080E+04  0.00000000000E+00 0.  1.
         21   -1    0    0  505  502 -0.00000000000E+00 -0.00000000000E+00 -0.15078638126E+03  0.15078638126E+03  0.00000000000E+00 0.  1.
         21    1    1    2  503  506 -0.87827656558E+02  0.28735700874E+02 -0.25614759050E+02  0.95893449424E+02  0.00000000000E+00 0.  1.
         21    1    1    2  504  503  0.88676830420E+02  0.12302683039E+03  0.76862145495E+03  0.78343992894E+03  0.00000000000E+00 0.  1.
         21    1    1    2  505  501  0.27487178165E+02 -0.16280684983E+03  0.19052832665E+03  0.25211635919E+03  0.00000000000E+00 0.  1.
         21    1    1    2  506  502 -0.28336352026E+02  0.11044318573E+02 -0.47367595812E+02  0.56290451694E+02  0.00000000000E+00 0.  1.
<scales pt_clust_3="133.54219" pt_clust_4="14000.00000" pt_clust_5="146.52287" pt_clust_6="30.12222"></scales>
<clustering>
<clus scale="   30.122">  3  6 -1 -1</clus>
<clus scale="  133.542">  2  3  1 -1</clus>
<clus scale="  146.523">  2  5  1 -1</clus>
<clus scale="  146.523">  1  3  2 -1</clus>
</clustering>
</event>
<event>
 6    0  0.8991567E+002  0.8224610E+02  0.7546771E-02  0.1322796E+00
         21   -1    0    0  506  501  0.00000000000E+00  0.00000000000E+00  0.37014470209E+03  0.37014470209E+03  0.00000000000E+00 0.  1.
         21   -1    0    0  503  502 -0.00000000000E+00 -0.00000000000E+00 -0.80131194416E+02  0.80131194416E+02  0.00000000000E+00 0.  1.
         21    1    1    2  503  505 -0.67821241993E+02  0.54685703520E+02 -0.19613816357E+02  0.89302568983E+02  0.00000000000E+00 0.  1.
         21    1    1    2  504  502  0.17784804341E+02 -0.79737773884E+02  0.86063592470E+02  0.11866488022E+03  0.00000000000E+00 0.  1.
         21    1    1    2  505  501  0.12570324683E+00  0.33723166646E+02  0.42292853649E+02  0.54092081118E+02  0.00000000000E+00 0. -1.
         21    1    1    2  506  504  0.49910734405E+02 -0.86710962818E+01  0.18127087791E+03  0.18821636618E+03  0.00000000000E+00 0.  1.
<scales pt_clust_3="14000.00000" pt_clust_4="82.24610" pt_clust_5="33.72340" pt_clust_6="51.11115"></scales>
<clustering>
<clus scale="   33.723">  1  5  2 -1</clus>
<clus scale="   51.111">  1  6  2 -1</clus>
<clus scale="   82.246">  1  4  2 -1</clus>
<clus scale="   33.723">  1  3  2 -1</clus>
</clustering>
</event>
<event>
 6    0  0.8991567E+002  0.1175567E+03  0.7546771E-02  0.1247183E+00
         21   -1    0    0  503  501  0.00000000000E+00  0.00000000000E+00  0.13360888347E+04  0.13360888347E+04  0.00000000000E+00 0.  1.
         21   -1    0    0  505  502 -0.00000000000E+00 -0.00000000000E+00 -0.13849985494E+03  0.13849985494E+03  0.00000000000E+00 0.  1.
         21    1    1    2  503  506 -0.60071798423E+02  0.68532436323E+02  0.51429305964E+03  0.52230514739E+03  0.00000000000E+00 0.  1.
         21    1    1    2  504  501 -0.29646509512E+02  0.14350911567E+02  0.72894965625E+03  0.72969340516E+03  0.00000000000E+00 0.  1.
         21    1    1    2  505  504  0.34115749603E+02 -0.13632291203E+03 -0.34154390703E+02  0.14461792116E+03  0.00000000000E+00 0.  1.
         21    1    1    2  506  502  0.55602558332E+02  0.53439564144E+02 -0.11499345435E+02  0.77972215913E+02  0.00000000000E+00 0. -1.
<scales pt_clust_3="117.55671" pt_clust_4="32.93728" pt_clust_5="14000.00000" pt_clust_6="76.51218"></scales>
<clustering>
<clus scale="   32.937">  1  4  2 -1</clus>
<clus scale="   76.512">  2  6  1 -1</clus>
<clus scale="  117.557">  1  3  2 -1</clus>
<clus scale="   32.937">  1  3  2 -1</clus>
</clustering>
</event>
<event>
 6    0  0.8991567E+002  0.8172025E+02  0.7546771E-02  0.1324239E+00
         21   -1    0    0  504  501  0.00000000000E+00  0.00000000000E+00  0.62410722286E+03  0.62410722286E+03  0.00000000000E+00 0.  1.
         21   -1    0    0  506  502 -0.00000000000E+00 -0.00000000000E+00 -0.13415394323E+03  0.13415394323E+03  0.00000000000E+00 0.  1.
         21    1    1    2  503  502 -0.70164927558E+02  0.34963507919E+02 -0.37185856710E+02  0.86766075655E+02  0.00000000000E+00 0.  1.
         21    1    1    2  504  505  0.26449377829E+02  0.28137699951E+02  0.44356593772E+03  0.44524379935E+03  0.00000000000E+00 0.  1.
         21    1    1    2  505  503  0.11358833839E+02  0.37109667769E+02  0.11086963324E+03  0.11746585088E+03  0.00000000000E+00 0. -1.
         21    1    1    2  506  501  0.32356715891E+02 -0.10021087564E+03 -0.27296434622E+02  0.10878544021E+03  0.00000000000E+00 0.  1.
<scales pt_clust_3="14000.00000" pt_clust_4="38.61735" pt_clust_5="61.77854" pt_clust_6="81.72025"></scales>
<clustering>
<clus scale="   38.617">  1  4  2 -1</clus>
<clus scale="   61.779">  1  5  2 -1</clus>
<clus scale="   81.720">  1  6  2 -1</clus>
<clus scale="   38.617">  1  3  2 -1</clus>
</clustering>
</event>
<event>
 6    0  0.8991567E+002  0.1134344E+03  0.7546771E-02  0.1254339E+00
         21   -1    0    0  506  501  0.00000000000E+00  0.00000000000E+00  0.64364446743E+03  0.64364446743E+03  0.00000000000E+00 0.  1.
         21   -1    0    0  505  502 -0.00000000000E+00 -0.00000000000E+00 -0.65071712620E+02  0.65071712620E+02  0.00000000000E+00 0.  1.
         21    1    1    2  503  501  0.35232962884E+02  0.36918753947E+02  0.16977134322E+03  0.17727567528E+03  0.00000000000E+00 0.  1.
         21    1    1    2  504  502 -0.15552378044E+03 -0.79332771124E+01  0.89236041906E+02  0.17948162676E+03  0.00000000000E+00 0.  1.
         21    1    1    2  505  503  0.39569490208E+02  0.55690878890E+01  0.31719877915E+02  0.51018721566E+02  0.00000000000E+00 0.  1.
         21    1    1    2  506  504  0.80721327348E+02 -0.34554564723E+02  0.28784549177E+03  0.30094015645E+03  0.00000000000E+00 0. -1.
<scales pt_clust_3="53.18163" pt_clust_4="14000.00000" pt_clust_5="39.95947" pt_clust_6="113.43442"></scales>
<clustering>
<clus scale="   39.959">  2  5  1 -1</clus>
<clus scale="   53.182">  1  3  2 -1</clus>
<clus scale="  113.434">  1  6  2 -1</clus>
<clus scale="   53.182">  1  3  2 -1</clus>
</clustering>
</event>
<event>
 6    0  0.8991567E+002  0.6888871E+02  0.7546771E-02  0.1363913E+00
         21   -1    0    0  506  501  0.00000000000E+00  0.00000000000E+00  0.11365829094E+03  0.11365829094E+03  0.00000000000E+00 0.  1.
         21   -1    0    0  504  502 -0.00000000000E+00 -0.00000000000E+00 -0.91382751325E+03  0.91382751325E+03  0.00000000000E+00 0.  1.
         21    1    1    2  503  502 -0.31750555698E+02 -0.49785029136E+00 -0.25469980585E+03  0.25667165162E+03  0.00000000000E+00 0.  1.
         21    1    1    2  504  501  0.94291796350E+02  0.17934779122E+02 -0.60035538120E+03  0.60797959085E+03  0.00000000000E+00 0.  1.
         21    1    1    2  505  503 -0.10207744858E+03 -0.34384918464E+02  0.52306087549E+02  0.11974161733E+03  0.00000000000E+00 0.  1.
         21    1    1    2  506  505  0.39536207928E+02  0.16947989633E+02  0.25798771916E+01  0.43092944391E+02  0.00000000000E+00 0.  1.
<scales pt_clust_3="31.75446" pt_clust_4="14000.00000" pt_clust_5="68.88871" pt_clust_6="42.11306"></scales>
<clustering>
<clus scale="   31.754">  2  3  1 -1</clus>
<clus scale="   42.113">  1  6  2 -1</clus>
<clus scale="   68.889">  1  5  2 -1</clus>
<clus scale="   42.113">  1  3  2 -1</clus>
</clustering>
</event>
<event>
 6    0  0.8991567E+002  0.8756279E+02  0.7546771E-02  0.1308863E+00
         21   -1    0    0  503  501  0.00000000000E+00  0.00000000000E+00  0.11845380891E+03  0.11845380891E+03  0.00000000000E+00 0.  1.
         21   -1    0    0  504  502 -0.00000000000E+00 -0.00000000000E+00 -0.17442812137E+03  0.17442812137E+03  0.00000000000E+00 0.  1.
         21    1    1    2  503  505 -0.10961867605E+01  0.37310596119E+02  0.27855033993E+02  0.46574511559E+02  0.00000000000E+00 0.  1.
         21    1    1    2  504  501 -0.24779503671E+02  0.17156027166E+02 -0.13942561997E+02  0.33207651307E+02  0.00000000000E+00 0. -1.
         21    1    1    2  505  506 -0.18032440465E+02 -0.11512243427E+03 -0.95159350187E+01  0.11691405732E+03  0.00000000000E+00 0.  1.
         21    1    1    2  506  502  0.43908130897E+02  0.60655810980E+02 -0.60370849430E+02  0.96185710090E+02  0.00000000000E+00 0.  1.
<scales pt_clust_3="38.46531" pt_clust_4="30.13890" pt_clust_5="87.56279" pt_clust_6="14000.00000"></scales>
<clustering>
<clus scale="   30.139">  2  4  1 -1</clus>
<clus scale="   38.465">  1  3  2 -1</clus>
<clus scale="   87.563">  1  5  2 -1</clus>
<clus scale="   38.465">  1  3  2 -1</clus>
</clustering>
</event>
<event>
 6    0  0.8991567E+002  0.1027908E+03  0.7546771E-02  0.1274534E+00
         21   -1    0    0  504  501  0.00000000000E+00  0.00000000000E+00  0.44493770734E+03  0.44493770734E+03  0.00000000000E+00 0.  1.
         21   -1    0    0  505  502 -0.00000000000E+00 -0.00000000000E+00 -0.17107503204E+04  0.17107503204E+04  0.00000000000E+00 0.  1.
         21    1    1    2  503  502  0.44451316543E+02  0.34155118810E+02 -0.11123930695E+04  0.11138046655E+04  0.00000000000E+00 0.  1.
         21    1    1    2  504  506 -0.87508101392E+02 -0.54659205195E+02  0.41301776179E+03  0.42570995769E+03  0.00000000000E+00 0.  1.
         21    1    1    2  505  501  0.10488862563E+03 -0.32392688496E+02 -0.49767788767E+03  0.50964123649E+03  0.00000000000E+00 0.  1.
         21    1    1    2  506  503 -0.61831840776E+02  0.52896774881E+02 -0.68759417705E+02  0.10653216815E+03  0.00000000000E+00 0.  1.
<scales pt_clust_3="56.05793" pt_clust_4="102.79082" pt_clust_5="14000.00000" pt_clust_6="80.07868"></scales>
<clustering>
<clus scale="   56.058">  2  3  1 -1</clus>
<clus scale="   80.079">  2  6  1 -1</clus>
<clus scale="  102.791">  1  4  2 -1</clus>
<clus scale="  102.791">  1  3  2 -1</clus>
</clustering>
</event>
<event>
 6    0  0.8991567E+002  0.7630857E+02  0.7546771E-02  0.1339866E+00
         21   -1    0    0  503  501  0.00000000000E+00  0.00000000000E+00  0.97257186957E+03  0.97257186957E+03  0.00000000000E+00 0.  1.
         21   -1    0    0  504  502 -0.00000000000E+00 -0.00000000000E+00 -0.34762831649E+03  0.34762831649E+03  0.00000000000E+00 0. -1.
         21    1    1    2  503  506  0.68190434723E+01  0.74112385480E+02  0.37190727977E+03  0.37928112237E+03  0.00000000000E+00 0.  1.
         21    1    1    2  504  505  0.64094102319E+02  0.22828407474E+02 -0.26460071244E+03  0.27320821210E+03  0.00000000000E+00 0. -1.
         21    1    1    2  505  501 -0.48357106610E+02 -0.67012766327E+02  0.58490177463E+03  0.59071076389E+03  0.00000000000E+00 0.  1.
         21    1    1    2  506  502 -0.22556039182E+02 -0.29928026628E+02 -0.67264788884E+02  0.77000087695E+02  0.00000000000E+00 0. -1.
<scales pt_clust_3="76.30857" pt_clust_4="42.55920" pt_clust_5="14000.00000" pt_clust_6="37.47615"></scales>
<clustering>
<clus scale="   37.476">  2  6  1 -1</clus>
<clus scale="   42.559">  2  4  1 -1</clus>
<clus scale="   76.309">  2  3  1 -1</clus>
<clus scale="   76.309">  1  3  2 -1</clus>
</clustering>
</event>
<event>
 6    0  0.8991567E+002  0.1503418E+03  0.7546771E-02  0.1200054E+00
         21   -1    0    0  503  501  0.00000000000E+00  0.00000000000E+00  0.26634267897E+03  0.26634267897E+03  0.00000000000E+00 0. -1.
         21   -1    0    0  505  502 -0.00000000000E+00 -0.00000000000E+00 -0.92852184498E+03  0.92852184498E+03  0.00000000000E+00 0.  1.
         21    1    1    2  503  506 -0.11002279244E+01  0.38613496964E+02  0.31680253769E+02  0.49958494055E+02  0.00000000000E+00 0. -1.
         21    1    1    2  504  502 -0.11893174963E+03 -0.79504588119E+02 -0.22392354761E+03  0.26572071010E+03  0.00000000000E+00 0.  1.
         21    1    1    2  505  501  0.93784736914E+01 -0.29646790342E+02 -0.65311434171E+03  0.65385413610E+03  0.00000000000E+00 0.  1.
         21    1    1    2  506  504  0.11065350387E+03  0.70537881497E+02  0.18317846954E+03  0.22533118370E+03  0.00000000000E+00 0. -1.
<scales pt_clust_3="37.63664" pt_clust_4="150.34182" pt_clust_5="31.09482" pt_clust_6="14000.00000"></scales>
<clustering>
<clus scale="   31.095">  2  5  1 -1</clus>
<clus scale="   37.637">  1  3  2 -1</clus>
<clus scale="  150.342">  2  4  1 -1</clus>
<clus scale="   37.637">  1  3  2 -1</clus>
</clustering>
</event>
<event>
 6    0  0.8991567E+002  0.8740477E+02  0.7546771E-02  0.1309261E+00
         21   -1    0    0  502  501  0.00000000000E+00  0.00000000000E+00  0.35248341642E+03  0.35248341642E+03  0.00000000000E+00 0. -1.
         21   -1    0    0  506  502 -0.00000000000E+00 -0.00000000000E+00 -0.65635182312E+02  0.65635182312E+02  0.00000000000E+00 0. -1.
         21    1    1    2  503  505  0.77422354940E+02 -0.34447626605E+02  0.58620353709E+02  0.10303982673E+03  0.00000000000E+00 0. -1.
         21    1    1    2  504  501  0.19530558892E+02 -0.25587796566E+02  0.14429590019E+03  0.14784277079E+03  0.00000000000E+00 0. -1.
         21    1    1    2  505  504 -0.38537996796E+02 -0.13554777698E+02  0.55804534435E+02  0.69159636053E+02  0.00000000000E+00 0. -1.
         21    1    1    2  506  503 -0.58414917036E+02  0.73590200869E+02  0.28127445769E+02  0.98076365154E+02  0.00000000000E+00 0. -1.
<scales pt_clust_3="87.40477" pt_clust_4="32.18972" pt_clust_5="38.96358" pt_clust_6="14000.00000"></scales>
<clustering>
<clus scale="   32.190">  1  4  2 -1</clus>
<clus scale="   38.964">  1  5  2 -1</clus>
<clus scale="   87.405">  1  3  2 -1</clus>
<clus scale="   32.190">  1  3  2 -1</clus>
</clustering>
</event>
<event>
 6    0  0.8991567E+002  0.7592325E+02  0.7546771E-02  0.1341036E+00
         21   -1    0    0  504  501  0.00000000000E+00  0.00000000000E+00  0.13104362804E+03  0.13104362804E+03  0.00000000000E+00 0. -1.
         21   -1    0    0  505  502 -0.00000000000E+00 -0.00000000000E+00 -0.67642870516E+03  0.67642870516E+03  0.00000000000E+00 0. -1.
         21    1    1    2  503  501 -0.34840591759E+01 -0.54001009736E+02  0.54024965419E+02  0.76465316382E+02  0.00000000000E+00 0. -1.
         21    1    1    2  504  506  0.36750267999E+02 -0.17581400921E+02  0.41004069832E+02  0.57801570905E+02  0.00000000000E+00 0. -1.
         21    1    1    2  505  503 -0.85695478461E+02  0.10443827311E+03 -0.52667868450E+03  0.54372925673E+03  0.00000000000E+00 0. -1.
         21    1    1    2  506  502  0.52429269639E+02 -0.32855862455E+02 -0.11373542787E+03  0.12947618919E+03  0.00000000000E+00 0. -1.
<scales pt_clust_3="14000.00000" pt_clust_4="40.73927" pt_clust_5="75.92325" pt_clust_6="65.77712"></scales>
<clustering>
<clus scale="   40.739">  1  4  2 -1</clus>
<clus scale="   65.777">  2  6  1 -1</clus>
<clus scale="   75.923">  2  5  1 -1</clus>
<clus scale="   40.739">  1  3  2 -1</clus>
</clustering>
</event>
<event>
 6    0  0.8991567E+002  0.8120269E+02  0.7546771E-02  0.1325673E+00
         21   -1    0    0  505  501  0.00000000000E+00  0.00000000000E+00  0.18665908499E+03  0.18665908499E+03  0.00000000000E+00 0.  1.
         21   -1    0    0  506  502 -0.00000000000E+00 -0.00000000000E+00 -0.84262876907E+03  0.84262876907E+03  0.00000000000E+00 0. -1.
         21    1    1    2  503  504  0.87140469564E+02  0.59908312373E+01 -0.50310885399E+01  0.87490932940E+02  0.00000000000E+00 0.  1.
         21    1    1    2  504  501 -0.16482275217E+02 -0.36026268770E+02  0.13321230805E+03  0.13897869065E+03  0.00000000000E+00 0.  1.
         21    1    1    2  505  502 -0.10753156799E+03  0.33880969560E+02 -0.36462348569E+03  0.38165592427E+03  0.00000000000E+00 0. -1.
         21    1    1    2  506  503  0.36873373644E+02 -0.38455320275E+01 -0.41952741790E+03  0.42116230621E+03  0.00000000000E+00 0. -1.
<scales pt_clust_3="14000.00000" pt_clust_4="39.53750" pt_clust_5="81.20269" pt_clust_6="37.07336"></scales>
<clustering>
<clus scale="   37.073">  2  6  1 -1</clus>
<clus scale="   39.538">  1  4  2 -1</clus>
<clus scale="   81.203">  2  5  1 -1</clus>
<clus scale="   39.538">  1  3  2 -1</clus>
</clustering>
</event>
<event>
 6    0  0.8991567E+002  0.1259485E+03  0.7546771E-02  0.1233594E+00
         21   -1    0    0  506  501  0.00000000000E+00  0.00000000000E+00  0.46863964849E+03  0.46863964849E+03  0.00000000000E+00 0.  1.
         21   -1    0    0  504  502 -0.00000000000E+00 -0.00000000000E+00 -0.12597223838E+03  0.12597223838E+03  0.00000000000E+00 0.  1.
         21    1    1    2  503  502  0.54981738216E+02  0.67905420227E+00 -0.31861515151E+02  0.63550049564E+02  0.00000000000E+00 0.  1.
         21    1    1    2  504  505 -0.10757938524E+02  0.41520568974E+02 -0.23507486897E+02  0.48911070623E+02  0.00000000000E+00 0.  1.
         21    1    1    2  505  501 -0.13950082406E+03  0.58572892551E+01  0.32245202440E+03  0.35138311825E+03  0.00000000000E+00 0.  1.
         21    1    1    2  506  503  0.95277024371E+02 -0.48056912432E+02  0.75584387755E+02  0.13076764844E+03  0.00000000000E+00 0.  1.
<scales pt_clust_3="54.26176" pt_clust_4="42.89162" pt_clust_5="14000.00000" pt_clust_6="125.94853"></scales>
<clustering>
<clus scale="   42.892">  2  4  1 -1</clus>
<clus scale="   54.262">  2  3  1 -1</clus>
<clus scale="  125.949">  2  6  1 -1</clus>
<clus scale="  125.949">  1  3  2 -1</clus>
</clustering>
</event>
<event>
 6    0  0.8991567E+002  0.6419549E+02  0.7546771E-02  0.1381024E+00
         21   -1    0    0  504  501  0.00000000000E+00  0.00000000000E+00  0.54388669245E+03  0.54388669245E+03  0.00000000000E+00 0. -1.
         21   -1    0    0  506  502 -0.00000000000E+00 -0.00000000000E+00 -0.66863357073E+03  0.66863357073E+03  0.00000000000E+00 0. -1.
         21    1    1    2  503  501  0.43273564909E+02 -0.76428474985E+02  0.45432594650E+03  0.46273748375E+03  0.00000000000E+00 0. -1.
         21    1    1    2  504  502  0.30325255761E+01  0.51316050161E+02  0.39244163461E+02  0.64673314290E+02  0.00000000000E+00 0. -1.
         21    1    1    2  505  503 -0.34010728304E+02  0.87244066464E+02 -0.37531207535E+02  0.10088036634E+03  0.00000000000E+00 0. -1.
         21    1    1    2  506  505 -0.12295362181E+02 -0.62131641640E+02 -0.58078578070E+03  0.58422909880E+03  0.00000000000E+00 0. -1.
<scales pt_clust_3="54.24917" pt_clust_4="51.40558" pt_clust_5="64.19549" pt_clust_6="14000.00000"></scales>
<clustering>
<clus scale="   51.406">  1  4  2 -1</clus>
<clus scale="   54.249">  1  3  2 -1</clus>
<clus scale="   64.195">  1  5  2 -1</clus>
<clus scale="   51.406">  1  3  2 -1</clus>
</clustering>
</event>
<event>
 6    0  0.8991567E+002  0.9600725E+02  0.7546771E-02  0.1288923E+00
         21   -1    0    0  503  501  0.00000000000E+00  0.00000000000E+00  0.12050060890E+03  0.12050060890E+03  0.00000000000E+00 0. -1.
         21   -1    0    0  505  502 -0.00000000000E+00 -0.00000000000E+00 -0.29500772617E+03  0.29500772617E+03  0.00000000000E+00 0. -1.
         21    1    1    2  503  504 -0.80961609775E+02 -0.81270984373E+02 -0.17295401611E+02  0.11601243931E+03  0.00000000000E+00 0. -1.
         21    1    1    2  504  502 -0.42750530391E+02  0.13380392496E+02 -0.13064354065E+03  0.13811001942E+03  0.00000000000E+00 0. -1.
         21    1    1    2  505  506  0.68576156245E+02  0.31467533177E+01 -0.32872191312E+02  0.76112891309E+02  0.00000000000E+00 0. -1.
         21    1    1    2  506  501  0.55135983921E+02  0.64743838559E+02  0.63040162966E+01  0.85272985029E+02  0.00000000000E+00 0. -1.
<scales pt_clust_3="96.00725" pt_clust_4="44.79557" pt_clust_5="54.61694" pt_clust_6="14000.00000"></scales>
<clustering>
<clus scale="   44.796">  2  4  1 -1</clus>
<clus scale="   54.617">  2  5  1 -1</clus>
<clus scale="   96.007">  2  3  1 -1</clus>
<clus scale="   96.007">  1  3  2 -1</clus>
</clustering>
</event>
<event>
 6    0  0.8991567E+002  0.1906652E+03  0.7546771E-02  0.1157863E+00
         21   -1    0    0  506  501  0.00000000000E+00  0.00000000000E+00  0.58481916502E+03  0.58481916502E+03  0.00000000000E+00 0.  1.
         21   -1    0    0  503  502 -0.00000000000E+00 -0.00000000000E+00 -0.30312501699E+03  0.30312501699E+03  0.00000000000E+00 0. -1.
         21    1    1    2  503  505  0.67358073782E+02 -0.48739783662E+01 -0.13124062750E+02  0.68797578386E+02  0.00000000000E+00 0.  1.
         21    1    1    2  504  502 -0.41591131292E+02  0.23934199276E+01 -0.22748669763E+02  0.47466331616E+02  0.00000000000E+00 0.  1.
         21    1    1    2  505  501  0.78198913702E+02  0.17314800612E+03  0.47866578037E+03  0.51499148675E+03  0.00000000000E+00 0.  1.
         21    1    1    2  506  504 -0.10396585619E+03 -0.17066744768E+03 -0.16109889982E+03  0.25668878526E+03  0.00000000000E+00 0. -1.
<scales pt_clust_3="61.16810" pt_clust_4="41.65994" pt_clust_5="14000.00000" pt_clust_6="190.66525"></scales>
<clustering>
<clus scale="   41.660">  2  4  1 -1</clus>
<clus scale="   61.168">  2  3  1 -1</clus>
<clus scale="  190.665">  2  6  1 -1</clus>
<clus scale="  190.665">  1  3  2 -1</clus>
</clustering>
</event>
<event>
 6    0  0.8991567E+002  0.2670544E+03  0.7546771E-02  0.1102977E+00
         21   -1    0    0  503  501  0.00000000000E+00  0.00000000000E+00  0.98943955935E+03  0.98943955935E+03  0.00000000000E+00 0. -1.
         21   -1    0    0  504  502 -0.00000000000E+00 -0.00000000000E+00 -0.51716547675E+03  0.51716547675E+03  0.00000000000E+00 0.  1.
         21    1    1    2  503  502 -0.16539776118E+03 -0.21577440012E+03 -0.33874734861E+03  0.43435558859E+03  0.00000000000E+00 0.  1.
         21    1    1    2  504  505  0.30159329688E+02 -0.15719466818E+02 -0.90814220640E+02  0.96973756629E+02  0.00000000000E+00 0.  1.
         21    1    1    2  505  506  0.72925480499E+02  0.25246006280E+03  0.47008668980E+03  0.53854963090E+03  0.00000000000E+00 0. -1.
         21    1    1    2  506  501  0.62312950994E+02 -0.20966195865E+02  0.43174896205E+03  0.43672605998E+03  0.00000000000E+00 0. -1.
<scales pt_clust_3="267.05443" pt_clust_4="34.01010" pt_clust_5="14000.00000" pt_clust_6="65.94315"></scales>
<clustering>
<clus scale="   34.010">  2  4  1 -1</clus>
<clus scale="   65.943">  1  6  2 -1</clus>
<clus scale="  267.054">  2  3  1 -1</clus>
<clus scale="   65.943">  1  3  2 -1</clus>
</clustering>
</event>
<event>
 6    0  0.8991567E+002  0.1097922E+03  0.7546771E-02  0.1260955E+00
         21   -1    0    0  506  501  0.00000000000E+00  0.00000000000E+00  0.14226140134E+03  0.14226140134E+03  0.00000000000E+00 0.  1.
         21   -1    0    0  505  502 -0.00000000000E+00 -0.00000000000E+00 -0.54729380270E+03  0.54729380270E+03  0.00000000000E+00 0. -1.
         21    1    1    2  503  504  0.69708923226E+02 -0.38281299761E+02 -0.16951246424E+03  0.18724120118E+03  0.00000000000E+00 0.  1.
         21    1    1    2  504  502  0.19714129428E+02 -0.53457027406E+02 -0.11683817177E+03  0.12999022679E+03  0.00000000000E+00 0.  1.
         21    1    1    2  505  501 -0.37286572381E+02  0.93800871982E+01 -0.22489792198E+03  0.22816079818E+03  0.00000000000E+00 0. -1.
         21    1    1    2  506  503 -0.52136480273E+02  0.82358239968E+02  0.10621615663E+03  0.14416297789E+03  0.00000000000E+00 0.  1.
<scales pt_clust_3="43.46556" pt_clust_4="43.46556" pt_clust_5="38.44834" pt_clust_6="99.13441"></scales>
<clustering>
<clus scale="   38.448">  2  5  1 -1</clus>
<clus scale="   43.466">  3  4 -1 -1</clus>
<clus scale="   99.134">  1  6  2 -1</clus>
<clus scale="   99.134">  1  3  2 -1</clus>
</clustering>
</event>
<event>
 6    0  0.8991567E+002  0.1376172E+03  0.7546771E-02  0.1216572E+00
         21   -1    0    0  506  501  0.00000000000E+00  0.00000000000E+00  0.11599724872E+04  0.11599724872E+04  0.00000000000E+00 0.  1.
         21   -1    0    0  505  502 -0.00000000000E+00 -0.00000000000E+00 -0.25299567170E+02  0.25299567170E+02  0.00000000000E+00 0.  1.
         21    1    1    2  503  502 -0.71467618253E+02  0.84252465229E+02  0.28650204668E+03  0.30706598820E+03  0.00000000000E+00 0.  1.
         21    1    1    2  504  501  0.81835178487E+02 -0.61620116361E+02  0.35542644917E+03  0.36989457410E+03  0.00000000000E+00 0.  1.
         21    1    1    2  505  504  0.24582778596E+02 -0.42716767688E+02  0.82565745326E+02  0.96156838272E+02  0.00000000000E+00 0.  1.
         21    1    1    2  506  503 -0.34950338829E+02  0.20084418821E+02  0.41017867884E+03  0.41215465379E+03  0.00000000000E+00 0.  1.
<scales pt_clust_3="125.62918" pt_clust_4="38.96519" pt_clust_5="38.96519" pt_clust_6="40.31017"></scales>
<clustering>
<clus scale="   38.965">  4  5 -1 -1</clus>
<clus scale="   40.310">  1  6  2 -1</clus>
<clus scale="  125.629">  2  3  1 -1</clus>
<clus scale="   40.310">  1  3  2 -1</clus>
</clustering>
</event>
<event>
 6    0  0.8991567E+002  0.1062078E+03  0.7546771E-02  0.1267758E+00
         21   -1    0    0  506  501  0.00000000000E+00  0.00000000000E+00  0.30100407533E+03  0.30100407533E+03  0.00000000000E+00 0.  1.
         21   -1    0    0  503  502 -0.00000000000E+00 -0.00000000000E+00 -0.28339845757E+03  0.28339845757E+03  0.00000000000E+00 0. -1.
         21    1    1    2  503  504  0.17034804452E+02 -0.42418145429E+02 -0.88109586935E+02  0.99261185437E+02  0.00000000000E+00 0.  1.
         21    1    1    2  504  501  0.90162305133E+02  0.42928814872E+02  0.18614371692E+03  0.21123827248E+03  0.00000000000E+00 0.  1.
         21    1    1    2  505  502 -0.94178034592E+02 -0.34765259428E+02 -0.15852367145E+03  0.18763762915E+03  0.00000000000E+00 0. -1.
         21    1    1    2  506  505 -0.13019074993E+02  0.34254589985E+02  0.78095159230E+02  0.86265445827E+02  0.00000000000E+00 0.  1.
<scales pt_clust_3="44.77729" pt_clust_4="106.20784" pt_clust_5="14000.00000" pt_clust_6="36.64524"></scales>
<clustering>
<clus scale="   36.645">  1  6  2 -1</clus>
<clus scale="   44.777">  2  3  1 -1</clus>
<clus scale="  106.208">  1  4  2 -1</clus>
<clus scale="   36.645">  1  3  2 -1</clus>
</clustering>
</event>
<event>
 6    0  0.8991567E+002  0.1280146E+03  0.7546771E-02  0.1230432E+00
         21   -1    0    0  505  501  0.00000000000E+00  0.00000000000E+00  0.58592071953E+03  0.58592071953E+03  0.00000000000E+00 0.  1.
         21   -1    0    0  504  502 -0.00000000000E+00 -0.00000000000E+00 -0.22699649864E+03  0.22699649864E+03  0.00000000000E+00 0. -1.
         21    1    1    2  503  501  0.40178551118E+02  0.67954761939E+02  0.36888120830E+03  0.37723402746E+03  0.00000000000E+00 0.  1.
         21    1    1    2  504  503 -0.12365989317E+03 -0.48869258475E+02 -0.17312057686E+03  0.21829042062E+03  0.00000000000E+00 0. -1.
         21    1    1    2  505  506  0.69548727305E+02  0.78450815120E+01  0.17209557675E+03  0.18578336393E+03  0.00000000000E+00 0.  1.
         21    1    1    2  506  502  0.13932614743E+02 -0.26930584976E+02 -0.89319872951E+01  0.31609406159E+02  0.00000000000E+00 0. -1.
<scales pt_clust_3="128.01460" pt_clust_4="14000.00000" pt_clust_5="70.35445" pt_clust_6="30.32118"></scales>
<clustering>
<clus scale="   30.321">  2  6  1 -1</clus>
<clus scale="   70.354">  1  5  2 -1</clus>
<clus scale="  128.015">  1  3  2 -1</clus>
<clus scale="   70.354">  1  3  2 -1</clus>
</clustering>
</event>
<event>
 6    0  0.8991567E+002  0.7052724E+02  0.7546771E-02  0.1358309E+00
         21   -1    0    0  505  501  0.00000000000E+00  0.00000000000E+00  0.18623084275E+02  0.18623084275E+02  0.00000000000E+00 0. -1.
         21   -1    0    0  506  502 -0.00000000000E+00 -0.00000000000E+00 -0.14347051230E+04  0.14347051230E+04  0.00000000000E+00 0.  1.
         21    1    1    2  503  504  0.95098969867E+02  0.96520659447E+01 -0.33857682342E+03  0.35181137247E+03  0.00000000000E+00 0. -1.
         21    1    1    2  504  502 -0.64353296807E+02  0.17399770146E+02 -0.87189092513E+03  0.87443575186E+03  0.00000000000E+00 0.  1.
         21    1    1    2  505  503 -0.14872103501E+02 -0.57974513041E+02 -0.10818952407E+03  0.12364140384E+03  0.00000000000E+00 0. -1.
         21    1    1    2  506  501 -0.15873569559E+02  0.30922676950E+02 -0.97424766060E+02  0.10343967905E+03  0.00000000000E+00 0.  1.
<scales pt_clust_3="70.52724" pt_clust_4="14000.00000" pt_clust_5="48.34912" pt_clust_6="34.75891"></scales>
<clustering>
<clus scale="   34.759">  1  6  2 -1</clus>
<clus scale="   48.349">  1  5  2 -1</clus>
<clus scale="   70.527">  1  3  2 -1</clus>
<clus scale="   34.759">  1  3  2 -1</clus>
</clustering>
</event>
<event>
 6    0  0.8991567E+002  0.9795969E+02  0.7546771E-02  0.1284646E+00
         21   -1    0    0  505  501  0.00000000000E+00  0.00000000000E+00  0.67697871367E+02  0.67697871367E+02  0.00000000000E+00 0. -1.
         21   -1    0    0  506  502 -0.00000000000E+00 -0.00000000000E+00 -0.11490047237E+04  0.11490047237E+04  0.00000000000E+00 0. -1.
         21    1    1    2  503  504 -0.94530708417E+02  0.31107930328E+02 -0.25578593045E+03  0.27446347731E+03  0.00000000000E+00 0. -1.
         21    1    1    2  504  502  0.58410482251E+01  0.31269519547E+02 -0.80434822124E+03  0.80497699452E+03  0.00000000000E+00 0. -1.
         21    1    1    2  505  503  0.71149221587E+01 -0.52709294498E+02 -0.39759388925E+01  0.53335728493E+02  0.00000000000E+00 0. -1.
         21    1    1    2  506  501  0.81574738034E+02 -0.96681553773E+01 -0.17196761711E+02  0.83926394698E+02  0.00000000000E+00 0. -1.
<scales pt_clust_3="97.95969" pt_clust_4="31.81039" pt_clust_5="50.68031" pt_clust_6="14000.00000"></scales>
<clustering>
<clus scale="   31.810">  2  4  1 -1</clus>
<clus scale="   50.680">  1  5  2 -1</clus>
<clus scale="   97.960">  2  3  1 -1</clus>
<clus scale="   50.680">  1  3  2 -1</clus>
</clustering>
</event>
<event>
 6    0  0.8991567E+002  0.7329313E+02  0.7546771E-02  0.1349240E+00
         21   -1    0    0  506  501  0.00000000000E+00  0.00000000000E+00  0.29096811345E+02  0.29096811345E+02  0.00000000000E+00 0. -1.
         21   -1    0    0  503  502 -0.00000000000E+00 -0.00000000000E+00 -0.67835001928E+03  0.67835001928E+03  0.00000000000E+00 0. -1.
         21    1    1    2  503  504  0.45142648122E+02 -0.44045190233E+02 -0.24909448442E+03  0.25695505371E+03  0.00000000000E+00 0. -1.
         21    1    1    2  504  505 -0.22071015181E+02  0.10773696117E+03 -0.30082247751E+03  0.32029446684E+03  0.00000000000E+00 0. -1.
         21    1    1    2  505  501 -0.31477022069E+02 -0.15768832092E+02 -0.36303527302E+02  0.50570792741E+02  0.00000000000E+00 0.  1.
         21    1    1    2  506  502  0.84053891283E+01 -0.47922938850E+02 -0.63032718705E+02  0.79626517328E+02  0.00000000000E+00 0. -1.
<scales pt_clust_3="14000.00000" pt_clust_4="73.29313" pt_clust_5="35.20595" pt_clust_6="53.99246"></scales>
<clustering>
<clus scale="   35.206">  1  5  2 -1</clus>
<clus scale="   53.992">  1  6  2 -1</clus>
<clus scale="   73.293">  1  4  2 -1</clus>
<clus scale="   35.206">  1  3  2 -1</clus>
</clustering>
</event>
<event>
 6    0  0.8991567E+002  0.8660359E+02  0.7546771E-02  0.1311291E+00
         21   -1    0    0  502  501  0.00000000000E+00  0.00000000000E+00  0.74020837019E+03  0.74020837019E+03  0.00000000000E+00 0. -1.
         21   -1    0    0  503  502 -0.00000000000E+00 -0.00000000000E+00 -0.15313471558E+03  0.15313471558E+03  0.00000000000E+00 0. -1.
         21    1    1    2  503  506  0.43595308999E+02  0.76562961199E+02 -0.11701913825E+03  0.14647838308E+03  0.00000000000E+00 0. -1.
         21    1    1    2  504  501 -0.21716613713E+02  0.45331742843E+02  0.48289922477E+03  0.48550822805E+03  0.00000000000E+00 0. -1.
         21    1    1    2  505  504 -0.17343196559E+01 -0.55456327417E+02  0.43249110173E+02  0.70348401873E+02  0.00000000000E+00 0. -1.
         21    1    1    2  506  505 -0.20144375630E+02 -0.66438376624E+02  0.17794445791E+03  0.19100807276E+03  0.00000000000E+00 0. -1.
<scales pt_clust_3="86.60359" pt_clust_4="50.26508" pt_clust_5="45.86918" pt_clust_6="14000.00000"></scales>
<clustering>
<clus scale="   50.265">  1  4  2 -1</clus>
<clus scale="   45.869">  1  5  2 -1</clus>
<clus scale="   86.604">  2  3  1 -1</clus>
<clus scale="   50.265">  1  3  2 -1</clus>
</clustering>
</event>
<event>
 6    0  0.8991567E+002  0.1192823E+03  0.7546771E-02  0.1244286E+00
         21   -1    0    0  504  501  0.00000000000E+00  0.00000000000E+00  0.21829901206E+03  0.21829901206E+03  0.00000000000E+00 0. -1.
         21   -1    0    0  501  502 -0.00000000000E+00 -0.00000000000E+00 -0.14750023987E+04  0.14750023987E+04  0.00000000000E+00 0. -1.
         21    1    1    2  503  506 -0.11845303477E+03 -0.12156048123E+03 -0.11271562125E+03  0.20374710628E+03  0.00000000000E+00 0. -1.
         21    1    1    2  504  503  0.21315262277E+02  0.10753912999E+03  0.13871320153E+03  0.17680598735E+03  0.00000000000E+00 0. -1.
         21    1    1    2  505  502 -0.26524940743E+02 -0.36961872870E+02 -0.98873620555E+03  0.98978231783E+03  0.00000000000E+00 0. -1.
         21    1    1    2  506  505  0.12366271323E+03  0.50983224115E+02 -0.29396476135E+03  0.32296599930E+03  0.00000000000E+00 0. -1.
<scales pt_clust_3="14000.00000" pt_clust_4="108.00988" pt_clust_5="45.49453" pt_clust_6="119.28233"></scales>
<clustering>
<clus scale="   45.495">  2  5  1 -1</clus>
<clus scale="  108.010">  1  4  2 -1</clus>
<clus scale="  119.282">  2  6  1 -1</clus>
<clus scale="  108.010">  1  3  2 -1</clus>
</clustering>
</event>
<event>
 6    0  0.8991567E+002  0.9910580E+02  0.7546771E-02  0.1282188E+00
         21   -1    0    0  504  501  0.00000000000E+00  0.00000000000E+00  0.17408799920E+03  0.17408799920E+03  0.00000000000E+00 0. -1.
         21   -1    0    0  506  502 -0.00000000000E+00 -0.00000000000E+00 -0.17699101953E+04  0.17699101953E+04  0.00000000000E+00 0. -1.
         21    1    1    2  503  502 -0.84068581485E+02 -0.19208008870E+02 -0.48062143090E+03  0.48829646101E+03  0.00000000000E+00 0. -1.
         21    1    1    2  504  505 -0.34977895899E+02 -0.70092130054E+01  0.95595990084E+02  0.10203516839E+03  0.00000000000E+00 0. -1.
         21    1    1    2  505  503  0.50995631822E+02 -0.90733131987E+02  0.27776296894E+02  0.10772454861E+03  0.00000000000E+00 0. -1.
         21    1    1    2  506  501  0.68050845562E+02  0.11695035386E+03 -0.12385730521E+04  0.12459420164E+04  0.00000000000E+00 0. -1.
<scales pt_clust_3="88.05303" pt_clust_4="35.67327" pt_clust_5="99.10580" pt_clust_6="14000.00000"></scales>
<clustering>
<clus scale="   35.673">  1  4  2 -1</clus>
<clus scale="   88.053">  2  3  1 -1</clus>
<clus scale="   99.106">  1  5  2 -1</clus>
<clus scale="   35.673">  1  3  2 -1</clus>
</clustering>
</event>
<event>
 6    0  0.8991567E+002  0.9183771E+02  0.7546771E-02  0.1298461E+00
         21   -1    0    0  503  501  0.00000000000E+00  0.00000000000E+00  0.20090788219E+03  0.20090788219E+03  0.00000000000E+00 0.  1.
         21   -1    0    0  504  502 -0.00000000000E+00 -0.00000000000E+00 -0.43937498077E+03  0.43937498077E+03  0.00000000000E+00 0.  1.
         21    1    1    2  503  505 -0.70571709835E+02  0.43664766534E+02 -0.25101437721E+02  0.86700981777E+02  0.00000000000E+00 0.  1.
         21    1    1    2  504  506 -0.12099054797E+02  0.37413973337E+02 -0.85251333707E+02  0.93882812201E+02  0.00000000000E+00 0.  1.
         21    1    1    2  505  502  0.59110925784E+02  0.15802986614E+02 -0.27524689826E+03  0.28196576199E+03  0.00000000000E+00 0.  1.
         21    1    1    2  506  501  0.23559838848E+02 -0.96881726486E+02  0.14713257111E+03  0.17773330699E+03  0.00000000000E+00 0.  1.
<scales pt_clust_3="91.83771" pt_clust_4="39.32165" pt_clust_5="67.28472" pt_clust_6="14000.00000"></scales>
<clustering>
<clus scale="   39.322">  2  4  1 -1</clus>
<clus scale="   67.285">  2  5  1 -1</clus>
<clus scale="   91.838">  2  3  1 -1</clus>
<clus scale="   91.838">  1  3  2 -1</clus>
</clustering>
</event>
<event>
 6    0  0.8991567E+002  0.8348958E+02  0.7546771E-02  0.1319430E+00
         21   -1    0    0  503  501  0.00000000000E+00  0.00000000000E+00  0.19256938788E+03  0.19256938788E+03  0.00000000000E+00 0.  1.
         21   -1    0    0  504  502 -0.00000000000E+00 -0.00000000000E+00 -0.93897632261E+03  0.93897632261E+03  0.00000000000E+00 0.  1.
         21    1    1    2  503  506 -0.15342737538E+02 -0.28082611298E+02  0.14453681708E+03  0.14803690130E+03  0.00000000000E+00 0.  1.
         21    1    1    2  504  501 -0.16911921008E+02 -0.10998903256E+03 -0.75142765252E+03  0.75962301001E+03  0.00000000000E+00 0.  1.
         21    1    1    2  505  502 -0.54960406688E+01  0.36624353313E+02 -0.10331006961E+03  0.10974752937E+03  0.00000000000E+00 0. -1.
         21    1    1    2  506  505  0.37750699214E+02  0.10144729055E+03 -0.36206029682E+02  0.11413826981E+03  0.00000000000E+00 0.  1.
<scales pt_clust_3="32.00051" pt_clust_4="83.48958" pt_clust_5="35.28705" pt_clust_6="14000.00000"></scales>
<clustering>
<clus scale="   32.001">  1  3  2 -1</clus>
<clus scale="   35.287">  2  5  1 -1</clus>
<clus scale="   83.490">  2  4  1 -1</clus>
<clus scale="   32.001">  1  3  2 -1</clus>
</clustering>
</event>
<event>
 6    0  0.8991567E+002  0.2373386E+03  0.7546771E-02  0.1121579E+00
         21   -1    0    0  503  501  0.00000000000E+00  0.00000000000E+00  0.92240067698E+02  0.92240067698E+02  0.00000000000E+00 0.  1.
         21   -1    0    0  504  502 -0.00000000000E+00 -0.00000000000E+00 -0.15035515254E+04  0.15035515254E+04  0.00000000000E+00 0. -1.
         21    1    1    2  503  502  0.53203497316E+02 -0.41773938744E+02  0.84923385564E+01  0.68174730648E+02  0.00000000000E+00 0.  1.
         21    1    1    2  504  505 -0.33310464759E+02 -0.54443150333E+02 -0.21511519837E+03  0.22438402851E+03  0.00000000000E+00 0.  1.
         21    1    1    2  505  506 -0.15020382457E+03 -0.82353409521E+02 -0.95288926530E+03  0.96816384197E+03  0.00000000000E+00 0. -1.
         21    1    1    2  506  501  0.13031079202E+03  0.17857049860E+03 -0.25179933258E+03  0.33506899196E+03  0.00000000000E+00 0.  1.
<scales pt_clust_3="67.64373" pt_clust_4="45.45455" pt_clust_5="45.45455" pt_clust_6="225.35394"></scales>
<clustering>
<clus scale="   45.455">  4  5 -1 -1</clus>
<clus scale="   67.644">  1  3  2 -1</clus>
<clus scale="  225.354">  1  6  2 -1</clus>
<clus scale="   67.644">  1  3  2 -1</clus>
</clustering>
</event>
<event>
 6    0  0.8991567E+002  0.7521798E+02  0.7546771E-02  0.1343197E+00
         21   -1    0    0  504  501  0.00000000000E+00  0.00000000000E+00  0.31944650227E+03  0.31944650227E+03  0.00000000000E+00 0.  1.
         21   -1    0    0  503  502 -0.00000000000E+00 -0.00000000000E+00 -0.78453092672E+03  0.78453092672E+03  0.00000000000E+00 0.  1.
         21    1    1    2  503  505 -0.90158829337E+02  0.91917372768E+02 -0.19186529055E+03  0.23106212940E+03  0.00000000000E+00 0.  1.
         21    1    1    2  504  506  0.56688134050E+02 -0.45659107346E+02  0.72837865884E+02  0.10297404203E+03  0.00000000000E+00 0.  1.
         21    1    1    2  505  501 -0.28058852033E+02 -0.20817539250E+02  0.20849725736E+03  0.21140429382E+03  0.00000000000E+00 0.  1.
         21    1    1    2  506  502  0.61529547320E+02 -0.25440726171E+02 -0.55455425715E+03  0.55853696374E+03  0.00000000000E+00 0.  1.
<scales pt_clust_3="75.21798" pt_clust_4="14000.00000" pt_clust_5="34.93808" pt_clust_6="66.25698"></scales>
<clustering>
<clus scale="   34.938">  1  5  2 -1</clus>
<clus scale="   66.257">  2  6  1 -1</clus>
<clus scale="   75.218">  2  3  1 -1</clus>
<clus scale="   34.938">  1  3  2 -1</clus>
</clustering>
</event>
<event>
 6    0  0.8991567E+002  0.1539786E+03  0.7546771E-02  0.1195668E+00
         21   -1    0    0  503  501  0.00000000000E+00  0.00000000000E+00  0.87948944732E+02  0.87948944732E+02  0.00000000000E+00 0. -1.
         21   -1    0    0  505  502 -0.00000000000E+00 -0.00000000000E+00 -0.50461919663E+03  0.50461919663E+03  0.00000000000E+00 0. -1.
         21    1    1    2  503  502 -0.22063884389E+02  0.39037688920E+02  0.14590369583E+02  0.47155434841E+02  0.00000000000E+00 0. -1.
         21    1    1    2  504  501  0.50381196334E+02  0.21584147909E+01 -0.10815539771E+02  0.51574214478E+02  0.00000000000E+00 0. -1.
         21    1    1    2  505  506 -0.12438718861E+03 -0.73643699372E+02 -0.31987993633E+03  0.35102527091E+03  0.00000000000E+00 0. -1.
         21    1    1    2  506  504  0.96069876665E+02  0.32447595662E+02 -0.10056514538E+03  0.14281322114E+03  0.00000000000E+00 0. -1.
<scales pt_clust_3="44.84146" pt_clust_4="36.88210" pt_clust_5="144.82433" pt_clust_6="36.88210"></scales>
<clustering>
<clus scale="   36.882">  4  6 -1 -1</clus>
<clus scale="   44.841">  1  3  2 -1</clus>
<clus scale="  144.824">  2  5  1 -1</clus>
<clus scale="   44.841">  1  3  2 -1</clus>
</clustering>
</event>
<event>
 6    0  0.8991567E+002  0.9520237E+02  0.7546771E-02  0.1290721E+00
         21   -1    0    0  504  501  0.00000000000E+00  0.00000000000E+00  0.12843516227E+03  0.12843516227E+03  0.00000000000E+00 0. -1.
         21   -1    0    0  503  502 -0.00000000000E+00 -0.00000000000E+00 -0.45284253858E+03  0.45284253858E+03  0.00000000000E+00 0. -1.
         21    1    1    2  503  506 -0.23234504525E+02 -0.25757685755E+02 -0.18414886220E+03  0.18738757703E+03  0.00000000000E+00 0. -1.
         21    1    1    2  504  502 -0.50402472956E+02  0.10109112025E+03  0.49497585080E+02  0.12332815900E+03  0.00000000000E+00 0. -1.
         21    1    1    2  505  501  0.34955044327E+01 -0.77821448367E+02 -0.11192200182E+02  0.78699820343E+02  0.00000000000E+00 0. -1.
         21    1    1    2  506  505  0.70141473049E+02  0.24880138673E+01 -0.17856389900E+03  0.19186214447E+03  0.00000000000E+00 0. -1.
<scales pt_clust_3="34.68862" pt_clust_4="95.20237" pt_clust_5="14000.00000" pt_clust_6="56.17357"></scales>
<clustering>
<clus scale="   34.689">  2  3  1 -1</clus>
<clus scale="   56.174">  2  6  1 -1</clus>
<clus scale="   95.202">  1  4  2 -1</clus>
<clus scale="   95.202">  1  3  2 -1</clus>
</clustering>
</event>
<event>
 6    0  0.8991567E+002  0.1414115E+03  0.7546771E-02  0.1211442E+00
         21   -1    0    0  504  501  0.00000000000E+00  0.00000000000E+00  0.67270881466E+03  0.67270881466E+03  0.00000000000E+00 0. -1.
         21   -1    0    0  506  502 -0.00000000000E+00 -0.00000000000E+00 -0.88610498103E+03  0.88610498103E+03  0.00000000000E+00 0.  1.
         21    1    1    2  503  501 -0.12105403322E+03  0.28379723425E+02  0.38199194495E+03  0.40171797778E+03  0.00000000000E+00 0. -1.
         21    1    1    2  504  505 -0.73651763012E+01  0.33128468934E+02  0.23968143273E+03  0.24207215964E+03  0.00000000000E+00 0. -1.
         21    1    1    2  505  502  0.17337314329E+03  0.69210103545E+01 -0.16326028790E+03  0.23824371724E+03  0.00000000000E+00 0.  1.
         21    1    1    2  506  503 -0.44953933760E+02 -0.68429202714E+02 -0.67180925616E+03  0.67677994104E+03  0.00000000000E+00 0.  1.
<scales pt_clust_3="14000.00000" pt_clust_4="33.93731" pt_clust_5="141.41149" pt_clust_6="81.73841"></scales>
<clustering>
<clus scale="   33.937">  1  4  2 -1</clus>
<clus scale="   81.738">  2  6  1 -1</clus>
<clus scale="  141.411">  2  5  1 -1</clus>
<clus scale="   33.937">  1  3  2 -1</clus>
</clustering>
</event>
<event>
 6    0  0.8991567E+002  0.1417120E+03  0.7546771E-02  0.1211044E+00
         21   -1    0    0  502  501  0.00000000000E+00  0.00000000000E+00  0.16613418321E+03  0.16613418321E+03  0.00000000000E+00 0. -1.
         21   -1    0    0  503  502 -0.00000000000E+00 -0.00000000000E+00 -0.67604616812E+03  0.67604616812E+03  0.00000000000E+00 0. -1.
         21    1    1    2  503  504 -0.18204664645E+02 -0.28086039498E+02 -0.14479695286E+03  0.14861491509E+03  0.00000000000E+00 0.  1.
         21    1    1    2  504  505  0.29157371938E+02 -0.45500187593E+02 -0.33602296942E+03  0.34034079301E+03  0.00000000000E+00 0. -1.
         21    1    1    2  505  506  0.40988042131E+02 -0.47862013565E+02 -0.15711170098E+03  0.16927751926E+03  0.00000000000E+00 0. -1.
         21    1    1    2  506  501 -0.51940749424E+02  0.12144824066E+03  0.12801963836E+03  0.18394712397E+03  0.00000000000E+00 0. -1.
<scales pt_clust_3="33.46992" pt_clust_4="53.43129" pt_clust_5="53.43129" pt_clust_6="131.11124"></scales>
<clustering>
<clus scale="   33.470">  2  3  1 -1</clus>
<clus scale="   53.431">  4  5 -1 -1</clus>
<clus scale="  131.111">  1  6  2 -1</clus>
<clus scale="  131.111">  1  3  2 -1</clus>
</clustering>
</event>
<event>
 6    0  0.8991567E+002  0.7713776E+02  0.7546771E-02  0.1337376E+00
         21   -1    0    0  504  501  0.00000000000E+00  0.00000000000E+00  0.21894910998E+04  0.21894910998E+04  0.00000000000E+00 0. -1.
         21   -1    0    0  506  502 -0.00000000000E+00 -0.00000000000E+00 -0.23651705365E+03  0.23651705365E+03  0.00000000000E+00 0.  1.
         21    1    1    2  503  502  0.28444522984E+02 -0.71415562953E+02 -0.13612912862E+03  0.15633429943E+03  0.00000000000E+00 0.  1.
         21    1    1    2  504  503  0.47083678473E+01  0.97205987799E+02  0.19691808462E+04  0.19715842305E+04  0.00000000000E+00 0. -1.
         21    1    1    2  505  501  0.45693318235E+02 -0.38428836835E+02  0.18543009127E+03  0.19480496292E+03  0.00000000000E+00 0.  1.
         21    1    1    2  506  505 -0.78846209066E+02  0.12638411989E+02 -0.65507762705E+02  0.10328466061E+03  0.00000000000E+00 0.  1.
<scales pt_clust_3="77.13776" pt_clust_4="75.19083" pt_clust_5="59.70473" pt_clust_6="14000.00000"></scales>
<clustering>
<clus scale="   59.705">  1  5  2 -1</clus>
<clus scale="   77.138">  2  3  1 -1</clus>
<clus scale="   75.191">  1  4  2 -1</clus>
<clus scale="   59.705">  1  3  2 -1</clus>
</clustering>
</event>
<event>
 6    0  0.8991567E+002  0.7020405E+02  0.7546771E-02  0.1359401E+00
         21   -1    0    0  506  501  0.00000000000E+00  0.00000000000E+00  0.27546860326E+03  0.27546860326E+03  0.00000000000E+00 0.  1.
         21   -1    0    0  503  502 -0.00000000000E+00 -0.00000000000E+00 -0.62263572410E+03  0.62263572410E+03  0.00000000000E+00 0. -1.
         21    1    1    2  503  501 -0.30479767397E+02 -0.61336914038E+02  0.22071428843E+03  0.23109744776E+03  0.00000000000E+00 0.  1.
         21    1    1    2  504  505  0.65976262481E+02 -0.30544391177E+01 -0.28757528118E+03  0.29506226318E+03  0.00000000000E+00 0. -1.
         21    1    1    2  505  502 -0.27837477802E+02 -0.38498109818E+02 -0.26308866610E+03  0.26734374102E+03  0.00000000000E+00 0. -1.
         21    1    1    2  506  504 -0.76590172821E+01  0.10288946297E+03 -0.17217461988E+02  0.10460087540E+03  0.00000000000E+00 0. -1.
<scales pt_clust_3="70.20405" pt_clust_4="55.31166" pt_clust_5="47.50821" pt_clust_6="14000.00000"></scales>
<clustering>
<clus scale="   47.508">  2  5  1 -1</clus>
<clus scale="   55.312">  2  4  1 -1</clus>
<clus scale="   70.204">  1  3  2 -1</clus>
<clus scale="   70.204">  1  3  2 -1</clus>
</clustering>
</event>
<event>
 6    0  0.8991567E+002  0.1434803E+03  0.7546771E-02  0.1208721E+00
         21   -1    0    0  506  501  0.00000000000E+00  0.00000000000E+00  0.47226729604E+03  0.47226729604E+03  0.00000000000E+00 0. -1.
         21   -1    0    0  505  502 -0.00000000000E+00 -0.00000000000E+00 -0.15939026658E+03  0.15939026658E+03  0.00000000000E+00 0. -1.
         21    1    1    2  503  501 -0.28887240867E+02  0.64040584647E+02  0.45853075241E+02  0.83893823824E+02  0.00000000000E+00 0. -1.
         21    1    1    2  504  502 -0.77395911133E+01 -0.14009658871E+03 -0.39247428282E+02  0.14569597134E+03  0.00000000000E+00 0. -1.
         21    1    1    2  505  503  0.74574180480E+02  0.15285658648E+03  0.23801119514E+03  0.29253337150E+03  0.00000000000E+00 0. -1.
         21    1    1    2  506  504 -0.37947348500E+02 -0.76800582422E+02  0.68260187366E+02  0.10953439596E+03  0.00000000000E+00 0. -1.
<scales pt_clust_3="70.25432" pt_clust_4="14000.00000" pt_clust_5="143.48029" pt_clust_6="76.84582"></scales>
<clustering>
<clus scale="   70.254">  1  3  2 -1</clus>
<clus scale="   76.846">  1  6  2 -1</clus>
<clus scale="  143.480">  1  5  2 -1</clus>
<clus scale="   70.254">  1  3  2 -1</clus>
</clustering>
</event>
<event>
 6    0  0.8991567E+002  0.9402005E+02  0.7546771E-02  0.1293399E+00
         21   -1    0    0  503  501  0.00000000000E+00  0.00000000000E+00  0.15536890899E+04  0.15536890899E+04  0.00000000000E+00 0. -1.
         21   -1    0    0  506  502 -0.00000000000E+00 -0.00000000000E+00 -0.33153418194E+03  0.33153418194E+03  0.00000000000E+00 0. -1.
         21    1    1    2  503  505  0.37423860026E+02  0.18376555198E+02  0.13871167643E+04  0.13877431899E+04  0.00000000000E+00 0. -1.
         21    1    1    2  504  502  0.96534466373E+02 -0.31002218260E+02 -0.58258643991E+01  0.10155777386E+03  0.00000000000E+00 0. -1.
         21    1    1    2  505  504 -0.40366554740E+02  0.16635254752E+02  0.10604520624E+03  0.11468119379E+03  0.00000000000E+00 0. -1.
         21    1    1    2  506  501 -0.93591771658E+02 -0.40095916904E+01 -0.26518119818E+03  0.28124111437E+03  0.00000000000E+00 0. -1.
<scales pt_clust_3="41.69224" pt_clust_4="14000.00000" pt_clust_5="32.74737" pt_clust_6="94.02005"></scales>
<clustering>
<clus scale="   41.692">  1  3  2 -1</clus>
<clus scale="   32.747">  1  5  2 -1</clus>
<clus scale="   94.020">  2  6  1 -1</clus>
<clus scale="   41.692">  1  3  2 -1</clus>
</clustering>
</event>
<event>
 6    0  0.8991567E+002  0.1232874E+03  0.7546771E-02  0.1237770E+00
         21   -1    0    0  502  501  0.00000000000E+00  0.00000000000E+00  0.47838454524E+03  0.47838454524E+03  0.00000000000E+00 0.  1.
         21   -1    0    0  505  502 -0.00000000000E+00 -0.00000000000E+00 -0.30475135774E+03  0.30475135774E+03  0.00000000000E+00 0.  1.
         21    1    1    2  503  504 -0.69054044160E+02  0.10716840802E+03 -0.14987839304E+03  0.19676651492E+03  0.00000000000E+00 0.  1.
         21    1    1    2  504  506  0.49350495760E+02 -0.83828796194E+02  0.19915364040E+03  0.22164140179E+03  0.00000000000E+00 0.  1.
         21    1    1    2  505  503  0.37299245264E+02  0.16455847598E+02 -0.11470660620E+03  0.12173591961E+03  0.00000000000E+00 0.  1.
         21    1    1    2  506  501 -0.17595696864E+02 -0.39795459428E+02  0.23906454634E+03  0.24299206666E+03  0.00000000000E+00 0.  1.
<scales pt_clust_3="14000.00000" pt_clust_4="123.28738" pt_clust_5="40.76799" pt_clust_6="43.19564"></scales>
<clustering>
<clus scale="   40.768">  2  5  1 -1</clus>
<clus scale="   43.196">  1  6  2 -1</clus>
<clus scale="  123.287">  1  4  2 -1</clus>
<clus scale="   43.196">  1  3  2 -1</clus>
</clustering>
</event>
<event>
 6    0  0.8991567E+002  0.9962738E+02  0.7546771E-02  0.1281081E+00
         21   -1    0    0  506  501  0.00000000000E+00  0.00000000000E+00  0.26402492400E+03  0.26402492400E+03  0.00000000000E+00 0.  1.
         21   -1    0    0  504  502 -0.00000000000E+00 -0.00000000000E+00 -0.20042238153E+03  0.20042238153E+03  0.00000000000E+00 0.  1.
         21    1    1    2  503  502  0.93587486981E+02 -0.19958373302E+02 -0.12566833048E+02  0.96513624309E+02  0.00000000000E+00 0.  1.
         21    1    1    2  504  505 -0.50451174559E+01  0.39866292472E+02 -0.10653383604E+03  0.11386058452E+03  0.00000000000E+00 0.  1.
         21    1    1    2  505  501  0.40424835637E+02  0.13065872662E+02  0.56055400989E+02  0.70335569556E+02  0.00000000000E+00 0.  1.
         21    1    1    2  506  503 -0.12896720516E+03 -0.32973791833E+02  0.12664781058E+03  0.18373752714E+03  0.00000000000E+00 0.  1.
<scales pt_clust_3="99.62738" pt_clust_4="40.18426" pt_clust_5="43.18750" pt_clust_6="14000.00000"></scales>
<clustering>
<clus scale="   40.184">  2  4  1 -1</clus>
<clus scale="   43.187">  1  5  2 -1</clus>
<clus scale="   99.627">  2  3  1 -1</clus>
<clus scale="   43.187">  1  3  2 -1</clus>
</clustering>
</event>
<event>
 6    0  0.8991567E+002  0.7258233E+02  0.7546771E-02  0.1351526E+00
         21   -1    0    0  506  501  0.00000000000E+00  0.00000000000E+00  0.21379947922E+03  0.21379947922E+03  0.00000000000E+00 0.  1.
         21   -1    0    0  504  502 -0.00000000000E+00 -0.00000000000E+00 -0.15596245223E+04  0.15596245223E+04  0.00000000000E+00 0.  1.
         21    1    1    2  503  505 -0.33038201176E+02 -0.67801685849E+02  0.23653624383E+02  0.79044830870E+02  0.00000000000E+00 0.  1.
         21    1    1    2  504  501 -0.23808842804E+02 -0.60787671149E+02 -0.91866220733E+03  0.92097896455E+03  0.00000000000E+00 0.  1.
         21    1    1    2  505  502  0.19906575614E+02  0.96896745502E+02 -0.60432122371E+03  0.61236377462E+03  0.00000000000E+00 0.  1.
         21    1    1    2  506  503  0.36940468366E+02  0.31692611495E+02  0.15350476358E+03  0.16103643149E+03  0.00000000000E+00 0.  1.
<scales pt_clust_3="39.01645" pt_clust_4="14000.00000" pt_clust_5="72.58233" pt_clust_6="48.67258"></scales>
<clustering>
<clus scale="   48.673">  1  6  2 -1</clus>
<clus scale="   39.016">  1  3  2 -1</clus>
<clus scale="   72.582">  1  5  2 -1</clus>
<clus scale="   48.673">  1  3  2 -1</clus>
</clustering>
</event>
<event>
 6    0  0.9982115E+002  0.9627280E+02  0.7546771E-02  0.1288335E+00
         21   -1    0    0  506  501  0.00000000000E+00  0.00000000000E+00  0.26412968204E+03  0.26412968204E+03  0.00000000000E+00 0.  1.
         21   -1    0    0  504  502 -0.00000000000E+00 -0.00000000000E+00 -0.83658319719E+03  0.83658319719E+03  0.00000000000E+00 0.  1.
         21    1    1    2  503  501 -0.27449733716E+02 -0.20177894532E+02 -0.90278295495E+01  0.35243964238E+02  0.00000000000E+00 0. -1.
         21    1    1    2  504  503 -0.61905530556E+02 -0.27828608310E+01 -0.71340966564E+03  0.71609593635E+03  0.00000000000E+00 0.  1.
         21    1    1    2  505  502 -0.35229054016E+02 -0.16500670634E+01 -0.79568861251E+02  0.87034548594E+02  0.00000000000E+00 0.  1.
         21    1    1    2  506  505  0.12458431829E+03  0.24610822427E+02  0.22955284128E+03  0.26233843005E+03  0.00000000000E+00 0.  1.
<scales pt_clust_3="34.06810" pt_clust_4="14000.00000" pt_clust_5="35.69057" pt_clust_6="96.27280"></scales>
<clustering>
<clus scale="   34.068">  1  3  2 -1</clus>
<clus scale="   35.691">  2  5  1 -1</clus>
<clus scale="   96.273">  1  6  2 -1</clus>
<clus scale="   34.068">  1  3  2 -1</clus>
</clustering>
</event>
<event>
 6    0  0.8991567E+002  0.1420486E+03  0.7546771E-02  0.1210599E+00
         21   -1    0    0  506  501  0.00000000000E+00  0.00000000000E+00  0.31562803161E+03  0.31562803161E+03  0.00000000000E+00 0. -1.
         21   -1    0    0  505  502 -0.00000000000E+00 -0.00000000000E+00 -0.37749565358E+03  0.37749565358E+03  0.00000000000E+00 0. -1.
         21    1    1    2  503  502  0.31473999409E+02  0.26823259086E+02 -0.19081825571E+03  0.19524780813E+03  0.00000000000E+00 0. -1.
         21    1    1    2  504  503  0.77284164493E+02  0.45235825864E+02 -0.15450839396E+03  0.17858321821E+03  0.00000000000E+00 0. -1.
         21    1    1    2  505  501 -0.30272252518E+02  0.96634241992E+01  0.85290105457E+02  0.91017542972E+02  0.00000000000E+00 0. -1.
         21    1    1    2  506  504 -0.78485911384E+02 -0.81722509150E+02  0.19816892224E+03  0.22827511588E+03  0.00000000000E+00 0. -1.
<scales pt_clust_3="40.25070" pt_clust_4="40.25070" pt_clust_5="31.77721" pt_clust_6="129.22659"></scales>
<clustering>
<clus scale="   31.777">  1  5  2 -1</clus>
<clus scale="   40.251">  3  4 -1 -1</clus>
<clus scale="  129.227">  1  6  2 -1</clus>
<clus scale="   31.777">  1  3  2 -1</clus>
</clustering>
</event>
<event>
 6    0  0.8991567E+002  0.8286905E+02  0.7546771E-02  0.1321101E+00
         21   -1    0    0  504  501  0.00000000000E+00  0.00000000000E+00  0.15063095958E+03  0.15063095958E+03  0.00000000000E+00 0.  1.
         21   -1    0    0  503  502 -0.00000000000E+00 -0.00000000000E+00 -0.17832554689E+04  0.17832554689E+04  0.00000000000E+00 0.  1.
         21    1    1    2  503  505 -0.19611460918E+02 -0.36298978078E+02 -0.66189111605E+02  0.77995023584E+02  0.00000000000E+00 0.  1.
         21    1    1    2  504  506 -0.62464977418E+01  0.43461678038E+02  0.86548129187E+02  0.97049033265E+02  0.00000000000E+00 0.  1.
         21    1    1    2  505  501  0.88893549705E+02 -0.40418061516E+02  0.64645347243E+01  0.97864565012E+02  0.00000000000E+00 0.  1.
         21    1    1    2  506  502 -0.63035591046E+02  0.33255361557E+02 -0.16594480616E+04  0.16609778066E+04  0.00000000000E+00 0.  1.
<scales pt_clust_3="41.25803" pt_clust_4="43.80665" pt_clust_5="14000.00000" pt_clust_6="82.86905"></scales>
<clustering>
<clus scale="   41.258">  2  3  1 -1</clus>
<clus scale="   43.807">  1  4  2 -1</clus>
<clus scale="   82.869">  2  6  1 -1</clus>
<clus scale="   43.807">  1  3  2 -1</clus>
</clustering>
</event>
<event>
 6    0  0.8991567E+002  0.1519657E+03  0.7546771E-02  0.1198078E+00
         21   -1    0    0  503  501  0.00000000000E+00  0.00000000000E+00  0.32262647125E+03  0.32262647125E+03  0.00000000000E+00 0. -1.
         21   -1    0    0  506  502 -0.00000000000E+00 -0.00000000000E+00 -0.23714100362E+03  0.23714100362E+03  0.00000000000E+00 0. -1.
         21    1    1    2  503  505 -0.63721005981E+02 -0.18192971010E+03  0.18897902558E+03  0.26994788039E+03  0.00000000000E+00 0. -1.
         21    1    1    2  504  501  0.79370194548E+02  0.66222892498E+02 -0.13697669412E+02  0.10427236173E+03  0.00000000000E+00 0. -1.
         21    1    1    2  505  502 -0.40752442230E+02  0.86601708318E+02 -0.90719400066E+01  0.96140093232E+02  0.00000000000E+00 0. -1.
         21    1    1    2  506  504  0.25103253663E+02  0.29105109279E+02 -0.80723948531E+02  0.89407139519E+02  0.00000000000E+00 0. -1.
<scales pt_clust_3="151.96565" pt_clust_4="14000.00000" pt_clust_5="101.85011" pt_clust_6="38.43541"></scales>
<clustering>
<clus scale="   38.435">  2  6  1 -1</clus>
<clus scale="  101.850">  2  5  1 -1</clus>
<clus scale="  151.966">  1  3  2 -1</clus>
<clus scale="  151.966">  1  3  2 -1</clus>
</clustering>
</event>
<event>
 6    0  0.8991567E+002  0.8008197E+02  0.7546771E-02  0.1328819E+00
         21   -1    0    0  506  501  0.00000000000E+00  0.00000000000E+00  0.23953141353E+03  0.23953141353E+03  0.00000000000E+00 0.  1.
         21   -1    0    0  504  502 -0.00000000000E+00 -0.00000000000E+00 -0.27877264624E+03  0.27877264624E+03  0.00000000000E+00 0.  1.
         21    1    1    2  503  505 -0.52381808256E+02 -0.69678937776E+02 -0.20450075157E+03  0.22230511825E+03  0.00000000000E+00 0.  1.
         21    1    1    2  504  501  0.51003694338E+02  0.12181899837E+03  0.14181148486E+03  0.19378271966E+03  0.00000000000E+00 0.  1.
         21    1    1    2  505  502  0.30537722080E+02 -0.34897693820E+00 -0.12226423715E+02  0.32896195701E+02  0.00000000000E+00 0.  1.
         21    1    1    2  506  503 -0.29159608162E+02 -0.51791083653E+02  0.35674457717E+02  0.69320026165E+02  0.00000000000E+00 0.  1.
<scales pt_clust_3="14000.00000" pt_clust_4="80.08197" pt_clust_5="30.53972" pt_clust_6="58.49836"></scales>
<clustering>
<clus scale="   30.540">  2  5  1 -1</clus>
<clus scale="   58.498">  1  6  2 -1</clus>
<clus scale="   80.082">  1  4  2 -1</clus>
<clus scale="   58.498">  1  3  2 -1</clus>
</clustering>
</event>
<event>
 6    0  0.8991567E+002  0.7483334E+02  0.7546771E-02  0.1344388E+00
         21   -1    0    0  503  501  0.00000000000E+00  0.00000000000E+00  0.17861932104E+04  0.17861932104E+04  0.00000000000E+00 0.  1.
         21   -1    0    0  504  502 -0.00000000000E+00 -0.00000000000E+00 -0.35756545444E+02  0.35756545444E+02  0.00000000000E+00 0.  1.
         21    1    1    2  503  505 -0.29620426069E+02  0.61408758514E+02  0.11456086360E+04  0.11476356356E+04  0.00000000000E+00 0.  1.
         21    1    1    2  504  506  0.17316247843E+02  0.25574414665E+02  0.96579355986E+00  0.30900418800E+02  0.00000000000E+00 0.  1.
         21    1    1    2  505  502 -0.68635906980E+02 -0.75600362660E+02  0.14509984269E+03  0.17742679310E+03  0.00000000000E+00 0.  1.
         21    1    1    2  506  501  0.80940085206E+02 -0.11382810518E+02  0.45876239273E+03  0.46598690835E+03  0.00000000000E+00 0.  1.
<scales pt_clust_3="68.94773" pt_clust_4="30.88532" pt_clust_5="74.83334" pt_clust_6="14000.00000"></scales>
<clustering>
<clus scale="   30.885">  2  4  1 -1</clus>
<clus scale="   68.948">  1  3  2 -1</clus>
<clus scale="   74.833">  2  5  1 -1</clus>
<clus scale="   68.948">  1  3  2 -1</clus>
</clustering>
</event>
<event>
 6    0  0.8991567E+002  0.1828542E+03  0.7546771E-02  0.1165069E+00
         21   -1    0    0  503  501  0.00000000000E+00  0.00000000000E+00  0.60930022760E+03  0.60930022760E+03  0.00000000000E+00 0. -1.
         21   -1    0    0  506  502 -0.00000000000E+00 -0.00000000000E+00 -0.29667731494E+03  0.29667731494E+03  0.00000000000E+00 0. -1.
         21    1    1    2  503  505 -0.17957834436E+03  0.43537923811E+02  0.51088093286E+03  0.54327089019E+03  0.00000000000E+00 0. -1.
         21    1    1    2  504  501 -0.31719303619E+01  0.30903888562E+02  0.28306258087E+02  0.42028034898E+02  0.00000000000E+00 0. -1.
         21    1    1    2  505  502  0.11111196383E+03 -0.64137402452E+02 -0.65385162451E+02  0.14399546648E+03  0.00000000000E+00 0. -1.
         21    1    1    2  506  504  0.71638310888E+02 -0.10304409922E+02 -0.16117911584E+03  0.17668315096E+03  0.00000000000E+00 0. -1.
<scales pt_clust_3="182.85420" pt_clust_4="31.06624" pt_clust_5="14000.00000" pt_clust_6="72.27495"></scales>
<clustering>
<clus scale="   31.066">  1  4  2 -1</clus>
<clus scale="   72.275">  2  6  1 -1</clus>
<clus scale="  182.854">  1  3  2 -1</clus>
<clus scale="   31.066">  1  3  2 -1</clus>
</clustering>
</event>
<event>
 6    0  0.8991567E+002  0.6975810E+02  0.7546771E-02  0.1360918E+00
         21   -1    0    0  506  501  0.00000000000E+00  0.00000000000E+00  0.95977099250E+03  0.95977099250E+03  0.00000000000E+00 0. -1.
         21   -1    0    0  503  502 -0.00000000000E+00 -0.00000000000E+00 -0.37704141187E+02  0.37704141187E+02  0.00000000000E+00 0. -1.
         21    1    1    2  503  505  0.49987370843E+02 -0.34527726292E+02  0.43917333037E+02  0.74964213247E+02  0.00000000000E+00 0. -1.
         21    1    1    2  504  501 -0.30666783375E+02 -0.30139249929E+02  0.29433274591E+03  0.29745687302E+03  0.00000000000E+00 0. -1.
         21    1    1    2  505  504  0.62969307256E+02  0.35035091981E+02  0.49566316195E+03  0.50087379792E+03  0.00000000000E+00 0. -1.
         21    1    1    2  506  502 -0.82289894724E+02  0.29631884240E+02  0.88153610404E+02  0.12418024949E+03  0.00000000000E+00 0. -1.
<scales pt_clust_3="69.75810" pt_clust_4="42.99798" pt_clust_5="41.83680" pt_clust_6="14000.00000"></scales>
<clustering>
<clus scale="   42.998">  1  4  2 -1</clus>
<clus scale="   41.837">  1  5  2 -1</clus>
<clus scale="   69.758">  2  3  1 -1</clus>
<clus scale="   42.998">  1  3  2 -1</clus>
</clustering>
</event>
<event>
 6    0  0.8991567E+002  0.1621344E+03  0.7546771E-02  0.1186308E+00
         21   -1    0    0  506  501  0.00000000000E+00  0.00000000000E+00  0.24140313984E+04  0.24140313984E+04  0.00000000000E+00 0. -1.
         21   -1    0    0  505  502 -0.00000000000E+00 -0.00000000000E+00 -0.58048542306E+02  0.58048542306E+02  0.00000000000E+00 0.  1.
         21    1    1    2  503  502 -0.12303160633E+03 -0.68980796967E+02  0.78341479203E+02  0.16134594469E+03  0.00000000000E+00 0.  1.
         21    1    1    2  504  503  0.14020915015E+03  0.89248418815E+02  0.14451690938E+04  0.14546950181E+04  0.00000000000E+00 0. -1.
         21    1    1    2  505  501  0.22110212699E+01 -0.43734795787E+02  0.30211948272E+02  0.53201342051E+02  0.00000000000E+00 0. -1.
         21    1    1    2  506  504 -0.19388565092E+02  0.23467173940E+02  0.80226033481E+03  0.80283763584E+03  0.00000000000E+00 0. -1.
<scales pt_clust_3="162.13441" pt_clust_4="14000.00000" pt_clust_5="43.16130" pt_clust_6="30.44051"></scales>
<clustering>
<clus scale="   30.441">  1  6  2 -1</clus>
<clus scale="   43.161">  2  5  1 -1</clus>
<clus scale="  162.134">  2  3  1 -1</clus>
<clus scale="   30.441">  1  3  2 -1</clus>
</clustering>
</event>
<event>
 6    0  0.8991567E+002  0.6517947E+02  0.7546771E-02  0.1377298E+00
         21   -1    0    0  503  501  0.00000000000E+00  0.00000000000E+00  0.95329597345E+02  0.95329597345E+02  0.00000000000E+00 0. -1.
         21   -1    0    0  504  502 -0.00000000000E+00 -0.00000000000E+00 -0.12817124073E+04  0.12817124073E+04  0.00000000000E+00 0.  1.
         21    1    1    2  503  502 -0.52914545910E+02  0.60779224563E+02 -0.84331963952E+02  0.11664451745E+03  0.00000000000E+00 0. -1.
         21    1    1    2  504  506  0.47669679094E+02 -0.43197290581E+02 -0.11214418389E+04  0.11232854500E+04  0.00000000000E+00 0.  1.
         21    1    1    2  505  501 -0.22325094288E+02  0.52663710065E+02  0.22790123974E+02  0.61573256724E+02  0.00000000000E+00 0. -1.
         21    1    1    2  506  505  0.27569961104E+02 -0.70245644047E+02 -0.33991311103E+01  0.75538780472E+02  0.00000000000E+00 0. -1.
<scales pt_clust_3="14000.00000" pt_clust_4="65.17947" pt_clust_5="57.20032" pt_clust_6="36.67121"></scales>
<clustering>
<clus scale="   57.200">  1  5  2 -1</clus>
<clus scale="   36.671">  1  6  2 -1</clus>
<clus scale="   65.179">  2  4  1 -1</clus>
<clus scale="   57.200">  1  3  2 -1</clus>
</clustering>
</event>
<event>
 6    0  0.8991567E+002  0.3010873E+03  0.7546771E-02  0.1084698E+00
         21   -1    0    0  505  501  0.00000000000E+00  0.00000000000E+00  0.52048833179E+03  0.52048833179E+03  0.00000000000E+00 0.  1.
         21   -1    0    0  506  502 -0.00000000000E+00 -0.00000000000E+00 -0.10591570550E+04  0.10591570550E+04  0.00000000000E+00 0.  1.
         21    1    1    2  503  501  0.14748381216E+02  0.24381249411E+03 -0.12689109446E+03  0.27525151568E+03  0.00000000000E+00 0.  1.
         21    1    1    2  504  502 -0.44385132025E+02 -0.34921497394E+03 -0.33517865429E+01  0.35204029946E+03  0.00000000000E+00 0. -1.
         21    1    1    2  505  504  0.46137387766E+02 -0.51695799177E+02  0.25816513700E+03  0.26730198683E+03  0.00000000000E+00 0.  1.
         21    1    1    2  506  503 -0.16500636957E+02  0.15709827901E+03 -0.66659097924E+03  0.68505158484E+03  0.00000000000E+00 0.  1.
<scales pt_clust_3="301.08734" pt_clust_4="14000.00000" pt_clust_5="69.29007" pt_clust_6="155.95550"></scales>
<clustering>
<clus scale="   69.290">  1  5  2 -1</clus>
<clus scale="  155.955">  2  6  1 -1</clus>
<clus scale="  301.087">  1  3  2 -1</clus>
<clus scale="   69.290">  1  3  2 -1</clus>
</clustering>
</event>
<event>
 6    0  0.8991567E+002  0.1035467E+03  0.7546771E-02  0.1273010E+00
         21   -1    0    0  505  501  0.00000000000E+00  0.00000000000E+00  0.99565140103E+03  0.99565140103E+03  0.00000000000E+00 0.  1.
         21   -1    0    0  506  502 -0.00000000000E+00 -0.00000000000E+00 -0.79754806286E+03  0.79754806286E+03  0.00000000000E+00 0.  1.
         21    1    1    2  503  504 -0.33224857607E+02 -0.53975053470E+02  0.37142023080E+03  0.37678931170E+03  0.00000000000E+00 0.  1.
         21    1    1    2  504  501 -0.57635333100E+02  0.56228067613E+00  0.60855896113E+03  0.61128238725E+03  0.00000000000E+00 0.  1.
         21    1    1    2  505  502  0.44275946124E+02 -0.22467557764E+02 -0.60441955759E+02  0.78220077813E+02  0.00000000000E+00 0.  1.
         21    1    1    2  506  503  0.46584244583E+02  0.75880330558E+02 -0.72143389801E+03  0.72690768713E+03  0.00000000000E+00 0.  1.
<scales pt_clust_3="14000.00000" pt_clust_4="57.55489" pt_clust_5="49.65028" pt_clust_6="103.54670"></scales>
<clustering>
<clus scale="   49.650">  2  5  1 -1</clus>
<clus scale="   57.555">  1  4  2 -1</clus>
<clus scale="  103.547">  2  6  1 -1</clus>
<clus scale="   57.555">  1  3  2 -1</clus>
</clustering>
</event>
<event>
 6    0  0.8991567E+002  0.9469239E+02  0.7546771E-02  0.1291870E+00
         21   -1    0    0  505  501  0.00000000000E+00  0.00000000000E+00  0.19921649813E+03  0.19921649813E+03  0.00000000000E+00 0.  1.
         21   -1    0    0  501  502 -0.00000000000E+00 -0.00000000000E+00 -0.67384676305E+03  0.67384676305E+03  0.00000000000E+00 0. -1.
         21    1    1    2  503  506 -0.10055346788E+03 -0.80981892790E+00  0.51968261667E+02  0.11319167783E+03  0.00000000000E+00 0.  1.
         21    1    1    2  504  502  0.34142732539E+02  0.29746728394E+02 -0.80386160121E+02  0.92263366372E+02  0.00000000000E+00 0.  1.
         21    1    1    2  505  503  0.85062049653E+02  0.41489375818E+02  0.87532487549E+02  0.12891414575E+03  0.00000000000E+00 0.  1.
         21    1    1    2  506  504 -0.18651314312E+02 -0.70426285284E+02 -0.53374485402E+03  0.53869407123E+03  0.00000000000E+00 0. -1.
<scales pt_clust_3="94.69239" pt_clust_4="45.28349" pt_clust_5="14000.00000" pt_clust_6="45.04891"></scales>
<clustering>
<clus scale="   45.283">  2  4  1 -1</clus>
<clus scale="   45.049">  2  6  1 -1</clus>
<clus scale="   94.692">  2  3  1 -1</clus>
<clus scale="   94.692">  1  3  2 -1</clus>
</clustering>
</event>
<event>
 6    0  0.8991567E+002  0.1347167E+03  0.7546771E-02  0.1220620E+00
         21   -1    0    0  504  501  0.00000000000E+00  0.00000000000E+00  0.78271446661E+03  0.78271446661E+03  0.00000000000E+00 0.  1.
         21   -1    0    0  506  502 -0.00000000000E+00 -0.00000000000E+00 -0.11055242764E+03  0.11055242764E+03  0.00000000000E+00 0. -1.
         21    1    1    2  503  501 -0.41426875385E+02 -0.34354934875E+02  0.32032222097E+03  0.32481190373E+03  0.00000000000E+00 0.  1.
         21    1    1    2  504  502 -0.56949949833E+02  0.15995536980E+03  0.76948215311E+01  0.16996537116E+03  0.00000000000E+00 0. -1.
         21    1    1    2  505  503  0.25060395125E+02 -0.57339247411E+02  0.26072523351E+03  0.26812955840E+03  0.00000000000E+00 0.  1.
         21    1    1    2  506  505  0.73316430093E+02 -0.68261187515E+02  0.83419762951E+02  0.13036006096E+03  0.00000000000E+00 0.  1.
<scales pt_clust_3="53.81865" pt_clust_4="134.71674" pt_clust_5="77.09179" pt_clust_6="14000.00000"></scales>
<clustering>
<clus scale="   53.819">  1  3  2 -1</clus>
<clus scale="   77.092">  1  5  2 -1</clus>
<clus scale="  134.717">  2  4  1 -1</clus>
<clus scale="   53.819">  1  3  2 -1</clus>
</clustering>
</event>
<event>
 6    0  0.8991567E+002  0.9558339E+02  0.7546771E-02  0.1289868E+00
         21   -1    0    0  506  501  0.00000000000E+00  0.00000000000E+00  0.58342150071E+03  0.58342150071E+03  0.00000000000E+00 0.  1.
         21   -1    0    0  504  502 -0.00000000000E+00 -0.00000000000E+00 -0.11673086981E+03  0.11673086981E+03  0.00000000000E+00 0.  1.
         21    1    1    2  503  501  0.34170358569E+02  0.51689513954E+01  0.32358227176E+03  0.32542252237E+03  0.00000000000E+00 0.  1.
         21    1    1    2  504  503 -0.13162775402E+03  0.17244127444E+02  0.21500816679E+02  0.13448238055E+03  0.00000000000E+00 0.  1.
         21    1    1    2  505  502  0.81278029076E+02  0.15579885074E+02 -0.26179290705E+02  0.86799804673E+02  0.00000000000E+00 0.  1.
         21    1    1    2  506  505  0.16179366376E+02 -0.37992963914E+02  0.14778683317E+03  0.15344766294E+03  0.00000000000E+00 0.  1.
<scales pt_clust_3="34.55910" pt_clust_4="95.58339" pt_clust_5="14000.00000" pt_clust_6="50.24062"></scales>
<clustering>
<clus scale="   34.559">  1  3  2 -1</clus>
<clus scale="   50.241">  1  6  2 -1</clus>
<clus scale="   95.583">  1  4  2 -1</clus>
<clus scale="   34.559">  1  3  2 -1</clus>
</clustering>
</event>
<event>
 6    0  0.8991567E+002  0.6986589E+02  0.7546771E-02  0.1360550E+00
         21   -1    0    0  506  501  0.00000000000E+00  0.00000000000E+00  0.41312069716E+03  0.41312069716E+03  0.00000000000E+00 0.  1.
         21   -1    0    0  504  502 -0.00000000000E+00 -0.00000000000E+00 -0.11342326845E+03  0.11342326845E+03  0.00000000000E+00 0.  1.
         21    1    1    2  503  502 -0.71490683379E+02  0.87213784915E+02  0.57282117814E+02  0.12648479399E+03  0.00000000000E+00 0.  1.
         21    1    1    2  504  505  0.23579420382E+02 -0.43942095483E+02 -0.56914985692E+02  0.75671741207E+02  0.00000000000E+00 0.  1.
         21    1    1    2  505  501 -0.86086187610E+01 -0.60895336781E+02  0.11010754842E+03  0.12611908094E+03  0.00000000000E+00 0.  1.
         21    1    1    2  506  503  0.56519881759E+02  0.17623647349E+02  0.18922274817E+03  0.19826834947E+03  0.00000000000E+00 0.  1.
<scales pt_clust_3="14000.00000" pt_clust_4="49.86880" pt_clust_5="69.86589" pt_clust_6="60.29215"></scales>
<clustering>
<clus scale="   49.869">  2  4  1 -1</clus>
<clus scale="   60.292">  1  6  2 -1</clus>
<clus scale="   69.866">  1  5  2 -1</clus>
<clus scale="   60.292">  1  3  2 -1</clus>
</clustering>
</event>
<event>
 6    0  0.8991567E+002  0.9687323E+02  0.7546771E-02  0.1287012E+00
         21   -1    0    0  503  501  0.00000000000E+00  0.00000000000E+00  0.37857321597E+03  0.37857321597E+03  0.00000000000E+00 0.  1.
         21   -1    0    0  505  502 -0.00000000000E+00 -0.00000000000E+00 -0.11580802129E+03  0.11580802129E+03  0.00000000000E+00 0.  1.
         21    1    1    2  503  506 -0.29683208454E+02 -0.43877154699E+01  0.84267444637E+02  0.89450249507E+02  0.00000000000E+00 0.  1.
         21    1    1    2  504  502  0.37858305702E+02  0.13030800229E+02 -0.66482035734E+02  0.77607436117E+02  0.00000000000E+00 0.  1.
         21    1    1    2  505  501  0.80402021119E+02  0.60207294636E+02  0.14891855991E+03  0.17962778408E+03  0.00000000000E+00 0.  1.
         21    1    1    2  506  504 -0.88577118367E+02 -0.68850379395E+02  0.96061225862E+02  0.14769576756E+03  0.00000000000E+00 0.  1.
<scales pt_clust_3="30.00575" pt_clust_4="39.47584" pt_clust_5="96.87323" pt_clust_6="14000.00000"></scales>
<clustering>
<clus scale="   30.006">  1  3  2 -1</clus>
<clus scale="   39.476">  2  4  1 -1</clus>
<clus scale="   96.873">  1  5  2 -1</clus>
<clus scale="   30.006">  1  3  2 -1</clus>
</clustering>
</event>
<event>
 6    0  0.8991567E+002  0.1337313E+03  0.7546771E-02  0.1222022E+00
         21   -1    0    0  504  501  0.00000000000E+00  0.00000000000E+00  0.16138014681E+03  0.16138014681E+03  0.00000000000E+00 0.  1.
         21   -1    0    0  506  502 -0.00000000000E+00 -0.00000000000E+00 -0.56901092379E+03  0.56901092379E+03  0.00000000000E+00 0.  1.
         21    1    1    2  503  502  0.18382903960E+03  0.10597937746E+02 -0.10021714000E+02  0.18440679715E+03  0.00000000000E+00 0.  1.
         21    1    1    2  504  503 -0.45954333556E+02 -0.43167460741E+01  0.44443691374E+02  0.64075555184E+02  0.00000000000E+00 0. -1.
         21    1    1    2  505  501 -0.11620185558E+02 -0.31686937280E+02 -0.17031411067E+02  0.37804228196E+02  0.00000000000E+00 0. -1.
         21    1    1    2  506  505 -0.12625452048E+03  0.25405745607E+02 -0.42502134329E+03  0.44410449007E+03  0.00000000000E+00 0.  1.
<scales pt_clust_3="133.73132" pt_clust_4="52.53209" pt_clust_5="33.75042" pt_clust_6="14000.00000"></scales>
<clustering>
<clus scale="   33.750">  1  5  2 -1</clus>
<clus scale="   52.532">  1  4  2 -1</clus>
<clus scale="  133.731">  1  3  2 -1</clus>
<clus scale="   33.750">  1  3  2 -1</clus>
</clustering>
</event>
<event>
 6    0  0.8991567E+002  0.1605396E+03  0.7546771E-02  0.1188089E+00
         21   -1    0    0  504  501  0.00000000000E+00  0.00000000000E+00  0.17409817039E+04  0.17409817039E+04  0.00000000000E+00 0.  1.
         21   -1    0    0  503  502 -0.00000000000E+00 -0.00000000000E+00 -0.95468220518E+02  0.95468220518E+02  0.00000000000E+00 0.  1.
         21    1    1    2  503  506 -0.12692807282E+03  0.10749840785E+03  0.45897820641E+03  0.48818811673E+03  0.00000000000E+00 0.  1.
         21    1    1    2  504  505 -0.27612022678E+02  0.27722325174E+02  0.53511223693E+03  0.53654082531E+03  0.00000000000E+00 0.  1.
         21    1    1    2  505  502  0.42983823995E+02 -0.81574941988E+00 -0.62991227362E+02  0.76263813810E+02  0.00000000000E+00 0.  1.
         21    1    1    2  506  501  0.11155627150E+03 -0.13440498360E+03  0.71441426743E+03  0.73545716860E+03  0.00000000000E+00 0. -1.
<scales pt_clust_3="14000.00000" pt_clust_4="39.12737" pt_clust_5="42.83691" pt_clust_6="160.53958"></scales>
<clustering>
<clus scale="   39.127">  1  4  2 -1</clus>
<clus scale="   42.837">  2  5  1 -1</clus>
<clus scale="  160.540">  1  6  2 -1</clus>
<clus scale="   39.127">  1  3  2 -1</clus>
</clustering>
</event>
<event>
 6    0  0.8991567E+002  0.8916131E+02  0.7546771E-02  0.1304895E+00
         21   -1    0    0  504  501  0.00000000000E+00  0.00000000000E+00  0.75778073050E+03  0.75778073050E+03  0.00000000000E+00 0.  1.
         21   -1    0    0  505  502 -0.00000000000E+00 -0.00000000000E+00 -0.12345070039E+03  0.12345070039E+03  0.00000000000E+00 0. -1.
         21    1    1    2  503  502 -0.65422106819E+02  0.42083043251E+02 -0.80792212792E+01  0.78206830944E+02  0.00000000000E+00 0. -1.
         21    1    1    2  504  506  0.44736457940E+02  0.32877629591E+02  0.36574817748E+03  0.36993785766E+03  0.00000000000E+00 0.  1.
         21    1    1    2  505  501  0.13390262607E+03 -0.30879813056E+02  0.73209625686E+01  0.13761203660E+03  0.00000000000E+00 0.  1.
         21    1    1    2  506  503 -0.11321697720E+03 -0.44080859786E+02  0.26934011134E+03  0.29547470568E+03  0.00000000000E+00 0.  1.
<scales pt_clust_3="76.14743" pt_clust_4="55.51837" pt_clust_5="14000.00000" pt_clust_6="89.16131"></scales>
<clustering>
<clus scale="   55.518">  1  4  2 -1</clus>
<clus scale="   76.147">  2  3  1 -1</clus>
<clus scale="   89.161">  1  6  2 -1</clus>
<clus scale="   55.518">  1  3  2 -1</clus>
</clustering>
</event>
<event>
 6    0  0.8991567E+002  0.8026064E+02  0.7546771E-02  0.1328313E+00
         21   -1    0    0  502  501  0.00000000000E+00  0.00000000000E+00  0.38930126033E+03  0.38930126033E+03  0.00000000000E+00 0.  1.
         21   -1    0    0  506  502 -0.00000000000E+00 -0.00000000000E+00 -0.19514233882E+03  0.19514233882E+03  0.00000000000E+00 0. -1.
         21    1    1    2  503  505 -0.47585918102E+02 -0.41726171142E+02 -0.11760850454E+02  0.64372436362E+02  0.00000000000E+00 0. -1.
         21    1    1    2  504  501  0.56713749547E+02 -0.40836531974E+02  0.17100238814E+03  0.18473193682E+03  0.00000000000E+00 0.  1.
         21    1    1    2  505  504  0.38716621390E+02  0.67988616568E+02  0.17224797982E+03  0.18918455356E+03  0.00000000000E+00 0.  1.
         21    1    1    2  506  503 -0.47844452835E+02  0.14574086547E+02 -0.13733059601E+03  0.14615467240E+03  0.00000000000E+00 0. -1.
<scales pt_clust_3="14000.00000" pt_clust_4="63.83371" pt_clust_5="80.26064" pt_clust_6="50.01495"></scales>
<clustering>
<clus scale="   50.015">  2  6  1 -1</clus>
<clus scale="   63.834">  1  4  2 -1</clus>
<clus scale="   80.261">  1  5  2 -1</clus>
<clus scale="   63.834">  1  3  2 -1</clus>
</clustering>
</event>
<event>
 6    0  0.8991567E+002  0.1565468E+03  0.7546771E-02  0.1192651E+00
         21   -1    0    0  504  501  0.00000000000E+00  0.00000000000E+00  0.21115342693E+03  0.21115342693E+03  0.00000000000E+00 0.  1.
         21   -1    0    0  503  502 -0.00000000000E+00 -0.00000000000E+00 -0.89668768632E+03  0.89668768632E+03  0.00000000000E+00 0.  1.
         21    1    1    2  503  501  0.55576475458E+02  0.11313106737E+03  0.16882434265E+03  0.21068707056E+03  0.00000000000E+00 0.  1.
         21    1    1    2  504  506 -0.15447399984E+02  0.27234603669E+02 -0.30746300251E+01  0.31461073616E+02  0.00000000000E+00 0. -1.
         21    1    1    2  505  502 -0.67299655175E+00 -0.32072391157E+02 -0.34340200685E+03  0.34489712887E+03  0.00000000000E+00 0.  1.
         21    1    1    2  506  505 -0.39456078923E+02 -0.10829327988E+03 -0.50788196517E+03  0.52079584021E+03  0.00000000000E+00 0.  1.
<scales pt_clust_3="145.18905" pt_clust_4="31.31047" pt_clust_5="30.88444" pt_clust_6="30.88444"></scales>
<clustering>
<clus scale="   30.884">  5  6 -1 -1</clus>
<clus scale="   31.310">  1  4  2 -1</clus>
<clus scale="  145.189">  1  3  2 -1</clus>
<clus scale="   31.310">  1  3  2 -1</clus>
</clustering>
</event>
<event>
 6    0  0.8991567E+002  0.1791316E+03  0.7546771E-02  0.1168646E+00
         21   -1    0    0  505  501  0.00000000000E+00  0.00000000000E+00  0.99338467008E+02  0.99338467008E+02  0.00000000000E+00 0. -1.
         21   -1    0    0  503  502 -0.00000000000E+00 -0.00000000000E+00 -0.74266425055E+03  0.74266425055E+03  0.00000000000E+00 0. -1.
         21    1    1    2  503  506  0.34737983379E+02  0.29838030001E+02 -0.27958968881E+03  0.28331507128E+03  0.00000000000E+00 0. -1.
         21    1    1    2  504  502  0.11876509238E+02  0.67918618367E+02 -0.15517962972E+02  0.70673880376E+02  0.00000000000E+00 0. -1.
         21    1    1    2  505  504  0.64922217021E+02  0.76801267756E+02 -0.24196704544E+02  0.10343504968E+03  0.00000000000E+00 0. -1.
         21    1    1    2  506  501 -0.11153670964E+03 -0.17455791612E+03 -0.32402142722E+03  0.38457871623E+03  0.00000000000E+00 0. -1.
<scales pt_clust_3="45.79340" pt_clust_4="36.04291" pt_clust_5="36.04291" pt_clust_6="173.76238"></scales>
<clustering>
<clus scale="   36.043">  4  5 -1 -1</clus>
<clus scale="   45.793">  2  3  1 -1</clus>
<clus scale="  173.762">  2  6  1 -1</clus>
<clus scale="  179.132">  1  3  2 -1</clus>
</clustering>
</event>
<event>
 6    0  0.8991567E+002  0.1553918E+03  0.7546771E-02  0.1194000E+00
         21   -1    0    0  503  501  0.00000000000E+00  0.00000000000E+00  0.98702928264E+02  0.98702928264E+02  0.00000000000E+00 0.  1.
         21   -1    0    0  506  502 -0.00000000000E+00 -0.00000000000E+00 -0.71193112847E+03  0.71193112847E+03  0.00000000000E+00 0. -1.
         21    1    1    2  503  502 -0.40514512148E+01  0.39848718735E+02 -0.63560546142E+02  0.75128407860E+02  0.00000000000E+00 0.  1.
         21    1    1    2  504  501  0.14532116002E+03  0.66469522574E+02 -0.73120242765E+01  0.15996844276E+03  0.00000000000E+00 0.  1.
         21    1    1    2  505  504 -0.99539136560E+02 -0.10528847293E+03 -0.35192232153E+03  0.38058247810E+03  0.00000000000E+00 0. -1.
         21    1    1    2  506  505 -0.41730572247E+02 -0.10297683745E+01 -0.19043330825E+03  0.19495472801E+03  0.00000000000E+00 0. -1.
<scales pt_clust_3="40.05415" pt_clust_4="155.39175" pt_clust_5="14000.00000" pt_clust_6="44.31203"></scales>
<clustering>
<clus scale="   40.054">  2  3  1 -1</clus>
<clus scale="   44.312">  2  6  1 -1</clus>
<clus scale="  155.392">  1  4  2 -1</clus>
<clus scale="  155.392">  1  3  2 -1</clus>
</clustering>
</event>
<event>
 6    0  0.1024616E+003  0.1304702E+03  0.7546771E-02  0.1226760E+00
         21   -1    0    0  502  501  0.00000000000E+00  0.00000000000E+00  0.17919422944E+04  0.17919422944E+04  0.00000000000E+00 0. -1.
         21   -1    0    0  504  502 -0.00000000000E+00 -0.00000000000E+00 -0.33605053093E+03  0.33605053093E+03  0.00000000000E+00 0.  1.
         21    1    1    2  503  506  0.73101719009E+02 -0.80241582382E+02 -0.12290982843E+03  0.16397987312E+03  0.00000000000E+00 0.  1.
         21    1    1    2  504  503 -0.33754649326E+02 -0.44850083197E+02 -0.18231753108E+03  0.19076317373E+03  0.00000000000E+00 0.  1.
         21    1    1    2  505  501  0.29907139826E+02 -0.76210413015E+01  0.79529573844E+03  0.79589435785E+03  0.00000000000E+00 0. -1.
         21    1    1    2  506  505 -0.69254209509E+02  0.13271270688E+03  0.96582338452E+03  0.97735542060E+03  0.00000000000E+00 0. -1.
<scales pt_clust_3="130.47021" pt_clust_4="56.08265" pt_clust_5="30.86288" pt_clust_6="14000.00000"></scales>
<clustering>
<clus scale="   30.863">  1  5  2 -1</clus>
<clus scale="   56.083">  2  4  1 -1</clus>
<clus scale="  130.470">  2  3  1 -1</clus>
<clus scale="   30.863">  1  3  2 -1</clus>
</clustering>
</event>
<event>
 6    0  0.8991567E+002  0.8125508E+02  0.7546771E-02  0.1325527E+00
         21   -1    0    0  503  501  0.00000000000E+00  0.00000000000E+00  0.75408800824E+03  0.75408800824E+03  0.00000000000E+00 0. -1.
         21   -1    0    0  506  502 -0.00000000000E+00 -0.00000000000E+00 -0.21302218270E+03  0.21302218270E+03  0.00000000000E+00 0.  1.
         21    1    1    2  503  505 -0.70963702560E+02 -0.75066372907E+01  0.31956640916E+03  0.32743684360E+03  0.00000000000E+00 0. -1.
         21    1    1    2  504  502  0.17675835437E+02  0.80687478783E+02 -0.18948661733E+03  0.20670772249E+03  0.00000000000E+00 0.  1.
         21    1    1    2  505  504  0.62403225802E+02 -0.36342317306E+02  0.37050883832E+03  0.37748076228E+03  0.00000000000E+00 0. -1.
         21    1    1    2  506  501 -0.91153586791E+01 -0.36838524187E+02  0.40477195391E+02  0.55484862574E+02  0.00000000000E+00 0. -1.
<scales pt_clust_3="78.99740" pt_clust_4="81.25508" pt_clust_5="14000.00000" pt_clust_6="37.94953"></scales>
<clustering>
<clus scale="   37.950">  1  6  2 -1</clus>
<clus scale="   78.997">  1  3  2 -1</clus>
<clus scale="   81.255">  2  4  1 -1</clus>
<clus scale="   37.950">  1  3  2 -1</clus>
</clustering>
</event>
<event>
 6    0  0.8991567E+002  0.7678567E+02  0.7546771E-02  0.1338429E+00
         21   -1    0    0  503  501  0.00000000000E+00  0.00000000000E+00  0.76220182197E+03  0.76220182197E+03  0.00000000000E+00 0. -1.
         21   -1    0    0  505  502 -0.00000000000E+00 -0.00000000000E+00 -0.13472309280E+04  0.13472309280E+04  0.00000000000E+00 0.  1.
         21    1    1    2  503  506  0.75442268397E+02  0.16362839647E+01  0.70162846973E+03  0.70567465791E+03  0.00000000000E+00 0. -1.
         21    1    1    2  504  502  0.33685053774E+02  0.13619488781E+01 -0.11177057647E+04  0.11182140735E+04  0.00000000000E+00 0.  1.
         21    1    1    2  505  501  0.23777784798E+02  0.35875663878E+02 -0.13676682212E+03  0.14337925213E+03  0.00000000000E+00 0.  1.
         21    1    1    2  506  504 -0.13290510697E+03 -0.38873896721E+02 -0.32184988973E+02  0.14216476645E+03  0.00000000000E+00 0. -1.
<scales pt_clust_3="14000.00000" pt_clust_4="33.71258" pt_clust_5="57.57656" pt_clust_6="76.78567"></scales>
<clustering>
<clus scale="   33.713">  2  4  1 -1</clus>
<clus scale="   57.577">  2  5  1 -1</clus>
<clus scale="   76.786">  2  6  1 -1</clus>
<clus scale="   76.786">  1  3  2 -1</clus>
</clustering>
</event>
<event>
 6    0  0.8991567E+002  0.1379732E+03  0.7546771E-02  0.1216082E+00
         21   -1    0    0  503  501  0.00000000000E+00  0.00000000000E+00  0.83028501128E+03  0.83028501128E+03  0.00000000000E+00 0.  1.
         21   -1    0    0  504  502 -0.00000000000E+00 -0.00000000000E+00 -0.11047858797E+03  0.11047858797E+03  0.00000000000E+00 0. -1.
         21    1    1    2  503  506  0.12577997369E+03  0.20596883984E+02  0.34373861014E+03  0.36660750881E+03  0.00000000000E+00 0.  1.
         21    1    1    2  504  501  0.10951232333E+02 -0.34941295479E+02  0.21536830922E+03  0.21845899441E+03  0.00000000000E+00 0.  1.
         21    1    1    2  505  502  0.13529783241E+02  0.40993859464E+02 -0.68126301160E+02  0.80651995995E+02  0.00000000000E+00 0. -1.
         21    1    1    2  506  505 -0.15026098927E+03 -0.26649447970E+02  0.22882580510E+03  0.27504510003E+03  0.00000000000E+00 0.  1.
<scales pt_clust_3="137.97322" pt_clust_4="36.61726" pt_clust_5="42.86568" pt_clust_6="14000.00000"></scales>
<clustering>
<clus scale="   36.617">  1  4  2 -1</clus>
<clus scale="   42.866">  2  5  1 -1</clus>
<clus scale="  137.973">  1  3  2 -1</clus>
<clus scale="   36.617">  1  3  2 -1</clus>
</clustering>
</event>
<event>
 6    0  0.8991567E+002  0.1183881E+03  0.7546771E-02  0.1245780E+00
         21   -1    0    0  505  501  0.00000000000E+00  0.00000000000E+00  0.12398786822E+04  0.12398786822E+04  0.00000000000E+00 0.  1.
         21   -1    0    0  504  502 -0.00000000000E+00 -0.00000000000E+00 -0.17897303070E+04  0.17897303070E+04  0.00000000000E+00 0. -1.
         21    1    1    2  503  506 -0.12006219563E+03  0.28806883172E+02  0.10474590821E+03  0.16191501667E+03  0.00000000000E+00 0.  1.
         21    1    1    2  504  503  0.83898491732E+01 -0.47117662164E+02 -0.17526509435E+04  0.17533042501E+04  0.00000000000E+00 0. -1.
         21    1    1    2  505  502  0.14450100252E+03 -0.96439769838E+00  0.71547224400E+03  0.72991917479E+03  0.00000000000E+00 0.  1.
         21    1    1    2  506  501 -0.32828656060E+02  0.19275176690E+02  0.38258116645E+03  0.38447054766E+03  0.00000000000E+00 0. -1.
<scales pt_clust_3="14000.00000" pt_clust_4="47.84936" pt_clust_5="118.38813" pt_clust_6="38.06906"></scales>
<clustering>
<clus scale="   38.069">  1  6  2 -1</clus>
<clus scale="   47.849">  2  4  1 -1</clus>
<clus scale="  118.388">  1  5  2 -1</clus>
<clus scale="   38.069">  1  3  2 -1</clus>
</clustering>
</event>
<event>
 6    0  0.8991567E+002  0.2726017E+03  0.7546771E-02  0.1099800E+00
         21   -1    0    0  503  501  0.00000000000E+00  0.00000000000E+00  0.20657683016E+04  0.20657683016E+04  0.00000000000E+00 0. -1.
         21   -1    0    0  505  502 -0.00000000000E+00 -0.00000000000E+00 -0.17035555157E+03  0.17035555157E+03  0.00000000000E+00 0.  1.
         21    1    1    2  503  504 -0.20272164669E+02 -0.37632303709E+02  0.73020229653E+03  0.73145235306E+03  0.00000000000E+00 0. -1.
         21    1    1    2  504  506 -0.21588874972E+03  0.34994051855E+02 -0.37023271018E+01  0.21873784114E+03  0.00000000000E+00 0.  1.
         21    1    1    2  505  501  0.27983527164E+03  0.14870641448E+02  0.11991271282E+04  0.12314360661E+04  0.00000000000E+00 0. -1.
         21    1    1    2  506  502 -0.43674357256E+02 -0.12232389594E+02 -0.30214347567E+02  0.54497592935E+02  0.00000000000E+00 0.  1.
<scales pt_clust_3="42.74519" pt_clust_4="34.12729" pt_clust_5="262.09833" pt_clust_6="34.12729"></scales>
<clustering>
<clus scale="   34.127">  4  6 -1 -1</clus>
<clus scale="   42.745">  1  3  2 -1</clus>
<clus scale="  262.098">  1  5  2 -1</clus>
<clus scale="   42.745">  1  3  2 -1</clus>
</clustering>
</event>
<event>
 6    0  0.8991567E+002  0.1087489E+03  0.7546771E-02  0.1262904E+00
         21   -1    0    0  504  501  0.00000000000E+00  0.00000000000E+00  0.75747414341E+02  0.75747414341E+02  0.00000000000E+00 0.  1.
         21   -1    0    0  503  502 -0.00000000000E+00 -0.00000000000E+00 -0.31895239326E+04  0.31895239326E+04  0.00000000000E+00 0.  1.
         21    1    1    2  503  505  0.40986775510E+02  0.37055937054E+02 -0.28281578216E+04  0.28286975310E+04  0.00000000000E+00 0.  1.
         21    1    1    2  504  506  0.71394034130E+02 -0.21667413012E+02  0.91427599091E+01  0.75167645664E+02  0.00000000000E+00 0.  1.
         21    1    1    2  505  501  0.35820085203E+02  0.36932374504E+02 -0.62254944508E+02  0.80763586511E+02  0.00000000000E+00 0.  1.
         21    1    1    2  506  502 -0.14820089484E+03 -0.52320898546E+02 -0.23250651214E+03  0.28064258380E+03  0.00000000000E+00 0.  1.
<scales pt_clust_3="55.46284" pt_clust_4="108.74886" pt_clust_5="51.44977" pt_clust_6="14000.00000"></scales>
<clustering>
<clus scale="   51.450">  1  5  2 -1</clus>
<clus scale="   55.463">  2  3  1 -1</clus>
<clus scale="  108.749">  1  4  2 -1</clus>
<clus scale="   51.450">  1  3  2 -1</clus>
</clustering>
</event>
<event>
 6    0  0.8991567E+002  0.9024336E+02  0.7546771E-02  0.1302263E+00
         21   -1    0    0  505  501  0.00000000000E+00  0.00000000000E+00  0.61594024711E+03  0.61594024711E+03  0.00000000000E+00 0. -1.
         21   -1    0    0  504  502 -0.00000000000E+00 -0.00000000000E+00 -0.26113247934E+03  0.26113247934E+03  0.00000000000E+00 0. -1.
         21    1    1    2  503  502 -0.44435147996E+02 -0.11447927730E+03  0.61652757485E+02  0.13740833240E+03  0.00000000000E+00 0. -1.
         21    1    1    2  504  501  0.21330161175E+02  0.32624585133E+02 -0.20504707601E+03  0.20871905210E+03  0.00000000000E+00 0. -1.
         21    1    1    2  505  506  0.56551759267E+02  0.55011009043E+01  0.39120698791E+03  0.39531161250E+03  0.00000000000E+00 0. -1.
         21    1    1    2  506  503 -0.33446772446E+02  0.76353591263E+02  0.10699509838E+03  0.13563372945E+03  0.00000000000E+00 0. -1.
<scales pt_clust_3="90.24336" pt_clust_4="38.97870" pt_clust_5="57.75279" pt_clust_6="14000.00000"></scales>
<clustering>
<clus scale="   38.979">  2  4  1 -1</clus>
<clus scale="   57.753">  1  5  2 -1</clus>
<clus scale="   90.243">  2  3  1 -1</clus>
<clus scale="   57.753">  1  3  2 -1</clus>
</clustering>
</event>
<event>
 6    0  0.8991567E+002  0.2032921E+03  0.7546771E-02  0.1146991E+00
         21   -1    0    0  503  501  0.00000000000E+00  0.00000000000E+00  0.11215859337E+03  0.11215859337E+03  0.00000000000E+00 0. -1.
         21   -1    0    0  504  502 -0.00000000000E+00 -0.00000000000E+00 -0.91617520204E+03  0.91617520204E+03  0.00000000000E+00 0. -1.
         21    1    1    2  503  506  0.19880659092E+03 -0.15894830942E+02 -0.45910745338E+03  0.50055605080E+03  0.00000000000E+00 0. -1.
         21    1    1    2  504  505 -0.18407999341E+03  0.91315993106E+02 -0.12382672168E+03  0.23991063247E+03  0.00000000000E+00 0. -1.
         21    1    1    2  505  501 -0.16409613474E+02 -0.30923852831E+02  0.21598572658E+02  0.41134637827E+02  0.00000000000E+00 0. -1.
         21    1    1    2  506  502  0.16830159658E+01 -0.44497309333E+02 -0.24268100627E+03  0.24673247432E+03  0.00000000000E+00 0. -1.
<scales pt_clust_3="203.29213" pt_clust_4="14000.00000" pt_clust_5="35.00800" pt_clust_6="45.29053"></scales>
<clustering>
<clus scale="   35.008">  1  5  2 -1</clus>
<clus scale="   45.291">  2  6  1 -1</clus>
<clus scale="  203.292">  2  3  1 -1</clus>
<clus scale="   35.008">  1  3  2 -1</clus>
</clustering>
</event>
<event>
 6    0  0.8991567E+002  0.1090084E+03  0.7546771E-02  0.1262417E+00
         21   -1    0    0  503  501  0.00000000000E+00  0.00000000000E+00  0.97068282796E+03  0.97068282796E+03  0.00000000000E+00 0. -1.
         21   -1    0    0  506  502 -0.00000000000E+00 -0.00000000000E+00 -0.12755841562E+04  0.12755841562E+04  0.00000000000E+00 0. -1.
         21    1    1    2  503  504  0.33005947429E+02  0.56778857752E+02  0.73852672349E+03  0.74144113223E+03  0.00000000000E+00 0. -1.
         21    1    1    2  504  502 -0.45079125832E+02 -0.28514239026E+02 -0.11981166433E+04  0.11993034147E+04  0.00000000000E+00 0. -1.
         21    1    1    2  505  501 -0.97035636980E+02 -0.90988111387E+02  0.10780240676E+03  0.17121947950E+03  0.00000000000E+00 0. -1.
         21    1    1    2  506  505  0.10910881538E+03  0.62723492661E+02  0.46886184867E+02  0.13430295774E+03  0.00000000000E+00 0. -1.
<scales pt_clust_3="64.78014" pt_clust_4="53.34032" pt_clust_5="14000.00000" pt_clust_6="109.00839"></scales>
<clustering>
<clus scale="   53.340">  2  4  1 -1</clus>
<clus scale="   64.780">  1  3  2 -1</clus>
<clus scale="  109.008">  2  6  1 -1</clus>
<clus scale="   64.780">  1  3  2 -1</clus>
</clustering>
</event>
<event>
 6    0  0.8991567E+002  0.3980832E+03  0.7546771E-02  0.1044445E+00
         21   -1    0    0  506  501  0.00000000000E+00  0.00000000000E+00  0.27289871615E+03  0.27289871615E+03  0.00000000000E+00 0.  1.
         21   -1    0    0  504  502 -0.00000000000E+00 -0.00000000000E+00 -0.90253521072E+03  0.90253521072E+03  0.00000000000E+00 0.  1.
         21    1    1    2  503  502  0.79735148731E+02  0.65508488699E+02 -0.14784951050E+03  0.18030123069E+03  0.00000000000E+00 0.  1.
         21    1    1    2  504  501  0.12696796222E+03 -0.36816467487E+03 -0.14291590112E+02  0.38970545390E+03  0.00000000000E+00 0.  1.
         21    1    1    2  505  503 -0.16688616258E+03  0.30140759513E+03 -0.42641328148E+03  0.54820234976E+03  0.00000000000E+00 0.  1.
         21    1    1    2  506  505 -0.39816948377E+02  0.12485910338E+01 -0.41082112486E+02  0.57224892520E+02  0.00000000000E+00 0.  1.
<scales pt_clust_3="103.19426" pt_clust_4="380.53515" pt_clust_5="39.74728" pt_clust_6="39.74728"></scales>
<clustering>
<clus scale="   39.747">  5  6 -1 -1</clus>
<clus scale="  103.194">  2  3  1 -1</clus>
<clus scale="  380.535">  1  4  2 -1</clus>
<clus scale="  380.535">  1  3  2 -1</clus>
</clustering>
</event>
<event>
 6    0  0.8991567E+002  0.8177939E+02  0.7546771E-02  0.1324076E+00
         21   -1    0    0  503  501  0.00000000000E+00  0.00000000000E+00  0.42897199176E+03  0.42897199176E+03  0.00000000000E+00 0.  1.
         21   -1    0    0  506  502 -0.00000000000E+00 -0.00000000000E+00 -0.29010919370E+03  0.29010919370E+03  0.00000000000E+00 0. -1.
         21    1    1    2  503  504  0.65676537705E+02 -0.93695593227E+02 -0.27586046247E+02  0.11769987996E+03  0.00000000000E+00 0. -1.
         21    1    1    2  504  502 -0.26387771533E+01  0.36224862196E+02 -0.17467684246E+03  0.17841301264E+03  0.00000000000E+00 0. -1.
         21    1    1    2  505  501 -0.64304703102E+00  0.38172541184E+02  0.35429230984E+03  0.35634336983E+03  0.00000000000E+00 0.  1.
         21    1    1    2  506  505 -0.62394713521E+02  0.19298189847E+02 -0.13166623068E+02  0.66624923037E+02  0.00000000000E+00 0. -1.
<scales pt_clust_3="81.77939" pt_clust_4="36.32085" pt_clust_5="38.50544" pt_clust_6="14000.00000"></scales>
<clustering>
<clus scale="   36.321">  2  4  1 -1</clus>
<clus scale="   38.505">  1  5  2 -1</clus>
<clus scale="   81.779">  2  3  1 -1</clus>
<clus scale="   38.505">  1  3  2 -1</clus>
</clustering>
</event>
<event>
 6    0  0.8991567E+002  0.1078409E+03  0.7546771E-02  0.1264621E+00
         21   -1    0    0  503  501  0.00000000000E+00  0.00000000000E+00  0.16819323021E+04  0.16819323021E+04  0.00000000000E+00 0.  1.
         21   -1    0    0  506  502 -0.00000000000E+00 -0.00000000000E+00 -0.63791666731E+02  0.63791666731E+02  0.00000000000E+00 0.  1.
         21    1    1    2  503  505 -0.75043424685E+02  0.32539140484E+02  0.13329396035E+04  0.13354468532E+04  0.00000000000E+00 0.  1.
         21    1    1    2  504  501  0.62618406404E+02  0.87686113600E+02  0.14942672055E+03  0.18422340827E+03  0.00000000000E+00 0.  1.
         21    1    1    2  505  502 -0.20220706739E+02 -0.11158801083E+03  0.15113834452E+03  0.18895385766E+03  0.00000000000E+00 0.  1.
         21    1    1    2  506  504  0.32645725020E+02 -0.86372432581E+01 -0.15364033159E+02  0.37099849704E+02  0.00000000000E+00 0.  1.
<scales pt_clust_3="80.68014" pt_clust_4="107.84091" pt_clust_5="14000.00000" pt_clust_6="33.76900"></scales>
<clustering>
<clus scale="   33.769">  2  6  1 -1</clus>
<clus scale="   80.680">  1  3  2 -1</clus>
<clus scale="  107.841">  1  4  2 -1</clus>
<clus scale="   80.680">  1  3  2 -1</clus>
</clustering>
</event>
<event>
 6    0  0.1842979E+003  0.1290313E+03  0.7546771E-02  0.1228900E+00
         21   -1    0    0  505  501  0.00000000000E+00  0.00000000000E+00  0.29616866211E+04  0.29616866211E+04  0.00000000000E+00 0. -1.
         21   -1    0    0  503  502 -0.00000000000E+00 -0.00000000000E+00 -0.44020362620E+03  0.44020362620E+03  0.00000000000E+00 0.  1.
         21    1    1    2  503  501  0.22222600302E+02 -0.72029529369E+02 -0.41294994687E+03  0.41977345757E+03  0.00000000000E+00 0.  1.
         21    1    1    2  504  502  0.76633270448E+02  0.50239926650E-02  0.43443604702E+02  0.88090890303E+02  0.00000000000E+00 0. -1.
         21    1    1    2  505  506 -0.36423447214E+02  0.25413550412E+01  0.10955234948E+04  0.10961317684E+04  0.00000000000E+00 0. -1.
         21    1    1    2  506  504 -0.62432423536E+02  0.69483150336E+02  0.17954658422E+04  0.17978941310E+04  0.00000000000E+00 0. -1.
<scales pt_clust_3="75.37969" pt_clust_4="118.50114" pt_clust_5="31.91908" pt_clust_6="31.91908"></scales>
<clustering>
<clus scale="   31.919">  5  6 -1 -1</clus>
<clus scale="   75.380">  2  3  1 -1</clus>
<clus scale="  118.501">  2  4  1 -1</clus>
<clus scale="  129.031">  1  3  2 -1</clus>
</clustering>
</event>
<event>
 6    0  0.8991567E+002  0.7537693E+02  0.7546771E-02  0.1342708E+00
         21   -1    0    0  506  501  0.00000000000E+00  0.00000000000E+00  0.73364416591E+03  0.73364416591E+03  0.00000000000E+00 0.  1.
         21   -1    0    0  504  502 -0.00000000000E+00 -0.00000000000E+00 -0.63718170764E+03  0.63718170764E+03  0.00000000000E+00 0. -1.
         21    1    1    2  503  501 -0.46754118563E+02  0.49047106635E+00  0.68016916058E+03  0.68177435796E+03  0.00000000000E+00 0.  1.
         21    1    1    2  504  503  0.35920970712E+02 -0.41625466902E+02 -0.13303986975E+03  0.14395347365E+03  0.00000000000E+00 0.  1.
         21    1    1    2  505  502 -0.27140039777E+02  0.93052210939E+02 -0.46844178340E+03  0.47836492363E+03  0.00000000000E+00 0. -1.
         21    1    1    2  506  505  0.37973187628E+02 -0.51917215104E+02  0.17774950855E+02  0.66733118320E+02  0.00000000000E+00 0. -1.
<scales pt_clust_3="46.75669" pt_clust_4="75.37693" pt_clust_5="14000.00000" pt_clust_6="51.52587"></scales>
<clustering>
<clus scale="   46.757">  1  3  2 -1</clus>
<clus scale="   51.526">  1  6  2 -1</clus>
<clus scale="   75.377">  1  4  2 -1</clus>
<clus scale="   46.757">  1  3  2 -1</clus>
</clustering>
</event>
<event>
 6    0  0.8991567E+002  0.7975254E+02  0.7546771E-02  0.1329755E+00
         21   -1    0    0  503  501  0.00000000000E+00  0.00000000000E+00  0.13718910228E+04  0.13718910228E+04  0.00000000000E+00 0.  1.
         21   -1    0    0  505  502 -0.00000000000E+00 -0.00000000000E+00 -0.58657026067E+03  0.58657026067E+03  0.00000000000E+00 0.  1.
         21    1    1    2  503  504 -0.32701401662E+01  0.43831291225E+02  0.36006209963E+02  0.56818333864E+02  0.00000000000E+00 0.  1.
         21    1    1    2  504  502 -0.81003627531E+01 -0.44319923982E+02 -0.56995241177E+03  0.57173037634E+03  0.00000000000E+00 0.  1.
         21    1    1    2  505  506 -0.23175822058E+00  0.83041969418E+02  0.56888325781E+03  0.57491232672E+03  0.00000000000E+00 0.  1.
         21    1    1    2  506  501  0.11602261140E+02 -0.82553336660E+02  0.75038370616E+03  0.75500024657E+03  0.00000000000E+00 0.  1.
<scales pt_clust_3="43.95311" pt_clust_4="45.02557" pt_clust_5="79.75254" pt_clust_6="14000.00000"></scales>
<clustering>
<clus scale="   43.953">  1  3  2 -1</clus>
<clus scale="   45.026">  2  4  1 -1</clus>
<clus scale="   79.753">  2  5  1 -1</clus>
<clus scale="   43.953">  1  3  2 -1</clus>
</clustering>
</event>
<event>
 6    0  0.8991567E+002  0.1119209E+03  0.7546771E-02  0.1257053E+00
         21   -1    0    0  504  501  0.00000000000E+00  0.00000000000E+00  0.98699071387E+02  0.98699071387E+02  0.00000000000E+00 0.  1.
         21   -1    0    0  505  502 -0.00000000000E+00 -0.00000000000E+00 -0.38004543960E+03  0.38004543960E+03  0.00000000000E+00 0.  1.
         21    1    1    2  503  506 -0.35031373247E+02 -0.10975646282E+03 -0.68457072346E+02  0.13401510734E+03  0.00000000000E+00 0.  1.
         21    1    1    2  504  503 -0.30383202834E+02 -0.18249874336E+02  0.50837941209E+01  0.35805612554E+02  0.00000000000E+00 0. -1.
         21    1    1    2  505  501  0.76834177502E+02  0.95836506833E+02 -0.42221328640E+02  0.12988751852E+03  0.00000000000E+00 0.  1.
         21    1    1    2  506  502 -0.11419601422E+02  0.32169830322E+02 -0.17575176135E+03  0.17903627257E+03  0.00000000000E+00 0.  1.
<scales pt_clust_3="111.92095" pt_clust_4="35.02126" pt_clust_5="14000.00000" pt_clust_6="34.13657"></scales>
<clustering>
<clus scale="   34.137">  2  6  1 -1</clus>
<clus scale="   35.021">  1  4  2 -1</clus>
<clus scale="  111.921">  2  3  1 -1</clus>
<clus scale="   35.021">  1  3  2 -1</clus>
</clustering>
</event>
<event>
 6    0  0.8991567E+002  0.1327577E+03  0.7546771E-02  0.1223420E+00
         21   -1    0    0  503  501  0.00000000000E+00  0.00000000000E+00  0.42094868619E+03  0.42094868619E+03  0.00000000000E+00 0. -1.
         21   -1    0    0  504  502 -0.00000000000E+00 -0.00000000000E+00 -0.41836442602E+03  0.41836442602E+03  0.00000000000E+00 0. -1.
         21    1    1    2  503  506  0.52665168532E+02  0.64405039070E+00  0.13675428167E+03  0.14654613039E+03  0.00000000000E+00 0. -1.
         21    1    1    2  504  505  0.91540182623E+00 -0.13396705236E+03 -0.37659288574E+03  0.39971266013E+03  0.00000000000E+00 0. -1.
         21    1    1    2  505  501 -0.24950802868E+02  0.26247245373E+02  0.13387003195E+02  0.38609225684E+02  0.00000000000E+00 0.  1.
         21    1    1    2  506  502 -0.28629767491E+02  0.10707575659E+03  0.22903586104E+03  0.25444509600E+03  0.00000000000E+00 0. -1.
<scales pt_clust_3="44.85854" pt_clust_4="132.75772" pt_clust_5="36.21409" pt_clust_6="14000.00000"></scales>
<clustering>
<clus scale="   36.214">  1  5  2 -1</clus>
<clus scale="   44.859">  1  3  2 -1</clus>
<clus scale="  132.758">  2  4  1 -1</clus>
<clus scale="   36.214">  1  3  2 -1</clus>
</clustering>
</event>
<event>
 6    0  0.8991567E+002  0.9207828E+02  0.7546771E-02  0.1297895E+00
         21   -1    0    0  506  501  0.00000000000E+00  0.00000000000E+00  0.24785515027E+02  0.24785515027E+02  0.00000000000E+00 0. -1.
         21   -1    0    0  505  502 -0.00000000000E+00 -0.00000000000E+00 -0.22981280097E+04  0.22981280097E+04  0.00000000000E+00 0.  1.
         21    1    1    2  503  502 -0.88590948441E+02 -0.56805158222E+02 -0.14155275461E+04  0.14194341886E+04  0.00000000000E+00 0.  1.
         21    1    1    2  504  501 -0.42280902227E+02  0.38221386610E+02 -0.10380034688E+03  0.11841900649E+03  0.00000000000E+00 0. -1.
         21    1    1    2  505  504  0.34168972724E+02 -0.15505585125E+02 -0.59289477763E+03  0.59408093658E+03  0.00000000000E+00 0. -1.
         21    1    1    2  506  503  0.96702877943E+02  0.34089356736E+02 -0.16111982410E+03  0.19097939303E+03  0.00000000000E+00 0. -1.
<scales pt_clust_3="92.07828" pt_clust_4="54.67120" pt_clust_5="37.52255" pt_clust_6="14000.00000"></scales>
<clustering>
<clus scale="   37.523">  2  5  1 -1</clus>
<clus scale="   54.671">  1  4  2 -1</clus>
<clus scale="   92.078">  2  3  1 -1</clus>
<clus scale="   54.671">  1  3  2 -1</clus>
</clustering>
</event>
<event>
 6    0  0.8991567E+002  0.1545463E+03  0.7546771E-02  0.1194995E+00
         21   -1    0    0  503  501  0.00000000000E+00  0.00000000000E+00  0.16387601572E+03  0.16387601572E+03  0.00000000000E+00 0. -1.
         21   -1    0    0  506  502 -0.00000000000E+00 -0.00000000000E+00 -0.30592035405E+03  0.30592035405E+03  0.00000000000E+00 0. -1.
         21    1    1    2  503  504 -0.10045109762E+03 -0.13449965086E+03 -0.32730268836E+02  0.17103172101E+03  0.00000000000E+00 0. -1.
         21    1    1    2  504  502  0.40850987837E+02  0.15892272647E+02 -0.14457386147E+03  0.15107272738E+03  0.00000000000E+00 0. -1.
         21    1    1    2  505  501  0.27070350628E+00  0.38794533090E+02 -0.73734714741E+01  0.39489962771E+02  0.00000000000E+00 0. -1.
         21    1    1    2  506  505  0.59329406273E+02  0.79812845121E+02  0.42633263457E+02  0.10820195861E+03  0.00000000000E+00 0. -1.
<scales pt_clust_3="144.68857" pt_clust_4="43.83341" pt_clust_5="33.92225" pt_clust_6="33.92225"></scales>
<clustering>
<clus scale="   33.922">  5  6 -1 -1</clus>
<clus scale="   43.833">  2  4  1 -1</clus>
<clus scale="  144.689">  2  3  1 -1</clus>
<clus scale="  154.546">  1  3  2 -1</clus>
</clustering>
</event>
<event>
 6    0  0.8991567E+002  0.1232042E+03  0.7546771E-02  0.1237903E+00
         21   -1    0    0  506  501  0.00000000000E+00  0.00000000000E+00  0.15687113642E+04  0.15687113642E+04  0.00000000000E+00 0.  1.
         21   -1    0    0  503  502 -0.00000000000E+00 -0.00000000000E+00 -0.34880018525E+02  0.34880018525E+02  0.00000000000E+00 0.  1.
         21    1    1    2  503  505  0.10844783834E+03  0.56172391098E+01  0.14211259187E+03  0.17885322414E+03  0.00000000000E+00 0.  1.
         21    1    1    2  504  501  0.31427082924E+02  0.36073686546E+02  0.43436083115E+03  0.43698776189E+03  0.00000000000E+00 0.  1.
         21    1    1    2  505  504  0.42887704719E+02  0.19265462829E+02  0.26253588248E+03  0.26671258475E+03  0.00000000000E+00 0.  1.
         21    1    1    2  506  502 -0.18276262598E+03 -0.60956388484E+02  0.69482204014E+03  0.72103781192E+03  0.00000000000E+00 0.  1.
<scales pt_clust_3="14000.00000" pt_clust_4="97.61736" pt_clust_5="30.45848" pt_clust_6="123.20423"></scales>
<clustering>
<clus scale="   30.458">  4  5 -1 -1</clus>
<clus scale="   97.617">  1  4  2 -1</clus>
<clus scale="  123.204">  1  6  2 -1</clus>
<clus scale="   97.617">  1  3  2 -1</clus>
</clustering>
</event>
<event>
 6    0  0.8991567E+002  0.1266030E+03  0.7546771E-02  0.1232585E+00
         21   -1    0    0  505  501  0.00000000000E+00  0.00000000000E+00  0.15029027619E+03  0.15029027619E+03  0.00000000000E+00 0.  1.
         21   -1    0    0  504  502 -0.00000000000E+00 -0.00000000000E+00 -0.25652175017E+03  0.25652175017E+03  0.00000000000E+00 0.  1.
         21    1    1    2  503  502 -0.27484429120E+02 -0.11557969652E+03 -0.92584582303E+02  0.15061860765E+03  0.00000000000E+00 0.  1.
         21    1    1    2  504  506  0.74798566912E+02  0.46885774453E+02 -0.55465212967E+02  0.10425685257E+03  0.00000000000E+00 0.  1.
         21    1    1    2  505  503 -0.78654623116E+02  0.25285728375E+02  0.51743196505E+02  0.97484748456E+02  0.00000000000E+00 0.  1.
         21    1    1    2  506  501  0.31340485324E+02  0.43408193692E+02 -0.99248752164E+01  0.54451817674E+02  0.00000000000E+00 0.  1.
<scales pt_clust_3="120.55803" pt_clust_4="30.10212" pt_clust_5="82.61911" pt_clust_6="30.10212"></scales>
<clustering>
<clus scale="   30.102">  4  6 -1 -1</clus>
<clus scale="   82.619">  1  5  2 -1</clus>
<clus scale="  120.558">  2  3  1 -1</clus>
<clus scale="   82.619">  1  3  2 -1</clus>
</clustering>
</event>
<event>
 6    0  0.8991567E+002  0.9478692E+02  0.7546771E-02  0.1291657E+00
         21   -1    0    0  504  501  0.00000000000E+00  0.00000000000E+00  0.22703632938E+02  0.22703632938E+02  0.00000000000E+00 0.  1.
         21   -1    0    0  506  502 -0.00000000000E+00 -0.00000000000E+00 -0.14566577216E+04  0.14566577216E+04  0.00000000000E+00 0.  1.
         21    1    1    2  503  501  0.59783874129E+02  0.37481911296E+02 -0.15464218682E+03  0.16998003184E+03  0.00000000000E+00 0.  1.
         21    1    1    2  504  505 -0.56640776950E+02  0.57917151744E+02 -0.18378079506E+03  0.20084310969E+03  0.00000000000E+00 0.  1.
         21    1    1    2  505  502 -0.24449979540E+02  0.29153393098E+02 -0.38336999575E+03  0.38525352103E+03  0.00000000000E+00 0.  1.
         21    1    1    2  506  503  0.21306882361E+02 -0.12455245614E+03 -0.71216111106E+03  0.72328469199E+03  0.00000000000E+00 0.  1.
<scales pt_clust_3="70.00337" pt_clust_4="94.78692" pt_clust_5="38.04894" pt_clust_6="14000.00000"></scales>
<clustering>
<clus scale="   38.049">  2  5  1 -1</clus>
<clus scale="   70.003">  1  3  2 -1</clus>
<clus scale="   94.787">  1  4  2 -1</clus>
<clus scale="   70.003">  1  3  2 -1</clus>
</clustering>
</event>
<event>
 6    0  0.8991567E+002  0.8033953E+02  0.7546771E-02  0.1328091E+00
         21   -1    0    0  504  501  0.00000000000E+00  0.00000000000E+00  0.23202816019E+04  0.23202816019E+04  0.00000000000E+00 0.  1.
         21   -1    0    0  506  502 -0.00000000000E+00 -0.00000000000E+00 -0.34072617162E+03  0.34072617162E+03  0.00000000000E+00 0.  1.
         21    1    1    2  503  501 -0.82479119465E+02 -0.26735517560E+02  0.65638396922E+03  0.66208572564E+03  0.00000000000E+00 0.  1.
         21    1    1    2  504  505  0.54715765584E+01  0.41437395361E+02  0.15890106704E+04  0.15895602872E+04  0.00000000000E+00 0.  1.
         21    1    1    2  505  502  0.10433420339E+03 -0.37087503767E+02  0.27345582784E+02  0.11405652033E+03  0.00000000000E+00 0.  1.
         21    1    1    2  506  503 -0.27326660483E+02  0.22385625966E+02 -0.29318479216E+03  0.29530524035E+03  0.00000000000E+00 0.  1.
<scales pt_clust_3="80.33953" pt_clust_4="41.90752" pt_clust_5="14000.00000" pt_clust_6="35.32510"></scales>
<clustering>
<clus scale="   35.325">  2  6  1 -1</clus>
<clus scale="   41.908">  1  4  2 -1</clus>
<clus scale="   80.340">  1  3  2 -1</clus>
<clus scale="   41.908">  1  3  2 -1</clus>
</clustering>
</event>
<event>
 6    0  0.8991567E+002  0.1417388E+03  0.7546771E-02  0.1211008E+00
         21   -1    0    0  503  501  0.00000000000E+00  0.00000000000E+00  0.16065385850E+03  0.16065385850E+03  0.00000000000E+00 0. -1.
         21   -1    0    0  506  502 -0.00000000000E+00 -0.00000000000E+00 -0.10911108483E+04  0.10911108483E+04  0.00000000000E+00 0. -1.
         21    1    1    2  503  502 -0.25796150387E+02 -0.28361314092E+02  0.94586920332E+02  0.10206121207E+03  0.00000000000E+00 0. -1.
         21    1    1    2  504  501 -0.30403658295E+02 -0.43754975132E+02  0.23405347024E+02  0.58195279498E+02  0.00000000000E+00 0. -1.
         21    1    1    2  505  504 -0.33748183381E+02 -0.33408063071E+02 -0.16480261625E+02  0.50265670023E+02  0.00000000000E+00 0. -1.
         21    1    1    2  506  505  0.89947992062E+02  0.10552435229E+03 -0.10319689955E+04  0.10412425452E+04  0.00000000000E+00 0. -1.
<scales pt_clust_3="38.33804" pt_clust_4="38.30422" pt_clust_5="38.30422" pt_clust_6="135.80746"></scales>
<clustering>
<clus scale="   38.304">  4  5 -1 -1</clus>
<clus scale="   38.338">  1  3  2 -1</clus>
<clus scale="  135.807">  2  6  1 -1</clus>
<clus scale="   38.338">  1  3  2 -1</clus>
</clustering>
</event>
<event>
 6    0  0.8991567E+002  0.1316353E+03  0.7546771E-02  0.1225049E+00
         21   -1    0    0  505  501  0.00000000000E+00  0.00000000000E+00  0.23919647991E+03  0.23919647991E+03  0.00000000000E+00 0.  1.
         21   -1    0    0  504  502 -0.00000000000E+00 -0.00000000000E+00 -0.27641908562E+03  0.27641908562E+03  0.00000000000E+00 0. -1.
         21    1    1    2  503  501  0.12359826382E+03 -0.48247775962E+02  0.13639329379E+03  0.19028270887E+03  0.00000000000E+00 0.  1.
         21    1    1    2  504  503 -0.10914427677E+03  0.55023749723E+02 -0.17908440904E+03  0.21682092092E+03  0.00000000000E+00 0. -1.
         21    1    1    2  505  506 -0.22579080397E+02 -0.42155126635E+02  0.36972816854E+02  0.60447156751E+02  0.00000000000E+00 0.  1.
         21    1    1    2  506  502  0.81250933467E+01  0.35379152874E+02 -0.31504307315E+02  0.48064778990E+02  0.00000000000E+00 0.  1.
<scales pt_clust_3="131.63532" pt_clust_4="14000.00000" pt_clust_5="46.08647" pt_clust_6="36.30016"></scales>
<clustering>
<clus scale="   36.300">  2  6  1 -1</clus>
<clus scale="   46.086">  1  5  2 -1</clus>
<clus scale="  131.635">  1  3  2 -1</clus>
<clus scale="   46.086">  1  3  2 -1</clus>
</clustering>
</event>
<event>
 6    0  0.8991567E+002  0.1156572E+03  0.7546771E-02  0.1250438E+00
         21   -1    0    0  505  501  0.00000000000E+00  0.00000000000E+00  0.35799464407E+03  0.35799464407E+03  0.00000000000E+00 0.  1.
         21   -1    0    0  504  502 -0.00000000000E+00 -0.00000000000E+00 -0.22165592787E+04  0.22165592787E+04  0.00000000000E+00 0.  1.
         21    1    1    2  503  501  0.10872113823E+03 -0.12963989454E+02 -0.16584194841E+03  0.19872569731E+03  0.00000000000E+00 0.  1.
         21    1    1    2  504  503  0.17438417115E+02  0.26846292811E+02 -0.19279773666E+04  0.19282431247E+04  0.00000000000E+00 0.  1.
         21    1    1    2  505  506 -0.84848593247E+02 -0.82460410525E+02  0.31383953016E+03  0.33540163055E+03  0.00000000000E+00 0.  1.
         21    1    1    2  506  502 -0.41310962100E+02  0.68578107169E+02 -0.78584849753E+02  0.11218347019E+03  0.00000000000E+00 0.  1.
<scales pt_clust_3="115.65721" pt_clust_4="32.01284" pt_clust_5="14000.00000" pt_clust_6="85.22195"></scales>
<clustering>
<clus scale="   32.013">  2  4  1 -1</clus>
<clus scale="   85.222">  2  6  1 -1</clus>
<clus scale="  115.657">  2  3  1 -1</clus>
<clus scale="  115.657">  1  3  2 -1</clus>
</clustering>
</event>
<event>
 6    0  0.2152582E+003  0.1009435E+03  0.7546771E-02  0.1278324E+00
         21   -1    0    0  504  501  0.00000000000E+00  0.00000000000E+00  0.20011320121E+04  0.20011320121E+04  0.00000000000E+00 0. -1.
         21   -1    0    0  501  502 -0.00000000000E+00 -0.00000000000E+00 -0.58067582124E+03  0.58067582124E+03  0.00000000000E+00 0.  1.
         21    1    1    2  503  502 -0.86897560902E+01  0.64006825848E+02 -0.51069776950E+03  0.51476654649E+03  0.00000000000E+00 0.  1.
         21    1    1    2  504  505  0.48648510891E+02  0.65241142343E+00  0.11364168003E+04  0.11374578002E+04  0.00000000000E+00 0. -1.
         21    1    1    2  505  506  0.40152456740E+02 -0.56294961148E+02  0.83615684924E+03  0.83901109585E+03  0.00000000000E+00 0. -1.
         21    1    1    2  506  503 -0.80111211540E+02 -0.83642761233E+01 -0.41419689150E+02  0.90572390820E+02  0.00000000000E+00 0.  1.
<scales pt_clust_3="64.58022" pt_clust_4="48.65289" pt_clust_5="14000.00000" pt_clust_6="100.94349"></scales>
<clustering>
<clus scale="   48.653">  1  4  2 -1</clus>
<clus scale="   64.580">  2  3  1 -1</clus>
<clus scale="  100.943">  2  6  1 -1</clus>
<clus scale="   48.653">  1  3  2 -1</clus>
</clustering>
</event>
<event>
 6    0  0.8991567E+002  0.8927617E+02  0.7546771E-02  0.1304614E+00
         21   -1    0    0  504  501  0.00000000000E+00  0.00000000000E+00  0.49935602822E+03  0.49935602822E+03  0.00000000000E+00 0.  1.
         21   -1    0    0  505  502 -0.00000000000E+00 -0.00000000000E+00 -0.82739471064E+03  0.82739471064E+03  0.00000000000E+00 0. -1.
         21    1    1    2  503  502  0.22392338733E+02 -0.45608492814E+02 -0.59917516683E+03  0.60132556240E+03  0.00000000000E+00 0. -1.
         21    1    1    2  504  503 -0.13640999207E+01 -0.51804983400E+02 -0.14592697237E+03  0.15485573395E+03  0.00000000000E+00 0. -1.
         21    1    1    2  505  506  0.41708648083E+00  0.12319848156E+03 -0.26270334865E+02  0.12596892599E+03  0.00000000000E+00 0. -1.
         21    1    1    2  506  501 -0.21445325293E+02 -0.25785005349E+02  0.44333379164E+03  0.44460051652E+03  0.00000000000E+00 0.  1.
<scales pt_clust_3="51.07826" pt_clust_4="14000.00000" pt_clust_5="89.27617" pt_clust_6="33.53757"></scales>
<clustering>
<clus scale="   33.538">  1  6  2 -1</clus>
<clus scale="   51.078">  2  3  1 -1</clus>
<clus scale="   89.276">  1  5  2 -1</clus>
<clus scale="   33.538">  1  3  2 -1</clus>
</clustering>
</event>
<event>
 6    0  0.8991567E+002  0.1552468E+03  0.7546771E-02  0.1194170E+00
         21   -1    0    0  505  501  0.00000000000E+00  0.00000000000E+00  0.40769898995E+02  0.40769898995E+02  0.00000000000E+00 0.  1.
         21   -1    0    0  503  502 -0.00000000000E+00 -0.00000000000E+00 -0.24060854834E+04  0.24060854834E+04  0.00000000000E+00 0. -1.
         21    1    1    2  503  506 -0.53010859637E+02  0.26288268801E+02 -0.43145373118E+03  0.43549230357E+03  0.00000000000E+00 0. -1.
         21    1    1    2  504  502  0.16654227775E+03 -0.26700864293E+02 -0.10134288990E+04  0.10273691643E+04  0.00000000000E+00 0.  1.
         21    1    1    2  505  504 -0.33341571062E+02  0.12376837460E+02  0.19507332392E+02  0.40563314503E+02  0.00000000000E+00 0.  1.
         21    1    1    2  506  501 -0.80189847050E+02 -0.11964241968E+02 -0.93994028658E+03  0.94343059998E+03  0.00000000000E+00 0. -1.
<scales pt_clust_3="45.90694" pt_clust_4="146.09024" pt_clust_5="35.56468" pt_clust_6="45.90694"></scales>
<clustering>
<clus scale="   35.565">  1  5  2 -1</clus>
<clus scale="   45.907">  3  6 -1 -1</clus>
<clus scale="  146.090">  1  4  2 -1</clus>
<clus scale="   35.565">  1  3  2 -1</clus>
</clustering>
</event>
<event>
 6    0  0.8991567E+002  0.1013836E+03  0.7546771E-02  0.1277413E+00
         21   -1    0    0  505  501  0.00000000000E+00  0.00000000000E+00  0.48868696277E+03  0.48868696277E+03  0.00000000000E+00 0.  1.
         21   -1    0    0  506  502 -0.00000000000E+00 -0.00000000000E+00 -0.47842448929E+03  0.47842448929E+03  0.00000000000E+00 0.  1.
         21    1    1    2  503  504 -0.41786643659E+02 -0.36975326693E+02  0.17723726237E+03  0.18581266250E+03  0.00000000000E+00 0. -1.
         21    1    1    2  504  502 -0.30919514910E+02 -0.57300955975E+02  0.10802728513E+03  0.12613211443E+03  0.00000000000E+00 0.  1.
         21    1    1    2  505  503  0.17494573205E+02  0.77237749118E+02  0.17992616668E+03  0.19658371101E+03  0.00000000000E+00 0.  1.
         21    1    1    2  506  501  0.55211585365E+02  0.17038533551E+02 -0.45492824070E+03  0.45858296411E+03  0.00000000000E+00 0.  1.
<scales pt_clust_3="38.83030" pt_clust_4="38.83030" pt_clust_5="92.29925" pt_clust_6="57.78089"></scales>
<clustering>
<clus scale="   38.830">  3  4 -1 -1</clus>
<clus scale="   57.781">  2  6  1 -1</clus>
<clus scale="   92.299">  1  5  2 -1</clus>
<clus scale="   92.299">  1  3  2 -1</clus>
</clustering>
</event>
<event>
 6    0  0.8991567E+002  0.8513974E+02  0.7546771E-02  0.1315068E+00
         21   -1    0    0  506  501  0.00000000000E+00  0.00000000000E+00  0.67888387033E+03  0.67888387033E+03  0.00000000000E+00 0. -1.
         21   -1    0    0  505  502 -0.00000000000E+00 -0.00000000000E+00 -0.37635886072E+02  0.37635886072E+02  0.00000000000E+00 0. -1.
         21    1    1    2  503  502 -0.89202771403E+01 -0.44998220605E+02  0.33084384038E+02  0.56559593961E+02  0.00000000000E+00 0. -1.
         21    1    1    2  504  501  0.11116254228E+02 -0.79874319669E+02  0.32227438314E+03  0.33221116189E+03  0.00000000000E+00 0. -1.
         21    1    1    2  505  504 -0.46077710475E+01  0.32297498627E+02  0.63067548644E+01  0.33228528834E+02  0.00000000000E+00 0. -1.
         21    1    1    2  506  503  0.24117939600E+01  0.92575041648E+02  0.27958246221E+03  0.29452047172E+03  0.00000000000E+00 0. -1.
<scales pt_clust_3="31.36832" pt_clust_4="85.13974" pt_clust_5="32.62453" pt_clust_6="14000.00000"></scales>
<clustering>
<clus scale="   32.625">  2  5  1 -1</clus>
<clus scale="   31.368">  2  3  1 -1</clus>
<clus scale="   85.140">  1  4  2 -1</clus>
<clus scale="   85.140">  1  3  2 -1</clus>
</clustering>
</event>
<event>
 6    0  0.8991567E+002  0.1316235E+03  0.7546771E-02  0.1225066E+00
         21   -1    0    0  503  501  0.00000000000E+00  0.00000000000E+00  0.50438218707E+04  0.50438218707E+04  0.00000000000E+00 0.  1.
         21   -1    0    0  506  502 -0.00000000000E+00 -0.00000000000E+00 -0.36445426270E+02  0.36445426270E+02  0.00000000000E+00 0.  1.
         21    1    1    2  503  505 -0.27574665765E+02 -0.31111223095E+02  0.86080904875E+03  0.86181232806E+03  0.00000000000E+00 0.  1.
         21    1    1    2  504  502 -0.21943464649E+02  0.65199048194E+02  0.73059910564E+01  0.69179542001E+02  0.00000000000E+00 0.  1.
         21    1    1    2  505  504  0.91230927606E+02 -0.14275374378E+03  0.21910324104E+04  0.21975724645E+04  0.00000000000E+00 0.  1.
         21    1    1    2  506  501 -0.41712797192E+02  0.10866591868E+03  0.19482289943E+04  0.19517029624E+04  0.00000000000E+00 0.  1.
<scales pt_clust_3="41.57247" pt_clust_4="68.60428" pt_clust_5="14000.00000" pt_clust_6="131.62354"></scales>
<clustering>
<clus scale="   41.572">  1  3  2 -1</clus>
<clus scale="   68.604">  2  4  1 -1</clus>
<clus scale="  131.624">  1  6  2 -1</clus>
<clus scale="   41.572">  1  3  2 -1</clus>
</clustering>
</event>
<event>
 6    0  0.8991567E+002  0.9693024E+02  0.7546771E-02  0.1286887E+00
         21   -1    0    0  503  501  0.00000000000E+00  0.00000000000E+00  0.25389241880E+04  0.25389241880E+04  0.00000000000E+00 0. -1.
         21   -1    0    0  504  502 -0.00000000000E+00 -0.00000000000E+00 -0.50948548303E+03  0.50948548303E+03  0.00000000000E+00 0. -1.
         21    1    1    2  503  506  0.13582131486E+03  0.81263448462E+02  0.42911394395E+03  0.45737288346E+03  0.00000000000E+00 0. -1.
         21    1    1    2  504  501 -0.36454578059E+02 -0.76530055272E+02  0.20626022954E+04  0.20643434827E+04  0.00000000000E+00 0. -1.
         21    1    1    2  505  502 -0.31752681655E+02  0.16680819032E+02 -0.45385587111E+03  0.45527094598E+03  0.00000000000E+00 0. -1.
         21    1    1    2  506  505 -0.67614055150E+02 -0.21414212222E+02 -0.84216632421E+01  0.71422358899E+02  0.00000000000E+00 0.  1.
<scales pt_clust_3="14000.00000" pt_clust_4="84.74866" pt_clust_5="35.86757" pt_clust_6="96.93024"></scales>
<clustering>
<clus scale="   35.868">  2  5  1 -1</clus>
<clus scale="   84.749">  1  4  2 -1</clus>
<clus scale="   96.930">  2  6  1 -1</clus>
<clus scale="   84.749">  1  3  2 -1</clus>
</clustering>
</event>
<event>
 6    0  0.8991567E+002  0.6547418E+02  0.7546771E-02  0.1376197E+00
         21   -1    0    0  506  501  0.00000000000E+00  0.00000000000E+00  0.14318777515E+03  0.14318777515E+03  0.00000000000E+00 0.  1.
         21   -1    0    0  504  502 -0.00000000000E+00 -0.00000000000E+00 -0.90821359193E+03  0.90821359193E+03  0.00000000000E+00 0. -1.
         21    1    1    2  503  501  0.27074786802E+02 -0.39196488868E+02 -0.40789877935E+02  0.62715412475E+02  0.00000000000E+00 0.  1.
         21    1    1    2  504  503  0.32596688928E+02 -0.52654728027E+02 -0.56540116338E+03  0.56878250682E+03  0.00000000000E+00 0. -1.
         21    1    1    2  505  502 -0.90531432570E+02  0.24805224104E+02 -0.27034615950E+03  0.28617876473E+03  0.00000000000E+00 0.  1.
         21    1    1    2  506  505  0.30859956840E+02  0.67045992791E+02  0.11151138404E+03  0.13372468305E+03  0.00000000000E+00 0.  1.
<scales pt_clust_3="47.63831" pt_clust_4="62.53626" pt_clust_5="65.47418" pt_clust_6="14000.00000"></scales>
<clustering>
<clus scale="   47.638">  1  3  2 -1</clus>
<clus scale="   62.536">  2  4  1 -1</clus>
<clus scale="   65.474">  2  5  1 -1</clus>
<clus scale="   47.638">  1  3  2 -1</clus>
</clustering>
</event>
<event>
 6    0  0.8991567E+002  0.6901556E+02  0.7546771E-02  0.1363473E+00
         21   -1    0    0  506  501  0.00000000000E+00  0.00000000000E+00  0.34724941391E+02  0.34724941391E+02  0.00000000000E+00 0. -1.
         21   -1    0    0  501  502 -0.00000000000E+00 -0.00000000000E+00 -0.21443262822E+04  0.21443262822E+04  0.00000000000E+00 0.  1.
         21    1    1    2  503  505  0.41916592973E+02  0.10156125777E+03 -0.18456949059E+03  0.21479661707E+03  0.00000000000E+00 0.  1.
         21    1    1    2  504  502  0.66162560342E+02 -0.14627252477E+02 -0.14377217418E+04  0.14393176327E+04  0.00000000000E+00 0.  1.
         21    1    1    2  505  504 -0.82359621627E+02 -0.33526089782E+02 -0.44055384530E+03  0.44943831231E+03  0.00000000000E+00 0. -1.
         21    1    1    2  506  503 -0.25719531688E+02 -0.53407915511E+02 -0.46756263090E+02  0.75498661496E+02  0.00000000000E+00 0. -1.
<scales pt_clust_3="65.97526" pt_clust_4="14000.00000" pt_clust_5="69.01556" pt_clust_6="59.27816"></scales>
<clustering>
<clus scale="   59.278">  1  6  2 -1</clus>
<clus scale="   65.975">  1  3  2 -1</clus>
<clus scale="   69.016">  1  5  2 -1</clus>
<clus scale="   59.278">  1  3  2 -1</clus>
</clustering>
</event>
<event>
 6    0  0.8991567E+002  0.1239469E+03  0.7546771E-02  0.1236724E+00
         21   -1    0    0  506  501  0.00000000000E+00  0.00000000000E+00  0.13198473037E+03  0.13198473037E+03  0.00000000000E+00 0.  1.
         21   -1    0    0  504  502 -0.00000000000E+00 -0.00000000000E+00 -0.23383881591E+03  0.23383881591E+03  0.00000000000E+00 0. -1.
         21    1    1    2  503  502  0.38415243043E+02  0.29858800594E+02 -0.40366007074E+02  0.63219406815E+02  0.00000000000E+00 0. -1.
         21    1    1    2  504  501  0.69538329302E+02 -0.82363960229E+02 -0.12041650710E+03  0.16161539645E+03  0.00000000000E+00 0. -1.
         21    1    1    2  505  503 -0.67614538126E+02  0.55352317819E+02  0.44431531789E+02  0.98029413295E+02  0.00000000000E+00 0.  1.
         21    1    1    2  506  505 -0.40339034219E+02 -0.28471581840E+01  0.14496896846E+02  0.42959329715E+02  0.00000000000E+00 0.  1.
<scales pt_clust_3="48.65469" pt_clust_4="115.62156" pt_clust_5="30.38145" pt_clust_6="30.38145"></scales>
<clustering>
<clus scale="   30.381">  5  6 -1 -1</clus>
<clus scale="   48.655">  2  3  1 -1</clus>
<clus scale="  115.622">  2  4  1 -1</clus>
<clus scale="  123.947">  1  3  2 -1</clus>
</clustering>
</event>
<event>
 6    0  0.8991567E+002  0.1188550E+03  0.7546771E-02  0.1244998E+00
         21   -1    0    0  503  501  0.00000000000E+00  0.00000000000E+00  0.15256541578E+03  0.15256541578E+03  0.00000000000E+00 0.  1.
         21   -1    0    0  504  502 -0.00000000000E+00 -0.00000000000E+00 -0.27022694798E+03  0.27022694798E+03  0.00000000000E+00 0. -1.
         21    1    1    2  503  502  0.11204144662E+03  0.17033119906E+02  0.56139082462E+02  0.12647137824E+03  0.00000000000E+00 0.  1.
         21    1    1    2  504  505 -0.17216779801E+02  0.28143713541E+02 -0.62285333631E+02  0.70483678282E+02  0.00000000000E+00 0. -1.
         21    1    1    2  505  506  0.26019773516E+02  0.30118156508E+02 -0.64689050424E+02  0.75952651106E+02  0.00000000000E+00 0. -1.
         21    1    1    2  506  501 -0.12084444033E+03 -0.75294989956E+02 -0.46826230600E+02  0.14988465613E+03  0.00000000000E+00 0. -1.
<scales pt_clust_3="118.85502" pt_clust_4="32.99221" pt_clust_5="44.60289" pt_clust_6="14000.00000"></scales>
<clustering>
<clus scale="   32.992">  2  4  1 -1</clus>
<clus scale="   44.603">  2  5  1 -1</clus>
<clus scale="  118.855">  1  3  2 -1</clus>
<clus scale="  118.855">  1  3  2 -1</clus>
</clustering>
</event>
<event>
 6    0  0.8991567E+002  0.1832593E+03  0.7546771E-02  0.1164685E+00
         21   -1    0    0  503  501  0.00000000000E+00  0.00000000000E+00  0.29884345350E+03  0.29884345350E+03  0.00000000000E+00 0.  1.
         21   -1    0    0  506  502 -0.00000000000E+00 -0.00000000000E+00 -0.10858994775E+04  0.10858994775E+04  0.00000000000E+00 0. -1.
         21    1    1    2  503  505  0.18101125818E+03 -0.40379981838E+02  0.23713655191E+03  0.30104711055E+03  0.00000000000E+00 0.  1.
         21    1    1    2  504  501  0.30323085554E+00  0.75947873775E+02 -0.10708096448E+03  0.13128025150E+03  0.00000000000E+00 0. -1.
         21    1    1    2  505  502 -0.16723333421E+03 -0.63516689842E+02 -0.44995101206E+03  0.48420788017E+03  0.00000000000E+00 0. -1.
         21    1    1    2  506  504 -0.14081154818E+02  0.27948797905E+02 -0.46716059941E+03  0.46820768881E+03  0.00000000000E+00 0. -1.
<scales pt_clust_3="183.25930" pt_clust_4="81.37163" pt_clust_5="14000.00000" pt_clust_6="31.29559"></scales>
<clustering>
<clus scale="   31.296">  2  6  1 -1</clus>
<clus scale="   81.372">  2  4  1 -1</clus>
<clus scale="  183.259">  1  3  2 -1</clus>
<clus scale="  183.259">  1  3  2 -1</clus>
</clustering>
</event>
<event>
 6    0  0.8991567E+002  0.9150520E+02  0.7546771E-02  0.1299247E+00
         21   -1    0    0  506  501  0.00000000000E+00  0.00000000000E+00  0.13927950195E+04  0.13927950195E+04  0.00000000000E+00 0.  1.
         21   -1    0    0  503  502 -0.00000000000E+00 -0.00000000000E+00 -0.89739090721E+02  0.89739090721E+02  0.00000000000E+00 0. -1.
         21    1    1    2  503  505 -0.13436294208E+02 -0.30762429449E+02 -0.48741722141E+02  0.59182907540E+02  0.00000000000E+00 0. -1.
         21    1    1    2  504  502  0.67364849793E+02  0.32915741673E+02  0.20875821108E+02  0.77828458448E+02  0.00000000000E+00 0. -1.
         21    1    1    2  505  501 -0.18845412939E+02  0.90717837026E+02  0.80482915353E+03  0.81014495117E+03  0.00000000000E+00 0.  1.
         21    1    1    2  506  504 -0.35083142646E+02 -0.92871149251E+02  0.52609267629E+03  0.53537779307E+03  0.00000000000E+00 0.  1.
<scales pt_clust_3="33.56875" pt_clust_4="57.29396" pt_clust_5="14000.00000" pt_clust_6="91.50520"></scales>
<clustering>
<clus scale="   33.569">  2  3  1 -1</clus>
<clus scale="   57.294">  2  4  1 -1</clus>
<clus scale="   91.505">  2  6  1 -1</clus>
<clus scale="   91.505">  1  3  2 -1</clus>
</clustering>
</event>
<event>
 6    0  0.8991567E+002  0.8435022E+02  0.7546771E-02  0.1317141E+00
         21   -1    0    0  506  501  0.00000000000E+00  0.00000000000E+00  0.53461583150E+02  0.53461583150E+02  0.00000000000E+00 0.  1.
         21   -1    0    0  504  502 -0.00000000000E+00 -0.00000000000E+00 -0.85708574776E+03  0.85708574776E+03  0.00000000000E+00 0.  1.
         21    1    1    2  503  502 -0.61723734460E+02  0.46229644941E+02 -0.11492736484E+03  0.13840266853E+03  0.00000000000E+00 0.  1.
         21    1    1    2  504  505  0.47337775546E+02  0.10035774652E+02 -0.37791776707E+03  0.38100317641E+03  0.00000000000E+00 0.  1.
         21    1    1    2  505  501  0.92079397726E+01 -0.96291665524E+02 -0.33181607152E+03  0.34562808960E+03  0.00000000000E+00 0.  1.
         21    1    1    2  506  503  0.51780191413E+01  0.40026245930E+02  0.21037038829E+02  0.45513396359E+02  0.00000000000E+00 0.  1.
<scales pt_clust_3="14000.00000" pt_clust_4="49.49705" pt_clust_5="84.35022" pt_clust_6="40.35979"></scales>
<clustering>
<clus scale="   40.360">  1  6  2 -1</clus>
<clus scale="   49.497">  2  4  1 -1</clus>
<clus scale="   84.350">  2  5  1 -1</clus>
<clus scale="   40.360">  1  3  2 -1</clus>
</clustering>
</event>
<event>
 6    0  0.8991567E+002  0.1656270E+03  0.7546771E-02  0.1182486E+00
         21   -1    0    0  503  501  0.00000000000E+00  0.00000000000E+00  0.13799664144E+03  0.13799664144E+03  0.00000000000E+00 0. -1.
         21   -1    0    0  504  502 -0.00000000000E+00 -0.00000000000E+00 -0.12238317481E+04  0.12238317481E+04  0.00000000000E+00 0.  1.
         21    1    1    2  503  506  0.41929783943E+02 -0.15142400606E+02 -0.12143097005E+03  0.12935563213E+03  0.00000000000E+00 0.  1.
         21    1    1    2  504  501 -0.15328774027E+03  0.58323234953E+01  0.85138929387E+02  0.17544168436E+03  0.00000000000E+00 0. -1.
         21    1    1    2  505  502  0.30794895730E+02 -0.15075347186E+02 -0.48933084730E+03  0.49053060028E+03  0.00000000000E+00 0.  1.
         21    1    1    2  506  505  0.80563060600E+02  0.24385424297E+02 -0.56021221867E+03  0.56650047272E+03  0.00000000000E+00 0.  1.
<scales pt_clust_3="46.42220" pt_clust_4="151.47260" pt_clust_5="34.28690" pt_clust_6="46.42220"></scales>
<clustering>
<clus scale="   34.287">  2  5  1 -1</clus>
<clus scale="   46.422">  3  6 -1 -1</clus>
<clus scale="  151.473">  1  4  2 -1</clus>
<clus scale="  151.473">  1  3  2 -1</clus>
</clustering>
</event>
<event>
 6    0  0.8991567E+002  0.1488064E+03  0.7546771E-02  0.1201947E+00
         21   -1    0    0  502  501  0.00000000000E+00  0.00000000000E+00  0.48975841971E+03  0.48975841971E+03  0.00000000000E+00 0. -1.
         21   -1    0    0  506  502 -0.00000000000E+00 -0.00000000000E+00 -0.65923518524E+03  0.65923518524E+03  0.00000000000E+00 0.  1.
         21    1    1    2  503  505 -0.12988550374E+03 -0.66136430150E+02 -0.40087258753E+02  0.15116633154E+03  0.00000000000E+00 0.  1.
         21    1    1    2  504  501  0.20802232013E+02 -0.36166971183E+02  0.33990309216E+03  0.34245422281E+03  0.00000000000E+00 0. -1.
         21    1    1    2  505  504  0.12881116618E+03  0.77613476795E+02  0.31445071741E+02  0.15363906030E+03  0.00000000000E+00 0.  1.
         21    1    1    2  506  503 -0.19727894447E+02  0.24689924537E+02 -0.50073767068E+03  0.50173399031E+03  0.00000000000E+00 0.  1.
<scales pt_clust_3="14000.00000" pt_clust_4="41.47051" pt_clust_5="148.80635" pt_clust_6="31.60352"></scales>
<clustering>
<clus scale="   31.604">  2  6  1 -1</clus>
<clus scale="   41.471">  1  4  2 -1</clus>
<clus scale="  148.806">  1  5  2 -1</clus>
<clus scale="   41.471">  1  3  2 -1</clus>
</clustering>
</event>
<event>
 6    0  0.8991567E+002  0.1270936E+03  0.7546771E-02  0.1231833E+00
         21   -1    0    0  504  501  0.00000000000E+00  0.00000000000E+00  0.96824051584E+02  0.96824051584E+02  0.00000000000E+00 0. -1.
         21   -1    0    0  503  502 -0.00000000000E+00 -0.00000000000E+00 -0.56997783050E+03  0.56997783050E+03  0.00000000000E+00 0. -1.
         21    1    1    2  503  501  0.16111823596E+03  0.18605285667E+02 -0.60099253233E+02  0.17296578521E+03  0.00000000000E+00 0. -1.
         21    1    1    2  504  505 -0.18284741718E+02 -0.31430349894E+02 -0.37821902978E+01  0.36558222572E+02  0.00000000000E+00 0.  1.
         21    1    1    2  505  506 -0.82203083882E+02 -0.58787258468E+02 -0.14419829317E+03  0.17608644613E+03  0.00000000000E+00 0. -1.
         21    1    1    2  506  502 -0.60630410359E+02  0.71612322694E+02 -0.26507404221E+03  0.28119142817E+03  0.00000000000E+00 0. -1.
<scales pt_clust_3="14000.00000" pt_clust_4="36.36205" pt_clust_5="127.09362" pt_clust_6="92.67565"></scales>
<clustering>
<clus scale="   36.362">  1  4  2 -1</clus>
<clus scale="   92.676">  2  6  1 -1</clus>
<clus scale="  127.094">  2  5  1 -1</clus>
<clus scale="   36.362">  1  3  2 -1</clus>
</clustering>
</event>
<event>
 6    0  0.8991567E+002  0.9783463E+02  0.7546771E-02  0.1284916E+00
         21   -1    0    0  506  501  0.00000000000E+00  0.00000000000E+00  0.83916514610E+02  0.83916514610E+02  0.00000000000E+00 0.  1.
         21   -1    0    0  503  502 -0.00000000000E+00 -0.00000000000E+00 -0.45964700467E+03  0.45964700467E+03  0.00000000000E+00 0.  1.
         21    1    1    2  503  505  0.48133110602E+01  0.10141625284E+03 -0.34265771058E+03  0.35738317101E+03  0.00000000000E+00 0.  1.
         21    1    1    2  504  502  0.11668031573E+02 -0.73730415313E+02  0.20541503219E+02  0.77422674053E+02  0.00000000000E+00 0.  1.
         21    1    1    2  505  501  0.16087897979E+02 -0.50316897913E+02 -0.41835071266E+02  0.67385338649E+02  0.00000000000E+00 0.  1.
         21    1    1    2  506  504 -0.32569240613E+02  0.22631060384E+02 -0.11779211435E+02  0.41372335567E+02  0.00000000000E+00 0.  1.
<scales pt_clust_3="97.83463" pt_clust_4="14000.00000" pt_clust_5="47.21997" pt_clust_6="39.66006"></scales>
<clustering>
<clus scale="   39.660">  1  6  2 -1</clus>
<clus scale="   47.220">  1  5  2 -1</clus>
<clus scale="   97.835">  2  3  1 -1</clus>
<clus scale="   39.660">  1  3  2 -1</clus>
</clustering>
</event>
<event>
 6    0  0.8991567E+002  0.8284422E+02  0.7546771E-02  0.1321168E+00
         21   -1    0    0  504  501  0.00000000000E+00  0.00000000000E+00  0.12695955892E+04  0.12695955892E+04  0.00000000000E+00 0. -1.
         21   -1    0    0  503  502 -0.00000000000E+00 -0.00000000000E+00 -0.10562093087E+03  0.10562093087E+03  0.00000000000E+00 0. -1.
         21    1    1    2  503  501  0.10862939144E+03 -0.50599731109E+02  0.36642060037E+03  0.38551878534E+03  0.00000000000E+00 0. -1.
         21    1    1    2  504  506 -0.23338512596E+02 -0.21370612122E+02  0.64716814041E+03  0.64794134858E+03  0.00000000000E+00 0. -1.
         21    1    1    2  505  502 -0.75167974933E+02  0.30507960900E+02 -0.76132302111E+02  0.11125235979E+03  0.00000000000E+00 0. -1.
         21    1    1    2  506  505 -0.10122903915E+02  0.41462382331E+02  0.22651821968E+03  0.23050402638E+03  0.00000000000E+00 0.  1.
<scales pt_clust_3="14000.00000" pt_clust_4="31.64473" pt_clust_5="82.84422" pt_clust_6="38.46176"></scales>
<clustering>
<clus scale="   31.645">  1  4  2 -1</clus>
<clus scale="   38.462">  1  6  2 -1</clus>
<clus scale="   82.844">  2  5  1 -1</clus>
<clus scale="   31.645">  1  3  2 -1</clus>
</clustering>
</event>
<event>
 6    0  0.8991567E+002  0.1647956E+03  0.7546771E-02  0.1183386E+00
         21   -1    0    0  504  501  0.00000000000E+00  0.00000000000E+00  0.14772752197E+04  0.14772752197E+04  0.00000000000E+00 0.  1.
         21   -1    0    0  503  502 -0.00000000000E+00 -0.00000000000E+00 -0.60091269375E+02  0.60091269375E+02  0.00000000000E+00 0.  1.
         21    1    1    2  503  505  0.30279816294E+02  0.33774607717E+02  0.10743921043E+03  0.11662236208E+03  0.00000000000E+00 0.  1.
         21    1    1    2  504  506  0.53197879381E+02  0.13614342238E+03  0.95703102185E+03  0.96812882542E+03  0.00000000000E+00 0.  1.
         21    1    1    2  505  501  0.91368815133E+01 -0.29736650008E+02  0.25775310142E+03  0.25962359726E+03  0.00000000000E+00 0.  1.
         21    1    1    2  506  502 -0.92614577188E+02 -0.14018138009E+03  0.94960616661E+02  0.19299170435E+03  0.00000000000E+00 0.  1.
<scales pt_clust_3="43.95421" pt_clust_4="164.79562" pt_clust_5="31.10870" pt_clust_6="14000.00000"></scales>
<clustering>
<clus scale="   31.109">  1  5  2 -1</clus>
<clus scale="   43.954">  1  3  2 -1</clus>
<clus scale="  164.796">  1  4  2 -1</clus>
<clus scale="   31.109">  1  3  2 -1</clus>
</clustering>
</event>
<event>
 6    0  0.8991567E+002  0.1336653E+03  0.7546771E-02  0.1222116E+00
         21   -1    0    0  505  501  0.00000000000E+00  0.00000000000E+00  0.32203707945E+03  0.32203707945E+03  0.00000000000E+00 0.  1.
         21   -1    0    0  503  502 -0.00000000000E+00 -0.00000000000E+00 -0.16577209034E+03  0.16577209034E+03  0.00000000000E+00 0.  1.
         21    1    1    2  503  504  0.36926178847E+02 -0.10949225080E+03 -0.23312876826E+02  0.11787953976E+03  0.00000000000E+00 0.  1.
         21    1    1    2  504  501 -0.23385615437E+02 -0.31485125295E+02 -0.20991272081E+02  0.44484082859E+02  0.00000000000E+00 0. -1.
         21    1    1    2  505  506 -0.65409272227E+02  0.94567265546E+02  0.22418051478E+03  0.25194889127E+03  0.00000000000E+00 0.  1.
         21    1    1    2  506  502  0.51868708817E+02  0.46410110544E+02 -0.23611376763E+02  0.73496655895E+02  0.00000000000E+00 0.  1.
<scales pt_clust_3="38.38546" pt_clust_4="38.38546" pt_clust_5="116.29830" pt_clust_6="69.60073"></scales>
<clustering>
<clus scale="   38.385">  3  4 -1 -1</clus>
<clus scale="   69.601">  2  6  1 -1</clus>
<clus scale="  116.298">  1  5  2 -1</clus>
<clus scale="  116.298">  1  3  2 -1</clus>
</clustering>
</event>
<event>
 6    0  0.8991567E+002  0.7274902E+02  0.7546771E-02  0.1350987E+00
         21   -1    0    0  503  501  0.00000000000E+00  0.00000000000E+00  0.71783369267E+03  0.71783369267E+03  0.00000000000E+00 0.  1.
         21   -1    0    0  506  502 -0.00000000000E+00 -0.00000000000E+00 -0.11501252089E+03  0.11501252089E+03  0.00000000000E+00 0. -1.
         21    1    1    2  503  505  0.36180737518E+02 -0.64088493194E+01  0.11627176371E+03  0.12193950202E+03  0.00000000000E+00 0. -1.
         21    1    1    2  504  502 -0.22580606102E+02 -0.62134150471E+02 -0.58133752314E+02  0.88034479523E+02  0.00000000000E+00 0. -1.
         21    1    1    2  505  504  0.50825109897E+01  0.11806061005E+03  0.55008853861E+02  0.13034612985E+03  0.00000000000E+00 0.  1.
         21    1    1    2  506  501 -0.18682642406E+02 -0.49517610263E+02  0.48967430652E+03  0.49252610217E+03  0.00000000000E+00 0.  1.
<scales pt_clust_3="36.74397" pt_clust_4="14000.00000" pt_clust_5="72.74902" pt_clust_6="55.86687"></scales>
<clustering>
<clus scale="   36.744">  1  3  2 -1</clus>
<clus scale="   55.867">  1  6  2 -1</clus>
<clus scale="   72.749">  1  5  2 -1</clus>
<clus scale="   36.744">  1  3  2 -1</clus>
</clustering>
</event>
<event>
 6    0  0.8991567E+002  0.8025446E+02  0.7546771E-02  0.1328331E+00
         21   -1    0    0  506  501  0.00000000000E+00  0.00000000000E+00  0.60350183040E+02  0.60350183040E+02  0.00000000000E+00 0. -1.
         21   -1    0    0  503  502 -0.00000000000E+00 -0.00000000000E+00 -0.52802205368E+03  0.52802205368E+03  0.00000000000E+00 0. -1.
         21    1    1    2  503  504  0.81037604801E+01 -0.32100349326E+02 -0.24556319363E+03  0.24778495804E+03  0.00000000000E+00 0. -1.
         21    1    1    2  504  501 -0.10135559311E+03 -0.12119199665E+02 -0.15645057425E+03  0.18680635278E+03  0.00000000000E+00 0. -1.
         21    1    1    2  505  502  0.60834721003E+02 -0.16069249514E+02 -0.56785895138E+02  0.84756840114E+02  0.00000000000E+00 0. -1.
         21    1    1    2  506  505  0.32417111630E+02  0.60288798505E+02 -0.88722076216E+01  0.69024085793E+02  0.00000000000E+00 0. -1.
<scales pt_clust_3="33.10745" pt_clust_4="80.25446" pt_clust_5="14000.00000" pt_clust_6="65.14236"></scales>
<clustering>
<clus scale="   33.107">  2  3  1 -1</clus>
<clus scale="   65.142">  1  6  2 -1</clus>
<clus scale="   80.254">  2  4  1 -1</clus>
<clus scale="   65.142">  1  3  2 -1</clus>
</clustering>
</event>
<event>
 6    0  0.8991567E+002  0.1056622E+03  0.7546771E-02  0.1268820E+00
         21   -1    0    0  505  501  0.00000000000E+00  0.00000000000E+00  0.11217034189E+04  0.11217034189E+04  0.00000000000E+00 0. -1.
         21   -1    0    0  506  502 -0.00000000000E+00 -0.00000000000E+00 -0.49422323120E+02  0.49422323120E+02  0.00000000000E+00 0. -1.
         21    1    1    2  503  501  0.87860271099E+02 -0.75391573462E+01  0.42852926521E+03  0.43750839680E+03  0.00000000000E+00 0. -1.
         21    1    1    2  504  503 -0.14035259319E+03 -0.11280671905E+02  0.55748076535E+03  0.57498774571E+03  0.00000000000E+00 0. -1.
         21    1    1    2  505  502  0.51860401380E+02  0.66157258156E+02  0.42678615908E+02  0.94274855046E+02  0.00000000000E+00 0. -1.
         21    1    1    2  506  504  0.63192071039E+00 -0.47337428905E+02  0.43592449324E+02  0.64354744481E+02  0.00000000000E+00 0. -1.
<scales pt_clust_3="105.66220" pt_clust_4="14000.00000" pt_clust_5="62.84420" pt_clust_6="47.34165"></scales>
<clustering>
<clus scale="   47.342">  2  6  1 -1</clus>
<clus scale="   62.844">  2  5  1 -1</clus>
<clus scale="  105.662">  1  3  2 -1</clus>
<clus scale="  105.662">  1  3  2 -1</clus>
</clustering>
</event>
<event>
 6    0  0.8991567E+002  0.9923775E+02  0.7546771E-02  0.1281907E+00
         21   -1    0    0  502  501  0.00000000000E+00  0.00000000000E+00  0.11366041135E+03  0.11366041135E+03  0.00000000000E+00 0. -1.
         21   -1    0    0  503  502 -0.00000000000E+00 -0.00000000000E+00 -0.51280600317E+03  0.51280600317E+03  0.00000000000E+00 0. -1.
         21    1    1    2  503  504 -0.11747468107E+03  0.14694078447E+02 -0.34541549305E+03  0.36514117746E+03  0.00000000000E+00 0. -1.
         21    1    1    2  504  505  0.77411397147E+02  0.11325132028E+02 -0.11840187406E+03  0.14191471666E+03  0.00000000000E+00 0. -1.
         21    1    1    2  505  506  0.21313588310E+01 -0.52257180320E+02  0.22572984406E+02  0.56963981694E+02  0.00000000000E+00 0. -1.
         21    1    1    2  506  501  0.37931925092E+02  0.26237969844E+02  0.42098790881E+02  0.62446538706E+02  0.00000000000E+00 0. -1.
<scales pt_clust_3="99.23775" pt_clust_4="14000.00000" pt_clust_5="44.23091" pt_clust_6="46.12225"></scales>
<clustering>
<clus scale="   46.122">  1  6  2 -1</clus>
<clus scale="   44.231">  1  5  2 -1</clus>
<clus scale="   99.238">  2  3  1 -1</clus>
<clus scale="   46.122">  1  3  2 -1</clus>
</clustering>
</event>
<event>
 6    0  0.8991567E+002  0.1372871E+03  0.7546771E-02  0.1217027E+00
         21   -1    0    0  503  501  0.00000000000E+00  0.00000000000E+00  0.20152343298E+04  0.20152343298E+04  0.00000000000E+00 0.  1.
         21   -1    0    0  506  502 -0.00000000000E+00 -0.00000000000E+00 -0.14559044784E+03  0.14559044784E+03  0.00000000000E+00 0. -1.
         21    1    1    2  503  504  0.15351667224E+02 -0.28228232626E+02  0.77800768611E+02  0.84175212504E+02  0.00000000000E+00 0.  1.
         21    1    1    2  504  505 -0.11203081565E+03 -0.13468380788E+03  0.21139289715E+02  0.17645821412E+03  0.00000000000E+00 0. -1.
         21    1    1    2  505  502  0.76606141647E+02  0.88194061927E+02 -0.10516608746E+02  0.11729148544E+03  0.00000000000E+00 0. -1.
         21    1    1    2  506  501  0.20073006781E+02  0.74717978584E+02  0.17812204324E+04  0.17828998656E+04  0.00000000000E+00 0.  1.
<scales pt_clust_3="32.13264" pt_clust_4="14000.00000" pt_clust_5="137.28714" pt_clust_6="59.52752"></scales>
<clustering>
<clus scale="   32.133">  1  3  2 -1</clus>
<clus scale="   59.528">  1  6  2 -1</clus>
<clus scale="  137.287">  2  5  1 -1</clus>
<clus scale="   32.133">  1  3  2 -1</clus>
</clustering>
</event>
<event>
 6    0  0.8991567E+002  0.1517560E+03  0.7546771E-02  0.1198332E+00
         21   -1    0    0  503  501  0.00000000000E+00  0.00000000000E+00  0.13885905685E+03  0.13885905685E+03  0.00000000000E+00 0. -1.
         21   -1    0    0  504  502 -0.00000000000E+00 -0.00000000000E+00 -0.77641373061E+03  0.77641373061E+03  0.00000000000E+00 0. -1.
         21    1    1    2  503  505  0.33546094941E+02 -0.15658531846E+02  0.41684111486E+02  0.55750293773E+02  0.00000000000E+00 0. -1.
         21    1    1    2  504  506 -0.60169904913E+02  0.75080797752E+01 -0.49128249909E+03  0.49501038639E+03  0.00000000000E+00 0. -1.
         21    1    1    2  505  502  0.13009819223E+03  0.85976982136E+02 -0.27524719335E+02  0.15835148011E+03  0.00000000000E+00 0. -1.
         21    1    1    2  506  501 -0.10347438226E+03 -0.77826530065E+02 -0.16043156682E+03  0.20616062718E+03  0.00000000000E+00 0. -1.
<scales pt_clust_3="37.02067" pt_clust_4="59.90858" pt_clust_5="151.75601" pt_clust_6="14000.00000"></scales>
<clustering>
<clus scale="   37.021">  1  3  2 -1</clus>
<clus scale="   59.909">  2  4  1 -1</clus>
<clus scale="  151.756">  1  5  2 -1</clus>
<clus scale="   37.021">  1  3  2 -1</clus>
</clustering>
</event>
<event>
 6    0  0.8991567E+002  0.9204031E+02  0.7546771E-02  0.1297985E+00
         21   -1    0    0  504  501  0.00000000000E+00  0.00000000000E+00  0.12391489407E+04  0.12391489407E+04  0.00000000000E+00 0.  1.
         21   -1    0    0  503  502 -0.00000000000E+00 -0.00000000000E+00 -0.12555240119E+03  0.12555240119E+03  0.00000000000E+00 0.  1.
         21    1    1    2  503  505  0.11344336334E+02  0.36387470372E+02 -0.78446393841E+02  0.87215701990E+02  0.00000000000E+00 0.  1.
         21    1    1    2  504  506 -0.68338079392E+02  0.62579128535E+02  0.44245539123E+03  0.45205421539E+03  0.00000000000E+00 0.  1.
         21    1    1    2  505  501  0.39517488567E+02  0.21707763065E+02  0.68680652714E+03  0.68828487170E+03  0.00000000000E+00 0.  1.
         21    1    1    2  506  502  0.17476254492E+02 -0.12067436197E+03  0.62781014974E+02  0.13714655282E+03  0.00000000000E+00 0.  1.
<scales pt_clust_3="38.11485" pt_clust_4="14000.00000" pt_clust_5="45.56469" pt_clust_6="92.04031"></scales>
<clustering>
<clus scale="   38.115">  2  3  1 -1</clus>
<clus scale="   45.565">  1  5  2 -1</clus>
<clus scale="   92.040">  2  6  1 -1</clus>
<clus scale="   45.565">  1  3  2 -1</clus>
</clustering>
</event>
<event>
 6    0  0.8991567E+002  0.8467115E+02  0.7546771E-02  0.1316295E+00
         21   -1    0    0  503  501  0.00000000000E+00  0.00000000000E+00  0.90365635172E+02  0.90365635172E+02  0.00000000000E+00 0.  1.
         21   -1    0    0  506  502 -0.00000000000E+00 -0.00000000000E+00 -0.56000534813E+03  0.56000534813E+03  0.00000000000E+00 0.  1.
         21    1    1    2  503  504 -0.47504028162E+02  0.69352327204E+02  0.40373523591E+02  0.93254487224E+02  0.00000000000E+00 0.  1.
         21    1    1    2  504  502  0.42428645482E+01 -0.10622112504E+03 -0.28967745430E+03  0.30856758876E+03  0.00000000000E+00 0.  1.
         21    1    1    2  505  501  0.57346755345E+02  0.34744367335E+01 -0.55875472962E+02  0.80142314279E+02  0.00000000000E+00 0.  1.
         21    1    1    2  506  505 -0.14085591731E+02  0.33394361103E+02 -0.16446030929E+03  0.16840659305E+03  0.00000000000E+00 0.  1.
<scales pt_clust_3="14000.00000" pt_clust_4="84.67115" pt_clust_5="55.68557" pt_clust_6="36.24344"></scales>
<clustering>
<clus scale="   36.243">  2  6  1 -1</clus>
<clus scale="   55.686">  2  5  1 -1</clus>
<clus scale="   84.671">  2  4  1 -1</clus>
<clus scale="   84.671">  1  3  2 -1</clus>
</clustering>
</event>
<event>
 6    0  0.8991567E+002  0.1325821E+03  0.7546771E-02  0.1223674E+00
         21   -1    0    0  505  501  0.00000000000E+00  0.00000000000E+00  0.23192264509E+03  0.23192264509E+03  0.00000000000E+00 0. -1.
         21   -1    0    0  503  502 -0.00000000000E+00 -0.00000000000E+00 -0.11859461055E+04  0.11859461055E+04  0.00000000000E+00 0.  1.
         21    1    1    2  503  501 -0.12040567048E+03  0.70379454593E+02  0.18471778885E+03  0.23145508123E+03  0.00000000000E+00 0. -1.
         21    1    1    2  504  506  0.88460287947E+02 -0.62364693164E+02 -0.87508150110E+03  0.88174951719E+03  0.00000000000E+00 0.  1.
         21    1    1    2  505  504  0.42740085257E+02  0.40368950592E+02 -0.30382124950E+02  0.66177341863E+02  0.00000000000E+00 0. -1.
         21    1    1    2  506  502 -0.10794702727E+02 -0.48383712021E+02 -0.23327762320E+03  0.23848681029E+03  0.00000000000E+00 0.  1.
<scales pt_clust_3="132.58207" pt_clust_4="14000.00000" pt_clust_5="56.72133" pt_clust_6="49.57327"></scales>
<clustering>
<clus scale="   49.573">  2  6  1 -1</clus>
<clus scale="   56.721">  1  5  2 -1</clus>
<clus scale="  132.582">  1  3  2 -1</clus>
<clus scale="   56.721">  1  3  2 -1</clus>
</clustering>
</event>
<event>
 6    0  0.8991567E+002  0.1769269E+03  0.7546771E-02  0.1170811E+00
         21   -1    0    0  505  501  0.00000000000E+00  0.00000000000E+00  0.31216198894E+03  0.31216198894E+03  0.00000000000E+00 0. -1.
         21   -1    0    0  501  502 -0.00000000000E+00 -0.00000000000E+00 -0.21619371955E+03  0.21619371955E+03  0.00000000000E+00 0.  1.
         21    1    1    2  503  504 -0.10040621477E+03  0.94543356392E+02  0.13340529010E+03  0.19187711075E+03  0.00000000000E+00 0. -1.
         21    1    1    2  504  506  0.41745927896E+02  0.15178564000E+02 -0.12555118876E+02  0.46159964373E+02  0.00000000000E+00 0.  1.
         21    1    1    2  505  503 -0.61817240880E+02 -0.41693055564E+02  0.85411960662E+02  0.11337938603E+03  0.00000000000E+00 0. -1.
         21    1    1    2  506  502  0.12047752775E+03 -0.68028864828E+02 -0.11029386249E+03  0.17693924733E+03  0.00000000000E+00 0.  1.
<scales pt_clust_3="160.40998" pt_clust_4="42.29449" pt_clust_5="74.56328" pt_clust_6="42.29449"></scales>
<clustering>
<clus scale="   42.294">  4  6 -1 -1</clus>
<clus scale="   74.563">  1  5  2 -1</clus>
<clus scale="  160.410">  1  3  2 -1</clus>
<clus scale="   74.563">  1  3  2 -1</clus>
</clustering>
</event>
<event>
 6    0  0.8991567E+002  0.7847990E+02  0.7546771E-02  0.1333421E+00
         21   -1    0    0  505  501  0.00000000000E+00  0.00000000000E+00  0.66962124094E+03  0.66962124094E+03  0.00000000000E+00 0.  1.
         21   -1    0    0  506  502 -0.00000000000E+00 -0.00000000000E+00 -0.36070740946E+03  0.36070740946E+03  0.00000000000E+00 0. -1.
         21    1    1    2  503  504 -0.10856561607E+03  0.26193829091E+02  0.38404474846E+03  0.39995372044E+03  0.00000000000E+00 0.  1.
         21    1    1    2  504  501  0.37429321300E+02  0.15502104149E+01  0.25205796928E+03  0.25482656283E+03  0.00000000000E+00 0.  1.
         21    1    1    2  505  502  0.11818507024E+02  0.52805754904E+02 -0.29777290993E+02  0.61764163704E+02  0.00000000000E+00 0. -1.
         21    1    1    2  506  503  0.59317787748E+02 -0.80549794409E+02 -0.29741159526E+03  0.31378420343E+03  0.00000000000E+00 0. -1.
<scales pt_clust_3="78.47990" pt_clust_4="37.46141" pt_clust_5="54.50218" pt_clust_6="14000.00000"></scales>
<clustering>
<clus scale="   37.461">  1  4  2 -1</clus>
<clus scale="   54.502">  2  5  1 -1</clus>
<clus scale="   78.480">  1  3  2 -1</clus>
<clus scale="   37.461">  1  3  2 -1</clus>
</clustering>
</event>
<event>
 6    0  0.8991567E+002  0.7457703E+02  0.7546771E-02  0.1345186E+00
         21   -1    0    0  504  501  0.00000000000E+00  0.00000000000E+00  0.29417241107E+02  0.29417241107E+02  0.00000000000E+00 0. -1.
         21   -1    0    0  506  502 -0.00000000000E+00 -0.00000000000E+00 -0.78672147831E+03  0.78672147831E+03  0.00000000000E+00 0. -1.
         21    1    1    2  503  501  0.69344304705E+02  0.52043232538E+02 -0.12251352974E+03  0.15008895902E+03  0.00000000000E+00 0. -1.
         21    1    1    2  504  505 -0.14737948029E+02 -0.35138517446E+02 -0.43654574213E+02  0.57945184184E+02  0.00000000000E+00 0.  1.
         21    1    1    2  505  502  0.37116792361E+02 -0.16086524703E+02 -0.30382823664E+03  0.30650942878E+03  0.00000000000E+00 0. -1.
         21    1    1    2  506  503 -0.91723149036E+02 -0.81819038850E+00 -0.28730789661E+03  0.30159514744E+03  0.00000000000E+00 0. -1.
<scales pt_clust_3="74.57703" pt_clust_4="38.10410" pt_clust_5="40.54489" pt_clust_6="14000.00000"></scales>
<clustering>
<clus scale="   38.104">  1  4  2 -1</clus>
<clus scale="   40.545">  2  5  1 -1</clus>
<clus scale="   74.577">  1  3  2 -1</clus>
<clus scale="   38.104">  1  3  2 -1</clus>
</clustering>
</event>
<event>
 6    0  0.8991567E+002  0.8862543E+02  0.7546771E-02  0.1306215E+00
         21   -1    0    0  506  501  0.00000000000E+00  0.00000000000E+00  0.29309894106E+02  0.29309894106E+02  0.00000000000E+00 0.  1.
         21   -1    0    0  504  502 -0.00000000000E+00 -0.00000000000E+00 -0.21201941366E+04  0.21201941366E+04  0.00000000000E+00 0. -1.
         21    1    1    2  503  501  0.79125074012E+02 -0.37985057680E+02 -0.32270020122E+03  0.33442347676E+03  0.00000000000E+00 0.  1.
         21    1    1    2  504  505  0.52685171635E+02 -0.87745096497E+01 -0.11988311080E+04  0.12000203102E+04  0.00000000000E+00 0. -1.
         21    1    1    2  505  503 -0.90365015248E+02  0.64786188633E+02 -0.55730154672E+03  0.56828522785E+03  0.00000000000E+00 0.  1.
         21    1    1    2  506  502 -0.41445230399E+02 -0.18026621304E+02 -0.12051386593E+02  0.46775015951E+02  0.00000000000E+00 0.  1.
<scales pt_clust_3="14000.00000" pt_clust_4="51.53825" pt_clust_5="88.62543" pt_clust_6="45.19586"></scales>
<clustering>
<clus scale="   45.196">  1  6  2 -1</clus>
<clus scale="   51.538">  2  4  1 -1</clus>
<clus scale="   88.625">  2  5  1 -1</clus>
<clus scale="   45.196">  1  3  2 -1</clus>
</clustering>
</event>
<event>
 6    0  0.8991567E+002  0.1609517E+03  0.7546771E-02  0.1187626E+00
         21   -1    0    0  505  501  0.00000000000E+00  0.00000000000E+00  0.30778090089E+03  0.30778090089E+03  0.00000000000E+00 0. -1.
         21   -1    0    0  506  502 -0.00000000000E+00 -0.00000000000E+00 -0.93068302278E+03  0.93068302278E+03  0.00000000000E+00 0. -1.
         21    1    1    2  503  504  0.62290773421E+00  0.63783693236E+02 -0.56544312448E+02  0.85240875213E+02  0.00000000000E+00 0.  1.
         21    1    1    2  504  502 -0.42900318537E+01  0.33191211548E+02 -0.70070489106E+03  0.70150367444E+03  0.00000000000E+00 0. -1.
         21    1    1    2  505  503 -0.10779468687E+03  0.37081080661E+02 -0.10542063845E+03  0.15526819401E+03  0.00000000000E+00 0.  1.
         21    1    1    2  506  501  0.11146181099E+03 -0.13405598545E+03  0.23976772007E+03  0.29645118001E+03  0.00000000000E+00 0. -1.
<scales pt_clust_3="74.03627" pt_clust_4="33.46731" pt_clust_5="160.95173" pt_clust_6="14000.00000"></scales>
<clustering>
<clus scale="   33.467">  2  4  1 -1</clus>
<clus scale="   74.036">  2  3  1 -1</clus>
<clus scale="  160.952">  2  5  1 -1</clus>
<clus scale="  160.952">  1  3  2 -1</clus>
</clustering>
</event>
<event>
 6    0  0.8991567E+002  0.1521762E+03  0.7546771E-02  0.1197824E+00
         21   -1    0    0  503  501  0.00000000000E+00  0.00000000000E+00  0.29734297094E+03  0.29734297094E+03  0.00000000000E+00 0. -1.
         21   -1    0    0  506  502 -0.00000000000E+00 -0.00000000000E+00 -0.73832030989E+03  0.73832030989E+03  0.00000000000E+00 0. -1.
         21    1    1    2  503  504 -0.82481820077E+02  0.12678163076E+03  0.24064307954E+03  0.28422864787E+03  0.00000000000E+00 0. -1.
         21    1    1    2  504  505  0.18402162946E+02 -0.19503221081E+03 -0.50979714239E+03  0.54614039334E+03  0.00000000000E+00 0. -1.
         21    1    1    2  505  502  0.51179790263E+02  0.22237193231E+02 -0.51925927754E+02  0.76224442715E+02  0.00000000000E+00 0. -1.
         21    1    1    2  506  501  0.12899866867E+02  0.46013386824E+02 -0.11989734835E+03  0.12906979691E+03  0.00000000000E+00 0.  1.
<scales pt_clust_3="152.17616" pt_clust_4="14000.00000" pt_clust_5="59.07786" pt_clust_6="47.78743"></scales>
<clustering>
<clus scale="   47.787">  2  6  1 -1</clus>
<clus scale="   59.078">  2  5  1 -1</clus>
<clus scale="  152.176">  1  3  2 -1</clus>
<clus scale="  152.176">  1  3  2 -1</clus>
</clustering>
</event>
<event>
 6    0  0.8991567E+002  0.1196728E+03  0.7546771E-02  0.1243638E+00
         21   -1    0    0  504  501  0.00000000000E+00  0.00000000000E+00  0.30331199118E+03  0.30331199118E+03  0.00000000000E+00 0. -1.
         21   -1    0    0  505  502 -0.00000000000E+00 -0.00000000000E+00 -0.87150709832E+02  0.87150709832E+02  0.00000000000E+00 0. -1.
         21    1    1    2  503  502  0.12549055730E+03 -0.58115258925E+02  0.34682026005E+02  0.14257666786E+03  0.00000000000E+00 0. -1.
         21    1    1    2  504  506 -0.23932911593E+02  0.35578181652E+02  0.39720320526E+02  0.58449081513E+02  0.00000000000E+00 0. -1.
         21    1    1    2  505  501 -0.42614921873E+02 -0.37436830447E+01  0.11864407895E+02  0.44393816053E+02  0.00000000000E+00 0. -1.
         21    1    1    2  506  503 -0.58942723833E+02  0.26280760317E+02  0.12989452692E+03  0.14504313558E+03  0.00000000000E+00 0. -1.
<scales pt_clust_3="111.25010" pt_clust_4="35.94826" pt_clust_5="42.77905" pt_clust_6="35.94826"></scales>
<clustering>
<clus scale="   35.948">  4  6 -1 -1</clus>
<clus scale="   42.779">  2  5  1 -1</clus>
<clus scale="  111.250">  2  3  1 -1</clus>
<clus scale="  119.673">  1  3  2 -1</clus>
</clustering>
</event>
<event>
 6    0  0.8991567E+002  0.1013372E+03  0.7546771E-02  0.1277509E+00
         21   -1    0    0  502  501  0.00000000000E+00  0.00000000000E+00  0.40005998720E+03  0.40005998720E+03  0.00000000000E+00 0.  1.
         21   -1    0    0  504  502 -0.00000000000E+00 -0.00000000000E+00 -0.57243981796E+03  0.57243981796E+03  0.00000000000E+00 0.  1.
         21    1    1    2  503  505  0.10992169695E+03  0.32159900818E+02  0.23706295665E+03  0.26327909924E+03  0.00000000000E+00 0.  1.
         21    1    1    2  504  506 -0.10963006613E+02 -0.33745861070E+02 -0.39061661938E+03  0.39222482582E+03  0.00000000000E+00 0.  1.
         21    1    1    2  505  501 -0.26273240313E+02  0.28658234813E+02  0.13728163645E+03  0.14268085115E+03  0.00000000000E+00 0.  1.
         21    1    1    2  506  503 -0.72685450024E+02 -0.27072274561E+02 -0.15610780449E+03  0.17431502895E+03  0.00000000000E+00 0.  1.
<scales pt_clust_3="101.33722" pt_clust_4="35.48198" pt_clust_5="38.62128" pt_clust_6="14000.00000"></scales>
<clustering>
<clus scale="   35.482">  2  4  1 -1</clus>
<clus scale="   38.621">  1  5  2 -1</clus>
<clus scale="  101.337">  1  3  2 -1</clus>
<clus scale="   38.621">  1  3  2 -1</clus>
</clustering>
</event>
<event>
 6    0  0.8991567E+002  0.2961534E+03  0.7546771E-02  0.1087179E+00
         21   -1    0    0  505  501  0.00000000000E+00  0.00000000000E+00  0.14217057164E+04  0.14217057164E+04  0.00000000000E+00 0. -1.
         21   -1    0    0  504  502 -0.00000000000E+00 -0.00000000000E+00 -0.14208344968E+04  0.14208344968E+04  0.00000000000E+00 0. -1.
         21    1    1    2  503  506 -0.18171951408E+03  0.22085410467E+03 -0.68653633681E+03  0.74372754360E+03  0.00000000000E+00 0. -1.
         21    1    1    2  504  503 -0.90601670841E+01  0.30922075989E+02 -0.21524964511E+03  0.21764804417E+03  0.00000000000E+00 0.  1.
         21    1    1    2  505  502  0.98855524003E+02  0.44393050024E+02  0.13403643131E+04  0.13447377623E+04  0.00000000000E+00 0. -1.
         21    1    1    2  506  501  0.91924157160E+02 -0.29616923068E+03 -0.43770711165E+03  0.53642686310E+03  0.00000000000E+00 0. -1.
<scales pt_clust_3="14000.00000" pt_clust_4="32.22206" pt_clust_5="108.37386" pt_clust_6="296.15341"></scales>
<clustering>
<clus scale="   32.222">  2  4  1 -1</clus>
<clus scale="  108.374">  1  5  2 -1</clus>
<clus scale="  296.153">  1  6  2 -1</clus>
<clus scale="  108.374">  1  3  2 -1</clus>
</clustering>
</event>
<event>
 6    0  0.8991567E+002  0.1480349E+03  0.7546771E-02  0.1202909E+00
         21   -1    0    0  504  501  0.00000000000E+00  0.00000000000E+00  0.67398083865E+03  0.67398083865E+03  0.00000000000E+00 0. -1.
         21   -1    0    0  506  502 -0.00000000000E+00 -0.00000000000E+00 -0.28408252441E+03  0.28408252441E+03  0.00000000000E+00 0.  1.
         21    1    1    2  503  501 -0.58402923092E+00 -0.10584461777E+03 -0.64050210323E+02  0.12371682846E+03  0.00000000000E+00 0. -1.
         21    1    1    2  504  505  0.11728254820E+02  0.29978964420E+02  0.22204559042E+03  0.22436696391E+03  0.00000000000E+00 0. -1.
         21    1    1    2  505  502 -0.86157974127E+02  0.11168671873E+03  0.39908015752E+03  0.42327543252E+03  0.00000000000E+00 0. -1.
         21    1    1    2  506  503  0.75013748538E+02 -0.35821065379E+02 -0.16717722338E+03  0.18670413817E+03  0.00000000000E+00 0.  1.
<scales pt_clust_3="148.03486" pt_clust_4="32.19146" pt_clust_5="14000.00000" pt_clust_6="83.08002"></scales>
<clustering>
<clus scale="   32.191">  1  4  2 -1</clus>
<clus scale="   83.080">  2  6  1 -1</clus>
<clus scale="  148.035">  2  3  1 -1</clus>
<clus scale="   32.191">  1  3  2 -1</clus>
</clustering>
</event>
<event>
 6    0  0.8991567E+002  0.8366438E+02  0.7546771E-02  0.1318963E+00
         21   -1    0    0  505  501  0.00000000000E+00  0.00000000000E+00  0.82040925943E+03  0.82040925943E+03  0.00000000000E+00 0. -1.
         21   -1    0    0  506  502 -0.00000000000E+00 -0.00000000000E+00 -0.81145179938E+02  0.81145179938E+02  0.00000000000E+00 0. -1.
         21    1    1    2  503  504 -0.28931829104E+02  0.21177334236E+02  0.26803864055E+03  0.27042603988E+03  0.00000000000E+00 0. -1.
         21    1    1    2  504  501 -0.25303734432E+02 -0.23344115735E+02  0.36607748861E+03  0.36769274454E+03  0.00000000000E+00 0. -1.
         21    1    1    2  505  502  0.19924384705E+01 -0.83123522601E+02 -0.35865215793E+02  0.90552766521E+02  0.00000000000E+00 0. -1.
         21    1    1    2  506  503  0.52243125066E+02  0.85290304100E+02  0.14101316612E+03  0.17288288842E+03  0.00000000000E+00 0. -1.
<scales pt_clust_3="44.55851" pt_clust_4="34.42712" pt_clust_5="14000.00000" pt_clust_6="83.66438"></scales>
<clustering>
<clus scale="   34.427">  1  4  2 -1</clus>
<clus scale="   44.559">  1  3  2 -1</clus>
<clus scale="   83.664">  1  6  2 -1</clus>
<clus scale="   34.427">  1  3  2 -1</clus>
</clustering>
</event>
<event>
 6    0  0.8991567E+002  0.1020367E+03  0.7546771E-02  0.1276070E+00
         21   -1    0    0  504  501  0.00000000000E+00  0.00000000000E+00  0.77294122336E+03  0.77294122336E+03  0.00000000000E+00 0.  1.
         21   -1    0    0  505  502 -0.00000000000E+00 -0.00000000000E+00 -0.15341618438E+03  0.15341618438E+03  0.00000000000E+00 0.  1.
         21    1    1    2  503  501  0.29190444882E+02  0.12254447990E+02  0.50146860035E+02  0.59303972374E+02  0.00000000000E+00 0.  1.
         21    1    1    2  504  506 -0.59328507314E+02 -0.79214102123E+02  0.27051953285E+03  0.28805479237E+03  0.00000000000E+00 0.  1.
         21    1    1    2  505  503  0.30300217653E+02  0.99687292407E+02  0.43071681499E+03  0.44313951999E+03  0.00000000000E+00 0.  1.
         21    1    1    2  506  502 -0.16215522106E+00 -0.32727638274E+02 -0.13185816889E+03  0.13585912301E+03  0.00000000000E+00 0.  1.
<scales pt_clust_3="31.65839" pt_clust_4="14000.00000" pt_clust_5="102.03674" pt_clust_6="32.69361"></scales>
<clustering>
<clus scale="   31.658">  1  3  2 -1</clus>
<clus scale="   32.694">  2  6  1 -1</clus>
<clus scale="  102.037">  1  5  2 -1</clus>
<clus scale="   31.658">  1  3  2 -1</clus>
</clustering>
</event>
<event>
 6    0  0.8991567E+002  0.1880505E+03  0.7546771E-02  0.1160231E+00
         21   -1    0    0  506  501  0.00000000000E+00  0.00000000000E+00  0.57437439257E+03  0.57437439257E+03  0.00000000000E+00 0.  1.
         21   -1    0    0  504  502 -0.00000000000E+00 -0.00000000000E+00 -0.11627618069E+04  0.11627618069E+04  0.00000000000E+00 0. -1.
         21    1    1    2  503  505 -0.78736894910E+02 -0.89633164633E+02  0.94759775011E+00  0.11930842704E+03  0.00000000000E+00 0. -1.
         21    1    1    2  504  503 -0.89067968294E+02 -0.42324551012E+02 -0.22712488569E+02  0.10119450445E+03  0.00000000000E+00 0. -1.
         21    1    1    2  505  501  0.12366371570E+03  0.12645630848E+03  0.45804105550E+03  0.49100460391E+03  0.00000000000E+00 0.  1.
         21    1    1    2  506  502  0.44141147503E+02  0.55014071604E+01 -0.10246635790E+04  0.10256286641E+04  0.00000000000E+00 0. -1.
<scales pt_clust_3="44.10445" pt_clust_4="44.10445" pt_clust_5="181.07034" pt_clust_6="44.48265"></scales>
<clustering>
<clus scale="   44.483">  2  6  1 -1</clus>
<clus scale="   44.104">  3  4 -1 -1</clus>
<clus scale="  181.070">  1  5  2 -1</clus>
<clus scale="  181.070">  1  3  2 -1</clus>
</clustering>
</event>
<event>
 6    0  0.8991567E+002  0.9202281E+02  0.7546771E-02  0.1298026E+00
         21   -1    0    0  504  501  0.00000000000E+00  0.00000000000E+00  0.10940549306E+03  0.10940549306E+03  0.00000000000E+00 0. -1.
         21   -1    0    0  506  502 -0.00000000000E+00 -0.00000000000E+00 -0.68212013638E+03  0.68212013638E+03  0.00000000000E+00 0. -1.
         21    1    1    2  503  501  0.49934801098E+02 -0.20398182247E+02 -0.34273106673E+02  0.63907871508E+02  0.00000000000E+00 0. -1.
         21    1    1    2  504  505  0.62137140467E+02  0.57827825349E+02  0.52330957102E+02  0.99717654812E+02  0.00000000000E+00 0. -1.
         21    1    1    2  505  502 -0.54190655447E+02 -0.57324970371E+02 -0.76124216310E+02  0.10962515986E+03  0.00000000000E+00 0. -1.
         21    1    1    2  506  503 -0.57881286118E+02  0.19895327270E+02 -0.51464827745E+03  0.51827494326E+03  0.00000000000E+00 0. -1.
<scales pt_clust_3="53.94043" pt_clust_4="92.02281" pt_clust_5="14000.00000" pt_clust_6="60.17273"></scales>
<clustering>
<clus scale="   53.940">  1  3  2 -1</clus>
<clus scale="   60.173">  2  6  1 -1</clus>
<clus scale="   92.023">  1  4  2 -1</clus>
<clus scale="   53.940">  1  3  2 -1</clus>
</clustering>
</event>
<event>
 6    0  0.1018041E+003  0.8941646E+02  0.7546771E-02  0.1304271E+00
         21   -1    0    0  504  501  0.00000000000E+00  0.00000000000E+00  0.18753544560E+03  0.18753544560E+03  0.00000000000E+00 0.  1.
         21   -1    0    0  505  502 -0.00000000000E+00 -0.00000000000E+00 -0.82275117792E+03  0.82275117792E+03  0.00000000000E+00 0.  1.
         21    1    1    2  503  502  0.32077565223E+02 -0.26005338153E+02 -0.39062140701E+02  0.56842753621E+02  0.00000000000E+00 0. -1.
         21    1    1    2  504  503  0.38131221129E+02 -0.39088798170E+02  0.14740153713E+03  0.15719140344E+03  0.00000000000E+00 0.  1.
         21    1    1    2  505  506 -0.10269081979E+03 -0.28613952804E+02 -0.65397899716E+03  0.66261051266E+03  0.00000000000E+00 0.  1.
         21    1    1    2  506  501  0.32482033442E+02  0.93708089126E+02 -0.89576131588E+02  0.13364195380E+03  0.00000000000E+00 0. -1.
<scales pt_clust_3="41.29465" pt_clust_4="54.86612" pt_clust_5="89.41646" pt_clust_6="14000.00000"></scales>
<clustering>
<clus scale="   41.295">  2  3  1 -1</clus>
<clus scale="   54.866">  1  4  2 -1</clus>
<clus scale="   89.416">  2  5  1 -1</clus>
<clus scale="   54.866">  1  3  2 -1</clus>
</clustering>
</event>
<event>
 6    0  0.8991567E+002  0.5588315E+02  0.7546771E-02  0.1415968E+00
         21   -1    0    0  505  501  0.00000000000E+00  0.00000000000E+00  0.54525310084E+03  0.54525310084E+03  0.00000000000E+00 0. -1.
         21   -1    0    0  503  502 -0.00000000000E+00 -0.00000000000E+00 -0.14530994005E+03  0.14530994005E+03  0.00000000000E+00 0.  1.
         21    1    1    2  503  504  0.37779695099E+02 -0.29062709344E+02 -0.36384140852E+02  0.59964590733E+02  0.00000000000E+00 0.  1.
         21    1    1    2  504  506 -0.52472737984E+02  0.11227345590E+03 -0.29200629102E+02  0.12732397210E+03  0.00000000000E+00 0.  1.
         21    1    1    2  505  502 -0.19596575339E+02 -0.40805880581E+02  0.12480176945E+02  0.46956367742E+02  0.00000000000E+00 0.  1.
         21    1    1    2  506  501  0.34289618224E+02 -0.42404865974E+02  0.45304775380E+03  0.45631811031E+03  0.00000000000E+00 0. -1.
<scales pt_clust_3="53.82460" pt_clust_4="55.88315" pt_clust_5="45.26749" pt_clust_6="14000.00000"></scales>
<clustering>
<clus scale="   45.267">  2  5  1 -1</clus>
<clus scale="   53.825">  2  3  1 -1</clus>
<clus scale="   55.883">  2  4  1 -1</clus>
<clus scale="   55.883">  1  3  2 -1</clus>
</clustering>
</event>
<event>
 6    0  0.8991567E+002  0.9686560E+02  0.7546771E-02  0.1287029E+00
         21   -1    0    0  503  501  0.00000000000E+00  0.00000000000E+00  0.83469847060E+02  0.83469847060E+02  0.00000000000E+00 0. -1.
         21   -1    0    0  505  502 -0.00000000000E+00 -0.00000000000E+00 -0.63646170603E+03  0.63646170603E+03  0.00000000000E+00 0. -1.
         21    1    1    2  503  502 -0.62606514162E+02  0.53738747840E+02 -0.78938057788E+02  0.11418688892E+03  0.00000000000E+00 0. -1.
         21    1    1    2  504  506  0.38389663794E+02  0.64585283495E+02  0.16099774831E+02  0.76838973704E+02  0.00000000000E+00 0. -1.
         21    1    1    2  505  504 -0.29680194403E+02 -0.95167068773E+02 -0.44173341629E+03  0.45284224183E+03  0.00000000000E+00 0. -1.
         21    1    1    2  506  501  0.53897044772E+02 -0.23156962562E+02 -0.48420159726E+02  0.76063448634E+02  0.00000000000E+00 0. -1.
<scales pt_clust_3="68.48537" pt_clust_4="96.86560" pt_clust_5="14000.00000" pt_clust_6="58.66120"></scales>
<clustering>
<clus scale="   58.661">  1  6  2 -1</clus>
<clus scale="   68.485">  1  3  2 -1</clus>
<clus scale="   96.866">  1  4  2 -1</clus>
<clus scale="   58.661">  1  3  2 -1</clus>
</clustering>
</event>
<event>
 6    0  0.8991567E+002  0.1090934E+03  0.7546771E-02  0.1262258E+00
         21   -1    0    0  504  501  0.00000000000E+00  0.00000000000E+00  0.91157048494E+02  0.91157048494E+02  0.00000000000E+00 0.  1.
         21   -1    0    0  503  502 -0.00000000000E+00 -0.00000000000E+00 -0.77732713332E+03  0.77732713332E+03  0.00000000000E+00 0.  1.
         21    1    1    2  503  506  0.92409070569E+02  0.58261450045E+02 -0.23449828825E+03  0.25869534220E+03  0.00000000000E+00 0. -1.
         21    1    1    2  504  505  0.14928437411E+02 -0.27478920057E+02  0.96214839276E+01  0.32718836226E+02  0.00000000000E+00 0.  1.
         21    1    1    2  505  502 -0.34949490051E+02  0.41265596228E+02 -0.47135190839E+03  0.47444381946E+03  0.00000000000E+00 0.  1.
         21    1    1    2  506  501 -0.72388017929E+02 -0.72048126217E+02  0.10058627886E+02  0.10262618392E+03  0.00000000000E+00 0.  1.
<scales pt_clust_3="14000.00000" pt_clust_4="31.27218" pt_clust_5="53.40083" pt_clust_6="109.09335"></scales>
<clustering>
<clus scale="   31.272">  1  4  2 -1</clus>
<clus scale="   53.401">  2  5  1 -1</clus>
<clus scale="  109.093">  1  6  2 -1</clus>
<clus scale="   31.272">  1  3  2 -1</clus>
</clustering>
</event>
<event>
 6    0  0.8991567E+002  0.1946859E+03  0.7546771E-02  0.1154302E+00
         21   -1    0    0  504  501  0.00000000000E+00  0.00000000000E+00  0.21574835894E+03  0.21574835894E+03  0.00000000000E+00 0. -1.
         21   -1    0    0  505  502 -0.00000000000E+00 -0.00000000000E+00 -0.62862143006E+03  0.62862143006E+03  0.00000000000E+00 0. -1.
         21    1    1    2  503  501 -0.30326340059E+02  0.15495022815E+00  0.12285372348E+03  0.12654148839E+03  0.00000000000E+00 0. -1.
         21    1    1    2  504  506  0.20452763152E+03  0.95968241695E+02 -0.16471554553E+03  0.27959375245E+03  0.00000000000E+00 0. -1.
         21    1    1    2  505  503 -0.15179756021E+03 -0.69984904279E+02 -0.18610486368E+03  0.25015076734E+03  0.00000000000E+00 0. -1.
         21    1    1    2  506  502 -0.22403731247E+02 -0.26138287645E+02 -0.18490638538E+03  0.18808378082E+03  0.00000000000E+00 0.  1.
<scales pt_clust_3="30.32674" pt_clust_4="14000.00000" pt_clust_5="194.68589" pt_clust_6="34.77047"></scales>
<clustering>
<clus scale="   30.327">  1  3  2 -1</clus>
<clus scale="   34.770">  2  6  1 -1</clus>
<clus scale="  194.686">  2  5  1 -1</clus>
<clus scale="   30.327">  1  3  2 -1</clus>
</clustering>
</event>
<event>
 6    0  0.8991567E+002  0.8109334E+02  0.7546771E-02  0.1325977E+00
         21   -1    0    0  504  501  0.00000000000E+00  0.00000000000E+00  0.12116286329E+04  0.12116286329E+04  0.00000000000E+00 0.  1.
         21   -1    0    0  501  502 -0.00000000000E+00 -0.00000000000E+00 -0.38961473743E+03  0.38961473743E+03  0.00000000000E+00 0.  1.
         21    1    1    2  503  506  0.99599263812E+02  0.80123716621E+02  0.84368939014E+02  0.15315985501E+03  0.00000000000E+00 0. -1.
         21    1    1    2  504  505 -0.30464792152E+02 -0.77677791983E+01  0.14017159794E+03  0.14365416396E+03  0.00000000000E+00 0. -1.
         21    1    1    2  505  503 -0.21998951772E+02 -0.52198114996E+02  0.94824298093E+03  0.94993333870E+03  0.00000000000E+00 0.  1.
         21    1    1    2  506  502 -0.47135519888E+02 -0.20157822427E+02 -0.35076962237E+03  0.35449601270E+03  0.00000000000E+00 0.  1.
<scales pt_clust_3="81.09334" pt_clust_4="31.43950" pt_clust_5="14000.00000" pt_clust_6="51.31906"></scales>
<clustering>
<clus scale="   31.439">  1  4  2 -1</clus>
<clus scale="   51.319">  2  6  1 -1</clus>
<clus scale="   81.093">  2  3  1 -1</clus>
<clus scale="   31.439">  1  3  2 -1</clus>
</clustering>
</event>
<event>
 6    0  0.8991567E+002  0.9212323E+02  0.7546771E-02  0.1297790E+00
         21   -1    0    0  504  501  0.00000000000E+00  0.00000000000E+00  0.14303573102E+03  0.14303573102E+03  0.00000000000E+00 0.  1.
         21   -1    0    0  506  502 -0.00000000000E+00 -0.00000000000E+00 -0.71101742918E+03  0.71101742918E+03  0.00000000000E+00 0.  1.
         21    1    1    2  503  502  0.24261715444E+02 -0.18673799891E+02 -0.43159034999E+03  0.43267490318E+03  0.00000000000E+00 0.  1.
         21    1    1    2  504  505  0.35849493594E+02  0.58123672931E+02  0.87648349492E+01  0.68850344063E+02  0.00000000000E+00 0.  1.
         21    1    1    2  505  503  0.75349142918E+01  0.61957873062E+02 -0.20673948107E+03  0.21595547227E+03  0.00000000000E+00 0.  1.
         21    1    1    2  506  501 -0.67646123330E+02 -0.10140774610E+03  0.61583297946E+02  0.13657244069E+03  0.00000000000E+00 0.  1.
<scales pt_clust_3="30.61604" pt_clust_4="92.12323" pt_clust_5="54.38152" pt_clust_6="14000.00000"></scales>
<clustering>
<clus scale="   30.616">  2  3  1 -1</clus>
<clus scale="   54.382">  2  5  1 -1</clus>
<clus scale="   92.123">  1  4  2 -1</clus>
<clus scale="   92.123">  1  3  2 -1</clus>
</clustering>
</event>
<event>
 6    0  0.8991567E+002  0.6188149E+02  0.7546771E-02  0.1390101E+00
         21   -1    0    0  505  501  0.00000000000E+00  0.00000000000E+00  0.24034066010E+03  0.24034066010E+03  0.00000000000E+00 0.  1.
         21   -1    0    0  506  502 -0.00000000000E+00 -0.00000000000E+00 -0.15866700244E+04  0.15866700244E+04  0.00000000000E+00 0.  1.
         21    1    1    2  503  502 -0.21994843782E+02 -0.69717467119E+02 -0.14323759021E+04  0.14342402251E+04  0.00000000000E+00 0.  1.
         21    1    1    2  504  503  0.29073829901E+02  0.90592863950E+02 -0.41337407272E+02  0.10373589458E+03  0.00000000000E+00 0.  1.
         21    1    1    2  505  504 -0.24665978203E+02 -0.54579750687E+02  0.19907353292E+03  0.20788850660E+03  0.00000000000E+00 0.  1.
         21    1    1    2  506  501  0.17586992084E+02  0.33704353856E+02 -0.71689587825E+02  0.81146058204E+02  0.00000000000E+00 0.  1.
<scales pt_clust_3="38.10125" pt_clust_4="61.88149" pt_clust_5="14000.00000" pt_clust_6="38.01691"></scales>
<clustering>
<clus scale="   38.017">  2  6  1 -1</clus>
<clus scale="   38.101">  2  3  1 -1</clus>
<clus scale="   61.881">  2  4  1 -1</clus>
<clus scale="   61.881">  1  3  2 -1</clus>
</clustering>
</event>
<event>
 6    0  0.8991567E+002  0.9086636E+02  0.7546771E-02  0.1300767E+00
         21   -1    0    0  504  501  0.00000000000E+00  0.00000000000E+00  0.21306018397E+03  0.21306018397E+03  0.00000000000E+00 0.  1.
         21   -1    0    0  503  502 -0.00000000000E+00 -0.00000000000E+00 -0.31924810569E+03  0.31924810569E+03  0.00000000000E+00 0.  1.
         21    1    1    2  503  506 -0.74288144622E+01 -0.46753972486E+02 -0.35055453864E+02  0.58906757449E+02  0.00000000000E+00 0. -1.
         21    1    1    2  504  505  0.71811247960E+02 -0.57094937462E+02  0.13403839113E+03  0.16242837657E+03  0.00000000000E+00 0.  1.
         21    1    1    2  505  502 -0.94449414562E+02  0.61278734705E+01 -0.18348272009E+03  0.20645617287E+03  0.00000000000E+00 0.  1.
         21    1    1    2  506  501  0.30066981064E+02  0.97721036478E+02 -0.21688138886E+02  0.10451698278E+03  0.00000000000E+00 0.  1.
<scales pt_clust_3="47.34048" pt_clust_4="90.86636" pt_clust_5="14000.00000" pt_clust_6="91.39177"></scales>
<clustering>
<clus scale="   47.340">  2  3  1 -1</clus>
<clus scale="   91.392">  2  6  1 -1</clus>
<clus scale="   90.866">  1  4  2 -1</clus>
<clus scale="   90.866">  1  3  2 -1</clus>
</clustering>
</event>
<event>
 6    0  0.8991567E+002  0.1184510E+03  0.7546771E-02  0.1245674E+00
         21   -1    0    0  506  501  0.00000000000E+00  0.00000000000E+00  0.37095047219E+03  0.37095047219E+03  0.00000000000E+00 0. -1.
         21   -1    0    0  505  502 -0.00000000000E+00 -0.00000000000E+00 -0.31117259795E+03  0.31117259795E+03  0.00000000000E+00 0.  1.
         21    1    1    2  503  504  0.20276222891E+02  0.27056435173E+02  0.10418435417E+03  0.10953335361E+03  0.00000000000E+00 0. -1.
         21    1    1    2  504  502  0.63126053295E+02 -0.63524685113E+02 -0.19694880612E+02  0.91696087951E+02  0.00000000000E+00 0.  1.
         21    1    1    2  505  501 -0.55171479363E+02 -0.49664308822E+02 -0.23791275263E+03  0.24922462473E+03  0.00000000000E+00 0.  1.
         21    1    1    2  506  503 -0.28230796823E+02  0.86132558761E+02  0.21320115332E+03  0.23166900385E+03  0.00000000000E+00 0. -1.
<scales pt_clust_3="32.37837" pt_clust_4="105.92535" pt_clust_5="74.23231" pt_clust_6="32.37837"></scales>
<clustering>
<clus scale="   32.378">  3  6 -1 -1</clus>
<clus scale="   74.232">  2  5  1 -1</clus>
<clus scale="  105.925">  2  4  1 -1</clus>
<clus scale="  118.451">  1  3  2 -1</clus>
</clustering>
</event>
<event>
 6    0  0.8991567E+002  0.8513477E+02  0.7546771E-02  0.1315080E+00
         21   -1    0    0  506  501  0.00000000000E+00  0.00000000000E+00  0.95748757712E+02  0.95748757712E+02  0.00000000000E+00 0. -1.
         21   -1    0    0  503  502 -0.00000000000E+00 -0.00000000000E+00 -0.18593510591E+03  0.18593510591E+03  0.00000000000E+00 0. -1.
         21    1    1    2  503  504 -0.48774985615E+02 -0.50116413356E+02 -0.58583417728E+02  0.91228673903E+02  0.00000000000E+00 0. -1.
         21    1    1    2  504  501  0.10826899672E+03  0.35265955661E+02 -0.96394727950E+01  0.11427503102E+03  0.00000000000E+00 0. -1.
         21    1    1    2  505  502 -0.29054735312E+02  0.21889245410E+02 -0.25949542455E+02  0.44684398422E+02  0.00000000000E+00 0. -1.
         21    1    1    2  506  505 -0.30439275794E+02 -0.70387877156E+01  0.39860847795E+01  0.31495760274E+02  0.00000000000E+00 0.  1.
<scales pt_clust_3="85.13477" pt_clust_4="14000.00000" pt_clust_5="38.89464" pt_clust_6="31.24250"></scales>
<clustering>
<clus scale="   31.243">  1  6  2 -1</clus>
<clus scale="   38.895">  2  5  1 -1</clus>
<clus scale="   85.135">  2  3  1 -1</clus>
<clus scale="   31.243">  1  3  2 -1</clus>
</clustering>
</event>
<event>
 6    0  0.8991567E+002  0.8066804E+02  0.7546771E-02  0.1327166E+00
         21   -1    0    0  504  501  0.00000000000E+00  0.00000000000E+00  0.19621651950E+04  0.19621651950E+04  0.00000000000E+00 0. -1.
         21   -1    0    0  505  502 -0.00000000000E+00 -0.00000000000E+00 -0.65801567025E+02  0.65801567025E+02  0.00000000000E+00 0. -1.
         21    1    1    2  503  506 -0.62997485290E+02  0.56175614602E+02  0.67677740028E+03  0.68202055128E+03  0.00000000000E+00 0. -1.
         21    1    1    2  504  503 -0.18892174674E+02 -0.96114478826E+02  0.12236592958E+04  0.12275736147E+04  0.00000000000E+00 0. -1.
         21    1    1    2  505  501  0.34975851684E+02  0.18489911477E+02 -0.39412559511E+02  0.55843861567E+02  0.00000000000E+00 0. -1.
         21    1    1    2  506  502  0.46913808279E+02  0.21448952748E+02  0.35339491357E+02  0.62528734440E+02  0.00000000000E+00 0. -1.
<scales pt_clust_3="14000.00000" pt_clust_4="80.66804" pt_clust_5="39.56244" pt_clust_6="81.14824"></scales>
<clustering>
<clus scale="   39.562">  2  5  1 -1</clus>
<clus scale="   81.148">  2  6  1 -1</clus>
<clus scale="   80.668">  1  4  2 -1</clus>
<clus scale="   80.668">  1  3  2 -1</clus>
</clustering>
</event>
<event>
 6    0  0.8991567E+002  0.8360479E+02  0.7546771E-02  0.1319122E+00
         21   -1    0    0  506  501  0.00000000000E+00  0.00000000000E+00  0.34990313701E+03  0.34990313701E+03  0.00000000000E+00 0.  1.
         21   -1    0    0  503  502 -0.00000000000E+00 -0.00000000000E+00 -0.11821381743E+03  0.11821381743E+03  0.00000000000E+00 0.  1.
         21    1    1    2  503  501  0.46331446186E+02 -0.38521298896E+02  0.79965451495E+02  0.10012475621E+03  0.00000000000E+00 0.  1.
         21    1    1    2  504  502  0.32101477500E+02 -0.80192903161E+01 -0.69345930571E+02  0.76835356195E+02  0.00000000000E+00 0.  1.
         21    1    1    2  505  504  0.40825453495E+02  0.23312282232E+01  0.60517708897E+01  0.41337346419E+02  0.00000000000E+00 0.  1.
         21    1    1    2  506  505 -0.11925837718E+03  0.44209360989E+02  0.21501802776E+03  0.24981949562E+03  0.00000000000E+00 0.  1.
<scales pt_clust_3="14000.00000" pt_clust_4="33.08797" pt_clust_5="53.38292" pt_clust_6="83.60479"></scales>
<clustering>
<clus scale="   33.088">  2  4  1 -1</clus>
<clus scale="   53.383">  2  5  1 -1</clus>
<clus scale="   83.605">  2  6  1 -1</clus>
<clus scale="   83.605">  1  3  2 -1</clus>
</clustering>
</event>
<event>
 6    0  0.8991567E+002  0.1371355E+03  0.7546771E-02  0.1217236E+00
         21   -1    0    0  503  501  0.00000000000E+00  0.00000000000E+00  0.29578000102E+03  0.29578000102E+03  0.00000000000E+00 0.  1.
         21   -1    0    0  505  502 -0.00000000000E+00 -0.00000000000E+00 -0.94244647023E+03  0.94244647023E+03  0.00000000000E+00 0.  1.
         21    1    1    2  503  504 -0.77336755956E+02  0.34189811722E+02  0.46424643456E+02  0.96463280928E+02  0.00000000000E+00 0.  1.
         21    1    1    2  504  502  0.13710970936E+03 -0.34519856732E+02 -0.87820865575E+03  0.88951736124E+03  0.00000000000E+00 0.  1.
         21    1    1    2  505  506 -0.32334391539E+02  0.12516983707E+02 -0.23237160058E+02  0.41739110734E+02  0.00000000000E+00 0. -1.
         21    1    1    2  506  501 -0.27438561869E+02 -0.12186938698E+02  0.20835470314E+03  0.21050671835E+03  0.00000000000E+00 0.  1.
<scales pt_clust_3="14000.00000" pt_clust_4="137.13547" pt_clust_5="37.01283" pt_clust_6="30.02326"></scales>
<clustering>
<clus scale="   30.023">  1  6  2 -1</clus>
<clus scale="   37.013">  1  5  2 -1</clus>
<clus scale="  137.135">  2  4  1 -1</clus>
<clus scale="   30.023">  1  3  2 -1</clus>
</clustering>
</event>
<event>
 6    0  0.8991567E+002  0.1417779E+03  0.7546771E-02  0.1210956E+00
         21   -1    0    0  505  501  0.00000000000E+00  0.00000000000E+00  0.11805152093E+04  0.11805152093E+04  0.00000000000E+00 0.  1.
         21   -1    0    0  503  502 -0.00000000000E+00 -0.00000000000E+00 -0.54502232289E+03  0.54502232289E+03  0.00000000000E+00 0. -1.
         21    1    1    2  503  501  0.91363120588E+02  0.66634480575E+02  0.11298822852E+04  0.11355269051E+04  0.00000000000E+00 0.  1.
         21    1    1    2  504  502  0.28038228857E+02 -0.27082172456E+02 -0.24322943736E+03  0.24633340322E+03  0.00000000000E+00 0. -1.
         21    1    1    2  505  506  0.30949963123E+02  0.52037486104E+01  0.14955922763E+02  0.34765771135E+02  0.00000000000E+00 0.  1.
         21    1    1    2  506  504 -0.15035131257E+03 -0.44756056730E+02 -0.26611588420E+03  0.30891145273E+03  0.00000000000E+00 0. -1.
<scales pt_clust_3="141.77795" pt_clust_4="39.00693" pt_clust_5="31.38438" pt_clust_6="14000.00000"></scales>
<clustering>
<clus scale="   31.384">  1  5  2 -1</clus>
<clus scale="   39.007">  2  4  1 -1</clus>
<clus scale="  141.778">  1  3  2 -1</clus>
<clus scale="   31.384">  1  3  2 -1</clus>
</clustering>
</event>
<event>
 6    0  0.8991567E+002  0.8131730E+02  0.7546771E-02  0.1325354E+00
         21   -1    0    0  504  501  0.00000000000E+00  0.00000000000E+00  0.28395555100E+03  0.28395555100E+03  0.00000000000E+00 0.  1.
         21   -1    0    0  503  502 -0.00000000000E+00 -0.00000000000E+00 -0.45504996321E+03  0.45504996321E+03  0.00000000000E+00 0. -1.
         21    1    1    2  503  506  0.43099786655E+02 -0.43698765863E+02 -0.40329003002E+03  0.40793384520E+03  0.00000000000E+00 0. -1.
         21    1    1    2  504  505  0.63596318653E+01 -0.30980709812E+02  0.33104516603E+02  0.45783821569E+02  0.00000000000E+00 0. -1.
         21    1    1    2  505  502  0.64549723038E+02  0.27431525461E+02  0.11910830989E+03  0.13822425553E+03  0.00000000000E+00 0.  1.
         21    1    1    2  506  501 -0.11400914156E+03  0.47247950214E+02  0.79982791318E+02  0.14706359191E+03  0.00000000000E+00 0.  1.
<scales pt_clust_3="61.62939" pt_clust_4="31.62672" pt_clust_5="81.31730" pt_clust_6="14000.00000"></scales>
<clustering>
<clus scale="   31.627">  1  4  2 -1</clus>
<clus scale="   61.629">  2  3  1 -1</clus>
<clus scale="   81.317">  1  5  2 -1</clus>
<clus scale="   31.627">  1  3  2 -1</clus>
</clustering>
</event>
<event>
 6    0  0.8991567E+002  0.1073319E+03  0.7546771E-02  0.1265592E+00
         21   -1    0    0  504  501  0.00000000000E+00  0.00000000000E+00  0.99243426263E+03  0.99243426263E+03  0.00000000000E+00 0.  1.
         21   -1    0    0  506  502 -0.00000000000E+00 -0.00000000000E+00 -0.60662132888E+02  0.60662132888E+02  0.00000000000E+00 0. -1.
         21    1    1    2  503  501 -0.39335316261E+02 -0.11454225224E+02  0.29118641321E+03  0.29405440588E+03  0.00000000000E+00 0.  1.
         21    1    1    2  504  505  0.45561230093E+02  0.34719285848E+02  0.43441305129E+03  0.43817342871E+03  0.00000000000E+00 0.  1.
         21    1    1    2  505  502  0.13540059547E+02 -0.11230599348E+03  0.21844728964E+02  0.11520920782E+03  0.00000000000E+00 0. -1.
         21    1    1    2  506  503 -0.19765973379E+02  0.89040932852E+02  0.18432793628E+03  0.20565935311E+03  0.00000000000E+00 0.  1.
<scales pt_clust_3="40.96909" pt_clust_4="34.68652" pt_clust_5="107.33194" pt_clust_6="14000.00000"></scales>
<clustering>
<clus scale="   40.969">  1  3  2 -1</clus>
<clus scale="   34.687">  1  4  2 -1</clus>
<clus scale="  107.332">  2  5  1 -1</clus>
<clus scale="   40.969">  1  3  2 -1</clus>
</clustering>
</event>
<event>
 6    0  0.8991567E+002  0.1025545E+03  0.7546771E-02  0.1275014E+00
         21   -1    0    0  504  501  0.00000000000E+00  0.00000000000E+00  0.88937302109E+03  0.88937302109E+03  0.00000000000E+00 0.  1.
         21   -1    0    0  506  502 -0.00000000000E+00 -0.00000000000E+00 -0.10023474068E+03  0.10023474068E+03  0.00000000000E+00 0.  1.
         21    1    1    2  503  505  0.12853719834E+03  0.50469622589E+02  0.18723841647E+03  0.23265257094E+03  0.00000000000E+00 0.  1.
         21    1    1    2  504  502 -0.60461408163E+02  0.25209992962E+02  0.57435547971E+03  0.57807901077E+03  0.00000000000E+00 0.  1.
         21    1    1    2  505  501 -0.47902592026E+02 -0.21089293719E+02  0.83236017127E+02  0.98324214614E+02  0.00000000000E+00 0. -1.
         21    1    1    2  506  503 -0.20173198154E+02 -0.54590321832E+02 -0.55691632901E+02  0.80551965443E+02  0.00000000000E+00 0.  1.
<scales pt_clust_3="14000.00000" pt_clust_4="102.55447" pt_clust_5="52.33944" pt_clust_6="58.76774"></scales>
<clustering>
<clus scale="   52.339">  1  5  2 -1</clus>
<clus scale="   58.768">  2  6  1 -1</clus>
<clus scale="  102.554">  1  4  2 -1</clus>
<clus scale="   52.339">  1  3  2 -1</clus>
</clustering>
</event>
<event>
 6    0  0.8991567E+002  0.1257267E+03  0.7546771E-02  0.1233938E+00
         21   -1    0    0  506  501  0.00000000000E+00  0.00000000000E+00  0.98915190757E+02  0.98915190757E+02  0.00000000000E+00 0.  1.
         21   -1    0    0  503  502 -0.00000000000E+00 -0.00000000000E+00 -0.67246597982E+03  0.67246597982E+03  0.00000000000E+00 0.  1.
         21    1    1    2  503  501 -0.25735572246E+02 -0.31974229740E+02 -0.16484937420E+03  0.16988227459E+03  0.00000000000E+00 0.  1.
         21    1    1    2  504  505  0.12992857515E+03 -0.56701776107E+02 -0.30204949102E+02  0.14494435141E+03  0.00000000000E+00 0.  1.
         21    1    1    2  505  502 -0.25377592276E+00  0.50527864987E+02 -0.33306704367E+03  0.33687799739E+03  0.00000000000E+00 0.  1.
         21    1    1    2  506  504 -0.10393922698E+03  0.38148140859E+02 -0.45429422090E+02  0.11967654719E+03  0.00000000000E+00 0.  1.
<scales pt_clust_3="41.04474" pt_clust_4="125.72673" pt_clust_5="34.05686" pt_clust_6="14000.00000"></scales>
<clustering>
<clus scale="   41.045">  2  3  1 -1</clus>
<clus scale="   34.057">  2  5  1 -1</clus>
<clus scale="  125.727">  2  4  1 -1</clus>
<clus scale="  125.727">  1  3  2 -1</clus>
</clustering>
</event>
<event>
 6    0  0.8991567E+002  0.1260868E+03  0.7546771E-02  0.1233381E+00
         21   -1    0    0  503  501  0.00000000000E+00  0.00000000000E+00  0.27639629048E+03  0.27639629048E+03  0.00000000000E+00 0.  1.
         21   -1    0    0  505  502 -0.00000000000E+00 -0.00000000000E+00 -0.17504476001E+03  0.17504476001E+03  0.00000000000E+00 0.  1.
         21    1    1    2  503  504 -0.95478135970E+02  0.44820908406E+02  0.80528122446E+02  0.13270179646E+03  0.00000000000E+00 0.  1.
         21    1    1    2  504  506 -0.38929539693E+02  0.89632186465E+01 -0.11631549318E+02  0.41606986057E+02  0.00000000000E+00 0.  1.
         21    1    1    2  505  501  0.18855511596E+03 -0.94403088333E+01  0.65373098703E+02  0.19978937214E+03  0.00000000000E+00 0.  1.
         21    1    1    2  506  502 -0.54147440296E+02 -0.44343818219E+02 -0.32918141367E+02  0.77342895834E+02  0.00000000000E+00 0. -1.
<scales pt_clust_3="105.47506" pt_clust_4="35.83098" pt_clust_5="116.82718" pt_clust_6="35.83098"></scales>
<clustering>
<clus scale="   35.831">  4  6 -1 -1</clus>
<clus scale="  105.475">  1  3  2 -1</clus>
<clus scale="  116.827">  1  5  2 -1</clus>
<clus scale="  105.475">  1  3  2 -1</clus>
</clustering>
</event>
<event>
 6    0  0.8991567E+002  0.9511779E+02  0.7546771E-02  0.1290911E+00
         21   -1    0    0  506  501  0.00000000000E+00  0.00000000000E+00  0.19511025803E+03  0.19511025803E+03  0.00000000000E+00 0. -1.
         21   -1    0    0  505  502 -0.00000000000E+00 -0.00000000000E+00 -0.50076917967E+03  0.50076917967E+03  0.00000000000E+00 0. -1.
         21    1    1    2  503  504 -0.79589336451E+02  0.85132895743E+02  0.74959314763E+02  0.13856756938E+03  0.00000000000E+00 0. -1.
         21    1    1    2  504  502  0.26694233647E+02 -0.15474992758E+02 -0.25234086500E+02  0.39859962775E+02  0.00000000000E+00 0. -1.
         21    1    1    2  505  501  0.75210701763E+02  0.26655097141E+02 -0.40079219189E+03  0.40865820063E+03  0.00000000000E+00 0. -1.
         21    1    1    2  506  503 -0.22315598959E+02 -0.96313000125E+02  0.45408041993E+02  0.10879370491E+03  0.00000000000E+00 0. -1.
<scales pt_clust_3="14000.00000" pt_clust_4="30.85543" pt_clust_5="99.17780" pt_clust_6="95.11779"></scales>
<clustering>
<clus scale="   30.855">  2  4  1 -1</clus>
<clus scale="   99.178">  2  5  1 -1</clus>
<clus scale="   95.118">  1  6  2 -1</clus>
<clus scale="   95.118">  1  3  2 -1</clus>
</clustering>
</event>
<event>
 6    0  0.8991567E+002  0.1156776E+03  0.7546771E-02  0.1250403E+00
         21   -1    0    0  506  501  0.00000000000E+00  0.00000000000E+00  0.64612739923E+02  0.64612739923E+02  0.00000000000E+00 0.  1.
         21   -1    0    0  505  502 -0.00000000000E+00 -0.00000000000E+00 -0.84726291431E+03  0.84726291431E+03  0.00000000000E+00 0.  1.
         21    1    1    2  503  501 -0.36281709425E+02  0.29423763957E+01  0.18766023448E+02  0.40953432746E+02  0.00000000000E+00 0. -1.
         21    1    1    2  504  502  0.35998293483E+02 -0.15410469770E+01 -0.25925227523E+03  0.26174413875E+03  0.00000000000E+00 0.  1.
         21    1    1    2  505  503 -0.10056535152E+03  0.78808394003E+02 -0.38666746939E+03  0.40722952346E+03  0.00000000000E+00 0.  1.
         21    1    1    2  506  504  0.10084876746E+03 -0.80209723421E+02 -0.15549645321E+03  0.20194855927E+03  0.00000000000E+00 0.  1.
<scales pt_clust_3="35.72010" pt_clust_4="36.03126" pt_clust_5="115.67763" pt_clust_6="14000.00000"></scales>
<clustering>
<clus scale="   36.031">  2  4  1 -1</clus>
<clus scale="   35.720">  1  3  2 -1</clus>
<clus scale="  115.678">  2  5  1 -1</clus>
<clus scale="   35.720">  1  3  2 -1</clus>
</clustering>
</event>
<event>
 6    0  0.8991567E+002  0.1571304E+03  0.7546771E-02  0.1191975E+00
         21   -1    0    0  504  501  0.00000000000E+00  0.00000000000E+00  0.49125806394E+03  0.49125806394E+03  0.00000000000E+00 0.  1.
         21   -1    0    0  503  502 -0.00000000000E+00 -0.00000000000E+00 -0.63123528625E+03  0.63123528625E+03  0.00000000000E+00 0. -1.
         21    1    1    2  503  505 -0.21931669436E+02  0.30911647989E+02 -0.53556819307E+03  0.53690764339E+03  0.00000000000E+00 0. -1.
         21    1    1    2  504  502 -0.17997015774E+03 -0.41834098761E+02  0.11214361380E+03  0.21613777923E+03  0.00000000000E+00 0.  1.
         21    1    1    2  505  506  0.54330011831E+02  0.41626208556E+02  0.30359949708E+02  0.74874681773E+02  0.00000000000E+00 0.  1.
         21    1    1    2  506  501  0.14757181535E+03 -0.30703757784E+02  0.25308740725E+03  0.29457324579E+03  0.00000000000E+00 0.  1.
<scales pt_clust_3="37.90156" pt_clust_4="157.13041" pt_clust_5="69.33939" pt_clust_6="14000.00000"></scales>
<clustering>
<clus scale="   37.902">  2  3  1 -1</clus>
<clus scale="   69.339">  2  5  1 -1</clus>
<clus scale="  157.130">  2  4  1 -1</clus>
<clus scale="  157.130">  1  3  2 -1</clus>
</clustering>
</event>
<event>
 6    0  0.8991567E+002  0.9449518E+02  0.7546771E-02  0.1292317E+00
         21   -1    0    0  506  501  0.00000000000E+00  0.00000000000E+00  0.20975587452E+03  0.20975587452E+03  0.00000000000E+00 0.  1.
         21   -1    0    0  503  502 -0.00000000000E+00 -0.00000000000E+00 -0.45821242082E+03  0.45821242082E+03  0.00000000000E+00 0.  1.
         21    1    1    2  503  504 -0.35565227022E+02 -0.25959970297E+02 -0.18395375852E+03  0.18915018029E+03  0.00000000000E+00 0.  1.
         21    1    1    2  504  505 -0.21392253309E+02 -0.59492627556E+02 -0.72157110169E+02  0.95935654390E+02  0.00000000000E+00 0.  1.
         21    1    1    2  505  501 -0.13356173851E+02 -0.38234567545E+02  0.16549731968E+03  0.17038084504E+03  0.00000000000E+00 0.  1.
         21    1    1    2  506  502  0.70313654181E+02  0.12368716540E+03 -0.15784299729E+03  0.21250161562E+03  0.00000000000E+00 0.  1.
<scales pt_clust_3="46.12493" pt_clust_4="94.49518" pt_clust_5="40.50024" pt_clust_6="14000.00000"></scales>
<clustering>
<clus scale="   40.500">  1  5  2 -1</clus>
<clus scale="   46.125">  2  3  1 -1</clus>
<clus scale="   94.495">  1  4  2 -1</clus>
<clus scale="   40.500">  1  3  2 -1</clus>
</clustering>
</event>
<event>
 6    0  0.8991567E+002  0.6710665E+02  0.7546771E-02  0.1370218E+00
         21   -1    0    0  505  501  0.00000000000E+00  0.00000000000E+00  0.22163755633E+04  0.22163755633E+04  0.00000000000E+00 0. -1.
         21   -1    0    0  503  502 -0.00000000000E+00 -0.00000000000E+00 -0.54787122426E+03  0.54787122426E+03  0.00000000000E+00 0.  1.
         21    1    1    2  503  504 -0.20213164390E+02 -0.57869227869E+02 -0.53207448145E+03  0.53559375777E+03  0.00000000000E+00 0.  1.
         21    1    1    2  504  501 -0.67006045815E+02  0.72979190142E+02  0.37927313133E+03  0.39199984760E+03  0.00000000000E+00 0. -1.
         21    1    1    2  505  506  0.30387918813E+02 -0.12729984429E+02  0.17212041172E+04  0.17215194135E+04  0.00000000000E+00 0. -1.
         21    1    1    2  506  502  0.56831291392E+02 -0.23799778434E+01  0.10010157192E+03  0.11513376862E+03  0.00000000000E+00 0. -1.
<scales pt_clust_3="61.30501" pt_clust_4="67.10665" pt_clust_5="32.94659" pt_clust_6="14000.00000"></scales>
<clustering>
<clus scale="   32.947">  1  5  2 -1</clus>
<clus scale="   61.305">  2  3  1 -1</clus>
<clus scale="   67.107">  1  4  2 -1</clus>
<clus scale="   32.947">  1  3  2 -1</clus>
</clustering>
</event>
<event>
 6    0  0.8991567E+002  0.1702318E+03  0.7546771E-02  0.1177606E+00
         21   -1    0    0  504  501  0.00000000000E+00  0.00000000000E+00  0.33895125362E+03  0.33895125362E+03  0.00000000000E+00 0.  1.
         21   -1    0    0  505  502 -0.00000000000E+00 -0.00000000000E+00 -0.26684165669E+03  0.26684165669E+03  0.00000000000E+00 0. -1.
         21    1    1    2  503  501  0.16886500297E+03 -0.24034183811E+02  0.24835251845E+03  0.30128392695E+03  0.00000000000E+00 0.  1.
         21    1    1    2  504  506 -0.64263441476E+02 -0.10987001967E+02 -0.23812245277E+02  0.69408408336E+02  0.00000000000E+00 0. -1.
         21    1    1    2  505  503 -0.47135731392E+02 -0.67405717460E+01 -0.15685725195E+03  0.16392501325E+03  0.00000000000E+00 0. -1.
         21    1    1    2  506  502 -0.57465830102E+02  0.41761757524E+02  0.44265757113E+01  0.71175561771E+02  0.00000000000E+00 0.  1.
<scales pt_clust_3="159.23539" pt_clust_4="58.90744" pt_clust_5="47.61525" pt_clust_6="58.90744"></scales>
<clustering>
<clus scale="   47.615">  2  5  1 -1</clus>
<clus scale="   58.907">  4  6 -1 -1</clus>
<clus scale="  159.235">  1  3  2 -1</clus>
<clus scale="  159.235">  1  3  2 -1</clus>
</clustering>
</event>
<event>
 6    0  0.8991567E+002  0.1022518E+03  0.7546771E-02  0.1275631E+00
         21   -1    0    0  503  501  0.00000000000E+00  0.00000000000E+00  0.24414737872E+03  0.24414737872E+03  0.00000000000E+00 0.  1.
         21   -1    0    0  504  502 -0.00000000000E+00 -0.00000000000E+00 -0.87816498986E+03  0.87816498986E+03  0.00000000000E+00 0. -1.
         21    1    1    2  503  506  0.12153020885E+03 -0.27104643653E+02  0.12640584132E+03  0.17743362165E+03  0.00000000000E+00 0.  1.
         21    1    1    2  504  501 -0.16420182001E+02  0.28735872481E+02  0.79853886495E+02  0.86440823298E+02  0.00000000000E+00 0.  1.
         21    1    1    2  505  502 -0.32484949312E+02  0.21570591065E+02 -0.67824190846E+03  0.67936194236E+03  0.00000000000E+00 0. -1.
         21    1    1    2  506  505 -0.72625077539E+02 -0.23201819893E+02 -0.16203543049E+03  0.17907598127E+03  0.00000000000E+00 0.  1.
<scales pt_clust_3="102.25184" pt_clust_4="33.09642" pt_clust_5="39.09730" pt_clust_6="14000.00000"></scales>
<clustering>
<clus scale="   33.096">  1  4  2 -1</clus>
<clus scale="   39.097">  2  5  1 -1</clus>
<clus scale="  102.252">  1  3  2 -1</clus>
<clus scale="   33.096">  1  3  2 -1</clus>
</clustering>
</event>
<event>
 6    0  0.8991567E+002  0.1147705E+03  0.7546771E-02  0.1251982E+00
         21   -1    0    0  503  501  0.00000000000E+00  0.00000000000E+00  0.35298053472E+03  0.35298053472E+03  0.00000000000E+00 0.  1.
         21   -1    0    0  506  502 -0.00000000000E+00 -0.00000000000E+00 -0.39337301951E+03  0.39337301951E+03  0.00000000000E+00 0.  1.
         21    1    1    2  503  504  0.11268295303E+03  0.24558589604E+02  0.30219951206E+03  0.32345806113E+03  0.00000000000E+00 0.  1.
         21    1    1    2  504  502 -0.98812172164E+02 -0.13340389972E+02 -0.28460084341E+03  0.30156168763E+03  0.00000000000E+00 0.  1.
         21    1    1    2  505  501 -0.53359070976E+02  0.17160961153E+02 -0.19604662155E+02  0.59380399303E+02  0.00000000000E+00 0.  1.
         21    1    1    2  506  505  0.39488290115E+02 -0.28379160785E+02 -0.38386491280E+02  0.61953406169E+02  0.00000000000E+00 0.  1.
<scales pt_clust_3="14000.00000" pt_clust_4="114.77053" pt_clust_5="50.75430" pt_clust_6="48.62820"></scales>
<clustering>
<clus scale="   48.628">  2  6  1 -1</clus>
<clus scale="   50.754">  2  5  1 -1</clus>
<clus scale="  114.771">  2  4  1 -1</clus>
<clus scale="  114.771">  1  3  2 -1</clus>
</clustering>
</event>
<event>
 6    0  0.8991567E+002  0.1660042E+03  0.7546771E-02  0.1182080E+00
         21   -1    0    0  503  501  0.00000000000E+00  0.00000000000E+00  0.18426976394E+03  0.18426976394E+03  0.00000000000E+00 0. -1.
         21   -1    0    0  504  502 -0.00000000000E+00 -0.00000000000E+00 -0.12459141158E+04  0.12459141158E+04  0.00000000000E+00 0.  1.
         21    1    1    2  503  506 -0.49185389995E+02 -0.15698814951E+03  0.12482457433E+03  0.20650824689E+03  0.00000000000E+00 0. -1.
         21    1    1    2  504  505 -0.45116796356E+02  0.21803640583E+02 -0.16362353384E+03  0.17112447190E+03  0.00000000000E+00 0.  1.
         21    1    1    2  505  501  0.86374067096E+02  0.18072593899E+03 -0.87564314849E+03  0.89826124707E+03  0.00000000000E+00 0.  1.
         21    1    1    2  506  502  0.79281192552E+01 -0.45541430059E+02 -0.14720224384E+03  0.15428991386E+03  0.00000000000E+00 0.  1.
<scales pt_clust_3="166.00416" pt_clust_4="46.34645" pt_clust_5="14000.00000" pt_clust_6="46.22637"></scales>
<clustering>
<clus scale="   46.226">  2  6  1 -1</clus>
<clus scale="   46.346">  2  4  1 -1</clus>
<clus scale="  166.004">  1  3  2 -1</clus>
<clus scale="  166.004">  1  3  2 -1</clus>
</clustering>
</event>
<event>
 6    0  0.8991567E+002  0.6145912E+02  0.7546771E-02  0.1391809E+00
         21   -1    0    0  503  501  0.00000000000E+00  0.00000000000E+00  0.47703984597E+03  0.47703984597E+03  0.00000000000E+00 0. -1.
         21   -1    0    0  505  502 -0.00000000000E+00 -0.00000000000E+00 -0.61617115042E+02  0.61617115042E+02  0.00000000000E+00 0. -1.
         21    1    1    2  503  504 -0.18885463074E+02 -0.75784277074E+02  0.13004076015E+03  0.15169217734E+03  0.00000000000E+00 0. -1.
         21    1    1    2  504  502  0.36294424088E+02 -0.37032202438E+02 -0.68455222056E+01  0.52302298339E+02  0.00000000000E+00 0. -1.
         21    1    1    2  505  506  0.95020061093E+01  0.66177760149E+02  0.42557970428E+02  0.79252538795E+02  0.00000000000E+00 0. -1.
         21    1    1    2  506  501 -0.26910967123E+02  0.46638719363E+02  0.24966952255E+03  0.25540994653E+03  0.00000000000E+00 0. -1.
<scales pt_clust_3="61.45912" pt_clust_4="51.85238" pt_clust_5="14000.00000" pt_clust_6="49.36149"></scales>
<clustering>
<clus scale="   51.852">  2  4  1 -1</clus>
<clus scale="   49.361">  1  6  2 -1</clus>
<clus scale="   61.459">  1  3  2 -1</clus>
<clus scale="   49.361">  1  3  2 -1</clus>
</clustering>
</event>
<event>
 6    0  0.8991567E+002  0.6980060E+02  0.7546771E-02  0.1360772E+00
         21   -1    0    0  503  501  0.00000000000E+00  0.00000000000E+00  0.20988593102E+03  0.20988593102E+03  0.00000000000E+00 0.  1.
         21   -1    0    0  506  502 -0.00000000000E+00 -0.00000000000E+00 -0.25125202582E+03  0.25125202582E+03  0.00000000000E+00 0. -1.
         21    1    1    2  503  502  0.54292381861E+02 -0.19818115686E+02 -0.11432818759E+03  0.12810681057E+03  0.00000000000E+00 0. -1.
         21    1    1    2  504  501  0.40226716692E+01  0.41320943668E+02  0.41191147499E+02  0.58483441292E+02  0.00000000000E+00 0. -1.
         21    1    1    2  505  504  0.58622226282E+02 -0.39543489570E+02  0.11138540964E+03  0.13193544809E+03  0.00000000000E+00 0.  1.
         21    1    1    2  506  505 -0.11693727981E+03  0.18040661587E+02 -0.79614464347E+02  0.14261225688E+03  0.00000000000E+00 0. -1.
<scales pt_clust_3="57.37523" pt_clust_4="41.51629" pt_clust_5="14000.00000" pt_clust_6="69.80060"></scales>
<clustering>
<clus scale="   41.516">  1  4  2 -1</clus>
<clus scale="   57.375">  2  3  1 -1</clus>
<clus scale="   69.801">  2  6  1 -1</clus>
<clus scale="   41.516">  1  3  2 -1</clus>
</clustering>
</event>
<event>
 6    0  0.8991567E+002  0.7855444E+02  0.7546771E-02  0.1333205E+00
         21   -1    0    0  503  501  0.00000000000E+00  0.00000000000E+00  0.66726966610E+02  0.66726966610E+02  0.00000000000E+00 0.  1.
         21   -1    0    0  504  502 -0.00000000000E+00 -0.00000000000E+00 -0.87804762634E+03  0.87804762634E+03  0.00000000000E+00 0. -1.
         21    1    1    2  503  506 -0.70250059556E+01 -0.51661738225E+02  0.81398615936E+01  0.52768771559E+02  0.00000000000E+00 0.  1.
         21    1    1    2  504  505  0.28252755311E+02  0.10108213871E+03 -0.10347594591E+03  0.14738754469E+03  0.00000000000E+00 0.  1.
         21    1    1    2  505  501  0.40760579074E+02 -0.23677939448E+01 -0.22184303397E+02  0.46466919113E+02  0.00000000000E+00 0.  1.
         21    1    1    2  506  502 -0.61988328429E+02 -0.47052606541E+02 -0.69380027201E+03  0.69815135758E+03  0.00000000000E+00 0. -1.
<scales pt_clust_3="55.26453" pt_clust_4="14000.00000" pt_clust_5="40.82929" pt_clust_6="78.55444"></scales>
<clustering>
<clus scale="   40.829">  1  5  2 -1</clus>
<clus scale="   55.265">  1  3  2 -1</clus>
<clus scale="   78.554">  2  6  1 -1</clus>
<clus scale="   40.829">  1  3  2 -1</clus>
</clustering>
</event>
<event>
 6    0  0.8991567E+002  0.1751092E+03  0.7546771E-02  0.1172622E+00
         21   -1    0    0  503  501  0.00000000000E+00  0.00000000000E+00  0.77747938492E+02  0.77747938492E+02  0.00000000000E+00 0. -1.
         21   -1    0    0  505  502 -0.00000000000E+00 -0.00000000000E+00 -0.53017164377E+03  0.53017164377E+03  0.00000000000E+00 0. -1.
         21    1    1    2  503  506 -0.40145532199E+02 -0.41794123380E+01 -0.92857230717E+01  0.41416855216E+02  0.00000000000E+00 0. -1.
         21    1    1    2  504  501  0.43889138705E+02 -0.19988636562E+02 -0.45819094477E+02  0.66522112914E+02  0.00000000000E+00 0. -1.
         21    1    1    2  505  504  0.10633382195E+03  0.11425105088E+03 -0.25356199124E+03  0.29774799364E+03  0.00000000000E+00 0. -1.
         21    1    1    2  506  502 -0.11007742845E+03 -0.90083001982E+02 -0.14375689649E+03  0.20223262049E+03  0.00000000000E+00 0. -1.
<scales pt_clust_3="35.69732" pt_clust_4="48.22657" pt_clust_5="161.77933" pt_clust_6="35.69732"></scales>
<clustering>
<clus scale="   35.697">  3  6 -1 -1</clus>
<clus scale="   48.227">  1  4  2 -1</clus>
<clus scale="  161.779">  2  5  1 -1</clus>
<clus scale="   48.227">  1  3  2 -1</clus>
</clustering>
</event>
<event>
 6    0  0.8991567E+002  0.2070298E+03  0.7546771E-02  0.1143940E+00
         21   -1    0    0  505  501  0.00000000000E+00  0.00000000000E+00  0.28428423687E+03  0.28428423687E+03  0.00000000000E+00 0.  1.
         21   -1    0    0  504  502 -0.00000000000E+00 -0.00000000000E+00 -0.25028480892E+04  0.25028480892E+04  0.00000000000E+00 0. -1.
         21    1    1    2  503  501 -0.76061092228E+02  0.19521697040E+03 -0.58248840878E+02  0.21745777233E+03  0.00000000000E+00 0.  1.
         21    1    1    2  504  503  0.48472979924E+02 -0.13837921020E+03 -0.40254237094E+03  0.42841428080E+03  0.00000000000E+00 0. -1.
         21    1    1    2  505  506 -0.53570431600E+02  0.12281378317E+02  0.18631495588E+03  0.19425212014E+03  0.00000000000E+00 0.  1.
         21    1    1    2  506  502  0.81158543904E+02 -0.69119138516E+02 -0.19440875964E+04  0.19470081527E+04  0.00000000000E+00 0. -1.
<scales pt_clust_3="14000.00000" pt_clust_4="207.02983" pt_clust_5="54.96020" pt_clust_6="105.84630"></scales>
<clustering>
<clus scale="   54.960">  1  5  2 -1</clus>
<clus scale="  105.846">  2  6  1 -1</clus>
<clus scale="  207.030">  2  4  1 -1</clus>
<clus scale="   54.960">  1  3  2 -1</clus>
</clustering>
</event>
<event>
 6    0  0.8991567E+002  0.2201953E+03  0.7546771E-02  0.1133738E+00
         21   -1    0    0  503  501  0.00000000000E+00  0.00000000000E+00  0.11211442845E+03  0.11211442845E+03  0.00000000000E+00 0. -1.
         21   -1    0    0  504  502 -0.00000000000E+00 -0.00000000000E+00 -0.71083576322E+03  0.71083576322E+03  0.00000000000E+00 0. -1.
         21    1    1    2  503  505  0.12716632734E+03  0.56136044143E+02 -0.15015547825E+03  0.20461964204E+03  0.00000000000E+00 0. -1.
         21    1    1    2  504  501 -0.22186470137E+03 -0.83258812350E+02 -0.16282201337E+03  0.28751866650E+03  0.00000000000E+00 0. -1.
         21    1    1    2  505  506  0.17096609945E+02  0.49028678282E+02 -0.24513104704E+02  0.57419488573E+02  0.00000000000E+00 0.  1.
         21    1    1    2  506  502  0.77601764085E+02 -0.21905910076E+02 -0.26123073845E+03  0.27339239455E+03  0.00000000000E+00 0. -1.
<scales pt_clust_3="48.44908" pt_clust_4="205.43123" pt_clust_5="48.44908" pt_clust_6="80.63438"></scales>
<clustering>
<clus scale="   48.449">  3  5 -1 -1</clus>
<clus scale="   80.634">  2  6  1 -1</clus>
<clus scale="  205.431">  2  4  1 -1</clus>
<clus scale="  220.195">  1  3  2 -1</clus>
</clustering>
</event>
<event>
 6    0  0.8991567E+002  0.8968610E+02  0.7546771E-02  0.1303614E+00
         21   -1    0    0  503  501  0.00000000000E+00  0.00000000000E+00  0.63374818142E+02  0.63374818142E+02  0.00000000000E+00 0. -1.
         21   -1    0    0  504  502 -0.00000000000E+00 -0.00000000000E+00 -0.12171958084E+04  0.12171958084E+04  0.00000000000E+00 0.  1.
         21    1    1    2  503  506 -0.17596452043E+02  0.10930142281E+03 -0.19231678424E+03  0.22190579455E+03  0.00000000000E+00 0.  1.
         21    1    1    2  504  505  0.38631559459E+02  0.28302704299E+02 -0.68318014997E+03  0.68485659650E+03  0.00000000000E+00 0.  1.
         21    1    1    2  505  501 -0.24803851254E+02 -0.83591514749E+02  0.30745308500E+01  0.87248066541E+02  0.00000000000E+00 0. -1.
         21    1    1    2  506  502  0.37687438374E+01 -0.54012612357E+02 -0.28139858687E+03  0.28656016893E+03  0.00000000000E+00 0.  1.
<scales pt_clust_3="89.68610" pt_clust_4="47.88988" pt_clust_5="14000.00000" pt_clust_6="45.92205"></scales>
<clustering>
<clus scale="   47.890">  2  4  1 -1</clus>
<clus scale="   45.922">  2  6  1 -1</clus>
<clus scale="   89.686">  2  3  1 -1</clus>
<clus scale="   89.686">  1  3  2 -1</clus>
</clustering>
</event>
<event>
 6    0  0.8991567E+002  0.1476132E+03  0.7546771E-02  0.1203437E+00
         21   -1    0    0  505  501  0.00000000000E+00  0.00000000000E+00  0.38163373700E+03  0.38163373700E+03  0.00000000000E+00 0.  1.
         21   -1    0    0  504  502 -0.00000000000E+00 -0.00000000000E+00 -0.54310173761E+03  0.54310173761E+03  0.00000000000E+00 0.  1.
         21    1    1    2  503  506  0.74156300726E+02  0.62525609696E+02 -0.25584028814E+03  0.27361078531E+03  0.00000000000E+00 0.  1.
         21    1    1    2  504  501 -0.12357984190E+03 -0.11557575687E+03  0.77619118838E+02  0.18615708558E+03  0.00000000000E+00 0.  1.
         21    1    1    2  505  503  0.26642573408E+02  0.18222396486E+02  0.23782868709E+03  0.24000909744E+03  0.00000000000E+00 0.  1.
         21    1    1    2  506  502  0.22780967769E+02  0.34827750692E+02 -0.22107551840E+03  0.22495850628E+03  0.00000000000E+00 0.  1.
<scales pt_clust_3="31.05732" pt_clust_4="139.79100" pt_clust_5="32.27820" pt_clust_6="31.05732"></scales>
<clustering>
<clus scale="   31.057">  3  6 -1 -1</clus>
<clus scale="   32.278">  1  5  2 -1</clus>
<clus scale="  139.791">  1  4  2 -1</clus>
<clus scale="   32.278">  1  3  2 -1</clus>
</clustering>
</event>
<event>
 6    0  0.8991567E+002  0.3236833E+03  0.7546771E-02  0.1073967E+00
         21   -1    0    0  505  501  0.00000000000E+00  0.00000000000E+00  0.43871644120E+03  0.43871644120E+03  0.00000000000E+00 0. -1.
         21   -1    0    0  504  502 -0.00000000000E+00 -0.00000000000E+00 -0.47078670925E+03  0.47078670925E+03  0.00000000000E+00 0. -1.
         21    1    1    2  503  501 -0.86468054387E+02 -0.37670988903E+02  0.49246538885E+02  0.10640042024E+03  0.00000000000E+00 0. -1.
         21    1    1    2  504  503 -0.27456934623E+03  0.13364449263E+03 -0.54407429420E+02  0.31017631224E+03  0.00000000000E+00 0. -1.
         21    1    1    2  505  506  0.37003813388E+03 -0.42760320697E+02  0.72800424215E+02  0.37954784589E+03  0.00000000000E+00 0. -1.
         21    1    1    2  506  502 -0.90007332711E+01 -0.53213183032E+02 -0.99709801727E+02  0.11337857209E+03  0.00000000000E+00 0. -1.
<scales pt_clust_3="96.69757" pt_clust_4="323.68327" pt_clust_5="14000.00000" pt_clust_6="53.96903"></scales>
<clustering>
<clus scale="   53.969">  2  6  1 -1</clus>
<clus scale="   96.698">  1  3  2 -1</clus>
<clus scale="  323.683">  2  4  1 -1</clus>
<clus scale="   96.698">  1  3  2 -1</clus>
</clustering>
</event>
<event>
 6    0  0.8991567E+002  0.1842121E+03  0.7546771E-02  0.1163788E+00
         21   -1    0    0  505  501  0.00000000000E+00  0.00000000000E+00  0.28614147822E+03  0.28614147822E+03  0.00000000000E+00 0. -1.
         21   -1    0    0  506  502 -0.00000000000E+00 -0.00000000000E+00 -0.23038895283E+04  0.23038895283E+04  0.00000000000E+00 0. -1.
         21    1    1    2  503  502  0.10167875898E+03  0.30822472393E+03 -0.13327195651E+04  0.13716714219E+04  0.00000000000E+00 0. -1.
         21    1    1    2  504  501 -0.69264234882E+02 -0.10204728217E+03  0.11935506107E+02  0.12390979920E+03  0.00000000000E+00 0. -1.
         21    1    1    2  505  503 -0.60784804951E+02 -0.41898920310E+02  0.18378673260E+03  0.19806028152E+03  0.00000000000E+00 0. -1.
         21    1    1    2  506  504  0.28370280849E+02 -0.16427852146E+03 -0.88075072369E+03  0.89638950392E+03  0.00000000000E+00 0. -1.
<scales pt_clust_3="14000.00000" pt_clust_4="184.21206" pt_clust_5="73.82623" pt_clust_6="169.34084"></scales>
<clustering>
<clus scale="   73.826">  1  5  2 -1</clus>
<clus scale="  169.341">  2  6  1 -1</clus>
<clus scale="  184.212">  1  4  2 -1</clus>
<clus scale="   73.826">  1  3  2 -1</clus>
</clustering>
</event>
<event>
 6    0  0.8991567E+002  0.9900004E+02  0.7546771E-02  0.1282413E+00
         21   -1    0    0  506  501  0.00000000000E+00  0.00000000000E+00  0.67497426619E+03  0.67497426619E+03  0.00000000000E+00 0. -1.
         21   -1    0    0  505  502 -0.00000000000E+00 -0.00000000000E+00 -0.32251651620E+03  0.32251651620E+03  0.00000000000E+00 0. -1.
         21    1    1    2  503  502  0.30696173256E+02 -0.35323114509E+02 -0.10165787985E+02  0.47888628260E+02  0.00000000000E+00 0. -1.
         21    1    1    2  504  501 -0.98955530563E+02  0.81052022808E+02 -0.14153033123E+03  0.19076808457E+03  0.00000000000E+00 0. -1.
         21    1    1    2  505  504 -0.25834716338E+02 -0.16464134183E+02 -0.12158435380E+03  0.12538443034E+03  0.00000000000E+00 0.  1.
         21    1    1    2  506  503  0.94094073645E+02 -0.29264774115E+02  0.62573822301E+03  0.63344963923E+03  0.00000000000E+00 0. -1.
<scales pt_clust_3="46.34932" pt_clust_4="14000.00000" pt_clust_5="30.63495" pt_clust_6="99.00004"></scales>
<clustering>
<clus scale="   30.635">  2  5  1 -1</clus>
<clus scale="   46.349">  2  3  1 -1</clus>
<clus scale="   99.000">  1  6  2 -1</clus>
<clus scale="   99.000">  1  3  2 -1</clus>
</clustering>
</event>
<event>
 6    0  0.8991567E+002  0.1057151E+03  0.7546771E-02  0.1268717E+00
         21   -1    0    0  505  501  0.00000000000E+00  0.00000000000E+00  0.78201198856E+03  0.78201198856E+03  0.00000000000E+00 0.  1.
         21   -1    0    0  506  502 -0.00000000000E+00 -0.00000000000E+00 -0.77688355730E+03  0.77688355730E+03  0.00000000000E+00 0. -1.
         21    1    1    2  503  501  0.13639012131E+02 -0.33178982103E+02  0.53687430142E+02  0.64569401891E+02  0.00000000000E+00 0. -1.
         21    1    1    2  504  503 -0.13516749471E+03  0.16302758058E+02  0.17175096475E+02  0.13722614724E+03  0.00000000000E+00 0. -1.
         21    1    1    2  505  502  0.88615039485E+02  0.21278705789E+02  0.64207601165E+03  0.64851138253E+03  0.00000000000E+00 0.  1.
         21    1    1    2  506  504  0.32913443098E+02 -0.44024817430E+01 -0.70781010700E+03  0.70858861419E+03  0.00000000000E+00 0. -1.
<scales pt_clust_3="37.25657" pt_clust_4="14000.00000" pt_clust_5="105.71508" pt_clust_6="33.20657"></scales>
<clustering>
<clus scale="   33.207">  2  6  1 -1</clus>
<clus scale="   37.257">  1  3  2 -1</clus>
<clus scale="  105.715">  1  5  2 -1</clus>
<clus scale="   37.257">  1  3  2 -1</clus>
</clustering>
</event>
<event>
 6    0  0.8991567E+002  0.3014975E+03  0.7546771E-02  0.1084494E+00
         21   -1    0    0  503  501  0.00000000000E+00  0.00000000000E+00  0.50847818346E+03  0.50847818346E+03  0.00000000000E+00 0. -1.
         21   -1    0    0  505  502 -0.00000000000E+00 -0.00000000000E+00 -0.21944491004E+03  0.21944491004E+03  0.00000000000E+00 0. -1.
         21    1    1    2  503  504  0.35972304850E+02  0.29955356815E+03  0.17009390195E+03  0.34634994209E+03  0.00000000000E+00 0. -1.
         21    1    1    2  504  502  0.46814783159E+01 -0.38873334079E+02 -0.39856306509E+02  0.55871079372E+02  0.00000000000E+00 0. -1.
         21    1    1    2  505  506 -0.29902588117E+02 -0.11635700323E+03  0.13948514463E+02  0.12094493802E+03  0.00000000000E+00 0. -1.
         21    1    1    2  506  501 -0.10751195049E+02 -0.14432323084E+03  0.14484716351E+03  0.20475713402E+03  0.00000000000E+00 0. -1.
<scales pt_clust_3="282.20889" pt_clust_4="39.15421" pt_clust_5="98.91023" pt_clust_6="98.91023"></scales>
<clustering>
<clus scale="   39.154">  2  4  1 -1</clus>
<clus scale="   98.910">  5  6 -1 -1</clus>
<clus scale="  282.209">  2  3  1 -1</clus>
<clus scale="  301.497">  1  3  2 -1</clus>
</clustering>
</event>
<event>
 6    0  0.8991567E+002  0.1143960E+03  0.7546771E-02  0.1252639E+00
         21   -1    0    0  504  501  0.00000000000E+00  0.00000000000E+00  0.32454812383E+03  0.32454812383E+03  0.00000000000E+00 0. -1.
         21   -1    0    0  503  502 -0.00000000000E+00 -0.00000000000E+00 -0.56823596434E+02  0.56823596434E+02  0.00000000000E+00 0. -1.
         21    1    1    2  503  501  0.41865648224E+02  0.27988878690E+00  0.36911657334E+02  0.55814704927E+02  0.00000000000E+00 0. -1.
         21    1    1    2  504  506 -0.21413449945E+02 -0.43567145600E+02  0.43924933259E+02  0.65467791899E+02  0.00000000000E+00 0. -1.
         21    1    1    2  505  502 -0.35862994796E+02  0.10273535224E+03  0.74048836124E+02  0.13162042823E+03  0.00000000000E+00 0. -1.
         21    1    1    2  506  505  0.15410796517E+02 -0.59448095431E+02  0.11283910068E+03  0.12846879521E+03  0.00000000000E+00 0. -1.
<scales pt_clust_3="41.86658" pt_clust_4="41.19973" pt_clust_5="103.43196" pt_clust_6="41.19973"></scales>
<clustering>
<clus scale="   41.867">  2  3  1 -1</clus>
<clus scale="   41.200">  4  6 -1 -1</clus>
<clus scale="  103.432">  2  5  1 -1</clus>
<clus scale="  114.396">  1  3  2 -1</clus>
</clustering>
</event>
<event>
 6    0  0.8991567E+002  0.8414581E+02  0.7546771E-02  0.1317682E+00
         21   -1    0    0  506  501  0.00000000000E+00  0.00000000000E+00  0.13151867832E+03  0.13151867832E+03  0.00000000000E+00 0.  1.
         21   -1    0    0  503  502 -0.00000000000E+00 -0.00000000000E+00 -0.17528893001E+03  0.17528893001E+03  0.00000000000E+00 0.  1.
         21    1    1    2  503  504 -0.74721664551E+02  0.41817021794E+02 -0.71344435580E+02  0.11145411142E+03  0.00000000000E+00 0.  1.
         21    1    1    2  504  501 -0.25073891339E+02  0.33310671947E+02  0.47573039152E+01  0.41963470221E+02  0.00000000000E+00 0.  1.
         21    1    1    2  505  502  0.27746182365E+02  0.11604815084E+02 -0.16093281175E+02  0.34110351331E+02  0.00000000000E+00 0.  1.
         21    1    1    2  506  505  0.72049373525E+02 -0.86732508824E+02  0.38910161145E+02  0.11927967535E+03  0.00000000000E+00 0.  1.
<scales pt_clust_3="14000.00000" pt_clust_4="40.93403" pt_clust_5="30.07528" pt_clust_6="84.14581"></scales>
<clustering>
<clus scale="   30.075">  2  5  1 -1</clus>
<clus scale="   40.934">  1  4  2 -1</clus>
<clus scale="   84.146">  1  6  2 -1</clus>
<clus scale="   40.934">  1  3  2 -1</clus>
</clustering>
</event>
<event>
 6    0  0.8991567E+002  0.9589159E+02  0.7546771E-02  0.1289181E+00
         21   -1    0    0  505  501  0.00000000000E+00  0.00000000000E+00  0.27713963038E+03  0.27713963038E+03  0.00000000000E+00 0. -1.
         21   -1    0    0  503  502 -0.00000000000E+00 -0.00000000000E+00 -0.27836409960E+03  0.27836409960E+03  0.00000000000E+00 0.  1.
         21    1    1    2  503  506 -0.41711351651E+02 -0.16313044246E+02 -0.20420371687E+02  0.49223407531E+02  0.00000000000E+00 0.  1.
         21    1    1    2  504  502  0.57802636603E+02  0.27698258927E+00 -0.14343740932E+03  0.15464640930E+03  0.00000000000E+00 0. -1.
         21    1    1    2  505  504  0.56345330902E+02 -0.74611299969E+02  0.20721344043E+03  0.22733027139E+03  0.00000000000E+00 0. -1.
         21    1    1    2  506  501 -0.72436615853E+02  0.90647361625E+02 -0.44580128635E+02  0.12430364176E+03  0.00000000000E+00 0.  1.
<scales pt_clust_3="44.78786" pt_clust_4="33.70416" pt_clust_5="14000.00000" pt_clust_6="95.89159"></scales>
<clustering>
<clus scale="   44.788">  2  3  1 -1</clus>
<clus scale="   33.704">  2  4  1 -1</clus>
<clus scale="   95.892">  2  6  1 -1</clus>
<clus scale="   95.892">  1  3  2 -1</clus>
</clustering>
</event>
<event>
 6    0  0.8991567E+002  0.1441920E+03  0.7546771E-02  0.1207797E+00
         21   -1    0    0  506  501  0.00000000000E+00  0.00000000000E+00  0.47544076650E+03  0.47544076650E+03  0.00000000000E+00 0. -1.
         21   -1    0    0  504  502 -0.00000000000E+00 -0.00000000000E+00 -0.84646062288E+03  0.84646062288E+03  0.00000000000E+00 0.  1.
         21    1    1    2  503  501  0.40593777829E+02  0.73728084071E+01  0.40055202984E+03  0.40267125762E+03  0.00000000000E+00 0. -1.
         21    1    1    2  504  503 -0.10069591019E+03 -0.10524349775E+03 -0.68682045139E+03  0.70209557227E+03  0.00000000000E+00 0.  1.
         21    1    1    2  505  502 -0.24947366393E+02  0.22808405185E+02 -0.97302024919E+02  0.10300620608E+03  0.00000000000E+00 0.  1.
         21    1    1    2  506  505  0.85049498755E+02  0.75062284157E+02  0.12550590095E+02  0.11412835341E+03  0.00000000000E+00 0. -1.
<scales pt_clust_3="41.22884" pt_clust_4="14000.00000" pt_clust_5="33.80228" pt_clust_6="144.19200"></scales>
<clustering>
<clus scale="   33.802">  2  5  1 -1</clus>
<clus scale="   41.229">  1  3  2 -1</clus>
<clus scale="  144.192">  1  6  2 -1</clus>
<clus scale="   41.229">  1  3  2 -1</clus>
</clustering>
</event>
<event>
 6    0  0.8991567E+002  0.1839156E+03  0.7546771E-02  0.1164066E+00
         21   -1    0    0  502  501  0.00000000000E+00  0.00000000000E+00  0.61105540626E+03  0.61105540626E+03  0.00000000000E+00 0.  1.
         21   -1    0    0  504  502 -0.00000000000E+00 -0.00000000000E+00 -0.10458578739E+04  0.10458578739E+04  0.00000000000E+00 0. -1.
         21    1    1    2  503  501 -0.31657259985E+02 -0.25638943588E+02  0.13437350995E+03  0.14041288300E+03  0.00000000000E+00 0.  1.
         21    1    1    2  504  505 -0.40868621413E+02 -0.15947741930E+03 -0.10115057968E+04  0.10248157242E+04  0.00000000000E+00 0. -1.
         21    1    1    2  505  506  0.23176030368E+02  0.15393702145E+03  0.33823462839E+03  0.37233909115E+03  0.00000000000E+00 0.  1.
         21    1    1    2  506  503  0.49349851030E+02  0.31179341435E+02  0.10409519089E+03  0.11934558180E+03  0.00000000000E+00 0.  1.
<scales pt_clust_3="40.73742" pt_clust_4="165.09049" pt_clust_5="48.80891" pt_clust_6="48.80891"></scales>
<clustering>
<clus scale="   40.737">  1  3  2 -1</clus>
<clus scale="   48.809">  5  6 -1 -1</clus>
<clus scale="  165.090">  2  4  1 -1</clus>
<clus scale="   40.737">  1  3  2 -1</clus>
</clustering>
</event>
<event>
 6    0  0.8991567E+002  0.1777673E+03  0.7546771E-02  0.1169982E+00
         21   -1    0    0  504  501  0.00000000000E+00  0.00000000000E+00  0.62440293465E+02  0.62440293465E+02  0.00000000000E+00 0.  1.
         21   -1    0    0  501  502 -0.00000000000E+00 -0.00000000000E+00 -0.20028601853E+04  0.20028601853E+04  0.00000000000E+00 0.  1.
         21    1    1    2  503  502  0.23703816392E+02 -0.31011272498E+02 -0.29749653315E+03  0.30004625838E+03  0.00000000000E+00 0. -1.
         21    1    1    2  504  505 -0.36120189443E+02  0.68077917272E+02 -0.61171239332E+02  0.98393045623E+02  0.00000000000E+00 0.  1.
         21    1    1    2  505  506  0.82680546418E+02  0.11533061887E+03 -0.95232194764E+02  0.17089878679E+03  0.00000000000E+00 0.  1.
         21    1    1    2  506  503 -0.70264173368E+02 -0.15239726365E+03 -0.14865199246E+04  0.14959623880E+04  0.00000000000E+00 0.  1.
<scales pt_clust_3="39.03293" pt_clust_4="75.26458" pt_clust_5="14000.00000" pt_clust_6="177.76728"></scales>
<clustering>
<clus scale="   39.033">  2  3  1 -1</clus>
<clus scale="   75.265">  1  4  2 -1</clus>
<clus scale="  177.767">  2  6  1 -1</clus>
<clus scale="   75.265">  1  3  2 -1</clus>
</clustering>
</event>
<event>
 6    0  0.8991567E+002  0.1153802E+03  0.7546771E-02  0.1250919E+00
         21   -1    0    0  503  501  0.00000000000E+00  0.00000000000E+00  0.10804745078E+03  0.10804745078E+03  0.00000000000E+00 0.  1.
         21   -1    0    0  504  502 -0.00000000000E+00 -0.00000000000E+00 -0.16812876993E+04  0.16812876993E+04  0.00000000000E+00 0.  1.
         21    1    1    2  503  506 -0.39096730705E+02 -0.11597000475E+03  0.23742844857E+02  0.12466482678E+03  0.00000000000E+00 0.  1.
         21    1    1    2  504  501  0.28868583862E+02 -0.17874807877E+02 -0.14564602437E+04  0.14568559796E+04  0.00000000000E+00 0.  1.
         21    1    1    2  505  502  0.16357821066E+02  0.26432897465E+02 -0.76607966880E+02  0.82674403342E+02  0.00000000000E+00 0.  1.
         21    1    1    2  506  505 -0.61296742229E+01  0.10741191516E+03 -0.63914882794E+02  0.12513994034E+03  0.00000000000E+00 0.  1.
<scales pt_clust_3="14000.00000" pt_clust_4="44.17793" pt_clust_5="31.08499" pt_clust_6="115.38023"></scales>
<clustering>
<clus scale="   31.085">  2  5  1 -1</clus>
<clus scale="   44.178">  2  4  1 -1</clus>
<clus scale="  115.380">  2  6  1 -1</clus>
<clus scale="  115.380">  1  3  2 -1</clus>
</clustering>
</event>
<event>
 6    0  0.8991567E+002  0.1340859E+03  0.7546771E-02  0.1221516E+00
         21   -1    0    0  505  501  0.00000000000E+00  0.00000000000E+00  0.97264124709E+03  0.97264124709E+03  0.00000000000E+00 0.  1.
         21   -1    0    0  506  502 -0.00000000000E+00 -0.00000000000E+00 -0.11524568882E+03  0.11524568882E+03  0.00000000000E+00 0. -1.
         21    1    1    2  503  501 -0.73412254728E+02 -0.77087559694E+02  0.23807823555E+03  0.26079320782E+03  0.00000000000E+00 0. -1.
         21    1    1    2  504  502  0.52385177225E+02 -0.12287857926E+03  0.70855585758E+02  0.15120802250E+03  0.00000000000E+00 0. -1.
         21    1    1    2  505  504 -0.11326783490E+02  0.17559714250E+03  0.59130225160E+03  0.61692868731E+03  0.00000000000E+00 0.  1.
         21    1    1    2  506  503  0.32353860993E+02  0.24368996455E+02 -0.42840514638E+02  0.58957018275E+02  0.00000000000E+00 0. -1.
<scales pt_clust_3="99.40506" pt_clust_4="134.08588" pt_clust_5="14000.00000" pt_clust_6="40.50457"></scales>
<clustering>
<clus scale="   40.505">  2  6  1 -1</clus>
<clus scale="   99.405">  1  3  2 -1</clus>
<clus scale="  134.086">  2  4  1 -1</clus>
<clus scale="   99.405">  1  3  2 -1</clus>
</clustering>
</event>
<event>
 6    0  0.8991567E+002  0.7672719E+02  0.7546771E-02  0.1338604E+00
         21   -1    0    0  506  501  0.00000000000E+00  0.00000000000E+00  0.18029875472E+03  0.18029875472E+03  0.00000000000E+00 0.  1.
         21   -1    0    0  503  502 -0.00000000000E+00 -0.00000000000E+00 -0.45185112210E+03  0.45185112210E+03  0.00000000000E+00 0.  1.
         21    1    1    2  503  504 -0.30428129653E+02  0.29689640640E+01 -0.11383259674E+03  0.11786664457E+03  0.00000000000E+00 0.  1.
         21    1    1    2  504  501  0.31136955441E+02  0.45170972751E+02 -0.89881888506E+02  0.10530280459E+03  0.00000000000E+00 0.  1.
         21    1    1    2  505  502  0.75420368645E+02 -0.56076121217E+02 -0.21967880668E+03  0.23893836335E+03  0.00000000000E+00 0.  1.
         21    1    1    2  506  505 -0.76129194433E+02  0.79361844026E+01  0.15184092454E+03  0.17004206431E+03  0.00000000000E+00 0.  1.
<scales pt_clust_3="30.57263" pt_clust_4="51.14991" pt_clust_5="76.72719" pt_clust_6="14000.00000"></scales>
<clustering>
<clus scale="   30.573">  2  3  1 -1</clus>
<clus scale="   51.150">  2  4  1 -1</clus>
<clus scale="   76.727">  2  5  1 -1</clus>
<clus scale="   76.727">  1  3  2 -1</clus>
</clustering>
</event>
<event>
 6    0  0.8991567E+002  0.1017506E+03  0.7546771E-02  0.1276657E+00
         21   -1    0    0  504  501  0.00000000000E+00  0.00000000000E+00  0.28358110259E+04  0.28358110259E+04  0.00000000000E+00 0. -1.
         21   -1    0    0  503  502 -0.00000000000E+00 -0.00000000000E+00 -0.36487972865E+02  0.36487972865E+02  0.00000000000E+00 0. -1.
         21    1    1    2  503  506 -0.28177952635E+02  0.14915700627E+02 -0.13450606365E+02  0.34603380636E+02  0.00000000000E+00 0. -1.
         21    1    1    2  504  502  0.40282283757E+02 -0.58171913402E+02  0.87372497939E+03  0.87658540571E+03  0.00000000000E+00 0. -1.
         21    1    1    2  505  501  0.59662899906E+02 -0.13948321848E+02  0.17488884124E+04  0.17499613985E+04  0.00000000000E+00 0. -1.
         21    1    1    2  506  505 -0.71767231028E+02  0.57204534623E+02  0.19016026761E+03  0.21114881389E+03  0.00000000000E+00 0. -1.
<scales pt_clust_3="31.88221" pt_clust_4="14000.00000" pt_clust_5="59.94518" pt_clust_6="101.75056"></scales>
<clustering>
<clus scale="   31.882">  2  3  1 -1</clus>
<clus scale="   59.945">  1  5  2 -1</clus>
<clus scale="  101.751">  2  6  1 -1</clus>
<clus scale="   59.945">  1  3  2 -1</clus>
</clustering>
</event>
<event>
 6    0  0.8991567E+002  0.8997088E+02  0.7546771E-02  0.1302922E+00
         21   -1    0    0  506  501  0.00000000000E+00  0.00000000000E+00  0.84638084272E+02  0.84638084272E+02  0.00000000000E+00 0. -1.
         21   -1    0    0  504  502 -0.00000000000E+00 -0.00000000000E+00 -0.21592834187E+03  0.21592834187E+03  0.00000000000E+00 0. -1.
         21    1    1    2  503  501 -0.88693329396E+02  0.14163944662E+02 -0.42532367011E+02  0.99378701196E+02  0.00000000000E+00 0. -1.
         21    1    1    2  504  503  0.26907247850E+02 -0.28446188788E+02 -0.31108475129E+02  0.50009227831E+02  0.00000000000E+00 0. -1.
         21    1    1    2  505  502  0.90982615232E+02  0.26730716501E+02 -0.69210694428E+02  0.11739884029E+03  0.00000000000E+00 0. -1.
         21    1    1    2  506  505 -0.29196533685E+02 -0.12448472375E+02  0.11561278969E+02  0.33779656823E+02  0.00000000000E+00 0. -1.
<scales pt_clust_3="14000.00000" pt_clust_4="37.74927" pt_clust_5="89.97088" pt_clust_6="31.73960"></scales>
<clustering>
<clus scale="   31.740">  1  6  2 -1</clus>
<clus scale="   37.749">  2  4  1 -1</clus>
<clus scale="   89.971">  1  5  2 -1</clus>
<clus scale="   31.740">  1  3  2 -1</clus>
</clustering>
</event>
<event>
 6    0  0.8991567E+002  0.6457342E+02  0.7546771E-02  0.1379583E+00
         21   -1    0    0  505  501  0.00000000000E+00  0.00000000000E+00  0.15987908115E+04  0.15987908115E+04  0.00000000000E+00 0. -1.
         21   -1    0    0  503  502 -0.00000000000E+00 -0.00000000000E+00 -0.39948027171E+03  0.39948027171E+03  0.00000000000E+00 0.  1.
         21    1    1    2  503  504  0.72841078011E+02 -0.34620993598E+02 -0.24426978393E+03  0.25723950549E+03  0.00000000000E+00 0.  1.
         21    1    1    2  504  501 -0.55935595521E+02 -0.50586202633E+01  0.65951120942E+03  0.66189834252E+03  0.00000000000E+00 0.  1.
         21    1    1    2  505  506  0.39204077924E+02  0.62612024992E+02  0.92383782804E+03  0.92678668415E+03  0.00000000000E+00 0. -1.
         21    1    1    2  506  502 -0.56109560414E+02 -0.22932411131E+02 -0.13976871378E+03  0.15234655100E+03  0.00000000000E+00 0.  1.
<scales pt_clust_3="64.57342" pt_clust_4="56.16387" pt_clust_5="59.79435" pt_clust_6="14000.00000"></scales>
<clustering>
<clus scale="   56.164">  1  4  2 -1</clus>
<clus scale="   59.794">  1  5  2 -1</clus>
<clus scale="   64.573">  1  3  2 -1</clus>
<clus scale="   56.164">  1  3  2 -1</clus>
</clustering>
</event>
<event>
 6    0  0.8991567E+002  0.7061938E+02  0.7546771E-02  0.1357999E+00
         21   -1    0    0  503  501  0.00000000000E+00  0.00000000000E+00  0.18941233121E+03  0.18941233121E+03  0.00000000000E+00 0.  1.
         21   -1    0    0  504  502 -0.00000000000E+00 -0.00000000000E+00 -0.73119633659E+03  0.73119633659E+03  0.00000000000E+00 0.  1.
         21    1    1    2  503  506  0.59159859746E+02 -0.22873294542E+02 -0.28509173579E+02  0.69540273127E+02  0.00000000000E+00 0. -1.
         21    1    1    2  504  501 -0.56163288804E+02  0.96359771822E+02  0.14636607903E+03  0.18401779731E+03  0.00000000000E+00 0.  1.
         21    1    1    2  505  502  0.12362088612E+02 -0.33879048127E+02 -0.10979796097E+03  0.11556904157E+03  0.00000000000E+00 0.  1.
         21    1    1    2  506  505 -0.15358659553E+02 -0.39607429153E+02 -0.54984294986E+03  0.55148155579E+03  0.00000000000E+00 0.  1.
<scales pt_clust_3="65.34545" pt_clust_4="70.61938" pt_clust_5="36.06399" pt_clust_6="14000.00000"></scales>
<clustering>
<clus scale="   36.064">  2  5  1 -1</clus>
<clus scale="   65.345">  1  3  2 -1</clus>
<clus scale="   70.619">  1  4  2 -1</clus>
<clus scale="   65.345">  1  3  2 -1</clus>
</clustering>
</event>
<event>
 6    0  0.8991567E+002  0.8103660E+02  0.7546771E-02  0.1326135E+00
         21   -1    0    0  503  501  0.00000000000E+00  0.00000000000E+00  0.19499725972E+04  0.19499725972E+04  0.00000000000E+00 0. -1.
         21   -1    0    0  504  502 -0.00000000000E+00 -0.00000000000E+00 -0.69584615259E+03  0.69584615259E+03  0.00000000000E+00 0.  1.
         21    1    1    2  503  506 -0.20519344146E+02 -0.60511236382E+02 -0.30229631232E+00  0.63896358235E+02  0.00000000000E+00 0.  1.
         21    1    1    2  504  505 -0.35093310715E+02  0.87116069584E+02  0.13738014574E+03  0.16641530723E+03  0.00000000000E+00 0.  1.
         21    1    1    2  505  501  0.13204942335E+02  0.42224541158E+02  0.17634825426E+04  0.17640374033E+04  0.00000000000E+00 0. -1.
         21    1    1    2  506  502  0.42407712526E+02 -0.68829374360E+02 -0.64643394742E+03  0.65146968098E+03  0.00000000000E+00 0.  1.
<scales pt_clust_3="56.34360" pt_clust_4="81.03660" pt_clust_5="44.24118" pt_clust_6="14000.00000"></scales>
<clustering>
<clus scale="   44.241">  1  5  2 -1</clus>
<clus scale="   56.344">  1  3  2 -1</clus>
<clus scale="   81.037">  1  4  2 -1</clus>
<clus scale="   44.241">  1  3  2 -1</clus>
</clustering>
</event>
<event>
 6    0  0.8991567E+002  0.1340683E+03  0.7546771E-02  0.1221541E+00
         21   -1    0    0  505  501  0.00000000000E+00  0.00000000000E+00  0.80405006752E+03  0.80405006752E+03  0.00000000000E+00 0. -1.
         21   -1    0    0  501  502 -0.00000000000E+00 -0.00000000000E+00 -0.29977481746E+03  0.29977481746E+03  0.00000000000E+00 0.  1.
         21    1    1    2  503  502 -0.74410676761E+02 -0.10153566949E+03 -0.20095317103E+03  0.23712574289E+03  0.00000000000E+00 0.  1.
         21    1    1    2  504  506 -0.72498786002E+02 -0.42573124052E+02  0.14122528714E+03  0.16435670535E+03  0.00000000000E+00 0. -1.
         21    1    1    2  505  504 -0.64963792930E+02 -0.10685767981E+02  0.37052329663E+03  0.37632697668E+03  0.00000000000E+00 0.  1.
         21    1    1    2  506  503  0.21187325569E+03  0.15479456152E+03  0.19347983731E+03  0.32601546006E+03  0.00000000000E+00 0. -1.
<scales pt_clust_3="134.06831" pt_clust_4="106.20374" pt_clust_5="65.83677" pt_clust_6="14000.00000"></scales>
<clustering>
<clus scale="   65.837">  1  5  2 -1</clus>
<clus scale="  106.204">  1  4  2 -1</clus>
<clus scale="  134.068">  2  3  1 -1</clus>
<clus scale="   65.837">  1  3  2 -1</clus>
</clustering>
</event>
<event>
 6    0  0.8991567E+002  0.7908591E+02  0.7546771E-02  0.1331666E+00
         21   -1    0    0  503  501  0.00000000000E+00  0.00000000000E+00  0.20641719393E+04  0.20641719393E+04  0.00000000000E+00 0. -1.
         21   -1    0    0  506  502 -0.00000000000E+00 -0.00000000000E+00 -0.43913140031E+03  0.43913140031E+03  0.00000000000E+00 0. -1.
         21    1    1    2  503  505  0.39580891419E+02  0.57686045150E+01  0.18854638164E+04  0.18858880473E+04  0.00000000000E+00 0. -1.
         21    1    1    2  504  501  0.17098516660E+02 -0.76164244621E+02  0.13093227280E+03  0.15243559785E+03  0.00000000000E+00 0.  1.
         21    1    1    2  505  502 -0.61787536341E+02 -0.23161232793E+01 -0.38705437902E+03  0.39196193233E+03  0.00000000000E+00 0. -1.
         21    1    1    2  506  504  0.51081282623E+01  0.72711763385E+02 -0.43011712770E+01  0.73017762108E+02  0.00000000000E+00 0. -1.
<scales pt_clust_3="39.99905" pt_clust_4="79.08591" pt_clust_5="61.28425" pt_clust_6="14000.00000"></scales>
<clustering>
<clus scale="   39.999">  1  3  2 -1</clus>
<clus scale="   61.284">  2  5  1 -1</clus>
<clus scale="   79.086">  1  4  2 -1</clus>
<clus scale="   39.999">  1  3  2 -1</clus>
</clustering>
</event>
<event>
 6    0  0.8991567E+002  0.9032975E+02  0.7546771E-02  0.1302055E+00
         21   -1    0    0  506  501  0.00000000000E+00  0.00000000000E+00  0.48338682318E+02  0.48338682318E+02  0.00000000000E+00 0. -1.
         21   -1    0    0  505  502 -0.00000000000E+00 -0.00000000000E+00 -0.81874552248E+03  0.81874552248E+03  0.00000000000E+00 0. -1.
         21    1    1    2  503  502 -0.20759413737E+02 -0.90056012476E+02 -0.59094234008E+03  0.59812531124E+03  0.00000000000E+00 0. -1.
         21    1    1    2  504  503 -0.25074553777E+00  0.85045309560E+02 -0.13721771130E+03  0.16143564614E+03  0.00000000000E+00 0. -1.
         21    1    1    2  505  501  0.59230161214E+02 -0.23363050145E+01 -0.31601813525E+02  0.67173990030E+02  0.00000000000E+00 0. -1.
         21    1    1    2  506  504 -0.38220001939E+02  0.73470079309E+01 -0.10644975261E+02  0.40349257391E+02  0.00000000000E+00 0. -1.
<scales pt_clust_3="14000.00000" pt_clust_4="90.32975" pt_clust_5="38.96142" pt_clust_6="38.91975"></scales>
<clustering>
<clus scale="   38.920">  1  6  2 -1</clus>
<clus scale="   38.961">  1  5  2 -1</clus>
<clus scale="   90.330">  1  4  2 -1</clus>
<clus scale="   38.920">  1  3  2 -1</clus>
</clustering>
</event>
<event>
 6    0  0.8991567E+002  0.1373009E+03  0.7546771E-02  0.1217008E+00
         21   -1    0    0  506  501  0.00000000000E+00  0.00000000000E+00  0.66608374385E+02  0.66608374385E+02  0.00000000000E+00 0.  1.
         21   -1    0    0  505  502 -0.00000000000E+00 -0.00000000000E+00 -0.16401395269E+04  0.16401395269E+04  0.00000000000E+00 0.  1.
         21    1    1    2  503  504 -0.23550104185E+02 -0.15059220663E+03 -0.11355493816E+03  0.19007194450E+03  0.00000000000E+00 0.  1.
         21    1    1    2  504  501  0.60557706781E+02 -0.16000352369E+02 -0.52333225982E+02  0.81621159440E+02  0.00000000000E+00 0.  1.
         21    1    1    2  505  503  0.32386795948E+02  0.67050331400E+02 -0.11250469697E+04  0.11275084636E+04  0.00000000000E+00 0.  1.
         21    1    1    2  506  502 -0.69394398544E+02  0.99542227596E+02 -0.28259601866E+03  0.30754633373E+03  0.00000000000E+00 0.  1.
<scales pt_clust_3="137.30088" pt_clust_4="62.63583" pt_clust_5="74.75919" pt_clust_6="14000.00000"></scales>
<clustering>
<clus scale="   62.636">  1  4  2 -1</clus>
<clus scale="   74.759">  2  5  1 -1</clus>
<clus scale="  137.301">  1  3  2 -1</clus>
<clus scale="   62.636">  1  3  2 -1</clus>
</clustering>
</event>
<event>
 6    0  0.8991567E+002  0.1827342E+03  0.7546771E-02  0.1165183E+00
         21   -1    0    0  502  501  0.00000000000E+00  0.00000000000E+00  0.14055488748E+04  0.14055488748E+04  0.00000000000E+00 0.  1.
         21   -1    0    0  503  502 -0.00000000000E+00 -0.00000000000E+00 -0.12603634484E+03  0.12603634484E+03  0.00000000000E+00 0.  1.
         21    1    1    2  503  506 -0.58419350367E+02 -0.74135498129E+02 -0.61507151241E+02  0.11265887552E+03  0.00000000000E+00 0.  1.
         21    1    1    2  504  501  0.11032700442E+03  0.36752266671E+02  0.86040958041E+03  0.86823235546E+03  0.00000000000E+00 0.  1.
         21    1    1    2  505  504  0.74069344064E+02  0.23891978448E+02  0.38280830399E+03  0.39063959344E+03  0.00000000000E+00 0.  1.
         21    1    1    2  506  505 -0.12597699812E+03  0.13491253010E+02  0.97801796766E+02  0.16005439517E+03  0.00000000000E+00 0.  1.
<scales pt_clust_3="94.38693" pt_clust_4="31.55885" pt_clust_5="31.55885" pt_clust_6="178.61589"></scales>
<clustering>
<clus scale="   31.559">  4  5 -1 -1</clus>
<clus scale="   94.387">  2  3  1 -1</clus>
<clus scale="  178.616">  2  6  1 -1</clus>
<clus scale="  182.734">  1  3  2 -1</clus>
</clustering>
</event>
<event>
 6    0  0.8991567E+002  0.1273746E+03  0.7546771E-02  0.1231404E+00
         21   -1    0    0  504  501  0.00000000000E+00  0.00000000000E+00  0.72017463280E+03  0.72017463280E+03  0.00000000000E+00 0. -1.
         21   -1    0    0  506  502 -0.00000000000E+00 -0.00000000000E+00 -0.65430051607E+02  0.65430051607E+02  0.00000000000E+00 0. -1.
         21    1    1    2  503  502 -0.90265855400E+02  0.11482346209E+03  0.59324122840E+02  0.15764423126E+03  0.00000000000E+00 0. -1.
         21    1    1    2  504  505  0.24164192241E+02 -0.29638083739E+02  0.22862712367E+03  0.23180311878E+03  0.00000000000E+00 0. -1.
         21    1    1    2  505  503  0.35599252899E+02 -0.92467110153E+02  0.16908641592E+03  0.19597879813E+03  0.00000000000E+00 0. -1.
         21    1    1    2  506  501  0.30502410260E+02  0.72817318002E+01  0.19770691876E+03  0.20017853625E+03  0.00000000000E+00 0. -1.
<scales pt_clust_3="14000.00000" pt_clust_4="45.98492" pt_clust_5="127.37455" pt_clust_6="31.35954"></scales>
<clustering>
<clus scale="   31.360">  1  6  2 -1</clus>
<clus scale="   45.985">  1  4  2 -1</clus>
<clus scale="  127.375">  1  5  2 -1</clus>
<clus scale="   31.360">  1  3  2 -1</clus>
</clustering>
</event>
<event>
 6    0  0.8991567E+002  0.7103476E+02  0.7546771E-02  0.1356609E+00
         21   -1    0    0  505  501  0.00000000000E+00  0.00000000000E+00  0.35489856038E+03  0.35489856038E+03  0.00000000000E+00 0. -1.
         21   -1    0    0  504  502 -0.00000000000E+00 -0.00000000000E+00 -0.84792609644E+03  0.84792609644E+03  0.00000000000E+00 0.  1.
         21    1    1    2  503  502 -0.39438051823E+02  0.71473990778E+02 -0.54757041867E+03  0.55362194203E+03  0.00000000000E+00 0.  1.
         21    1    1    2  504  501  0.83955095610E+02 -0.14901206230E+02  0.19725265582E+03  0.21489326247E+03  0.00000000000E+00 0. -1.
         21    1    1    2  505  506 -0.50482802515E+02  0.53273674541E+01  0.13787123549E+03  0.14691960988E+03  0.00000000000E+00 0. -1.
         21    1    1    2  506  503  0.59657587277E+01 -0.61900152002E+02 -0.28058100870E+03  0.28738984244E+03  0.00000000000E+00 0. -1.
<scales pt_clust_3="14000.00000" pt_clust_4="36.32852" pt_clust_5="50.76312" pt_clust_6="71.03476"></scales>
<clustering>
<clus scale="   50.763">  1  5  2 -1</clus>
<clus scale="   36.329">  1  4  2 -1</clus>
<clus scale="   71.035">  1  6  2 -1</clus>
<clus scale="   50.763">  1  3  2 -1</clus>
</clustering>
</event>
<event>
 6    0  0.8991567E+002  0.9836723E+02  0.7546771E-02  0.1283767E+00
         21   -1    0    0  506  501  0.00000000000E+00  0.00000000000E+00  0.22515781907E+04  0.22515781907E+04  0.00000000000E+00 0.  1.
         21   -1    0    0  503  502 -0.00000000000E+00 -0.00000000000E+00 -0.67708277419E+02  0.67708277419E+02  0.00000000000E+00 0. -1.
         21    1    1    2  503  501  0.36002036957E+02 -0.10752945837E+03  0.37490200465E+03  0.39167619812E+03  0.00000000000E+00 0.  1.
         21    1    1    2  504  502  0.33431100698E+02 -0.20591512355E+02 -0.47694747793E+02  0.61777324659E+02  0.00000000000E+00 0. -1.
         21    1    1    2  505  504 -0.96316525943E+01  0.52064167981E+02  0.21880529457E+03  0.22512041945E+03  0.00000000000E+00 0.  1.
         21    1    1    2  506  505 -0.59801485060E+02  0.76056802741E+02  0.16378573618E+04  0.16407125259E+04  0.00000000000E+00 0.  1.
<scales pt_clust_3="98.36723" pt_clust_4="39.26384" pt_clust_5="47.07572" pt_clust_6="14000.00000"></scales>
<clustering>
<clus scale="   39.264">  2  4  1 -1</clus>
<clus scale="   47.076">  2  5  1 -1</clus>
<clus scale="   98.367">  2  3  1 -1</clus>
<clus scale="   98.367">  1  3  2 -1</clus>
</clustering>
</event>
<event>
 6    0  0.8991567E+002  0.9944518E+02  0.7546771E-02  0.1281467E+00
         21   -1    0    0  506  501  0.00000000000E+00  0.00000000000E+00  0.33784049322E+03  0.33784049322E+03  0.00000000000E+00 0.  1.
         21   -1    0    0  505  502 -0.00000000000E+00 -0.00000000000E+00 -0.98644967407E+03  0.98644967407E+03  0.00000000000E+00 0.  1.
         21    1    1    2  503  501 -0.56808977435E+02  0.24143234661E+02  0.10580759482E+03  0.12249654207E+03  0.00000000000E+00 0.  1.
         21    1    1    2  504  502  0.38813447429E+02 -0.46026392711E+02 -0.91774272367E+03  0.91971551002E+03  0.00000000000E+00 0.  1.
         21    1    1    2  505  503 -0.49565205541E+01 -0.51343772083E+02 -0.39662553323E+02  0.65068180886E+02  0.00000000000E+00 0. -1.
         21    1    1    2  506  504  0.22952050560E+02  0.73226930133E+02  0.20298850133E+03  0.21700993432E+03  0.00000000000E+00 0.  1.
<scales pt_clust_3="61.58938" pt_clust_4="99.44518" pt_clust_5="51.58246" pt_clust_6="14000.00000"></scales>
<clustering>
<clus scale="   51.582">  2  5  1 -1</clus>
<clus scale="   61.589">  1  3  2 -1</clus>
<clus scale="   99.445">  2  4  1 -1</clus>
<clus scale="   61.589">  1  3  2 -1</clus>
</clustering>
</event>
<event>
 6    0  0.8991567E+002  0.3111577E+03  0.7546771E-02  0.1079792E+00
         21   -1    0    0  503  501  0.00000000000E+00  0.00000000000E+00  0.82191308099E+03  0.82191308099E+03  0.00000000000E+00 0.  1.
         21   -1    0    0  504  502 -0.00000000000E+00 -0.00000000000E+00 -0.31107685902E+03  0.31107685902E+03  0.00000000000E+00 0.  1.
         21    1    1    2  503  506 -0.25330515943E+03 -0.16208268408E+03  0.46101786973E+03  0.55042872061E+03  0.00000000000E+00 0.  1.
         21    1    1    2  504  505  0.10031807318E+02 -0.54027399296E+02 -0.11748656141E+03  0.12970230971E+03  0.00000000000E+00 0.  1.
         21    1    1    2  505  501  0.29726781791E+03  0.16701142285E+03  0.10463796653E+03  0.35666521413E+03  0.00000000000E+00 0.  1.
         21    1    1    2  506  502 -0.53994465805E+02  0.49098660525E+02  0.62666947124E+02  0.96193695557E+02  0.00000000000E+00 0. -1.
<scales pt_clust_3="14000.00000" pt_clust_4="54.95086" pt_clust_5="311.15774" pt_clust_6="69.13025"></scales>
<clustering>
<clus scale="   54.951">  2  4  1 -1</clus>
<clus scale="   69.130">  2  6  1 -1</clus>
<clus scale="  311.158">  2  5  1 -1</clus>
<clus scale="  311.158">  1  3  2 -1</clus>
</clustering>
</event>
<event>
 6    0  0.8991567E+002  0.6389139E+02  0.7546771E-02  0.1382191E+00
         21   -1    0    0  506  501  0.00000000000E+00  0.00000000000E+00  0.10555595175E+04  0.10555595175E+04  0.00000000000E+00 0.  1.
         21   -1    0    0  504  502 -0.00000000000E+00 -0.00000000000E+00 -0.31337045070E+03  0.31337045070E+03  0.00000000000E+00 0. -1.
         21    1    1    2  503  502 -0.10174256615E+02 -0.62879384689E+02 -0.29262649851E+03  0.29947888097E+03  0.00000000000E+00 0. -1.
         21    1    1    2  504  505 -0.20880271187E+02  0.79160401008E+02  0.18666757827E+03  0.20383115461E+03  0.00000000000E+00 0. -1.
         21    1    1    2  505  501 -0.30881048632E+02  0.55558576658E+02  0.52514303012E+03  0.52897598876E+03  0.00000000000E+00 0.  1.
         21    1    1    2  506  503  0.61935576433E+02 -0.71839592977E+02  0.32300495692E+03  0.33664394387E+03  0.00000000000E+00 0.  1.
<scales pt_clust_3="14000.00000" pt_clust_4="63.89139" pt_clust_5="63.56410" pt_clust_6="56.58215"></scales>
<clustering>
<clus scale="   63.564">  1  5  2 -1</clus>
<clus scale="   56.582">  1  6  2 -1</clus>
<clus scale="   63.891">  1  4  2 -1</clus>
<clus scale="   63.564">  1  3  2 -1</clus>
</clustering>
</event>
<event>
 6    0  0.8991567E+002  0.1128451E+03  0.7546771E-02  0.1255390E+00
         21   -1    0    0  504  501  0.00000000000E+00  0.00000000000E+00  0.64434492622E+03  0.64434492622E+03  0.00000000000E+00 0. -1.
         21   -1    0    0  505  502 -0.00000000000E+00 -0.00000000000E+00 -0.16279330199E+04  0.16279330199E+04  0.00000000000E+00 0. -1.
         21    1    1    2  503  502  0.44259285360E+02 -0.90157095453E+02 -0.13062645674E+04  0.13101199588E+04  0.00000000000E+00 0. -1.
         21    1    1    2  504  503  0.66060184847E+01  0.67610888401E+02  0.55782193184E+03  0.56194321719E+03  0.00000000000E+00 0. -1.
         21    1    1    2  505  506 -0.52128742486E+02 -0.23041747180E+02 -0.30856472090E+03  0.31378418522E+03  0.00000000000E+00 0. -1.
         21    1    1    2  506  501  0.12634386409E+01  0.45587954232E+02  0.73419262862E+02  0.86430584908E+02  0.00000000000E+00 0. -1.
<scales pt_clust_3="14000.00000" pt_clust_4="112.84512" pt_clust_5="56.90386" pt_clust_6="45.60546"></scales>
<clustering>
<clus scale="   45.605">  1  6  2 -1</clus>
<clus scale="   56.904">  2  5  1 -1</clus>
<clus scale="  112.845">  1  4  2 -1</clus>
<clus scale="   45.605">  1  3  2 -1</clus>
</clustering>
</event>
<event>
 6    0  0.8991567E+002  0.7965492E+02  0.7546771E-02  0.1330034E+00
         21   -1    0    0  506  501  0.00000000000E+00  0.00000000000E+00  0.26877443655E+03  0.26877443655E+03  0.00000000000E+00 0. -1.
         21   -1    0    0  503  502 -0.00000000000E+00 -0.00000000000E+00 -0.14374660054E+03  0.14374660054E+03  0.00000000000E+00 0.  1.
         21    1    1    2  503  501  0.57955999590E+02 -0.23155852679E+02 -0.26203173197E+02  0.67688238914E+02  0.00000000000E+00 0.  1.
         21    1    1    2  504  505 -0.10162885800E+03  0.22611325913E+02 -0.20128664662E+02  0.10604178412E+03  0.00000000000E+00 0.  1.
         21    1    1    2  505  502 -0.25334385654E+02 -0.38959844230E+02 -0.35983273227E+01  0.46611677918E+02  0.00000000000E+00 0.  1.
         21    1    1    2  506  504  0.69007244061E+02  0.39504370996E+02  0.17495800119E+03  0.19217933615E+03  0.00000000000E+00 0. -1.
<scales pt_clust_3="61.52409" pt_clust_4="79.65492" pt_clust_5="46.47258" pt_clust_6="14000.00000"></scales>
<clustering>
<clus scale="   46.473">  2  5  1 -1</clus>
<clus scale="   61.524">  2  3  1 -1</clus>
<clus scale="   79.655">  2  4  1 -1</clus>
<clus scale="   79.655">  1  3  2 -1</clus>
</clustering>
</event>
<event>
 6    0  0.8991567E+002  0.1411130E+03  0.7546771E-02  0.1211839E+00
         21   -1    0    0  504  501  0.00000000000E+00  0.00000000000E+00  0.31281108814E+03  0.31281108814E+03  0.00000000000E+00 0.  1.
         21   -1    0    0  506  502 -0.00000000000E+00 -0.00000000000E+00 -0.11927902292E+03  0.11927902292E+03  0.00000000000E+00 0.  1.
         21    1    1    2  503  501 -0.81725081179E+02  0.47795245168E+02  0.11307519213E+03  0.14747668775E+03  0.00000000000E+00 0.  1.
         21    1    1    2  504  505  0.68709720233E+02 -0.87891467664E+02  0.28905895497E+02  0.11524533195E+03  0.00000000000E+00 0.  1.
         21    1    1    2  505  502  0.30418744916E+02 -0.10907660811E+02 -0.47004163200E+02  0.57040936745E+02  0.00000000000E+00 0.  1.
         21    1    1    2  506  503 -0.17403383970E+02  0.51003883307E+02  0.98555140795E+02  0.11232715461E+03  0.00000000000E+00 0. -1.
<scales pt_clust_3="43.26781" pt_clust_4="129.57608" pt_clust_5="32.31528" pt_clust_6="43.26781"></scales>
<clustering>
<clus scale="   32.315">  2  5  1 -1</clus>
<clus scale="   43.268">  3  6 -1 -1</clus>
<clus scale="  129.576">  2  4  1 -1</clus>
<clus scale="  141.113">  1  3  2 -1</clus>
</clustering>
</event>
<event>
 6    0  0.8991567E+002  0.1311991E+03  0.7546771E-02  0.1225687E+00
         21   -1    0    0  503  501  0.00000000000E+00  0.00000000000E+00  0.51205667961E+03  0.51205667961E+03  0.00000000000E+00 0.  1.
         21   -1    0    0  505  502 -0.00000000000E+00 -0.00000000000E+00 -0.11445256854E+03  0.11445256854E+03  0.00000000000E+00 0. -1.
         21    1    1    2  503  506  0.23913936550E+02 -0.29929278548E+02  0.27374384558E+02  0.47084976432E+02  0.00000000000E+00 0.  1.
         21    1    1    2  504  501  0.35384250035E+01  0.35099006197E+02  0.18986774312E+03  0.19311711619E+03  0.00000000000E+00 0.  1.
         21    1    1    2  505  504 -0.50652761748E+02  0.12390502495E+03  0.21262654513E+03  0.25125326898E+03  0.00000000000E+00 0.  1.
         21    1    1    2  506  502  0.23200400194E+02 -0.12907475260E+03 -0.32264561732E+02  0.13505388655E+03  0.00000000000E+00 0. -1.
<scales pt_clust_3="35.49753" pt_clust_4="35.27691" pt_clust_5="131.19911" pt_clust_6="14000.00000"></scales>
<clustering>
<clus scale="   35.277">  1  4  2 -1</clus>
<clus scale="   35.498">  1  3  2 -1</clus>
<clus scale="  131.199">  1  5  2 -1</clus>
<clus scale="   35.277">  1  3  2 -1</clus>
</clustering>
</event>
<event>
 6    0  0.8991567E+002  0.8026392E+02  0.7546771E-02  0.1328304E+00
         21   -1    0    0  504  501  0.00000000000E+00  0.00000000000E+00  0.10935869561E+03  0.10935869561E+03  0.00000000000E+00 0. -1.
         21   -1    0    0  505  502 -0.00000000000E+00 -0.00000000000E+00 -0.25354331896E+03  0.25354331896E+03  0.00000000000E+00 0. -1.
         21    1    1    2  503  501 -0.53777885054E+02  0.63037477132E+02  0.29285027438E+02  0.87882861105E+02  0.00000000000E+00 0. -1.
         21    1    1    2  504  502  0.67979436344E+02 -0.31416675959E+02 -0.11384539976E+03  0.13626806794E+03  0.00000000000E+00 0. -1.
         21    1    1    2  505  506  0.13677585590E+02  0.41120578544E+02 -0.38671592332E+02  0.58081583836E+02  0.00000000000E+00 0. -1.
         21    1    1    2  506  503 -0.27879136880E+02 -0.72741379717E+02 -0.20952658693E+02  0.80669501688E+02  0.00000000000E+00 0. -1.
<scales pt_clust_3="80.26392" pt_clust_4="14000.00000" pt_clust_5="43.33565" pt_clust_6="67.18107"></scales>
<clustering>
<clus scale="   43.336">  2  5  1 -1</clus>
<clus scale="   67.181">  2  6  1 -1</clus>
<clus scale="   80.264">  1  3  2 -1</clus>
<clus scale="   80.264">  1  3  2 -1</clus>
</clustering>
</event>
<event>
 6    0  0.8991567E+002  0.1851335E+03  0.7546771E-02  0.1162925E+00
         21   -1    0    0  503  501  0.00000000000E+00  0.00000000000E+00  0.18026774336E+04  0.18026774336E+04  0.00000000000E+00 0. -1.
         21   -1    0    0  505  502 -0.00000000000E+00 -0.00000000000E+00 -0.51441635341E+03  0.51441635341E+03  0.00000000000E+00 0. -1.
         21    1    1    2  503  502  0.34180260832E+02 -0.17323419225E+03  0.47732857298E+03  0.50894100069E+03  0.00000000000E+00 0. -1.
         21    1    1    2  504  501  0.40198332104E+02 -0.66417654123E+01  0.94515713777E+03  0.94603490107E+03  0.00000000000E+00 0. -1.
         21    1    1    2  505  506 -0.10834778905E+03  0.15115758047E+03 -0.47933653023E+03  0.51415111275E+03  0.00000000000E+00 0. -1.
         21    1    1    2  506  504  0.33969196113E+02  0.28718377193E+02  0.34511189970E+03  0.34796677254E+03  0.00000000000E+00 0. -1.
<scales pt_clust_3="185.13346" pt_clust_4="40.74333" pt_clust_5="14000.00000" pt_clust_6="56.56856"></scales>
<clustering>
<clus scale="   40.743">  1  4  2 -1</clus>
<clus scale="   56.569">  1  6  2 -1</clus>
<clus scale="  185.133">  1  3  2 -1</clus>
<clus scale="   40.743">  1  3  2 -1</clus>
</clustering>
</event>
<event>
 6    0  0.8991567E+002  0.2125332E+03  0.7546771E-02  0.1139576E+00
         21   -1    0    0  505  501  0.00000000000E+00  0.00000000000E+00  0.72246066855E+03  0.72246066855E+03  0.00000000000E+00 0.  1.
         21   -1    0    0  504  502 -0.00000000000E+00 -0.00000000000E+00 -0.41731694274E+03  0.41731694274E+03  0.00000000000E+00 0.  1.
         21    1    1    2  503  506 -0.42984084520E+02 -0.26636427280E+02  0.14969659725E+03  0.15800696823E+03  0.00000000000E+00 0.  1.
         21    1    1    2  504  501  0.13556357332E+03  0.13663309766E+03 -0.15536227768E+03  0.24735303336E+03  0.00000000000E+00 0.  1.
         21    1    1    2  505  503 -0.34554422493E+02 -0.15993987519E+03  0.50225189030E+03  0.52823454364E+03  0.00000000000E+00 0.  1.
         21    1    1    2  506  502 -0.58025066307E+02  0.49943204814E+02 -0.19144248405E+03  0.20618306606E+03  0.00000000000E+00 0.  1.
<scales pt_clust_3="39.57400" pt_clust_4="200.25660" pt_clust_5="39.57400" pt_clust_6="76.55868"></scales>
<clustering>
<clus scale="   39.574">  3  5 -1 -1</clus>
<clus scale="   76.559">  2  6  1 -1</clus>
<clus scale="  200.257">  2  4  1 -1</clus>
<clus scale="  212.533">  1  3  2 -1</clus>
</clustering>
</event>
<event>
 6    0  0.8991567E+002  0.1043519E+03  0.7546771E-02  0.1271402E+00
         21   -1    0    0  506  501  0.00000000000E+00  0.00000000000E+00  0.60533881259E+02  0.60533881259E+02  0.00000000000E+00 0.  1.
         21   -1    0    0  505  502 -0.00000000000E+00 -0.00000000000E+00 -0.41239211733E+03  0.41239211733E+03  0.00000000000E+00 0.  1.
         21    1    1    2  503  502  0.44056343610E+02 -0.17448432561E+02 -0.14445146917E+02  0.49538585775E+02  0.00000000000E+00 0.  1.
         21    1    1    2  504  501 -0.58398877456E+02  0.34327031797E+02 -0.49044615297E+02  0.83631024684E+02  0.00000000000E+00 0.  1.
         21    1    1    2  505  504 -0.16545781015E+02  0.64713959213E+02 -0.21697737445E+03  0.22702607870E+03  0.00000000000E+00 0.  1.
         21    1    1    2  506  503  0.30888314861E+02 -0.81592558449E+02 -0.71391099402E+02  0.11273030942E+03  0.00000000000E+00 0.  1.
<scales pt_clust_3="43.83352" pt_clust_4="85.74273" pt_clust_5="66.79565" pt_clust_6="43.83352"></scales>
<clustering>
<clus scale="   43.834">  3  6 -1 -1</clus>
<clus scale="   66.796">  2  5  1 -1</clus>
<clus scale="   85.743">  1  4  2 -1</clus>
<clus scale="   85.743">  1  3  2 -1</clus>
</clustering>
</event>
<event>
 6    0  0.8991567E+002  0.8164773E+02  0.7546771E-02  0.1324439E+00
         21   -1    0    0  505  501  0.00000000000E+00  0.00000000000E+00  0.10560772147E+03  0.10560772147E+03  0.00000000000E+00 0. -1.
         21   -1    0    0  503  502 -0.00000000000E+00 -0.00000000000E+00 -0.99648309182E+03  0.99648309182E+03  0.00000000000E+00 0. -1.
         21    1    1    2  503  504 -0.70733729259E+01 -0.49935620316E+02 -0.11432931165E+03  0.12495915446E+03  0.00000000000E+00 0. -1.
         21    1    1    2  504  501  0.75686669399E+00 -0.79988397819E+02  0.68624118354E+02  0.10539443179E+03  0.00000000000E+00 0. -1.
         21    1    1    2  505  506  0.19841340616E+02  0.99700726731E+02 -0.18792025398E+03  0.21365377498E+03  0.00000000000E+00 0. -1.
         21    1    1    2  506  502 -0.13524834385E+02  0.30223291404E+02 -0.65724992308E+03  0.65808345206E+03  0.00000000000E+00 0. -1.
<scales pt_clust_3="41.01211" pt_clust_4="81.64773" pt_clust_5="14000.00000" pt_clust_6="33.11146"></scales>
<clustering>
<clus scale="   33.111">  2  6  1 -1</clus>
<clus scale="   41.012">  2  3  1 -1</clus>
<clus scale="   81.648">  1  4  2 -1</clus>
<clus scale="   81.648">  1  3  2 -1</clus>
</clustering>
</event>
<event>
 6    0  0.8991567E+002  0.1264071E+03  0.7546771E-02  0.1232887E+00
         21   -1    0    0  506  501  0.00000000000E+00  0.00000000000E+00  0.23947020416E+03  0.23947020416E+03  0.00000000000E+00 0.  1.
         21   -1    0    0  503  502 -0.00000000000E+00 -0.00000000000E+00 -0.38614519232E+03  0.38614519232E+03  0.00000000000E+00 0. -1.
         21    1    1    2  503  501  0.12477301646E+02 -0.76767938693E+02  0.41172004796E+02  0.88000758215E+02  0.00000000000E+00 0. -1.
         21    1    1    2  504  502  0.21833023270E+02  0.30185294543E+02 -0.16252622945E+03  0.16674114121E+03  0.00000000000E+00 0. -1.
         21    1    1    2  505  504  0.10291068991E+01  0.89385299633E+02 -0.18302387383E+03  0.20368733207E+03  0.00000000000E+00 0. -1.
         21    1    1    2  506  505 -0.35339431815E+02 -0.42802655483E+02  0.15770311033E+03  0.16718616499E+03  0.00000000000E+00 0.  1.
<scales pt_clust_3="113.95687" pt_clust_4="35.31502" pt_clust_5="35.31502" pt_clust_6="55.50624"></scales>
<clustering>
<clus scale="   35.315">  4  5 -1 -1</clus>
<clus scale="   55.506">  1  6  2 -1</clus>
<clus scale="  113.957">  1  3  2 -1</clus>
<clus scale="   55.506">  1  3  2 -1</clus>
</clustering>
</event>
<event>
 6    0  0.8991567E+002  0.1128467E+03  0.7546771E-02  0.1255387E+00
         21   -1    0    0  504  501  0.00000000000E+00  0.00000000000E+00  0.22715929170E+03  0.22715929170E+03  0.00000000000E+00 0.  1.
         21   -1    0    0  506  502 -0.00000000000E+00 -0.00000000000E+00 -0.48185283619E+03  0.48185283619E+03  0.00000000000E+00 0. -1.
         21    1    1    2  503  505 -0.14516521749E+02  0.87577643521E+02 -0.18057307895E+03  0.20121433819E+03  0.00000000000E+00 0. -1.
         21    1    1    2  504  502 -0.97934035298E+01 -0.92187196945E+02  0.69806568123E+02  0.11604889912E+03  0.00000000000E+00 0.  1.
         21    1    1    2  505  501 -0.43844876922E+01 -0.30440308063E+02  0.12004327906E+03  0.12392023618E+03  0.00000000000E+00 0.  1.
         21    1    1    2  506  503  0.28694412971E+02  0.35049861487E+02 -0.26397031271E+03  0.26782865440E+03  0.00000000000E+00 0. -1.
<scales pt_clust_3="14000.00000" pt_clust_4="112.84672" pt_clust_5="30.75445" pt_clust_6="44.81546"></scales>
<clustering>
<clus scale="   30.754">  1  5  2 -1</clus>
<clus scale="   44.815">  2  6  1 -1</clus>
<clus scale="  112.847">  1  4  2 -1</clus>
<clus scale="   30.754">  1  3  2 -1</clus>
</clustering>
</event>
<event>
 6    0  0.8991567E+002  0.7806269E+02  0.7546771E-02  0.1334641E+00
         21   -1    0    0  503  501  0.00000000000E+00  0.00000000000E+00  0.31612385825E+03  0.31612385825E+03  0.00000000000E+00 0. -1.
         21   -1    0    0  505  502 -0.00000000000E+00 -0.00000000000E+00 -0.91406309166E+03  0.91406309166E+03  0.00000000000E+00 0. -1.
         21    1    1    2  503  504  0.31967206510E+02 -0.37170368856E+02  0.25020087788E+03  0.25495885532E+03  0.00000000000E+00 0. -1.
         21    1    1    2  504  506 -0.99403029855E+01  0.11668919771E+03 -0.49533628468E-01  0.11711183091E+03  0.00000000000E+00 0.  1.
         21    1    1    2  505  501 -0.24673930816E+02 -0.28652247608E+02 -0.70874905071E+03  0.70975698027E+03  0.00000000000E+00 0. -1.
         21    1    1    2  506  502  0.26470272914E+01 -0.50866581249E+02 -0.13934152695E+03  0.14835928341E+03  0.00000000000E+00 0. -1.
<scales pt_clust_3="49.09327" pt_clust_4="14000.00000" pt_clust_5="37.81209" pt_clust_6="78.06269"></scales>
<clustering>
<clus scale="   37.812">  2  5  1 -1</clus>
<clus scale="   49.093">  1  3  2 -1</clus>
<clus scale="   78.063">  2  6  1 -1</clus>
<clus scale="   49.093">  1  3  2 -1</clus>
</clustering>
</event>
<event>
 6    0  0.8991567E+002  0.2159299E+03  0.7546771E-02  0.1136954E+00
         21   -1    0    0  503  501  0.00000000000E+00  0.00000000000E+00  0.91201520940E+03  0.91201520940E+03  0.00000000000E+00 0. -1.
         21   -1    0    0  504  502 -0.00000000000E+00 -0.00000000000E+00 -0.30134867073E+03  0.30134867073E+03  0.00000000000E+00 0.  1.
         21    1    1    2  503  505  0.18988743417E+03 -0.16240628213E+03  0.56658764500E+03  0.61923710935E+03  0.00000000000E+00 0. -1.
         21    1    1    2  504  506 -0.13811109321E+03  0.36974224101E+02  0.14501736418E+02  0.14370827282E+03  0.00000000000E+00 0. -1.
         21    1    1    2  505  502 -0.72527402705E+02  0.99049958111E+02 -0.19113729211E+03  0.22716642089E+03  0.00000000000E+00 0.  1.
         21    1    1    2  506  501  0.20751061752E+02  0.26382099920E+02  0.22071444936E+03  0.22325207707E+03  0.00000000000E+00 0. -1.
<scales pt_clust_3="14000.00000" pt_clust_4="215.92994" pt_clust_5="123.00303" pt_clust_6="33.56519"></scales>
<clustering>
<clus scale="   33.565">  1  6  2 -1</clus>
<clus scale="  123.003">  2  5  1 -1</clus>
<clus scale="  215.930">  2  4  1 -1</clus>
<clus scale="   33.565">  1  3  2 -1</clus>
</clustering>
</event>
<event>
 6    0  0.8991567E+002  0.1404494E+03  0.7546771E-02  0.1212726E+00
         21   -1    0    0  506  501  0.00000000000E+00  0.00000000000E+00  0.41959280919E+02  0.41959280919E+02  0.00000000000E+00 0. -1.
         21   -1    0    0  501  502 -0.00000000000E+00 -0.00000000000E+00 -0.22556272599E+04  0.22556272599E+04  0.00000000000E+00 0. -1.
         21    1    1    2  503  504  0.35389859024E+02  0.13121098023E+03 -0.75818562428E+03  0.77026891688E+03  0.00000000000E+00 0. -1.
         21    1    1    2  504  502  0.15735067638E+02  0.32441945558E+02 -0.12071885760E+04  0.12077269270E+04  0.00000000000E+00 0. -1.
         21    1    1    2  505  503 -0.57353533711E+02 -0.71874578020E+02 -0.59348832704E+02  0.10944252710E+03  0.00000000000E+00 0. -1.
         21    1    1    2  506  505  0.62286070493E+01 -0.91778347765E+02 -0.18894494598E+03  0.21014816982E+03  0.00000000000E+00 0. -1.
<scales pt_clust_3="14000.00000" pt_clust_4="36.05651" pt_clust_5="140.44942" pt_clust_6="86.09772"></scales>
<clustering>
<clus scale="   36.057">  2  4  1 -1</clus>
<clus scale="   86.098">  1  6  2 -1</clus>
<clus scale="  140.449">  1  5  2 -1</clus>
<clus scale="   86.098">  1  3  2 -1</clus>
</clustering>
</event>
<event>
 6    0  0.8991567E+002  0.1165684E+03  0.7546771E-02  0.1248868E+00
         21   -1    0    0  505  501  0.00000000000E+00  0.00000000000E+00  0.98235113585E+03  0.98235113585E+03  0.00000000000E+00 0. -1.
         21   -1    0    0  504  502 -0.00000000000E+00 -0.00000000000E+00 -0.16391712826E+03  0.16391712826E+03  0.00000000000E+00 0.  1.
         21    1    1    2  503  501  0.57889531388E+02  0.10282566134E+03  0.89509456315E+03  0.90283918361E+03  0.00000000000E+00 0. -1.
         21    1    1    2  504  506 -0.34209887651E+02  0.30242772687E+02  0.45508987263E+01  0.45887388159E+02  0.00000000000E+00 0. -1.
         21    1    1    2  505  502  0.30718055785E+02 -0.10381849937E+03 -0.81931874906E+02  0.13577448909E+03  0.00000000000E+00 0.  1.
         21    1    1    2  506  503 -0.54397699522E+02 -0.29249934660E+02  0.72042061541E+00  0.61767203245E+02  0.00000000000E+00 0.  1.
<scales pt_clust_3="14000.00000" pt_clust_4="45.66116" pt_clust_5="116.56837" pt_clust_6="65.76782"></scales>
<clustering>
<clus scale="   45.661">  2  4  1 -1</clus>
<clus scale="   65.768">  2  6  1 -1</clus>
<clus scale="  116.568">  2  5  1 -1</clus>
<clus scale="  116.568">  1  3  2 -1</clus>
</clustering>
</event>
<event>
 6    0  0.8991567E+002  0.7920037E+02  0.7546771E-02  0.1331336E+00
         21   -1    0    0  506  501  0.00000000000E+00  0.00000000000E+00  0.14340337742E+03  0.14340337742E+03  0.00000000000E+00 0. -1.
         21   -1    0    0  505  502 -0.00000000000E+00 -0.00000000000E+00 -0.50154687350E+03  0.50154687350E+03  0.00000000000E+00 0. -1.
         21    1    1    2  503  502  0.35843226140E+02 -0.26991199732E+02 -0.77437498990E+02  0.89497642276E+02  0.00000000000E+00 0. -1.
         21    1    1    2  504  501  0.19793564490E+02 -0.77237150094E+02  0.97085318901E+02  0.12563009869E+03  0.00000000000E+00 0. -1.
         21    1    1    2  505  504 -0.59805205335E+02  0.24699630263E+02 -0.33140014450E+03  0.33765780029E+03  0.00000000000E+00 0. -1.
         21    1    1    2  506  503  0.41684147059E+01  0.79528719563E+02 -0.46391171489E+02  0.92164709670E+02  0.00000000000E+00 0.  1.
<scales pt_clust_3="44.86939" pt_clust_4="14000.00000" pt_clust_5="31.27924" pt_clust_6="79.20037"></scales>
<clustering>
<clus scale="   44.869">  2  3  1 -1</clus>
<clus scale="   31.279">  2  5  1 -1</clus>
<clus scale="   79.200">  2  6  1 -1</clus>
<clus scale="   79.200">  1  3  2 -1</clus>
</clustering>
</event>
<event>
 6    0  0.8991567E+002  0.7690286E+02  0.7546771E-02  0.1338078E+00
         21   -1    0    0  503  501  0.00000000000E+00  0.00000000000E+00  0.85862315246E+03  0.85862315246E+03  0.00000000000E+00 0.  1.
         21   -1    0    0  506  502 -0.00000000000E+00 -0.00000000000E+00 -0.10203824543E+03  0.10203824543E+03  0.00000000000E+00 0.  1.
         21    1    1    2  503  502 -0.96173393440E+02  0.22194720338E+00  0.59290785839E+03  0.60065722288E+03  0.00000000000E+00 0.  1.
         21    1    1    2  504  501  0.28306769768E+02  0.10912438713E+02  0.11857665563E+03  0.12239598766E+03  0.00000000000E+00 0. -1.
         21    1    1    2  505  504  0.87504144279E+02  0.30981106787E+02  0.11862639299E+03  0.15062876670E+03  0.00000000000E+00 0. -1.
         21    1    1    2  506  505 -0.19637520608E+02 -0.42115492704E+02 -0.73525999981E+02  0.86979420638E+02  0.00000000000E+00 0.  1.
<scales pt_clust_3="76.90286" pt_clust_4="30.33735" pt_clust_5="14000.00000" pt_clust_6="46.27003"></scales>
<clustering>
<clus scale="   30.337">  1  4  2 -1</clus>
<clus scale="   46.270">  2  6  1 -1</clus>
<clus scale="   76.903">  1  3  2 -1</clus>
<clus scale="   30.337">  1  3  2 -1</clus>
</clustering>
</event>
<event>
 6    0  0.8991567E+002  0.1031090E+03  0.7546771E-02  0.1273891E+00
         21   -1    0    0  505  501  0.00000000000E+00  0.00000000000E+00  0.23103169852E+03  0.23103169852E+03  0.00000000000E+00 0.  1.
         21   -1    0    0  503  502 -0.00000000000E+00 -0.00000000000E+00 -0.48105591556E+03  0.48105591556E+03  0.00000000000E+00 0. -1.
         21    1    1    2  503  506  0.32730675450E+02 -0.15397795870E+02 -0.29061398155E+02  0.46399936376E+02  0.00000000000E+00 0. -1.
         21    1    1    2  504  502  0.69019084791E+02  0.36984494410E+02 -0.40938759579E+03  0.41680893762E+03  0.00000000000E+00 0. -1.
         21    1    1    2  505  504  0.19859643753E+02 -0.32067066242E+02  0.26477607349E+02  0.46084334413E+02  0.00000000000E+00 0.  1.
         21    1    1    2  506  501 -0.12160940399E+03  0.10480367702E+02  0.16194716955E+03  0.20279440567E+03  0.00000000000E+00 0.  1.
<scales pt_clust_3="36.17166" pt_clust_4="103.10900" pt_clust_5="38.39176" pt_clust_6="14000.00000"></scales>
<clustering>
<clus scale="   36.172">  2  3  1 -1</clus>
<clus scale="   38.392">  1  5  2 -1</clus>
<clus scale="  103.109">  2  4  1 -1</clus>
<clus scale="   38.392">  1  3  2 -1</clus>
</clustering>
</event>
<event>
 6    0  0.8991567E+002  0.1666198E+03  0.7546771E-02  0.1181419E+00
         21   -1    0    0  506  501  0.00000000000E+00  0.00000000000E+00  0.50421128205E+03  0.50421128205E+03  0.00000000000E+00 0.  1.
         21   -1    0    0  504  502 -0.00000000000E+00 -0.00000000000E+00 -0.14188908272E+03  0.14188908272E+03  0.00000000000E+00 0.  1.
         21    1    1    2  503  501 -0.32651548583E+02  0.13545672605E+03  0.29326175493E+03  0.32468000425E+03  0.00000000000E+00 0.  1.
         21    1    1    2  504  505 -0.12888228699E+02 -0.96645953798E+02 -0.55931103008E+01  0.97661812943E+02  0.00000000000E+00 0.  1.
         21    1    1    2  505  503 -0.35979994706E+02  0.26239446829E+02  0.10590286306E+03  0.11488465952E+03  0.00000000000E+00 0.  1.
         21    1    1    2  506  502  0.81519771988E+02 -0.65050219076E+02 -0.31249308356E+02  0.10887388805E+03  0.00000000000E+00 0.  1.
<scales pt_clust_3="31.11247" pt_clust_4="97.50152" pt_clust_5="31.11247" pt_clust_6="157.26852"></scales>
<clustering>
<clus scale="   31.112">  3  5 -1 -1</clus>
<clus scale="   97.502">  2  4  1 -1</clus>
<clus scale="  157.269">  2  6  1 -1</clus>
<clus scale="  166.620">  1  3  2 -1</clus>
</clustering>
</event>
<event>
 6    0  0.8991567E+002  0.9649338E+02  0.7546771E-02  0.1287848E+00
         21   -1    0    0  503  501  0.00000000000E+00  0.00000000000E+00  0.10258824302E+03  0.10258824302E+03  0.00000000000E+00 0. -1.
         21   -1    0    0  506  502 -0.00000000000E+00 -0.00000000000E+00 -0.53596344850E+03  0.53596344850E+03  0.00000000000E+00 0.  1.
         21    1    1    2  503  505  0.51752640679E+02  0.57495393076E+02  0.68666919032E+02  0.10343694607E+03  0.00000000000E+00 0. -1.
         21    1    1    2  504  502 -0.39251620676E+02 -0.32421787993E+02 -0.24372915531E+03  0.24898948413E+03  0.00000000000E+00 0.  1.
         21    1    1    2  505  504 -0.48619076344E+02 -0.56658172684E+02 -0.14561821005E+03  0.16364176183E+03  0.00000000000E+00 0.  1.
         21    1    1    2  506  501  0.36118056341E+02  0.31584567601E+02 -0.11269475917E+03  0.12248349949E+03  0.00000000000E+00 0.  1.
<scales pt_clust_3="79.33660" pt_clust_4="45.35511" pt_clust_5="45.35511" pt_clust_6="47.98019"></scales>
<clustering>
<clus scale="   45.355">  4  5 -1 -1</clus>
<clus scale="   47.980">  2  6  1 -1</clus>
<clus scale="   79.337">  1  3  2 -1</clus>
<clus scale="   79.337">  1  3  2 -1</clus>
</clustering>
</event>
<event>
 6    0  0.8991567E+002  0.9623044E+02  0.7546771E-02  0.1288429E+00
         21   -1    0    0  504  501  0.00000000000E+00  0.00000000000E+00  0.70797968576E+03  0.70797968576E+03  0.00000000000E+00 0. -1.
         21   -1    0    0  506  502 -0.00000000000E+00 -0.00000000000E+00 -0.11039806634E+04  0.11039806634E+04  0.00000000000E+00 0.  1.
         21    1    1    2  503  502  0.36117706841E+02 -0.18745856338E+01 -0.10815613342E+04  0.10821658479E+04  0.00000000000E+00 0.  1.
         21    1    1    2  504  503 -0.11665838928E+03  0.61950143161E+02  0.43883772578E+03  0.45828544555E+03  0.00000000000E+00 0. -1.
         21    1    1    2  505  501  0.17324388636E+02 -0.27721892383E+02  0.33652336544E+02  0.46916068823E+02  0.00000000000E+00 0. -1.
         21    1    1    2  506  505  0.63216293807E+02 -0.32353665144E+02  0.21307029424E+03  0.22459298684E+03  0.00000000000E+00 0. -1.
<scales pt_clust_3="36.17481" pt_clust_4="96.23044" pt_clust_5="32.69003" pt_clust_6="14000.00000"></scales>
<clustering>
<clus scale="   32.690">  1  5  2 -1</clus>
<clus scale="   36.175">  2  3  1 -1</clus>
<clus scale="   96.230">  1  4  2 -1</clus>
<clus scale="   32.690">  1  3  2 -1</clus>
</clustering>
</event>
<event>
 6    0  0.8991567E+002  0.1031987E+03  0.7546771E-02  0.1273710E+00
         21   -1    0    0  505  501  0.00000000000E+00  0.00000000000E+00  0.21269162956E+04  0.21269162956E+04  0.00000000000E+00 0. -1.
         21   -1    0    0  504  502 -0.00000000000E+00 -0.00000000000E+00 -0.12852948443E+02  0.12852948443E+02  0.00000000000E+00 0. -1.
         21    1    1    2  503  506  0.10368039206E+03 -0.18120797654E+02  0.65700759997E+03  0.66538483108E+03  0.00000000000E+00 0. -1.
         21    1    1    2  504  503  0.25097332073E+02 -0.53221415670E+02  0.30439452072E+03  0.31002970730E+03  0.00000000000E+00 0. -1.
         21    1    1    2  505  502 -0.95105944693E+02  0.70102947890E+02  0.65623363773E+03  0.66678493633E+03  0.00000000000E+00 0. -1.
         21    1    1    2  506  501 -0.33671779442E+02  0.12392654343E+01  0.49642758874E+03  0.49756976935E+03  0.00000000000E+00 0. -1.
<scales pt_clust_3="103.19866" pt_clust_4="56.20767" pt_clust_5="14000.00000" pt_clust_6="33.69458"></scales>
<clustering>
<clus scale="   33.695">  1  6  2 -1</clus>
<clus scale="   56.208">  2  4  1 -1</clus>
<clus scale="  103.199">  1  3  2 -1</clus>
<clus scale="   33.695">  1  3  2 -1</clus>
</clustering>
</event>
<event>
 6    0  0.8991567E+002  0.1628556E+03  0.7546771E-02  0.1185510E+00
         21   -1    0    0  503  501  0.00000000000E+00  0.00000000000E+00  0.22143790066E+03  0.22143790066E+03  0.00000000000E+00 0. -1.
         21   -1    0    0  504  502 -0.00000000000E+00 -0.00000000000E+00 -0.11865695877E+04  0.11865695877E+04  0.00000000000E+00 0. -1.
         21    1    1    2  503  502 -0.17152057888E+03  0.20416138813E+02  0.13636639613E+02  0.17326882479E+03  0.00000000000E+00 0. -1.
         21    1    1    2  504  505 -0.39298187987E+02 -0.27409073277E+02 -0.97459801215E+03  0.97577502026E+03  0.00000000000E+00 0. -1.
         21    1    1    2  505  506  0.61499715056E+02 -0.68077810423E+02  0.11624801862E+01  0.91750501820E+02  0.00000000000E+00 0. -1.
         21    1    1    2  506  501  0.14931905181E+03  0.75070744887E+02 -0.53327946475E+01  0.16721314144E+03  0.00000000000E+00 0. -1.
<scales pt_clust_3="14000.00000" pt_clust_4="47.91247" pt_clust_5="91.02815" pt_clust_6="162.85560"></scales>
<clustering>
<clus scale="   47.912">  2  4  1 -1</clus>
<clus scale="   91.028">  2  5  1 -1</clus>
<clus scale="  162.856">  2  6  1 -1</clus>
<clus scale="  162.856">  1  3  2 -1</clus>
</clustering>
</event>
<event>
 6    0  0.8991567E+002  0.1415899E+03  0.7546771E-02  0.1211205E+00
         21   -1    0    0  503  501  0.00000000000E+00  0.00000000000E+00  0.43972314076E+03  0.43972314076E+03  0.00000000000E+00 0. -1.
         21   -1    0    0  505  502 -0.00000000000E+00 -0.00000000000E+00 -0.10280524782E+04  0.10280524782E+04  0.00000000000E+00 0. -1.
         21    1    1    2  503  504  0.15111061021E+03 -0.21178530189E+02  0.32375134239E+03  0.35790763942E+03  0.00000000000E+00 0. -1.
         21    1    1    2  504  502  0.41550787700E+02 -0.57429284479E+02 -0.25940115761E+03  0.26891179082E+03  0.00000000000E+00 0. -1.
         21    1    1    2  505  506 -0.17892825840E+03  0.28009403335E+02 -0.72743896729E+03  0.74964478219E+03  0.00000000000E+00 0. -1.
         21    1    1    2  506  501 -0.13733139506E+02  0.50598411333E+02  0.74759445023E+02  0.91311406573E+02  0.00000000000E+00 0. -1.
<scales pt_clust_3="141.58993" pt_clust_4="70.23093" pt_clust_5="14000.00000" pt_clust_6="52.42898"></scales>
<clustering>
<clus scale="   52.429">  1  6  2 -1</clus>
<clus scale="   70.231">  2  4  1 -1</clus>
<clus scale="  141.590">  1  3  2 -1</clus>
<clus scale="   52.429">  1  3  2 -1</clus>
</clustering>
</event>
<event>
 6    0  0.8991567E+002  0.1390003E+03  0.7546771E-02  0.1214680E+00
         21   -1    0    0  504  501  0.00000000000E+00  0.00000000000E+00  0.14492849334E+04  0.14492849334E+04  0.00000000000E+00 0. -1.
         21   -1    0    0  505  502 -0.00000000000E+00 -0.00000000000E+00 -0.80981714582E+03  0.80981714582E+03  0.00000000000E+00 0. -1.
         21    1    1    2  503  506  0.17973722031E+02 -0.68255041185E+02  0.40113769096E+03  0.40729995389E+03  0.00000000000E+00 0. -1.
         21    1    1    2  504  502 -0.67039052180E+02 -0.97417469865E+02  0.23483179467E+03  0.26292654818E+03  0.00000000000E+00 0. -1.
         21    1    1    2  505  503  0.27365928226E+02  0.13704123440E+03 -0.78611789024E+03  0.79844256607E+03  0.00000000000E+00 0. -1.
         21    1    1    2  506  501  0.21699401924E+02  0.28631276652E+02  0.78961619220E+03  0.79043301110E+03  0.00000000000E+00 0. -1.
<scales pt_clust_3="59.57214" pt_clust_4="139.00032" pt_clust_5="14000.00000" pt_clust_6="35.92512"></scales>
<clustering>
<clus scale="   35.925">  1  6  2 -1</clus>
<clus scale="   59.572">  1  3  2 -1</clus>
<clus scale="  139.000">  1  4  2 -1</clus>
<clus scale="   35.925">  1  3  2 -1</clus>
</clustering>
</event>
<event>
 6    0  0.8991567E+002  0.1242007E+03  0.7546771E-02  0.1236324E+00
         21   -1    0    0  504  501  0.00000000000E+00  0.00000000000E+00  0.29969444392E+03  0.29969444392E+03  0.00000000000E+00 0. -1.
         21   -1    0    0  506  502 -0.00000000000E+00 -0.00000000000E+00 -0.26749638217E+04  0.26749638217E+04  0.00000000000E+00 0. -1.
         21    1    1    2  503  502  0.15372724754E+03  0.65039002485E+02 -0.11157734483E+04  0.11281899337E+04  0.00000000000E+00 0. -1.
         21    1    1    2  504  503 -0.57975008321E+02  0.22672870159E+02  0.28667057466E+03  0.29335163031E+03  0.00000000000E+00 0. -1.
         21    1    1    2  505  501 -0.63211064142E+02 -0.74193709678E+02 -0.76910154080E+03  0.77525320074E+03  0.00000000000E+00 0. -1.
         21    1    1    2  506  505 -0.32541175073E+02 -0.13518162966E+02 -0.77706496335E+03  0.77786350093E+03  0.00000000000E+00 0. -1.
<scales pt_clust_3="124.20072" pt_clust_4="62.29549" pt_clust_5="14000.00000" pt_clust_6="35.23732"></scales>
<clustering>
<clus scale="   35.237">  2  6  1 -1</clus>
<clus scale="   62.295">  1  4  2 -1</clus>
<clus scale="  124.201">  1  3  2 -1</clus>
<clus scale="   62.295">  1  3  2 -1</clus>
</clustering>
</event>
<event>
 6    0  0.8991567E+002  0.1374373E+03  0.7546771E-02  0.1216819E+00
         21   -1    0    0  504  501  0.00000000000E+00  0.00000000000E+00  0.32443868259E+03  0.32443868259E+03  0.00000000000E+00 0.  1.
         21   -1    0    0  506  502 -0.00000000000E+00 -0.00000000000E+00 -0.62697269053E+03  0.62697269053E+03  0.00000000000E+00 0.  1.
         21    1    1    2  503  501  0.48258459831E+02  0.26780967466E+02  0.59958978457E+02  0.81493424650E+02  0.00000000000E+00 0.  1.
         21    1    1    2  504  505 -0.10381227772E+03  0.96273477470E+02  0.19882844093E+03  0.24408670671E+03  0.00000000000E+00 0.  1.
         21    1    1    2  505  502  0.21345247636E+01  0.56270163076E+02 -0.32802746980E+02  0.65168302556E+02  0.00000000000E+00 0.  1.
         21    1    1    2  506  503  0.53419293130E+02 -0.17932460801E+03 -0.52851868035E+03  0.56066293920E+03  0.00000000000E+00 0.  1.
<scales pt_clust_3="55.19148" pt_clust_4="137.43728" pt_clust_5="58.21221" pt_clust_6="14000.00000"></scales>
<clustering>
<clus scale="   55.191">  1  3  2 -1</clus>
<clus scale="   58.212">  2  5  1 -1</clus>
<clus scale="  137.437">  1  4  2 -1</clus>
<clus scale="   55.191">  1  3  2 -1</clus>
</clustering>
</event>
<event>
 6    0  0.8991567E+002  0.1065996E+03  0.7546771E-02  0.1267000E+00
         21   -1    0    0  504  501  0.00000000000E+00  0.00000000000E+00  0.12085983638E+03  0.12085983638E+03  0.00000000000E+00 0.  1.
         21   -1    0    0  505  502 -0.00000000000E+00 -0.00000000000E+00 -0.45220939701E+03  0.45220939701E+03  0.00000000000E+00 0. -1.
         21    1    1    2  503  501 -0.63814489875E+01 -0.44579428836E+02  0.12467669908E+02  0.46727841374E+02  0.00000000000E+00 0.  1.
         21    1    1    2  504  502 -0.10890917949E+03  0.66482771836E+02  0.11860303489E+02  0.12814770824E+03  0.00000000000E+00 0.  1.
         21    1    1    2  505  506  0.48826211055E+02  0.35044732342E+02 -0.26668236880E+03  0.27337084332E+03  0.00000000000E+00 0. -1.
         21    1    1    2  506  503  0.66464417418E+02 -0.56948075342E+02 -0.88995165223E+02  0.12482284046E+03  0.00000000000E+00 0. -1.
<scales pt_clust_3="45.03386" pt_clust_4="14000.00000" pt_clust_5="58.97053" pt_clust_6="106.59957"></scales>
<clustering>
<clus scale="   45.034">  1  3  2 -1</clus>
<clus scale="   58.971">  2  5  1 -1</clus>
<clus scale="  106.600">  2  6  1 -1</clus>
<clus scale="   45.034">  1  3  2 -1</clus>
</clustering>
</event>
<event>
 6    0  0.8991567E+002  0.8699149E+02  0.7546771E-02  0.1310305E+00
         21   -1    0    0  506  501  0.00000000000E+00  0.00000000000E+00  0.12663143318E+04  0.12663143318E+04  0.00000000000E+00 0. -1.
         21   -1    0    0  505  502 -0.00000000000E+00 -0.00000000000E+00 -0.24365141554E+02  0.24365141554E+02  0.00000000000E+00 0. -1.
         21    1    1    2  503  501  0.34113748543E+02  0.46036824727E+02  0.49463863396E+03  0.49794629758E+03  0.00000000000E+00 0. -1.
         21    1    1    2  504  502 -0.42367680525E+02 -0.13530375387E+02  0.51291692732E+02  0.67889094518E+02  0.00000000000E+00 0. -1.
         21    1    1    2  505  503  0.10127077697E+03 -0.34133691456E+01  0.28660476456E+03  0.30398965842E+03  0.00000000000E+00 0. -1.
         21    1    1    2  506  504 -0.93016844987E+02 -0.29093080194E+02  0.40941409902E+03  0.42085442286E+03  0.00000000000E+00 0. -1.
<scales pt_clust_3="53.64984" pt_clust_4="44.47574" pt_clust_5="14000.00000" pt_clust_6="86.99149"></scales>
<clustering>
<clus scale="   44.476">  2  4  1 -1</clus>
<clus scale="   53.650">  1  3  2 -1</clus>
<clus scale="   86.991">  1  6  2 -1</clus>
<clus scale="   53.650">  1  3  2 -1</clus>
</clustering>
</event>
<event>
 6    0  0.8991567E+002  0.1258246E+03  0.7546771E-02  0.1233786E+00
         21   -1    0    0  505  501  0.00000000000E+00  0.00000000000E+00  0.12712082848E+04  0.12712082848E+04  0.00000000000E+00 0.  1.
         21   -1    0    0  506  502 -0.00000000000E+00 -0.00000000000E+00 -0.69466515109E+02  0.69466515109E+02  0.00000000000E+00 0.  1.
         21    1    1    2  503  501 -0.13412002862E+03  0.11872790594E+02  0.30699166598E+03  0.33522086483E+03  0.00000000000E+00 0.  1.
         21    1    1    2  504  503  0.10441719647E+03 -0.21179597170E+02  0.70321952739E+02  0.12765854179E+03  0.00000000000E+00 0.  1.
         21    1    1    2  505  502  0.30482225132E+01  0.32107269858E+02  0.83913959451E+03  0.83975914852E+03  0.00000000000E+00 0.  1.
         21    1    1    2  506  504  0.26654609640E+02 -0.22800463281E+02 -0.14711443588E+02  0.38036244732E+02  0.00000000000E+00 0.  1.
<scales pt_clust_3="125.82460" pt_clust_4="14000.00000" pt_clust_5="32.25164" pt_clust_6="34.58222"></scales>
<clustering>
<clus scale="   32.252">  1  5  2 -1</clus>
<clus scale="   34.582">  2  6  1 -1</clus>
<clus scale="  125.825">  1  3  2 -1</clus>
<clus scale="   32.252">  1  3  2 -1</clus>
</clustering>
</event>
<event>
 6    0  0.8991567E+002  0.9041718E+02  0.7546771E-02  0.1301845E+00
         21   -1    0    0  502  501  0.00000000000E+00  0.00000000000E+00  0.10412385854E+04  0.10412385854E+04  0.00000000000E+00 0. -1.
         21   -1    0    0  504  502 -0.00000000000E+00 -0.00000000000E+00 -0.13750037005E+03  0.13750037005E+03  0.00000000000E+00 0. -1.
         21    1    1    2  503  505 -0.61794974942E+02 -0.47746686269E+02 -0.75681445784E+02  0.10874762624E+03  0.00000000000E+00 0. -1.
         21    1    1    2  504  503 -0.35719947018E+02  0.64751862154E+02 -0.55007852189E+01  0.74155086848E+02  0.00000000000E+00 0. -1.
         21    1    1    2  505  506  0.71901654361E+02  0.16484629221E+00  0.24650714662E+03  0.25677937691E+03  0.00000000000E+00 0. -1.
         21    1    1    2  506  501  0.25613267599E+02 -0.17170022177E+02  0.73841329971E+03  0.73905686543E+03  0.00000000000E+00 0. -1.
<scales pt_clust_3="14000.00000" pt_clust_4="70.85899" pt_clust_5="90.41718" pt_clust_6="30.83584"></scales>
<clustering>
<clus scale="   30.836">  1  6  2 -1</clus>
<clus scale="   70.859">  2  4  1 -1</clus>
<clus scale="   90.417">  1  5  2 -1</clus>
<clus scale="   30.836">  1  3  2 -1</clus>
</clustering>
</event>
<event>
 6    0  0.8991567E+002  0.7829793E+02  0.7546771E-02  0.1333952E+00
         21   -1    0    0  503  501  0.00000000000E+00  0.00000000000E+00  0.61909651004E+02  0.61909651004E+02  0.00000000000E+00 0. -1.
         21   -1    0    0  505  502 -0.00000000000E+00 -0.00000000000E+00 -0.22284363271E+04  0.22284363271E+04  0.00000000000E+00 0.  1.
         21    1    1    2  503  502 -0.84625512170E+02  0.42681017315E+02 -0.15840329709E+04  0.15868659677E+04  0.00000000000E+00 0.  1.
         21    1    1    2  504  501 -0.27537710116E+02  0.25383836863E+02  0.43928475793E+02  0.57726732436E+02  0.00000000000E+00 0. -1.
         21    1    1    2  505  506  0.33630575209E+02  0.28920343779E+01 -0.31570247220E+03  0.31750185890E+03  0.00000000000E+00 0. -1.
         21    1    1    2  506  504  0.78532647077E+02 -0.70956888556E+02 -0.31071970881E+03  0.32825141908E+03  0.00000000000E+00 0. -1.
<scales pt_clust_3="14000.00000" pt_clust_4="37.37011" pt_clust_5="33.75470" pt_clust_6="78.29793"></scales>
<clustering>
<clus scale="   33.755">  2  5  1 -1</clus>
<clus scale="   37.370">  1  4  2 -1</clus>
<clus scale="   78.298">  1  6  2 -1</clus>
<clus scale="   37.370">  1  3  2 -1</clus>
</clustering>
</event>
<event>
 6    0  0.8991567E+002  0.9458324E+02  0.7546771E-02  0.1292117E+00
         21   -1    0    0  503  501  0.00000000000E+00  0.00000000000E+00  0.78474725718E+02  0.78474725718E+02  0.00000000000E+00 0.  1.
         21   -1    0    0  505  502 -0.00000000000E+00 -0.00000000000E+00 -0.70131401690E+03  0.70131401690E+03  0.00000000000E+00 0.  1.
         21    1    1    2  503  506 -0.18857462949E+02  0.10060081441E+03 -0.22250707299E+01  0.10237713958E+03  0.00000000000E+00 0.  1.
         21    1    1    2  504  501  0.43556477798E+02 -0.72643740615E+02 -0.70964265318E+02  0.11049980435E+03  0.00000000000E+00 0.  1.
         21    1    1    2  505  504 -0.46989420700E+02 -0.66075777823E+02 -0.45867788078E+03  0.46578902133E+03  0.00000000000E+00 0.  1.
         21    1    1    2  506  502  0.22290405850E+02  0.38118704031E+02 -0.90972074350E+02  0.10112277736E+03  0.00000000000E+00 0.  1.
<scales pt_clust_3="94.58324" pt_clust_4="14000.00000" pt_clust_5="47.58582" pt_clust_6="44.15765"></scales>
<clustering>
<clus scale="   44.158">  2  6  1 -1</clus>
<clus scale="   47.586">  2  5  1 -1</clus>
<clus scale="   94.583">  1  3  2 -1</clus>
<clus scale="   94.583">  1  3  2 -1</clus>
</clustering>
</event>
<event>
 6    0  0.8991567E+002  0.1032007E+03  0.7546771E-02  0.1273706E+00
         21   -1    0    0  505  501  0.00000000000E+00  0.00000000000E+00  0.50119214804E+03  0.50119214804E+03  0.00000000000E+00 0. -1.
         21   -1    0    0  503  502 -0.00000000000E+00 -0.00000000000E+00 -0.17930527493E+03  0.17930527493E+03  0.00000000000E+00 0. -1.
         21    1    1    2  503  501 -0.68993259993E+01 -0.44878262858E+02 -0.12436711137E+03  0.13239651644E+03  0.00000000000E+00 0. -1.
         21    1    1    2  504  502 -0.27051715393E+02  0.23929180972E+02 -0.16430593336E+02  0.39678273716E+02  0.00000000000E+00 0. -1.
         21    1    1    2  505  506 -0.19106586150E+02 -0.87418412818E+02  0.17808569685E+03  0.19930267423E+03  0.00000000000E+00 0. -1.
         21    1    1    2  506  504  0.53057627542E+02  0.10836749470E+03  0.28459888097E+03  0.30911995859E+03  0.00000000000E+00 0. -1.
<scales pt_clust_3="38.66801" pt_clust_4="36.11649" pt_clust_5="14000.00000" pt_clust_6="103.20069"></scales>
<clustering>
<clus scale="   36.116">  2  4  1 -1</clus>
<clus scale="   38.668">  2  3  1 -1</clus>
<clus scale="  103.201">  2  6  1 -1</clus>
<clus scale="  103.201">  1  3  2 -1</clus>
</clustering>
</event>
<event>
 6    0  0.8991567E+002  0.1126289E+03  0.7546771E-02  0.1255778E+00
         21   -1    0    0  503  501  0.00000000000E+00  0.00000000000E+00  0.24661846952E+04  0.24661846952E+04  0.00000000000E+00 0.  1.
         21   -1    0    0  505  502 -0.00000000000E+00 -0.00000000000E+00 -0.38859104106E+02  0.38859104106E+02  0.00000000000E+00 0. -1.
         21    1    1    2  503  502 -0.15966227717E+02  0.39284608487E+02 -0.57327422133E+01  0.42790947931E+02  0.00000000000E+00 0. -1.
         21    1    1    2  504  501 -0.35163736317E+02 -0.10523544007E+03  0.17416785357E+04  0.17452091874E+04  0.00000000000E+00 0.  1.
         21    1    1    2  505  506 -0.35593582078E+02 -0.27569467767E+02  0.73939807783E+02  0.86568318761E+02  0.00000000000E+00 0.  1.
         21    1    1    2  506  504  0.86723546112E+02  0.93520299351E+02  0.61743998985E+03  0.63047534520E+03  0.00000000000E+00 0. -1.
<scales pt_clust_3="42.40520" pt_clust_4="112.62895" pt_clust_5="43.79623" pt_clust_6="14000.00000"></scales>
<clustering>
<clus scale="   42.405">  2  3  1 -1</clus>
<clus scale="   43.796">  2  5  1 -1</clus>
<clus scale="  112.629">  1  4  2 -1</clus>
<clus scale="  112.629">  1  3  2 -1</clus>
</clustering>
</event>
<event>
 6    0  0.8991567E+002  0.7063128E+02  0.7546771E-02  0.1357959E+00
         21   -1    0    0  504  501  0.00000000000E+00  0.00000000000E+00  0.33249837823E+03  0.33249837823E+03  0.00000000000E+00 0. -1.
         21   -1    0    0  505  502 -0.00000000000E+00 -0.00000000000E+00 -0.18145630320E+03  0.18145630320E+03  0.00000000000E+00 0. -1.
         21    1    1    2  503  501 -0.57297013714E+02 -0.79604456307E+02  0.72615472976E+02  0.12203615923E+03  0.00000000000E+00 0. -1.
         21    1    1    2  504  506  0.43374547198E+02  0.22803031530E+02  0.17353905253E+03  0.18032507409E+03  0.00000000000E+00 0. -1.
         21    1    1    2  505  503 -0.32961207784E+02  0.68903847703E+02  0.26378851181E+02  0.80808571553E+02  0.00000000000E+00 0. -1.
         21    1    1    2  506  502  0.46883674300E+02 -0.12102422926E+02 -0.12149130166E+03  0.13078487655E+03  0.00000000000E+00 0. -1.
<scales pt_clust_3="70.63128" pt_clust_4="51.24215" pt_clust_5="14000.00000" pt_clust_6="48.42053"></scales>
<clustering>
<clus scale="   48.421">  2  6  1 -1</clus>
<clus scale="   51.242">  1  4  2 -1</clus>
<clus scale="   70.631">  1  3  2 -1</clus>
<clus scale="   51.242">  1  3  2 -1</clus>
</clustering>
</event>
<event>
 6    0  0.8991567E+002  0.1400370E+03  0.7546771E-02  0.1213279E+00
         21   -1    0    0  502  501  0.00000000000E+00  0.00000000000E+00  0.23589835904E+03  0.23589835904E+03  0.00000000000E+00 0. -1.
         21   -1    0    0  504  502 -0.00000000000E+00 -0.00000000000E+00 -0.67892789971E+03  0.67892789971E+03  0.00000000000E+00 0. -1.
         21    1    1    2  503  501  0.42391483600E+02  0.28978262256E+02  0.15229383411E+03  0.16071773230E+03  0.00000000000E+00 0. -1.
         21    1    1    2  504  506 -0.45385755557E+02  0.40236940839E+02 -0.40256371760E+03  0.40710738749E+03  0.00000000000E+00 0. -1.
         21    1    1    2  505  503  0.39730074708E+02 -0.17216899367E+03 -0.96390751957E+02  0.20127547859E+03  0.00000000000E+00 0. -1.
         21    1    1    2  506  505 -0.36735802750E+02  0.10295379057E+03 -0.96368905228E+02  0.14572566038E+03  0.00000000000E+00 0.  1.
<scales pt_clust_3="51.34956" pt_clust_4="60.31300" pt_clust_5="140.03697" pt_clust_6="14000.00000"></scales>
<clustering>
<clus scale="   51.350">  1  3  2 -1</clus>
<clus scale="   60.313">  2  4  1 -1</clus>
<clus scale="  140.037">  1  5  2 -1</clus>
<clus scale="   51.350">  1  3  2 -1</clus>
</clustering>
</event>
<event>
 6    0  0.8991567E+002  0.1851160E+03  0.7546771E-02  0.1162942E+00
         21   -1    0    0  503  501  0.00000000000E+00  0.00000000000E+00  0.28540403996E+03  0.28540403996E+03  0.00000000000E+00 0.  1.
         21   -1    0    0  506  502 -0.00000000000E+00 -0.00000000000E+00 -0.46362745384E+03  0.46362745384E+03  0.00000000000E+00 0.  1.
         21    1    1    2  503  505 -0.85697407123E+02  0.24476630974E+02  0.80782391144E+02  0.12028693100E+03  0.00000000000E+00 0.  1.
         21    1    1    2  504  502  0.14948071043E+02 -0.42429953174E+02 -0.23733042707E+03  0.24155636479E+03  0.00000000000E+00 0.  1.
         21    1    1    2  505  504 -0.82871672487E+02  0.53838893029E+02  0.13337114640E+03  0.16599458785E+03  0.00000000000E+00 0.  1.
         21    1    1    2  506  501  0.15362100857E+03 -0.35885570828E+02 -0.15504652434E+03  0.22119361017E+03  0.00000000000E+00 0.  1.
<scales pt_clust_3="37.34584" pt_clust_4="44.98606" pt_clust_5="37.34584" pt_clust_6="180.89063"></scales>
<clustering>
<clus scale="   37.346">  3  5 -1 -1</clus>
<clus scale="   44.986">  2  4  1 -1</clus>
<clus scale="  180.891">  2  6  1 -1</clus>
<clus scale="  185.116">  1  3  2 -1</clus>
</clustering>
</event>
<event>
 6    0  0.8991567E+002  0.1199246E+03  0.7546771E-02  0.1243222E+00
         21   -1    0    0  505  501  0.00000000000E+00  0.00000000000E+00  0.12917364198E+04  0.12917364198E+04  0.00000000000E+00 0. -1.
         21   -1    0    0  503  502 -0.00000000000E+00 -0.00000000000E+00 -0.77333079046E+03  0.77333079046E+03  0.00000000000E+00 0.  1.
         21    1    1    2  503  506  0.82371855365E+02  0.10601670415E+03 -0.61825143665E+03  0.63266065393E+03  0.00000000000E+00 0.  1.
         21    1    1    2  504  501  0.37327123151E+01  0.36269773488E+02  0.10627014854E+04  0.10633267967E+04  0.00000000000E+00 0. -1.
         21    1    1    2  505  502 -0.73820668507E+02 -0.54898943424E+02 -0.12280152610E+03  0.15343923846E+03  0.00000000000E+00 0.  1.
         21    1    1    2  506  504 -0.12283899174E+02 -0.87387534218E+02  0.19675710668E+03  0.21564052111E+03  0.00000000000E+00 0.  1.
<scales pt_clust_3="119.92458" pt_clust_4="36.46134" pt_clust_5="14000.00000" pt_clust_6="55.41190"></scales>
<clustering>
<clus scale="   36.461">  1  4  2 -1</clus>
<clus scale="   55.412">  1  6  2 -1</clus>
<clus scale="  119.925">  2  3  1 -1</clus>
<clus scale="   36.461">  1  3  2 -1</clus>
</clustering>
</event>
<event>
 6    0  0.8991567E+002  0.6293105E+02  0.7546771E-02  0.1385927E+00
         21   -1    0    0  505  501  0.00000000000E+00  0.00000000000E+00  0.95905093309E+03  0.95905093309E+03  0.00000000000E+00 0.  1.
         21   -1    0    0  506  502 -0.00000000000E+00 -0.00000000000E+00 -0.21107587598E+03  0.21107587598E+03  0.00000000000E+00 0. -1.
         21    1    1    2  503  501  0.79115217872E+02  0.26405204396E+02  0.88068044207E+03  0.88462110169E+03  0.00000000000E+00 0.  1.
         21    1    1    2  504  502  0.35152421793E+02 -0.42375428446E+02 -0.88484657841E+02  0.10421566277E+03  0.00000000000E+00 0. -1.
         21    1    1    2  505  504 -0.35402547291E+02 -0.18543396394E+02  0.43025166086E+02  0.58722762378E+02  0.00000000000E+00 0.  1.
         21    1    1    2  506  503 -0.78865092374E+02  0.34513620445E+02 -0.87245893199E+02  0.12256728222E+03  0.00000000000E+00 0. -1.
<scales pt_clust_3="45.48688" pt_clust_4="14000.00000" pt_clust_5="39.96496" pt_clust_6="62.93105"></scales>
<clustering>
<clus scale="   39.965">  1  5  2 -1</clus>
<clus scale="   45.487">  1  3  2 -1</clus>
<clus scale="   62.931">  1  6  2 -1</clus>
<clus scale="   39.965">  1  3  2 -1</clus>
</clustering>
</event>
<event>
 6    0  0.8991567E+002  0.1288824E+03  0.7546771E-02  0.1229124E+00
         21   -1    0    0  505  501  0.00000000000E+00  0.00000000000E+00  0.18052235904E+04  0.18052235904E+04  0.00000000000E+00 0.  1.
         21   -1    0    0  506  502 -0.00000000000E+00 -0.00000000000E+00 -0.60011638166E+02  0.60011638166E+02  0.00000000000E+00 0.  1.
         21    1    1    2  503  501 -0.11053075386E+03 -0.52992300698E+02  0.64505812100E+03  0.65660125720E+03  0.00000000000E+00 0.  1.
         21    1    1    2  504  502  0.93518887228E+02  0.10182658140E+03  0.55135175366E+03  0.56842166674E+03  0.00000000000E+00 0.  1.
         21    1    1    2  505  504 -0.12078252717E+02 -0.40200589867E+02  0.58863958742E+03  0.59013433682E+03  0.00000000000E+00 0.  1.
         21    1    1    2  506  503  0.29090119354E+02 -0.86336908350E+01 -0.39837509894E+02  0.50077967770E+02  0.00000000000E+00 0.  1.
<scales pt_clust_3="128.88240" pt_clust_4="14000.00000" pt_clust_5="41.99781" pt_clust_6="30.34429"></scales>
<clustering>
<clus scale="   30.344">  2  6  1 -1</clus>
<clus scale="   41.998">  1  5  2 -1</clus>
<clus scale="  128.882">  2  3  1 -1</clus>
<clus scale="   41.998">  1  3  2 -1</clus>
</clustering>
</event>
<event>
 6    0  0.8991567E+002  0.1021748E+03  0.7546771E-02  0.1275788E+00
         21   -1    0    0  503  501  0.00000000000E+00  0.00000000000E+00  0.36761023911E+03  0.36761023911E+03  0.00000000000E+00 0.  1.
         21   -1    0    0  505  502 -0.00000000000E+00 -0.00000000000E+00 -0.10035937171E+04  0.10035937171E+04  0.00000000000E+00 0. -1.
         21    1    1    2  503  502 -0.52284224591E+02  0.33338325733E+02  0.27347086706E+03  0.28041290847E+03  0.00000000000E+00 0.  1.
         21    1    1    2  504  501 -0.12379447951E+02  0.46967140542E+02  0.59918104853E+02  0.77131979823E+02  0.00000000000E+00 0.  1.
         21    1    1    2  505  506  0.19087568004E+02  0.53983308695E+02 -0.75163306902E+03  0.75381085380E+03  0.00000000000E+00 0. -1.
         21    1    1    2  506  504  0.45576104538E+02 -0.13428877497E+03 -0.21773938091E+03  0.25984821413E+03  0.00000000000E+00 0. -1.
<scales pt_clust_3="102.17483" pt_clust_4="48.57122" pt_clust_5="57.40475" pt_clust_6="14000.00000"></scales>
<clustering>
<clus scale="   48.571">  1  4  2 -1</clus>
<clus scale="   57.405">  2  5  1 -1</clus>
<clus scale="  102.175">  1  3  2 -1</clus>
<clus scale="   48.571">  1  3  2 -1</clus>
</clustering>
</event>
<event>
 6    0  0.8991567E+002  0.9286384E+02  0.7546771E-02  0.1296061E+00
         21   -1    0    0  506  501  0.00000000000E+00  0.00000000000E+00  0.16951411750E+03  0.16951411750E+03  0.00000000000E+00 0.  1.
         21   -1    0    0  505  502 -0.00000000000E+00 -0.00000000000E+00 -0.37340682993E+03  0.37340682993E+03  0.00000000000E+00 0.  1.
         21    1    1    2  503  501 -0.37926454877E+02  0.60995732079E+02  0.96690725738E+02  0.12044912517E+03  0.00000000000E+00 0.  1.
         21    1    1    2  504  503  0.14876689794E+02 -0.16472377571E+03 -0.15529160837E+03  0.22687159764E+03  0.00000000000E+00 0.  1.
         21    1    1    2  505  504  0.39874035078E+01  0.79056073310E+02 -0.14408746018E+03  0.16439877826E+03  0.00000000000E+00 0.  1.
         21    1    1    2  506  502  0.19062361575E+02  0.24671970326E+02 -0.12043696181E+01  0.31201446357E+02  0.00000000000E+00 0.  1.
<scales pt_clust_3="92.86384" pt_clust_4="14000.00000" pt_clust_5="80.84767" pt_clust_6="31.17819"></scales>
<clustering>
<clus scale="   31.178">  1  6  2 -1</clus>
<clus scale="   80.848">  2  5  1 -1</clus>
<clus scale="   92.864">  1  3  2 -1</clus>
<clus scale="   31.178">  1  3  2 -1</clus>
</clustering>
</event>
<event>
 6    0  0.1502407E+003  0.1107932E+03  0.7546771E-02  0.1259108E+00
         21   -1    0    0  503  501  0.00000000000E+00  0.00000000000E+00  0.79025535516E+03  0.79025535516E+03  0.00000000000E+00 0.  1.
         21   -1    0    0  505  502 -0.00000000000E+00 -0.00000000000E+00 -0.11753791574E+04  0.11753791574E+04  0.00000000000E+00 0.  1.
         21    1    1    2  503  506 -0.40291098145E+02 -0.51606125186E+02  0.76900000780E+02  0.10099591510E+03  0.00000000000E+00 0. -1.
         21    1    1    2  504  501  0.13128588223E+02 -0.62181702515E+02  0.69202802628E+03  0.69494007880E+03  0.00000000000E+00 0.  1.
         21    1    1    2  505  504  0.65523513189E+02  0.64072435191E+02 -0.98681127258E+03  0.99105756413E+03  0.00000000000E+00 0.  1.
         21    1    1    2  506  502 -0.38361003267E+02  0.49715392510E+02 -0.16724055674E+03  0.17864095455E+03  0.00000000000E+00 0.  1.
<scales pt_clust_3="110.79317" pt_clust_4="63.47038" pt_clust_5="14000.00000" pt_clust_6="62.79480"></scales>
<clustering>
<clus scale="   62.795">  2  6  1 -1</clus>
<clus scale="   63.470">  1  4  2 -1</clus>
<clus scale="  110.793">  1  3  2 -1</clus>
<clus scale="   63.470">  1  3  2 -1</clus>
</clustering>
</event>
<event>
 6    0  0.8991567E+002  0.7012585E+02  0.7546771E-02  0.1359666E+00
         21   -1    0    0  504  501  0.00000000000E+00  0.00000000000E+00  0.18496769565E+03  0.18496769565E+03  0.00000000000E+00 0. -1.
         21   -1    0    0  503  502 -0.00000000000E+00 -0.00000000000E+00 -0.24588921253E+03  0.24588921253E+03  0.00000000000E+00 0. -1.
         21    1    1    2  503  505 -0.76092812072E+00  0.86039213728E+02  0.78567871815E+02  0.11651710515E+03  0.00000000000E+00 0. -1.
         21    1    1    2  504  506 -0.25029987505E+02 -0.71728501852E+02  0.14880882056E+02  0.77413945147E+02  0.00000000000E+00 0. -1.
         21    1    1    2  505  501  0.39598988539E+02  0.53357926593E+02  0.14754595637E+01  0.66462961148E+02  0.00000000000E+00 0. -1.
         21    1    1    2  506  502 -0.13808072913E+02 -0.67668638469E+02 -0.15584573031E+03  0.17046289675E+03  0.00000000000E+00 0. -1.
<scales pt_clust_3="70.12585" pt_clust_4="56.90937" pt_clust_5="66.44658" pt_clust_6="14000.00000"></scales>
<clustering>
<clus scale="   66.447">  1  5  2 -1</clus>
<clus scale="   56.909">  1  4  2 -1</clus>
<clus scale="   70.126">  1  3  2 -1</clus>
<clus scale="   66.447">  1  3  2 -1</clus>
</clustering>
</event>
<event>
 6    0  0.8991567E+002  0.2683007E+03  0.7546771E-02  0.1102256E+00
         21   -1    0    0  504  501  0.00000000000E+00  0.00000000000E+00  0.39014635110E+03  0.39014635110E+03  0.00000000000E+00 0.  1.
         21   -1    0    0  506  502 -0.00000000000E+00 -0.00000000000E+00 -0.35258346249E+03  0.35258346249E+03  0.00000000000E+00 0.  1.
         21    1    1    2  503  502  0.14066306147E+03  0.24123076787E+02  0.53036862417E+02  0.15225284389E+03  0.00000000000E+00 0.  1.
         21    1    1    2  504  503  0.12793857912E+03  0.52582046625E+02  0.37160418709E+02  0.14322726128E+03  0.00000000000E+00 0.  1.
         21    1    1    2  505  501 -0.21914696947E+03 -0.13964681509E+03  0.97144201716E+02  0.27742318418E+03  0.00000000000E+00 0.  1.
         21    1    1    2  506  505 -0.49454671124E+02  0.62941691674E+02 -0.14977859423E+03  0.16982652425E+03  0.00000000000E+00 0.  1.
<scales pt_clust_3="33.27541" pt_clust_4="33.27541" pt_clust_5="266.16323" pt_clust_6="80.04637"></scales>
<clustering>
<clus scale="   33.275">  3  4 -1 -1</clus>
<clus scale="   80.046">  2  6  1 -1</clus>
<clus scale="  266.163">  1  5  2 -1</clus>
<clus scale="  266.163">  1  3  2 -1</clus>
</clustering>
</event>
<event>
 6    0  0.8991567E+002  0.6932573E+02  0.7546771E-02  0.1362401E+00
         21   -1    0    0  503  501  0.00000000000E+00  0.00000000000E+00  0.69222653939E+03  0.69222653939E+03  0.00000000000E+00 0. -1.
         21   -1    0    0  505  502 -0.00000000000E+00 -0.00000000000E+00 -0.12687132489E+03  0.12687132489E+03  0.00000000000E+00 0.  1.
         21    1    1    2  503  506 -0.67652490234E+02 -0.48081485130E+01  0.25523872101E+03  0.26409616133E+03  0.00000000000E+00 0.  1.
         21    1    1    2  504  501  0.11012863608E+02 -0.33882190576E+02  0.36713344870E+03  0.36885804201E+03  0.00000000000E+00 0. -1.
         21    1    1    2  505  504  0.99523977045E+02  0.53254195557E+02 -0.77002954799E+02  0.13663998829E+03  0.00000000000E+00 0.  1.
         21    1    1    2  506  502 -0.42884350419E+02 -0.14563856468E+02  0.19985999587E+02  0.49503672647E+02  0.00000000000E+00 0.  1.
<scales pt_clust_3="69.32573" pt_clust_4="35.62704" pt_clust_5="14000.00000" pt_clust_6="45.50041"></scales>
<clustering>
<clus scale="   35.627">  1  4  2 -1</clus>
<clus scale="   45.500">  2  6  1 -1</clus>
<clus scale="   69.326">  1  3  2 -1</clus>
<clus scale="   35.627">  1  3  2 -1</clus>
</clustering>
</event>
<event>
 6    0  0.8991567E+002  0.8865022E+02  0.7546771E-02  0.1306154E+00
         21   -1    0    0  504  501  0.00000000000E+00  0.00000000000E+00  0.54894367011E+03  0.54894367011E+03  0.00000000000E+00 0. -1.
         21   -1    0    0  503  502 -0.00000000000E+00 -0.00000000000E+00 -0.10687244969E+03  0.10687244969E+03  0.00000000000E+00 0.  1.
         21    1    1    2  503  505  0.74475123376E+02 -0.83353598274E+02  0.57699231469E+02  0.12579176308E+03  0.00000000000E+00 0.  1.
         21    1    1    2  504  506 -0.10814091942E+03  0.34637019613E+02  0.18365456722E+03  0.21592401822E+03  0.00000000000E+00 0. -1.
         21    1    1    2  505  501  0.54159803494E+02 -0.22320242345E+01  0.24034354615E+03  0.24638036939E+03  0.00000000000E+00 0.  1.
         21    1    1    2  506  502 -0.20494007446E+02  0.50948602895E+02 -0.39626124431E+02  0.67719969105E+02  0.00000000000E+00 0.  1.
<scales pt_clust_3="14000.00000" pt_clust_4="88.65022" pt_clust_5="54.20578" pt_clust_6="53.93954"></scales>
<clustering>
<clus scale="   54.206">  1  5  2 -1</clus>
<clus scale="   53.940">  2  6  1 -1</clus>
<clus scale="   88.650">  1  4  2 -1</clus>
<clus scale="   54.206">  1  3  2 -1</clus>
</clustering>
</event>
<event>
 6    0  0.8991567E+002  0.9851561E+02  0.7546771E-02  0.1283449E+00
         21   -1    0    0  505  501  0.00000000000E+00  0.00000000000E+00  0.82720296577E+02  0.82720296577E+02  0.00000000000E+00 0. -1.
         21   -1    0    0  503  502 -0.00000000000E+00 -0.00000000000E+00 -0.23587699647E+04  0.23587699647E+04  0.00000000000E+00 0.  1.
         21    1    1    2  503  501 -0.28939331320E+02 -0.39419456161E+02 -0.10486699845E+03  0.11570853808E+03  0.00000000000E+00 0.  1.
         21    1    1    2  504  506 -0.41865166087E+02  0.11967499221E+03 -0.26338511224E+03  0.29231235561E+03  0.00000000000E+00 0. -1.
         21    1    1    2  505  504  0.11694387902E+03 -0.21009336674E+01  0.63845750918E+01  0.11713687533E+03  0.00000000000E+00 0. -1.
         21    1    1    2  506  502 -0.46139381612E+02 -0.78154602383E+02 -0.19141821326E+04  0.19163324923E+04  0.00000000000E+00 0.  1.
<scales pt_clust_3="48.90172" pt_clust_4="98.51561" pt_clust_5="14000.00000" pt_clust_6="91.43465"></scales>
<clustering>
<clus scale="   48.902">  1  3  2 -1</clus>
<clus scale="   91.435">  2  6  1 -1</clus>
<clus scale="   98.516">  2  4  1 -1</clus>
<clus scale="   48.902">  1  3  2 -1</clus>
</clustering>
</event>
<event>
 6    0  0.8991567E+002  0.2302235E+03  0.7546771E-02  0.1126483E+00
         21   -1    0    0  504  501  0.00000000000E+00  0.00000000000E+00  0.11304924702E+04  0.11304924702E+04  0.00000000000E+00 0. -1.
         21   -1    0    0  506  502 -0.00000000000E+00 -0.00000000000E+00 -0.30136527685E+03  0.30136527685E+03  0.00000000000E+00 0. -1.
         21    1    1    2  503  502 -0.39846850625E+02 -0.20811924841E+03 -0.35853924761E+02  0.21491137006E+03  0.00000000000E+00 0. -1.
         21    1    1    2  504  503  0.15469343618E+02 -0.58234737204E+02  0.12095226134E+02  0.61456323551E+02  0.00000000000E+00 0. -1.
         21    1    1    2  505  501  0.13666859883E+03  0.87161707311E+02  0.91957668894E+03  0.93375411965E+03  0.00000000000E+00 0. -1.
         21    1    1    2  506  505 -0.11229109183E+03  0.17919227830E+03 -0.66690797003E+02  0.22173593374E+03  0.00000000000E+00 0. -1.
<scales pt_clust_3="34.86935" pt_clust_4="34.86935" pt_clust_5="162.09710" pt_clust_6="220.74185"></scales>
<clustering>
<clus scale="   34.869">  3  4 -1 -1</clus>
<clus scale="  162.097">  1  5  2 -1</clus>
<clus scale="  220.742">  2  6  1 -1</clus>
<clus scale="  162.097">  1  3  2 -1</clus>
</clustering>
</event>
<event>
 6    0  0.8991567E+002  0.9439496E+02  0.7546771E-02  0.1292545E+00
         21   -1    0    0  506  501  0.00000000000E+00  0.00000000000E+00  0.96641655536E+03  0.96641655536E+03  0.00000000000E+00 0.  1.
         21   -1    0    0  503  502 -0.00000000000E+00 -0.00000000000E+00 -0.34442632854E+03  0.34442632854E+03  0.00000000000E+00 0. -1.
         21    1    1    2  503  501 -0.80643353484E+02  0.63596627142E+02  0.36453083714E+03  0.37872234245E+03  0.00000000000E+00 0.  1.
         21    1    1    2  504  505  0.31884870444E+02 -0.29999873105E+02  0.88140767286E+02  0.98414593468E+02  0.00000000000E+00 0.  1.
         21    1    1    2  505  502 -0.37974983849E+02 -0.41480215422E+01 -0.32688978661E+03  0.32911432371E+03  0.00000000000E+00 0. -1.
         21    1    1    2  506  504  0.86733466889E+02 -0.29448732494E+02  0.49620840900E+03  0.50459162427E+03  0.00000000000E+00 0.  1.
<scales pt_clust_3="94.39496" pt_clust_4="37.14598" pt_clust_5="38.20086" pt_clust_6="14000.00000"></scales>
<clustering>
<clus scale="   38.201">  2  5  1 -1</clus>
<clus scale="   37.146">  2  4  1 -1</clus>
<clus scale="   94.395">  2  3  1 -1</clus>
<clus scale="   94.395">  1  3  2 -1</clus>
</clustering>
</event>
<event>
 6    0  0.8991567E+002  0.1383680E+03  0.7546771E-02  0.1215542E+00
         21   -1    0    0  506  501  0.00000000000E+00  0.00000000000E+00  0.23522436964E+04  0.23522436964E+04  0.00000000000E+00 0. -1.
         21   -1    0    0  505  502 -0.00000000000E+00 -0.00000000000E+00 -0.41512161423E+02  0.41512161423E+02  0.00000000000E+00 0. -1.
         21    1    1    2  503  504  0.13602234779E+03 -0.11072629980E+02  0.37365890146E+03  0.39780102674E+03  0.00000000000E+00 0. -1.
         21    1    1    2  504  501 -0.32590995537E+02  0.67091386045E+02  0.37054635716E+03  0.37797887490E+03  0.00000000000E+00 0. -1.
         21    1    1    2  505  503 -0.12887939543E+03 -0.73574295914E+02  0.18992788457E+03  0.24103044812E+03  0.00000000000E+00 0. -1.
         21    1    1    2  506  502  0.25448043179E+02  0.17555539849E+02  0.13765983917E+04  0.13769455080E+04  0.00000000000E+00 0. -1.
<scales pt_clust_3="138.36797" pt_clust_4="77.27552" pt_clust_5="14000.00000" pt_clust_6="30.91601"></scales>
<clustering>
<clus scale="   30.916">  1  6  2 -1</clus>
<clus scale="   77.276">  1  4  2 -1</clus>
<clus scale="  138.368">  1  3  2 -1</clus>
<clus scale="   30.916">  1  3  2 -1</clus>
</clustering>
</event>
<event>
 6    0  0.8991567E+002  0.8708717E+02  0.7546771E-02  0.1310063E+00
         21   -1    0    0  505  501  0.00000000000E+00  0.00000000000E+00  0.65792794384E+03  0.65792794384E+03  0.00000000000E+00 0. -1.
         21   -1    0    0  506  502 -0.00000000000E+00 -0.00000000000E+00 -0.79025691776E+03  0.79025691776E+03  0.00000000000E+00 0. -1.
         21    1    1    2  503  502 -0.65962401540E+02  0.11870214846E+02 -0.62764063152E+03  0.63120892163E+03  0.00000000000E+00 0. -1.
         21    1    1    2  504  501 -0.13673703401E+02 -0.32804867174E+02  0.41820312854E+03  0.41971059814E+03  0.00000000000E+00 0. -1.
         21    1    1    2  505  503  0.97960724638E+02  0.54840753722E+02  0.22122665457E+03  0.24808273727E+03  0.00000000000E+00 0. -1.
         21    1    1    2  506  504 -0.18324619698E+02 -0.33906101394E+02 -0.14411812551E+03  0.14918260455E+03  0.00000000000E+00 0. -1.
<scales pt_clust_3="14000.00000" pt_clust_4="35.54053" pt_clust_5="87.08717" pt_clust_6="38.91581"></scales>
<clustering>
<clus scale="   35.541">  1  4  2 -1</clus>
<clus scale="   38.916">  2  6  1 -1</clus>
<clus scale="   87.087">  1  5  2 -1</clus>
<clus scale="   35.541">  1  3  2 -1</clus>
</clustering>
</event>
<event>
 6    0  0.8991567E+002  0.1737189E+03  0.7546771E-02  0.1174024E+00
         21   -1    0    0  504  501  0.00000000000E+00  0.00000000000E+00  0.64147599397E+03  0.64147599397E+03  0.00000000000E+00 0. -1.
         21   -1    0    0  506  502 -0.00000000000E+00 -0.00000000000E+00 -0.20500570330E+03  0.20500570330E+03  0.00000000000E+00 0. -1.
         21    1    1    2  503  505 -0.18202086117E+02  0.39588830841E+02  0.61266264398E+02  0.75180759637E+02  0.00000000000E+00 0. -1.
         21    1    1    2  504  503  0.57709867374E+01 -0.29824763278E+02  0.41868720598E+03  0.41978780025E+03  0.00000000000E+00 0. -1.
         21    1    1    2  505  502  0.17943872201E+03 -0.72255965080E+01 -0.42225043010E+02  0.18448148541E+03  0.00000000000E+00 0. -1.
         21    1    1    2  506  501 -0.16700762263E+03 -0.25384710554E+01 -0.12581366987E+01  0.16703165197E+03  0.00000000000E+00 0. -1.
<scales pt_clust_3="34.58520" pt_clust_4="30.37797" pt_clust_5="14000.00000" pt_clust_6="173.71895"></scales>
<clustering>
<clus scale="   30.378">  1  4  2 -1</clus>
<clus scale="   34.585">  1  3  2 -1</clus>
<clus scale="  173.719">  1  6  2 -1</clus>
<clus scale="   30.378">  1  3  2 -1</clus>
</clustering>
</event>
<event>
 6    0  0.8991567E+002  0.7185666E+02  0.7546771E-02  0.1353891E+00
         21   -1    0    0  505  501  0.00000000000E+00  0.00000000000E+00  0.23256966095E+03  0.23256966095E+03  0.00000000000E+00 0. -1.
         21   -1    0    0  504  502 -0.00000000000E+00 -0.00000000000E+00 -0.16617185887E+03  0.16617185887E+03  0.00000000000E+00 0. -1.
         21    1    1    2  503  501 -0.30722636681E+02 -0.80153975665E+01  0.10287231508E+03  0.10766076450E+03  0.00000000000E+00 0. -1.
         21    1    1    2  504  503  0.10852476186E+03 -0.11111369131E+02 -0.94290198675E+01  0.10949882591E+03  0.00000000000E+00 0. -1.
         21    1    1    2  505  506 -0.17517920345E+02  0.45400917338E+02  0.56947764972E+02  0.74907735006E+02  0.00000000000E+00 0. -1.
         21    1    1    2  506  502 -0.60284204829E+02 -0.26274150641E+02 -0.83993258106E+02  0.10667419440E+03  0.00000000000E+00 0. -1.
<scales pt_clust_3="31.75102" pt_clust_4="71.85666" pt_clust_5="53.09447" pt_clust_6="14000.00000"></scales>
<clustering>
<clus scale="   31.751">  1  3  2 -1</clus>
<clus scale="   53.094">  1  5  2 -1</clus>
<clus scale="   71.857">  1  4  2 -1</clus>
<clus scale="   31.751">  1  3  2 -1</clus>
</clustering>
</event>
<event>
 6    0  0.8991567E+002  0.1834593E+03  0.7546771E-02  0.1164496E+00
         21   -1    0    0  506  501  0.00000000000E+00  0.00000000000E+00  0.21727363899E+03  0.21727363899E+03  0.00000000000E+00 0. -1.
         21   -1    0    0  505  502 -0.00000000000E+00 -0.00000000000E+00 -0.27513834116E+03  0.27513834116E+03  0.00000000000E+00 0.  1.
         21    1    1    2  503  501 -0.53129894051E+02  0.37701063652E+01  0.82588772003E+02  0.98274638665E+02  0.00000000000E+00 0. -1.
         21    1    1    2  504  503 -0.26078712126E+02 -0.12374478386E+03 -0.46467613129E+02  0.13472976593E+03  0.00000000000E+00 0.  1.
         21    1    1    2  505  504  0.33941140398E+01 -0.41996324197E+02 -0.66134529368E+02  0.78415478261E+02  0.00000000000E+00 0.  1.
         21    1    1    2  506  502  0.75814492138E+02  0.16197100169E+03 -0.27851331675E+02  0.18099209729E+03  0.00000000000E+00 0. -1.
<scales pt_clust_3="53.26349" pt_clust_4="39.85209" pt_clust_5="39.85209" pt_clust_6="169.97170"></scales>
<clustering>
<clus scale="   39.852">  4  5 -1 -1</clus>
<clus scale="   53.263">  1  3  2 -1</clus>
<clus scale="  169.972">  1  6  2 -1</clus>
<clus scale="   53.263">  1  3  2 -1</clus>
</clustering>
</event>
<event>
 6    0  0.8991567E+002  0.1174212E+03  0.7546771E-02  0.1247413E+00
         21   -1    0    0  506  501  0.00000000000E+00  0.00000000000E+00  0.47448428589E+02  0.47448428589E+02  0.00000000000E+00 0.  1.
         21   -1    0    0  504  502 -0.00000000000E+00 -0.00000000000E+00 -0.93632475751E+03  0.93632475751E+03  0.00000000000E+00 0.  1.
         21    1    1    2  503  501 -0.47587674533E+02 -0.86051030235E+02 -0.21345832513E+03  0.23501877188E+03  0.00000000000E+00 0.  1.
         21    1    1    2  504  503 -0.64864122911E+02 -0.14507269441E+02 -0.47191434403E+03  0.47657209676E+03  0.00000000000E+00 0. -1.
         21    1    1    2  505  502 -0.75057488743E+01  0.33633257895E+02 -0.81400871657E+02  0.88394763472E+02  0.00000000000E+00 0.  1.
         21    1    1    2  506  505  0.11995754632E+03  0.66925041782E+02 -0.12210278811E+03  0.18378755399E+03  0.00000000000E+00 0.  1.
<scales pt_clust_3="117.42116" pt_clust_4="69.17404" pt_clust_5="34.46059" pt_clust_6="14000.00000"></scales>
<clustering>
<clus scale="   34.461">  2  5  1 -1</clus>
<clus scale="   69.174">  2  4  1 -1</clus>
<clus scale="  117.421">  2  3  1 -1</clus>
<clus scale="  117.421">  1  3  2 -1</clus>
</clustering>
</event>
<event>
 6    0  0.8991567E+002  0.7307326E+02  0.7546771E-02  0.1349943E+00
         21   -1    0    0  506  501  0.00000000000E+00  0.00000000000E+00  0.99414453859E+02  0.99414453859E+02  0.00000000000E+00 0. -1.
         21   -1    0    0  505  502 -0.00000000000E+00 -0.00000000000E+00 -0.34766622706E+03  0.34766622706E+03  0.00000000000E+00 0. -1.
         21    1    1    2  503  504  0.36542136428E+02 -0.86872112819E+02 -0.14356793224E+03  0.17173771539E+03  0.00000000000E+00 0. -1.
         21    1    1    2  504  502 -0.71284043877E+02  0.17926434647E+02 -0.14160675125E+03  0.15954699612E+03  0.00000000000E+00 0. -1.
         21    1    1    2  505  501  0.48141727188E+02  0.23034906543E+02 -0.30625640297E+01  0.53456637703E+02  0.00000000000E+00 0. -1.
         21    1    1    2  506  503 -0.13399819739E+02  0.45910771629E+02  0.39985474322E+02  0.62339331704E+02  0.00000000000E+00 0. -1.
<scales pt_clust_3="73.07326" pt_clust_4="14000.00000" pt_clust_5="62.47190" pt_clust_6="47.82629"></scales>
<clustering>
<clus scale="   47.826">  1  6  2 -1</clus>
<clus scale="   62.472">  1  5  2 -1</clus>
<clus scale="   73.073">  1  3  2 -1</clus>
<clus scale="   47.826">  1  3  2 -1</clus>
</clustering>
</event>
<event>
 6    0  0.8991567E+002  0.7670528E+02  0.7546771E-02  0.1338670E+00
         21   -1    0    0  503  501  0.00000000000E+00  0.00000000000E+00  0.50244172269E+03  0.50244172269E+03  0.00000000000E+00 0.  1.
         21   -1    0    0  505  502 -0.00000000000E+00 -0.00000000000E+00 -0.11945989382E+03  0.11945989382E+03  0.00000000000E+00 0.  1.
         21    1    1    2  503  506 -0.51815440844E+02  0.19930251377E+02  0.38107180327E+03  0.38509450019E+03  0.00000000000E+00 0.  1.
         21    1    1    2  504  501 -0.11154951046E+02  0.31708525407E+02  0.29974214392E+02  0.45036840972E+02  0.00000000000E+00 0.  1.
         21    1    1    2  505  504  0.42930736047E+02  0.50222642362E+02  0.30286231657E+02  0.72681618937E+02  0.00000000000E+00 0.  1.
         21    1    1    2  506  502  0.20039655843E+02 -0.10186141915E+03 -0.58350420456E+02  0.11908865640E+03  0.00000000000E+00 0.  1.
<scales pt_clust_3="14000.00000" pt_clust_4="33.61344" pt_clust_5="68.01353" pt_clust_6="76.70528"></scales>
<clustering>
<clus scale="   33.613">  1  4  2 -1</clus>
<clus scale="   68.014">  2  5  1 -1</clus>
<clus scale="   76.705">  2  6  1 -1</clus>
<clus scale="   33.613">  1  3  2 -1</clus>
</clustering>
</event>
<event>
 6    0  0.8991567E+002  0.1041057E+03  0.7546771E-02  0.1271892E+00
         21   -1    0    0  504  501  0.00000000000E+00  0.00000000000E+00  0.89455868788E+03  0.89455868788E+03  0.00000000000E+00 0. -1.
         21   -1    0    0  503  502 -0.00000000000E+00 -0.00000000000E+00 -0.78369585724E+03  0.78369585724E+03  0.00000000000E+00 0.  1.
         21    1    1    2  503  501 -0.27540585089E+02  0.19436436237E+02 -0.14762454221E+03  0.15142412074E+03  0.00000000000E+00 0.  1.
         21    1    1    2  504  506 -0.27262314809E+02  0.59551789597E+02  0.65420193886E+03  0.65747230076E+03  0.00000000000E+00 0. -1.
         21    1    1    2  505  502  0.42557595088E+02 -0.11299855073E+03 -0.62534715279E+03  0.63689785906E+03  0.00000000000E+00 0.  1.
         21    1    1    2  506  505  0.12245304810E+02  0.34010324901E+02  0.22963258678E+03  0.23246026457E+03  0.00000000000E+00 0. -1.
<scales pt_clust_3="33.70844" pt_clust_4="31.84222" pt_clust_5="94.87291" pt_clust_6="31.84222"></scales>
<clustering>
<clus scale="   31.842">  4  6 -1 -1</clus>
<clus scale="   33.708">  2  3  1 -1</clus>
<clus scale="   94.873">  2  5  1 -1</clus>
<clus scale="  104.106">  1  3  2 -1</clus>
</clustering>
</event>
<event>
 6    0  0.8991567E+002  0.1934212E+03  0.7546771E-02  0.1155411E+00
         21   -1    0    0  504  501  0.00000000000E+00  0.00000000000E+00  0.18087752189E+03  0.18087752189E+03  0.00000000000E+00 0. -1.
         21   -1    0    0  503  502 -0.00000000000E+00 -0.00000000000E+00 -0.93931758839E+03  0.93931758839E+03  0.00000000000E+00 0. -1.
         21    1    1    2  503  506  0.71409690121E+02  0.24075194473E+02 -0.40083282267E+03  0.40785525687E+03  0.00000000000E+00 0. -1.
         21    1    1    2  504  502 -0.51186010896E+02 -0.17146949174E+03  0.80322422289E+02  0.19614659271E+03  0.00000000000E+00 0. -1.
         21    1    1    2  505  501  0.49738782272E+02 -0.31969129378E+02 -0.32730034846E+02  0.67581261280E+02  0.00000000000E+00 0.  1.
         21    1    1    2  506  505 -0.69962461497E+02  0.17936342664E+03 -0.40519963127E+03  0.44861199941E+03  0.00000000000E+00 0. -1.
<scales pt_clust_3="76.15841" pt_clust_4="193.42116" pt_clust_5="59.12674" pt_clust_6="14000.00000"></scales>
<clustering>
<clus scale="   59.127">  1  5  2 -1</clus>
<clus scale="   76.158">  2  3  1 -1</clus>
<clus scale="  193.421">  1  4  2 -1</clus>
<clus scale="   59.127">  1  3  2 -1</clus>
</clustering>
</event>
<event>
 6    0  0.8991567E+002  0.1122938E+03  0.7546771E-02  0.1256380E+00
         21   -1    0    0  506  501  0.00000000000E+00  0.00000000000E+00  0.33780089786E+03  0.33780089786E+03  0.00000000000E+00 0. -1.
         21   -1    0    0  504  502 -0.00000000000E+00 -0.00000000000E+00 -0.31019355529E+03  0.31019355529E+03  0.00000000000E+00 0. -1.
         21    1    1    2  503  505  0.73388112359E+02 -0.10702514813E+03 -0.13825503179E+02  0.13050418348E+03  0.00000000000E+00 0. -1.
         21    1    1    2  504  501 -0.75505981218E+02  0.10136910682E+03 -0.11514409218E+03  0.17098248735E+03  0.00000000000E+00 0. -1.
         21    1    1    2  505  502  0.34436852617E+02 -0.19870288280E+02 -0.89012993806E+02  0.97488656985E+02  0.00000000000E+00 0. -1.
         21    1    1    2  506  503 -0.32318983758E+02  0.25526329594E+02  0.24558993174E+03  0.24901912534E+03  0.00000000000E+00 0. -1.
<scales pt_clust_3="112.29382" pt_clust_4="14000.00000" pt_clust_5="39.75833" pt_clust_6="40.87296"></scales>
<clustering>
<clus scale="   39.758">  2  5  1 -1</clus>
<clus scale="   40.873">  1  6  2 -1</clus>
<clus scale="  112.294">  1  3  2 -1</clus>
<clus scale="   40.873">  1  3  2 -1</clus>
</clustering>
</event>
<event>
 6    0  0.8991567E+002  0.1224394E+03  0.7546771E-02  0.1239126E+00
         21   -1    0    0  505  501  0.00000000000E+00  0.00000000000E+00  0.93883565346E+03  0.93883565346E+03  0.00000000000E+00 0.  1.
         21   -1    0    0  503  502 -0.00000000000E+00 -0.00000000000E+00 -0.11184200809E+03  0.11184200809E+03  0.00000000000E+00 0.  1.
         21    1    1    2  503  504  0.45149097045E+02  0.12083852972E+02  0.20413147262E+02  0.51001539661E+02  0.00000000000E+00 0.  1.
         21    1    1    2  504  501 -0.78613234121E+02 -0.11023589750E+03  0.22724149013E+03  0.26451973180E+03  0.00000000000E+00 0.  1.
         21    1    1    2  505  506  0.41717583734E+02 -0.11216292164E+02  0.61751412696E+03  0.61902331055E+03  0.00000000000E+00 0.  1.
         21    1    1    2  506  502 -0.82534466581E+01  0.10936833669E+03 -0.38175118987E+02  0.11613307953E+03  0.00000000000E+00 0.  1.
<scales pt_clust_3="50.96098" pt_clust_4="14000.00000" pt_clust_5="43.19910" pt_clust_6="122.43939"></scales>
<clustering>
<clus scale="   43.199">  1  5  2 -1</clus>
<clus scale="   50.961">  2  3  1 -1</clus>
<clus scale="  122.439">  2  6  1 -1</clus>
<clus scale="   43.199">  1  3  2 -1</clus>
</clustering>
</event>
<event>
 6    0  0.8991567E+002  0.1553710E+03  0.7546771E-02  0.1194024E+00
         21   -1    0    0  506  501  0.00000000000E+00  0.00000000000E+00  0.45656469346E+03  0.45656469346E+03  0.00000000000E+00 0. -1.
         21   -1    0    0  501  502 -0.00000000000E+00 -0.00000000000E+00 -0.83551133945E+03  0.83551133945E+03  0.00000000000E+00 0. -1.
         21    1    1    2  503  504 -0.13467887621E+03 -0.18614228255E+02 -0.25297858381E+03  0.28719862997E+03  0.00000000000E+00 0. -1.
         21    1    1    2  504  505  0.22999483128E+02  0.56739910932E+02 -0.26764472643E+02  0.66818640458E+02  0.00000000000E+00 0. -1.
         21    1    1    2  505  502 -0.23649030204E+02  0.43517718698E+02 -0.50248130387E+03  0.50491635863E+03  0.00000000000E+00 0. -1.
         21    1    1    2  506  503  0.13532842329E+03 -0.81643401375E+02  0.40327771434E+03  0.43314240385E+03  0.00000000000E+00 0. -1.
<scales pt_clust_3="155.37097" pt_clust_4="65.87999" pt_clust_5="49.52846" pt_clust_6="14000.00000"></scales>
<clustering>
<clus scale="   49.528">  2  5  1 -1</clus>
<clus scale="   65.880">  2  4  1 -1</clus>
<clus scale="  155.371">  2  3  1 -1</clus>
<clus scale="  155.371">  1  3  2 -1</clus>
</clustering>
</event>
<event>
 6    0  0.8991567E+002  0.8863072E+02  0.7546771E-02  0.1306202E+00
         21   -1    0    0  502  501  0.00000000000E+00  0.00000000000E+00  0.24107087137E+04  0.24107087137E+04  0.00000000000E+00 0. -1.
         21   -1    0    0  505  502 -0.00000000000E+00 -0.00000000000E+00 -0.14723993231E+03  0.14723993231E+03  0.00000000000E+00 0.  1.
         21    1    1    2  503  501 -0.56030248631E+02 -0.10602535554E+02  0.18318198067E+04  0.18327071798E+04  0.00000000000E+00 0. -1.
         21    1    1    2  504  503  0.14037613150E+03  0.27012886278E+02  0.46621353747E+03  0.48763738253E+03  0.00000000000E+00 0.  1.
         21    1    1    2  505  506 -0.20117807986E+02 -0.28145651734E+02 -0.12294619941E+03  0.12772107053E+03  0.00000000000E+00 0.  1.
         21    1    1    2  506  504 -0.64228074880E+02  0.11735301010E+02  0.88381636584E+02  0.10988301315E+03  0.00000000000E+00 0.  1.
<scales pt_clust_3="57.53297" pt_clust_4="14000.00000" pt_clust_5="34.59630" pt_clust_6="88.63072"></scales>
<clustering>
<clus scale="   34.596">  2  5  1 -1</clus>
<clus scale="   57.533">  1  3  2 -1</clus>
<clus scale="   88.631">  2  6  1 -1</clus>
<clus scale="   57.533">  1  3  2 -1</clus>
</clustering>
</event>
<event>
 6    0  0.8991567E+002  0.7951020E+02  0.7546771E-02  0.1330447E+00
         21   -1    0    0  504  501  0.00000000000E+00  0.00000000000E+00  0.32697465098E+04  0.32697465098E+04  0.00000000000E+00 0. -1.
         21   -1    0    0  503  502 -0.00000000000E+00 -0.00000000000E+00 -0.12892204450E+03  0.12892204450E+03  0.00000000000E+00 0. -1.
         21    1    1    2  503  501 -0.44717384423E+02 -0.46818721995E+01 -0.14828402933E+02  0.47343911229E+02  0.00000000000E+00 0. -1.
         21    1    1    2  504  506 -0.74325871774E+02 -0.21050400758E+02  0.28771228295E+04  0.28781596951E+04  0.00000000000E+00 0. -1.
         21    1    1    2  505  502 -0.14885866576E+02 -0.50056532768E+02 -0.72809743559E+02  0.89601921037E+02  0.00000000000E+00 0. -1.
         21    1    1    2  506  505  0.13392912277E+03  0.75788805725E+02  0.35133978233E+03  0.38356302695E+03  0.00000000000E+00 0. -1.
<scales pt_clust_3="44.96181" pt_clust_4="79.51020" pt_clust_5="74.92686" pt_clust_6="14000.00000"></scales>
<clustering>
<clus scale="   44.962">  2  3  1 -1</clus>
<clus scale="   74.927">  2  5  1 -1</clus>
<clus scale="   79.510">  1  4  2 -1</clus>
<clus scale="   79.510">  1  3  2 -1</clus>
</clustering>
</event>
<event>
 6    0  0.8991567E+002  0.8646231E+02  0.7546771E-02  0.1311652E+00
         21   -1    0    0  505  501  0.00000000000E+00  0.00000000000E+00  0.18505726375E+04  0.18505726375E+04  0.00000000000E+00 0.  1.
         21   -1    0    0  506  502 -0.00000000000E+00 -0.00000000000E+00 -0.23163000385E+02  0.23163000385E+02  0.00000000000E+00 0.  1.
         21    1    1    2  503  502 -0.41874326396E+02  0.96822445677E+01  0.10327261063E+03  0.11185900579E+03  0.00000000000E+00 0.  1.
         21    1    1    2  504  503 -0.48770894634E+02 -0.21389552059E+02  0.49830871076E+02  0.72933043354E+02  0.00000000000E+00 0.  1.
         21    1    1    2  505  504 -0.23073232051E+02 -0.44235058151E+02  0.10858248574E+04  0.10869704390E+04  0.00000000000E+00 0.  1.
         21    1    1    2  506  501  0.11371845308E+03  0.55942365643E+02  0.58848129802E+03  0.60197314970E+03  0.00000000000E+00 0.  1.
<scales pt_clust_3="42.97912" pt_clust_4="14000.00000" pt_clust_5="50.23416" pt_clust_6="86.46231"></scales>
<clustering>
<clus scale="   42.979">  2  3  1 -1</clus>
<clus scale="   50.234">  1  5  2 -1</clus>
<clus scale="   86.462">  1  6  2 -1</clus>
<clus scale="   50.234">  1  3  2 -1</clus>
</clustering>
</event>
<event>
 6    0  0.8991567E+002  0.6660031E+02  0.7546771E-02  0.1372051E+00
         21   -1    0    0  504  501  0.00000000000E+00  0.00000000000E+00  0.51420702953E+03  0.51420702953E+03  0.00000000000E+00 0.  1.
         21   -1    0    0  506  502 -0.00000000000E+00 -0.00000000000E+00 -0.24692976519E+03  0.24692976519E+03  0.00000000000E+00 0. -1.
         21    1    1    2  503  502  0.69528871204E+02  0.22557693549E+01 -0.21273915472E+03  0.22382426226E+03  0.00000000000E+00 0. -1.
         21    1    1    2  504  503  0.47067866241E+02 -0.18075345020E+02  0.78718650496E+02  0.93481164231E+02  0.00000000000E+00 0.  1.
         21    1    1    2  505  501 -0.71653536068E+02  0.39569427927E+02  0.38000283429E+03  0.38871856520E+03  0.00000000000E+00 0.  1.
         21    1    1    2  506  505 -0.44943201377E+02 -0.23749852262E+02  0.21294934275E+02  0.55112803034E+02  0.00000000000E+00 0.  1.
<scales pt_clust_3="14000.00000" pt_clust_4="50.41926" pt_clust_5="37.53523" pt_clust_6="66.60031"></scales>
<clustering>
<clus scale="   50.419">  1  4  2 -1</clus>
<clus scale="   37.535">  1  5  2 -1</clus>
<clus scale="   66.600">  1  6  2 -1</clus>
<clus scale="   50.419">  1  3  2 -1</clus>
</clustering>
</event>
<event>
 6    0  0.8991567E+002  0.1802437E+03  0.7546771E-02  0.1167567E+00
         21   -1    0    0  505  501  0.00000000000E+00  0.00000000000E+00  0.91819027731E+03  0.91819027731E+03  0.00000000000E+00 0.  1.
         21   -1    0    0  503  502 -0.00000000000E+00 -0.00000000000E+00 -0.63250672079E+03  0.63250672079E+03  0.00000000000E+00 0.  1.
         21    1    1    2  503  501 -0.44357468139E+01  0.11437574555E+03  0.81145096830E+03  0.81948408220E+03  0.00000000000E+00 0.  1.
         21    1    1    2  504  506  0.48989566730E+02 -0.57450420241E+02 -0.30307481637E+03  0.31233775429E+03  0.00000000000E+00 0.  1.
         21    1    1    2  505  504 -0.22886484034E+02  0.44282672661E+02  0.82621926777E+02  0.96494191710E+02  0.00000000000E+00 0. -1.
         21    1    1    2  506  502 -0.21667335882E+02 -0.10120799797E+03 -0.30531452218E+03  0.32238096990E+03  0.00000000000E+00 0.  1.
<scales pt_clust_3="160.23893" pt_clust_4="70.49702" pt_clust_5="49.84723" pt_clust_6="70.49702"></scales>
<clustering>
<clus scale="   49.847">  1  5  2 -1</clus>
<clus scale="   70.497">  4  6 -1 -1</clus>
<clus scale="  160.239">  1  3  2 -1</clus>
<clus scale="   49.847">  1  3  2 -1</clus>
</clustering>
</event>
<event>
 6    0  0.8991567E+002  0.5898360E+02  0.7546771E-02  0.1402147E+00
         21   -1    0    0  504  501  0.00000000000E+00  0.00000000000E+00  0.16872809468E+04  0.16872809468E+04  0.00000000000E+00 0.  1.
         21   -1    0    0  505  502 -0.00000000000E+00 -0.00000000000E+00 -0.32596883947E+02  0.32596883947E+02  0.00000000000E+00 0. -1.
         21    1    1    2  503  502 -0.89873126826E+02 -0.10663599229E+02  0.15480012636E+03  0.17931528210E+03  0.00000000000E+00 0. -1.
         21    1    1    2  504  503 -0.29474312892E+02 -0.21300386885E+02  0.19621896313E+03  0.19956032445E+03  0.00000000000E+00 0. -1.
         21    1    1    2  505  506  0.40794572171E+02  0.98676356561E+01  0.79464019921E+01  0.42716655495E+02  0.00000000000E+00 0. -1.
         21    1    1    2  506  501  0.78552867548E+02  0.22096350458E+02  0.12957185713E+04  0.12982855687E+04  0.00000000000E+00 0.  1.
<scales pt_clust_3="14000.00000" pt_clust_4="36.36539" pt_clust_5="41.39927" pt_clust_6="58.98360"></scales>
<clustering>
<clus scale="   36.365">  1  4  2 -1</clus>
<clus scale="   41.399">  2  5  1 -1</clus>
<clus scale="   58.984">  1  6  2 -1</clus>
<clus scale="   36.365">  1  3  2 -1</clus>
</clustering>
</event>
<event>
 6    0  0.8991567E+002  0.6672819E+02  0.7546771E-02  0.1371586E+00
         21   -1    0    0  504  501  0.00000000000E+00  0.00000000000E+00  0.62279358737E+03  0.62279358737E+03  0.00000000000E+00 0.  1.
         21   -1    0    0  505  502 -0.00000000000E+00 -0.00000000000E+00 -0.66657514944E+03  0.66657514944E+03  0.00000000000E+00 0. -1.
         21    1    1    2  503  501  0.18938129489E+02  0.41291445899E+02 -0.11456612042E+03  0.12324379173E+03  0.00000000000E+00 0. -1.
         21    1    1    2  504  506  0.56445188635E+02 -0.86997455573E+00  0.42218555664E+03  0.42594302484E+03  0.00000000000E+00 0.  1.
         21    1    1    2  505  503  0.35048948960E+02  0.18904809081E+00 -0.52735126835E+03  0.52851473469E+03  0.00000000000E+00 0. -1.
         21    1    1    2  506  502 -0.11043226708E+03 -0.40610519434E+02  0.17595027006E+03  0.21166718554E+03  0.00000000000E+00 0.  1.
<scales pt_clust_3="66.72819" pt_clust_4="56.92674" pt_clust_5="35.04946" pt_clust_6="14000.00000"></scales>
<clustering>
<clus scale="   35.049">  2  5  1 -1</clus>
<clus scale="   56.927">  1  4  2 -1</clus>
<clus scale="   66.728">  2  3  1 -1</clus>
<clus scale="   56.927">  1  3  2 -1</clus>
</clustering>
</event>
<event>
 6    0  0.8991567E+002  0.1809644E+03  0.7546771E-02  0.1166873E+00
         21   -1    0    0  504  501  0.00000000000E+00  0.00000000000E+00  0.28537993334E+03  0.28537993334E+03  0.00000000000E+00 0.  1.
         21   -1    0    0  505  502 -0.00000000000E+00 -0.00000000000E+00 -0.60897493211E+03  0.60897493211E+03  0.00000000000E+00 0.  1.
         21    1    1    2  503  501 -0.35565309614E+02  0.32022734971E+02  0.21474943815E+03  0.22001742656E+03  0.00000000000E+00 0.  1.
         21    1    1    2  504  506 -0.45297886587E+02 -0.17647188158E+03 -0.24987676435E+03  0.30924524391E+03  0.00000000000E+00 0.  1.
         21    1    1    2  505  503  0.51464536545E+02  0.17129327292E+03 -0.20139987792E+03  0.26935458915E+03  0.00000000000E+00 0.  1.
         21    1    1    2  506  502  0.29398659656E+02 -0.26844126311E+02 -0.87067794641E+02  0.95737605833E+02  0.00000000000E+00 0.  1.
<scales pt_clust_3="47.65497" pt_clust_4="180.96444" pt_clust_5="14000.00000" pt_clust_6="39.81066"></scales>
<clustering>
<clus scale="   39.811">  2  6  1 -1</clus>
<clus scale="   47.655">  1  3  2 -1</clus>
<clus scale="  180.964">  1  4  2 -1</clus>
<clus scale="   47.655">  1  3  2 -1</clus>
</clustering>
</event>
<event>
 6    0  0.8991567E+002  0.7885669E+02  0.7546771E-02  0.1332328E+00
         21   -1    0    0  504  501  0.00000000000E+00  0.00000000000E+00  0.10184741248E+03  0.10184741248E+03  0.00000000000E+00 0. -1.
         21   -1    0    0  506  502 -0.00000000000E+00 -0.00000000000E+00 -0.36740080183E+03  0.36740080183E+03  0.00000000000E+00 0. -1.
         21    1    1    2  503  501 -0.13141593488E+02  0.42870648416E+02  0.42047477598E+02  0.61470190721E+02  0.00000000000E+00 0. -1.
         21    1    1    2  504  502  0.77407003676E+02 -0.35432469881E+02 -0.83404891508E+02  0.11917919310E+03  0.00000000000E+00 0. -1.
         21    1    1    2  505  503 -0.45046997852E+02  0.51957699586E+02 -0.15130006936E+02  0.70411303578E+02  0.00000000000E+00 0. -1.
         21    1    1    2  506  505 -0.19218412337E+02 -0.59395878121E+02 -0.20906596851E+03  0.21818752691E+03  0.00000000000E+00 0. -1.
<scales pt_clust_3="44.83965" pt_clust_4="14000.00000" pt_clust_5="78.85669" pt_clust_6="59.12842"></scales>
<clustering>
<clus scale="   44.840">  1  3  2 -1</clus>
<clus scale="   59.128">  2  6  1 -1</clus>
<clus scale="   78.857">  1  5  2 -1</clus>
<clus scale="   44.840">  1  3  2 -1</clus>
</clustering>
</event>
<event>
 6    0  0.8991567E+002  0.8109479E+02  0.7546771E-02  0.1325973E+00
         21   -1    0    0  504  501  0.00000000000E+00  0.00000000000E+00  0.18947235458E+03  0.18947235458E+03  0.00000000000E+00 0. -1.
         21   -1    0    0  506  502 -0.00000000000E+00 -0.00000000000E+00 -0.36515036959E+03  0.36515036959E+03  0.00000000000E+00 0. -1.
         21    1    1    2  503  505 -0.83710227201E+02  0.31548085304E+02  0.11987851340E+02  0.90257367590E+02  0.00000000000E+00 0. -1.
         21    1    1    2  504  503  0.76459735606E+02  0.39845572437E+02  0.11552590514E+03  0.14415268145E+03  0.00000000000E+00 0. -1.
         21    1    1    2  505  502 -0.27027606079E+02 -0.17377365911E+02 -0.53073707053E+02  0.62042587927E+02  0.00000000000E+00 0. -1.
         21    1    1    2  506  501  0.34278097675E+02 -0.54016291830E+02 -0.25011806444E+03  0.25817008720E+03  0.00000000000E+00 0. -1.
<scales pt_clust_3="81.09479" pt_clust_4="14000.00000" pt_clust_5="32.13198" pt_clust_6="69.41000"></scales>
<clustering>
<clus scale="   32.132">  2  5  1 -1</clus>
<clus scale="   69.410">  2  6  1 -1</clus>
<clus scale="   81.095">  2  3  1 -1</clus>
<clus scale="   81.095">  1  3  2 -1</clus>
</clustering>
</event>
<event>
 6    0  0.8991567E+002  0.8853984E+02  0.7546771E-02  0.1306427E+00
         21   -1    0    0  503  501  0.00000000000E+00  0.00000000000E+00  0.74039966803E+03  0.74039966803E+03  0.00000000000E+00 0.  1.
         21   -1    0    0  505  502 -0.00000000000E+00 -0.00000000000E+00 -0.62694210986E+03  0.62694210986E+03  0.00000000000E+00 0. -1.
         21    1    1    2  503  506  0.91955169770E+02  0.28163054621E+02  0.11531267498E+02  0.96860110588E+02  0.00000000000E+00 0.  1.
         21    1    1    2  504  501 -0.53163851983E+01 -0.49334643048E+02  0.66454270288E+03  0.66639265820E+03  0.00000000000E+00 0.  1.
         21    1    1    2  505  504 -0.82469385433E+02  0.53963988863E+02 -0.10039020009E+03  0.14068227998E+03  0.00000000000E+00 0. -1.
         21    1    1    2  506  502 -0.41693991386E+01 -0.32792400437E+02 -0.46222621213E+03  0.46340672912E+03  0.00000000000E+00 0. -1.
<scales pt_clust_3="88.53984" pt_clust_4="49.80653" pt_clust_5="14000.00000" pt_clust_6="33.05640"></scales>
<clustering>
<clus scale="   33.056">  2  6  1 -1</clus>
<clus scale="   49.807">  1  4  2 -1</clus>
<clus scale="   88.540">  1  3  2 -1</clus>
<clus scale="   49.807">  1  3  2 -1</clus>
</clustering>
</event>
<event>
 6    0  0.8991567E+002  0.7659181E+02  0.7546771E-02  0.1339011E+00
         21   -1    0    0  504  501  0.00000000000E+00  0.00000000000E+00  0.10002053695E+03  0.10002053695E+03  0.00000000000E+00 0. -1.
         21   -1    0    0  505  502 -0.00000000000E+00 -0.00000000000E+00 -0.85399867016E+03  0.85399867016E+03  0.00000000000E+00 0. -1.
         21    1    1    2  503  506 -0.65334856441E+01  0.51460018490E+02  0.34528868359E+00  0.51874263001E+02  0.00000000000E+00 0. -1.
         21    1    1    2  504  502  0.48043761623E+01 -0.11279258561E+03 -0.88835283085E+02  0.14365568878E+03  0.00000000000E+00 0.  1.
         21    1    1    2  505  503  0.45183070122E+02  0.40849419440E+02 -0.69789038892E+03  0.70054348890E+03  0.00000000000E+00 0. -1.
         21    1    1    2  506  501 -0.43453960640E+02  0.20483147682E+02  0.32402250106E+02  0.57945766422E+02  0.00000000000E+00 0. -1.
<scales pt_clust_3="14000.00000" pt_clust_4="76.59181" pt_clust_5="60.47342" pt_clust_6="48.03963"></scales>
<clustering>
<clus scale="   48.040">  1  6  2 -1</clus>
<clus scale="   60.473">  2  5  1 -1</clus>
<clus scale="   76.592">  2  4  1 -1</clus>
<clus scale="   48.040">  1  3  2 -1</clus>
</clustering>
</event>
<event>
 6    0  0.8991567E+002  0.1258726E+03  0.7546771E-02  0.1233712E+00
         21   -1    0    0  506  501  0.00000000000E+00  0.00000000000E+00  0.13396963458E+04  0.13396963458E+04  0.00000000000E+00 0. -1.
         21   -1    0    0  503  502 -0.00000000000E+00 -0.00000000000E+00 -0.40433700651E+03  0.40433700651E+03  0.00000000000E+00 0.  1.
         21    1    1    2  503  504 -0.58423689103E+02 -0.92808177604E+02 -0.29120131539E+03  0.31116698309E+03  0.00000000000E+00 0.  1.
         21    1    1    2  504  505 -0.10042693822E+03 -0.67408951630E+01  0.35890243973E+03  0.37274920635E+03  0.00000000000E+00 0. -1.
         21    1    1    2  505  501  0.14152002169E+03  0.44679172396E+02  0.94897025536E+03  0.96050439381E+03  0.00000000000E+00 0. -1.
         21    1    1    2  506  502  0.17330605629E+02  0.54869900372E+02 -0.81312040365E+02  0.99612769094E+02  0.00000000000E+00 0.  1.
<scales pt_clust_3="57.95934" pt_clust_4="125.87261" pt_clust_5="14000.00000" pt_clust_6="57.54177"></scales>
<clustering>
<clus scale="   57.542">  2  6  1 -1</clus>
<clus scale="   57.959">  2  3  1 -1</clus>
<clus scale="  125.873">  2  4  1 -1</clus>
<clus scale="  125.873">  1  3  2 -1</clus>
</clustering>
</event>
<event>
 6    0  0.8991567E+002  0.7651791E+02  0.7546771E-02  0.1339234E+00
         21   -1    0    0  506  501  0.00000000000E+00  0.00000000000E+00  0.87448760725E+03  0.87448760725E+03  0.00000000000E+00 0. -1.
         21   -1    0    0  501  502 -0.00000000000E+00 -0.00000000000E+00 -0.15540681408E+03  0.15540681408E+03  0.00000000000E+00 0. -1.
         21    1    1    2  503  502  0.32821642953E+02  0.10972819407E+01 -0.11343080214E+03  0.11808899672E+03  0.00000000000E+00 0. -1.
         21    1    1    2  504  503 -0.24314887134E+02  0.67559782538E+02  0.28229586833E+02  0.77152106425E+02  0.00000000000E+00 0. -1.
         21    1    1    2  505  504 -0.79456328769E+02 -0.32922973184E+02  0.13106186706E+03  0.15676237860E+03  0.00000000000E+00 0. -1.
         21    1    1    2  506  505  0.70949572950E+02 -0.35734091295E+02  0.67322014141E+03  0.67789093959E+03  0.00000000000E+00 0. -1.
<scales pt_clust_3="32.83998" pt_clust_4="68.35773" pt_clust_5="14000.00000" pt_clust_6="76.51791"></scales>
<clustering>
<clus scale="   32.840">  2  3  1 -1</clus>
<clus scale="   68.358">  2  4  1 -1</clus>
<clus scale="   76.518">  1  6  2 -1</clus>
<clus scale="   76.518">  1  3  2 -1</clus>
</clustering>
</event>
<event>
 6    0  0.8991567E+002  0.8638528E+02  0.7546771E-02  0.1311849E+00
         21   -1    0    0  504  501  0.00000000000E+00  0.00000000000E+00  0.68418797414E+03  0.68418797414E+03  0.00000000000E+00 0. -1.
         21   -1    0    0  503  502 -0.00000000000E+00 -0.00000000000E+00 -0.48272687252E+02  0.48272687252E+02  0.00000000000E+00 0. -1.
         21    1    1    2  503  506 -0.63975029891E+02  0.63452354256E+02  0.23616636059E+02  0.93149080558E+02  0.00000000000E+00 0. -1.
         21    1    1    2  504  505 -0.10616814756E+02 -0.51527054315E+02  0.29843083514E+03  0.30303253529E+03  0.00000000000E+00 0. -1.
         21    1    1    2  505  502  0.50331500793E+02 -0.50803726654E+02  0.22793465087E+03  0.23889010796E+03  0.00000000000E+00 0. -1.
         21    1    1    2  506  501  0.24260343853E+02  0.38878426713E+02  0.85933164818E+02  0.97388937581E+02  0.00000000000E+00 0. -1.
<scales pt_clust_3="86.38528" pt_clust_4="31.83988" pt_clust_5="14000.00000" pt_clust_6="45.82681"></scales>
<clustering>
<clus scale="   45.827">  1  6  2 -1</clus>
<clus scale="   31.840">  1  4  2 -1</clus>
<clus scale="   86.385">  2  3  1 -1</clus>
<clus scale="   45.827">  1  3  2 -1</clus>
</clustering>
</event>
<event>
 6    0  0.8991567E+002  0.8271133E+02  0.7546771E-02  0.1321529E+00
         21   -1    0    0  504  501  0.00000000000E+00  0.00000000000E+00  0.18992749934E+03  0.18992749934E+03  0.00000000000E+00 0.  1.
         21   -1    0    0  503  502 -0.00000000000E+00 -0.00000000000E+00 -0.33515119255E+03  0.33515119255E+03  0.00000000000E+00 0.  1.
         21    1    1    2  503  501 -0.16056286350E+01 -0.33842325163E+02  0.16435910382E+02  0.37656608528E+02  0.00000000000E+00 0.  1.
         21    1    1    2  504  505 -0.46967791291E+02 -0.88493759694E+01  0.11991032147E+03  0.12908435253E+03  0.00000000000E+00 0.  1.
         21    1    1    2  505  506  0.87578142372E+02  0.10198057090E+03 -0.11362263478E+03  0.17601156495E+03  0.00000000000E+00 0.  1.
         21    1    1    2  506  502 -0.39004722447E+02 -0.59288869768E+02 -0.16794729027E+03  0.18232616587E+03  0.00000000000E+00 0.  1.
<scales pt_clust_3="33.88039" pt_clust_4="59.39699" pt_clust_5="82.71133" pt_clust_6="14000.00000"></scales>
<clustering>
<clus scale="   33.880">  1  3  2 -1</clus>
<clus scale="   59.397">  1  4  2 -1</clus>
<clus scale="   82.711">  1  5  2 -1</clus>
<clus scale="   33.880">  1  3  2 -1</clus>
</clustering>
</event>
<event>
 6    0  0.8991567E+002  0.1264947E+03  0.7546771E-02  0.1232752E+00
         21   -1    0    0  505  501  0.00000000000E+00  0.00000000000E+00  0.17871085003E+04  0.17871085003E+04  0.00000000000E+00 0.  1.
         21   -1    0    0  504  502 -0.00000000000E+00 -0.00000000000E+00 -0.37532981544E+03  0.37532981544E+03  0.00000000000E+00 0.  1.
         21    1    1    2  503  502 -0.49307315678E+02  0.40925889812E+02  0.50489574800E+02  0.81580248833E+02  0.00000000000E+00 0.  1.
         21    1    1    2  504  506  0.49926229719E+02 -0.12121981098E+03 -0.34361222097E+03  0.36777198016E+03  0.00000000000E+00 0.  1.
         21    1    1    2  505  503 -0.24650572071E+02  0.26467277491E+02  0.14844227556E+04  0.14848633219E+04  0.00000000000E+00 0.  1.
         21    1    1    2  506  501  0.24031658031E+02  0.53826643680E+02  0.22047857549E+03  0.22822276488E+03  0.00000000000E+00 0.  1.
<scales pt_clust_3="71.91791" pt_clust_4="14000.00000" pt_clust_5="36.16860" pt_clust_6="126.49466"></scales>
<clustering>
<clus scale="   36.169">  1  5  2 -1</clus>
<clus scale="   71.918">  1  3  2 -1</clus>
<clus scale="  126.495">  1  6  2 -1</clus>
<clus scale="   36.169">  1  3  2 -1</clus>
</clustering>
</event>
<event>
 6    0  0.8991567E+002  0.7250288E+02  0.7546771E-02  0.1351783E+00
         21   -1    0    0  503  501  0.00000000000E+00  0.00000000000E+00  0.10564253673E+03  0.10564253673E+03  0.00000000000E+00 0.  1.
         21   -1    0    0  504  502 -0.00000000000E+00 -0.00000000000E+00 -0.26828225419E+03  0.26828225419E+03  0.00000000000E+00 0.  1.
         21    1    1    2  503  506  0.28088595991E+02  0.56229774701E+02  0.17952383434E+02  0.65368531104E+02  0.00000000000E+00 0.  1.
         21    1    1    2  504  505 -0.11857005155E+02 -0.33396463668E+02 -0.10519570921E+03  0.11100472779E+03  0.00000000000E+00 0.  1.
         21    1    1    2  505  501 -0.66884826623E+02 -0.65273590662E+02  0.48679916667E+01  0.93583754002E+02  0.00000000000E+00 0.  1.
         21    1    1    2  506  502  0.50653235786E+02  0.42440279628E+02 -0.80264383354E+02  0.10396777802E+03  0.00000000000E+00 0.  1.
<scales pt_clust_3="72.50288" pt_clust_4="35.43885" pt_clust_5="14000.00000" pt_clust_6="49.61185"></scales>
<clustering>
<clus scale="   35.439">  2  4  1 -1</clus>
<clus scale="   49.612">  2  6  1 -1</clus>
<clus scale="   72.503">  1  3  2 -1</clus>
<clus scale="   72.503">  1  3  2 -1</clus>
</clustering>
</event>
<event>
 6    0  0.8991567E+002  0.1515115E+03  0.7546771E-02  0.1198628E+00
         21   -1    0    0  506  501  0.00000000000E+00  0.00000000000E+00  0.70391858513E+03  0.70391858513E+03  0.00000000000E+00 0.  1.
         21   -1    0    0  503  502 -0.00000000000E+00 -0.00000000000E+00 -0.10318871143E+04  0.10318871143E+04  0.00000000000E+00 0.  1.
         21    1    1    2  503  501 -0.52430160425E+02 -0.99093798599E+02  0.59022138267E+03  0.60077431969E+03  0.00000000000E+00 0.  1.
         21    1    1    2  504  502  0.13300297514E+03  0.73721260298E+02 -0.99761710048E+03  0.10091404733E+04  0.00000000000E+00 0.  1.
         21    1    1    2  505  504 -0.49645471783E+02 -0.87593153371E+01  0.31633741780E+02  0.59515477758E+02  0.00000000000E+00 0. -1.
         21    1    1    2  506  505 -0.30927342933E+02  0.34131853638E+02  0.47793446868E+02  0.66375428716E+02  0.00000000000E+00 0. -1.
<scales pt_clust_3="14000.00000" pt_clust_4="151.51150" pt_clust_5="52.21267" pt_clust_6="46.05957"></scales>
<clustering>
<clus scale="   46.060">  1  6  2 -1</clus>
<clus scale="   52.213">  1  5  2 -1</clus>
<clus scale="  151.512">  2  4  1 -1</clus>
<clus scale="   46.060">  1  3  2 -1</clus>
</clustering>
</event>
<event>
 6    0  0.8991567E+002  0.1026483E+03  0.7546771E-02  0.1274823E+00
         21   -1    0    0  504  501  0.00000000000E+00  0.00000000000E+00  0.75100334696E+03  0.75100334696E+03  0.00000000000E+00 0.  1.
         21   -1    0    0  505  502 -0.00000000000E+00 -0.00000000000E+00 -0.15310111125E+03  0.15310111125E+03  0.00000000000E+00 0.  1.
         21    1    1    2  503  506  0.58189990628E+01 -0.81321032814E+02  0.19667410203E+03  0.21290296742E+03  0.00000000000E+00 0.  1.
         21    1    1    2  504  502  0.38377833007E+02 -0.55776748646E+01  0.95782779518E+02  0.10333590555E+03  0.00000000000E+00 0.  1.
         21    1    1    2  505  503  0.34527401141E+02 -0.26509293225E+02 -0.12682383235E+03  0.13408642179E+03  0.00000000000E+00 0.  1.
         21    1    1    2  506  501 -0.78724233211E+02  0.11340800090E+03  0.43226918652E+03  0.45377916344E+03  0.00000000000E+00 0.  1.
<scales pt_clust_3="14000.00000" pt_clust_4="38.78103" pt_clust_5="43.71901" pt_clust_6="102.64832"></scales>
<clustering>
<clus scale="   38.781">  1  4  2 -1</clus>
<clus scale="   43.719">  2  5  1 -1</clus>
<clus scale="  102.648">  1  6  2 -1</clus>
<clus scale="   38.781">  1  3  2 -1</clus>
</clustering>
</event>
<event>
 6    0  0.8991567E+002  0.1467726E+03  0.7546771E-02  0.1204496E+00
         21   -1    0    0  503  501  0.00000000000E+00  0.00000000000E+00  0.24972514315E+04  0.24972514315E+04  0.00000000000E+00 0. -1.
         21   -1    0    0  504  502 -0.00000000000E+00 -0.00000000000E+00 -0.47830125910E+02  0.47830125910E+02  0.00000000000E+00 0. -1.
         21    1    1    2  503  502  0.12026825963E+03  0.34522367266E+02  0.11818988639E+04  0.11885037537E+04  0.00000000000E+00 0. -1.
         21    1    1    2  504  506  0.25926381054E+02 -0.16260486935E+02 -0.18746850420E+02  0.35889066171E+02  0.00000000000E+00 0. -1.
         21    1    1    2  505  501 -0.19726097525E+03 -0.56056293589E+02  0.11732485079E+04  0.11910357936E+04  0.00000000000E+00 0. -1.
         21    1    1    2  506  505  0.51066334563E+02  0.37794413259E+02  0.11302078428E+03  0.12965294397E+03  0.00000000000E+00 0. -1.
<scales pt_clust_3="14000.00000" pt_clust_4="30.60361" pt_clust_5="146.77258" pt_clust_6="69.03152"></scales>
<clustering>
<clus scale="   30.604">  2  4  1 -1</clus>
<clus scale="   69.032">  2  6  1 -1</clus>
<clus scale="  146.773">  2  5  1 -1</clus>
<clus scale="  146.773">  1  3  2 -1</clus>
</clustering>
</event>
<event>
 6    0  0.8991567E+002  0.1329370E+03  0.7546771E-02  0.1223162E+00
         21   -1    0    0  502  501  0.00000000000E+00  0.00000000000E+00  0.32229132436E+03  0.32229132436E+03  0.00000000000E+00 0.  1.
         21   -1    0    0  504  502 -0.00000000000E+00 -0.00000000000E+00 -0.32191893491E+03  0.32191893491E+03  0.00000000000E+00 0.  1.
         21    1    1    2  503  506  0.11308894787E+03 -0.58867742082E+02 -0.16614323123E+03  0.20942324243E+03  0.00000000000E+00 0.  1.
         21    1    1    2  504  503 -0.10237326194E+02 -0.28324638106E+02 -0.10371329217E+03  0.10799784695E+03  0.00000000000E+00 0.  1.
         21    1    1    2  505  501  0.23535383541E+02  0.40530941937E+02  0.49311150687E+02  0.68031324512E+02  0.00000000000E+00 0.  1.
         21    1    1    2  506  505 -0.12638700522E+03  0.46661438251E+02  0.22091776217E+03  0.25875784538E+03  0.00000000000E+00 0.  1.
<scales pt_clust_3="14000.00000" pt_clust_4="30.11790" pt_clust_5="45.58543" pt_clust_6="132.93698"></scales>
<clustering>
<clus scale="   30.118">  2  4  1 -1</clus>
<clus scale="   45.585">  1  5  2 -1</clus>
<clus scale="  132.937">  1  6  2 -1</clus>
<clus scale="   45.585">  1  3  2 -1</clus>
</clustering>
</event>
<event>
 6    0  0.8991567E+002  0.1875287E+03  0.7546771E-02  0.1160709E+00
         21   -1    0    0  506  501  0.00000000000E+00  0.00000000000E+00  0.44322077586E+03  0.44322077586E+03  0.00000000000E+00 0.  1.
         21   -1    0    0  503  502 -0.00000000000E+00 -0.00000000000E+00 -0.11415537930E+04  0.11415537930E+04  0.00000000000E+00 0.  1.
         21    1    1    2  503  501 -0.45646276740E+02 -0.13791411640E+03  0.19303741912E+02  0.14654869680E+03  0.00000000000E+00 0.  1.
         21    1    1    2  504  505  0.11392161358E+03 -0.39316517169E+02  0.33870749779E+01  0.12056282528E+03  0.00000000000E+00 0.  1.
         21    1    1    2  505  502 -0.39710787201E+02  0.19017887374E+03 -0.10092278405E+04  0.10277576488E+04  0.00000000000E+00 0.  1.
         21    1    1    2  506  504 -0.28564549635E+02 -0.12948240173E+02  0.28820400648E+03  0.28990539796E+03  0.00000000000E+00 0.  1.
<scales pt_clust_3="14000.00000" pt_clust_4="111.69538" pt_clust_5="187.52875" pt_clust_6="31.36225"></scales>
<clustering>
<clus scale="   31.362">  1  6  2 -1</clus>
<clus scale="  111.695">  1  4  2 -1</clus>
<clus scale="  187.529">  2  5  1 -1</clus>
<clus scale="   31.362">  1  3  2 -1</clus>
</clustering>
</event>
<event>
 6    0  0.8991567E+002  0.9364919E+02  0.7546771E-02  0.1294248E+00
         21   -1    0    0  502  501  0.00000000000E+00  0.00000000000E+00  0.70693273109E+03  0.70693273109E+03  0.00000000000E+00 0.  1.
         21   -1    0    0  504  502 -0.00000000000E+00 -0.00000000000E+00 -0.12363737301E+03  0.12363737301E+03  0.00000000000E+00 0. -1.
         21    1    1    2  503  501  0.12113388462E+02 -0.29083006380E+02  0.50975289123E+03  0.51072552860E+03  0.00000000000E+00 0.  1.
         21    1    1    2  504  506  0.16888189040E+02  0.35244852100E+02 -0.64616404105E+02  0.75516158590E+02  0.00000000000E+00 0. -1.
         21    1    1    2  505  503  0.51660184988E+02  0.71576138117E+02  0.74309822891E+02  0.11538573586E+03  0.00000000000E+00 0.  1.
         21    1    1    2  506  505 -0.80661762490E+02 -0.77737983838E+02  0.63849048065E+02  0.12894268106E+03  0.00000000000E+00 0.  1.
<scales pt_clust_3="31.50485" pt_clust_4="38.50594" pt_clust_5="14000.00000" pt_clust_6="93.64919"></scales>
<clustering>
<clus scale="   31.505">  1  3  2 -1</clus>
<clus scale="   38.506">  2  4  1 -1</clus>
<clus scale="   93.649">  2  6  1 -1</clus>
<clus scale="   31.505">  1  3  2 -1</clus>
</clustering>
</event>
<event>
 6    0  0.8991567E+002  0.1489021E+03  0.7546771E-02  0.1201829E+00
         21   -1    0    0  503  501  0.00000000000E+00  0.00000000000E+00  0.14940632129E+04  0.14940632129E+04  0.00000000000E+00 0. -1.
         21   -1    0    0  504  502 -0.00000000000E+00 -0.00000000000E+00 -0.10990256442E+03  0.10990256442E+03  0.00000000000E+00 0.  1.
         21    1    1    2  503  505  0.11875609746E+02 -0.11918960932E+03  0.50265401354E+03  0.51672841068E+03  0.00000000000E+00 0. -1.
         21    1    1    2  504  506 -0.35006065670E+02  0.19673907483E+03  0.84015075644E+03  0.86358843308E+03  0.00000000000E+00 0. -1.
         21    1    1    2  505  502  0.53731401025E+02 -0.89033756237E+02 -0.57988346876E+02  0.11906603873E+03  0.00000000000E+00 0.  1.
         21    1    1    2  506  501 -0.30600945101E+02  0.11484290728E+02  0.99344225337E+02  0.10458289479E+03  0.00000000000E+00 0.  1.
<scales pt_clust_3="148.90209" pt_clust_4="14000.00000" pt_clust_5="103.42914" pt_clust_6="32.68496"></scales>
<clustering>
<clus scale="   32.685">  1  6  2 -1</clus>
<clus scale="  103.429">  2  5  1 -1</clus>
<clus scale="  148.902">  1  3  2 -1</clus>
<clus scale="   32.685">  1  3  2 -1</clus>
</clustering>
</event>
<event>
 6    0  0.8991567E+002  0.1872786E+03  0.7546771E-02  0.1160939E+00
         21   -1    0    0  503  501  0.00000000000E+00  0.00000000000E+00  0.10670558691E+04  0.10670558691E+04  0.00000000000E+00 0. -1.
         21   -1    0    0  505  502 -0.00000000000E+00 -0.00000000000E+00 -0.18098475149E+03  0.18098475149E+03  0.00000000000E+00 0. -1.
         21    1    1    2  503  506 -0.14648589802E+02  0.49479685362E+02  0.69428116974E+03  0.69619621021E+03  0.00000000000E+00 0. -1.
         21    1    1    2  504  502  0.19436116429E+03 -0.98131757406E+02 -0.35008839982E+02  0.22052601405E+03  0.00000000000E+00 0. -1.
         21    1    1    2  505  501 -0.36068824235E+02 -0.11813234509E+02 -0.17298187477E+02  0.41710189178E+02  0.00000000000E+00 0. -1.
         21    1    1    2  506  504 -0.14364375026E+03  0.60465306554E+02  0.24409697532E+03  0.28960820714E+03  0.00000000000E+00 0. -1.
<scales pt_clust_3="51.59620" pt_clust_4="187.27862" pt_clust_5="37.95409" pt_clust_6="14000.00000"></scales>
<clustering>
<clus scale="   37.954">  2  5  1 -1</clus>
<clus scale="   51.596">  1  3  2 -1</clus>
<clus scale="  187.279">  2  4  1 -1</clus>
<clus scale="   51.596">  1  3  2 -1</clus>
</clustering>
</event>
<event>
 6    0  0.8991567E+002  0.1463070E+03  0.7546771E-02  0.1205086E+00
         21   -1    0    0  506  501  0.00000000000E+00  0.00000000000E+00  0.45054971018E+03  0.45054971018E+03  0.00000000000E+00 0.  1.
         21   -1    0    0  503  502 -0.00000000000E+00 -0.00000000000E+00 -0.23337133466E+03  0.23337133466E+03  0.00000000000E+00 0. -1.
         21    1    1    2  503  505 -0.46903083668E+02 -0.82124183327E+00 -0.78832966979E+02  0.91734455787E+02  0.00000000000E+00 0. -1.
         21    1    1    2  504  501  0.57435860360E+02 -0.20250745216E+02  0.84608446440E+02  0.10424758964E+03  0.00000000000E+00 0. -1.
         21    1    1    2  505  504 -0.81214012667E+02  0.61379305096E+02 -0.11381382648E+03  0.15269814028E+03  0.00000000000E+00 0.  1.
         21    1    1    2  506  502  0.70681235975E+02 -0.40307318047E+02  0.32521672255E+03  0.33524085913E+03  0.00000000000E+00 0.  1.
<scales pt_clust_3="34.30100" pt_clust_4="60.90132" pt_clust_5="34.30100" pt_clust_6="137.30441"></scales>
<clustering>
<clus scale="   34.301">  3  5 -1 -1</clus>
<clus scale="   60.901">  1  4  2 -1</clus>
<clus scale="  137.304">  1  6  2 -1</clus>
<clus scale="   60.901">  1  3  2 -1</clus>
</clustering>
</event>
<event>
 6    0  0.8991567E+002  0.5498096E+02  0.7546771E-02  0.1420189E+00
         21   -1    0    0  504  501  0.00000000000E+00  0.00000000000E+00  0.20096630937E+04  0.20096630937E+04  0.00000000000E+00 0.  1.
         21   -1    0    0  505  502 -0.00000000000E+00 -0.00000000000E+00 -0.19203290954E+03  0.19203290954E+03  0.00000000000E+00 0. -1.
         21    1    1    2  503  501 -0.84728879287E+01  0.93682260394E+02  0.10614902301E+04  0.10656498789E+04  0.00000000000E+00 0.  1.
         21    1    1    2  504  506  0.12476311421E+02 -0.40189356263E+02  0.91428104765E+03  0.91524896984E+03  0.00000000000E+00 0.  1.
         21    1    1    2  505  503  0.38467924094E+02 -0.63096126282E+02 -0.20874436139E+02  0.76789611407E+02  0.00000000000E+00 0. -1.
         21    1    1    2  506  502 -0.42471347586E+02  0.96032221506E+01 -0.13726665743E+03  0.14400754315E+03  0.00000000000E+00 0. -1.
<scales pt_clust_3="14000.00000" pt_clust_4="42.08138" pt_clust_5="54.98096" pt_clust_6="43.47891"></scales>
<clustering>
<clus scale="   42.081">  1  4  2 -1</clus>
<clus scale="   43.479">  2  6  1 -1</clus>
<clus scale="   54.981">  2  5  1 -1</clus>
<clus scale="   42.081">  1  3  2 -1</clus>
</clustering>
</event>
<event>
 6    0  0.8991567E+002  0.1644604E+03  0.7546771E-02  0.1183751E+00
         21   -1    0    0  505  501  0.00000000000E+00  0.00000000000E+00  0.48239437358E+02  0.48239437358E+02  0.00000000000E+00 0.  1.
         21   -1    0    0  506  502 -0.00000000000E+00 -0.00000000000E+00 -0.15478938056E+04  0.15478938056E+04  0.00000000000E+00 0.  1.
         21    1    1    2  503  504  0.75487454948E+02 -0.46304927146E+01 -0.49124897073E+02  0.90183439886E+02  0.00000000000E+00 0.  1.
         21    1    1    2  504  502 -0.13963185089E+02  0.43664505770E+02 -0.27442935379E+03  0.27823197125E+03  0.00000000000E+00 0.  1.
         21    1    1    2  505  503  0.59691090818E+02  0.64094404020E+02 -0.75393573064E+02  0.11556517559E+03  0.00000000000E+00 0.  1.
         21    1    1    2  506  501 -0.12121536068E+03 -0.10312841708E+03 -0.11007065444E+04  0.11121526563E+04  0.00000000000E+00 0.  1.
<scales pt_clust_3="64.80869" pt_clust_4="45.84277" pt_clust_5="64.80869" pt_clust_6="148.42094"></scales>
<clustering>
<clus scale="   45.843">  2  4  1 -1</clus>
<clus scale="   64.809">  3  5 -1 -1</clus>
<clus scale="  148.421">  2  6  1 -1</clus>
<clus scale="  164.460">  1  3  2 -1</clus>
</clustering>
</event>
<event>
 6    0  0.8991567E+002  0.1175943E+03  0.7546771E-02  0.1247119E+00
         21   -1    0    0  504  501  0.00000000000E+00  0.00000000000E+00  0.16859053072E+03  0.16859053072E+03  0.00000000000E+00 0. -1.
         21   -1    0    0  501  502 -0.00000000000E+00 -0.00000000000E+00 -0.12224990696E+03  0.12224990696E+03  0.00000000000E+00 0. -1.
         21    1    1    2  503  502 -0.36164635595E+02  0.72041844868E+02 -0.30127428996E+02  0.86055623045E+02  0.00000000000E+00 0. -1.
         21    1    1    2  504  505  0.46006921409E+02 -0.74490449264E+01  0.21697914026E+02  0.51409382032E+02  0.00000000000E+00 0. -1.
         21    1    1    2  505  506  0.31145259322E+02 -0.87133082394E+02  0.52845941608E+02  0.10655934858E+03  0.00000000000E+00 0. -1.
         21    1    1    2  506  503 -0.40987545135E+02  0.22540282453E+02  0.19241971220E+01  0.46816084029E+02  0.00000000000E+00 0. -1.
<scales pt_clust_3="33.73532" pt_clust_4="46.60606" pt_clust_5="108.93659" pt_clust_6="33.73532"></scales>
<clustering>
<clus scale="   33.735">  3  6 -1 -1</clus>
<clus scale="   46.606">  1  4  2 -1</clus>
<clus scale="  108.937">  1  5  2 -1</clus>
<clus scale="   46.606">  1  3  2 -1</clus>
</clustering>
</event>
<event>
 6    0  0.8991567E+002  0.1548690E+03  0.7546771E-02  0.1194614E+00
         21   -1    0    0  504  501  0.00000000000E+00  0.00000000000E+00  0.45281482490E+03  0.45281482490E+03  0.00000000000E+00 0. -1.
         21   -1    0    0  505  502 -0.00000000000E+00 -0.00000000000E+00 -0.42443199997E+03  0.42443199997E+03  0.00000000000E+00 0. -1.
         21    1    1    2  503  506  0.33187667202E+02  0.32839232150E+02 -0.47960624849E+02  0.66933235081E+02  0.00000000000E+00 0. -1.
         21    1    1    2  504  503  0.53197293092E+01  0.12687538953E+03 -0.14959372999E+03  0.19622422899E+03  0.00000000000E+00 0. -1.
         21    1    1    2  505  501 -0.27266650396E+02 -0.29173201017E+02  0.39678205817E+03  0.39878634326E+03  0.00000000000E+00 0. -1.
         21    1    1    2  506  502 -0.11240746116E+02 -0.13054142067E+03 -0.17084487841E+03  0.21530301754E+03  0.00000000000E+00 0. -1.
<scales pt_clust_3="34.47459" pt_clust_4="34.47459" pt_clust_5="39.93177" pt_clust_6="144.05508"></scales>
<clustering>
<clus scale="   34.475">  3  4 -1 -1</clus>
<clus scale="   39.932">  1  5  2 -1</clus>
<clus scale="  144.055">  2  6  1 -1</clus>
<clus scale="   39.932">  1  3  2 -1</clus>
</clustering>
</event>
<event>
 6    0  0.8991567E+002  0.1131352E+03  0.7546771E-02  0.1254872E+00
         21   -1    0    0  503  501  0.00000000000E+00  0.00000000000E+00  0.56207656113E+03  0.56207656113E+03  0.00000000000E+00 0. -1.
         21   -1    0    0  506  502 -0.00000000000E+00 -0.00000000000E+00 -0.63981782735E+03  0.63981782735E+03  0.00000000000E+00 0.  1.
         21    1    1    2  503  504  0.25444768614E+02 -0.19526264170E+02  0.18515684492E+03  0.18791425828E+03  0.00000000000E+00 0. -1.
         21    1    1    2  504  502  0.58865280345E+02  0.48333198644E+02 -0.20230367364E+02  0.78806643660E+02  0.00000000000E+00 0. -1.
         21    1    1    2  505  501 -0.11025396101E+03 -0.68028593730E+02  0.33314250556E+03  0.35744615608E+03  0.00000000000E+00 0. -1.
         21    1    1    2  506  505  0.25943912054E+02  0.39221659255E+02 -0.57581024934E+03  0.57772733047E+03  0.00000000000E+00 0.  1.
<scales pt_clust_3="32.07353" pt_clust_4="14000.00000" pt_clust_5="113.13518" pt_clust_6="47.02013"></scales>
<clustering>
<clus scale="   32.074">  1  3  2 -1</clus>
<clus scale="   47.020">  2  6  1 -1</clus>
<clus scale="  113.135">  1  5  2 -1</clus>
<clus scale="   32.074">  1  3  2 -1</clus>
</clustering>
</event>
<event>
 6    0  0.8991567E+002  0.7190146E+02  0.7546771E-02  0.1353744E+00
         21   -1    0    0  504  501  0.00000000000E+00  0.00000000000E+00  0.11367113087E+04  0.11367113087E+04  0.00000000000E+00 0.  1.
         21   -1    0    0  506  502 -0.00000000000E+00 -0.00000000000E+00 -0.22796132854E+03  0.22796132854E+03  0.00000000000E+00 0. -1.
         21    1    1    2  503  505 -0.70931958919E+02 -0.74360397459E+02  0.23254402438E+03  0.25423912913E+03  0.00000000000E+00 0.  1.
         21    1    1    2  504  503  0.22345869490E+02  0.65255158917E+02  0.85623355481E+03  0.85900726076E+03  0.00000000000E+00 0.  1.
         21    1    1    2  505  502 -0.61757087909E+01  0.35795312375E+02  0.20596313693E+02  0.41757058144E+02  0.00000000000E+00 0.  1.
         21    1    1    2  506  501  0.54761798220E+02 -0.26690073833E+02 -0.20062391267E+03  0.20966918925E+03  0.00000000000E+00 0. -1.
<scales pt_clust_3="14000.00000" pt_clust_4="71.90146" pt_clust_5="36.32415" pt_clust_6="49.44472"></scales>
<clustering>
<clus scale="   36.324">  2  5  1 -1</clus>
<clus scale="   49.445">  2  6  1 -1</clus>
<clus scale="   71.901">  1  4  2 -1</clus>
<clus scale="   71.901">  1  3  2 -1</clus>
</clustering>
</event>
<event>
 6    0  0.8991567E+002  0.1279263E+03  0.7546771E-02  0.1230566E+00
         21   -1    0    0  506  501  0.00000000000E+00  0.00000000000E+00  0.10001903403E+03  0.10001903403E+03  0.00000000000E+00 0. -1.
         21   -1    0    0  504  502 -0.00000000000E+00 -0.00000000000E+00 -0.15388915308E+04  0.15388915308E+04  0.00000000000E+00 0.  1.
         21    1    1    2  503  501  0.11447487091E+03 -0.82784613138E+02 -0.16475271332E+03  0.21702821197E+03  0.00000000000E+00 0. -1.
         21    1    1    2  504  503 -0.23237371097E+02  0.10279998863E+03 -0.12079353996E+04  0.12125245328E+04  0.00000000000E+00 0.  1.
         21    1    1    2  505  502 -0.33847658832E+02  0.18568345899E+02 -0.11721787518E+03  0.12341182171E+03  0.00000000000E+00 0. -1.
         21    1    1    2  506  505 -0.57389840986E+02 -0.38583721387E+02  0.51033491283E+02  0.85945998376E+02  0.00000000000E+00 0. -1.
<scales pt_clust_3="14000.00000" pt_clust_4="127.92626" pt_clust_5="38.60631" pt_clust_6="69.37361"></scales>
<clustering>
<clus scale="   38.606">  2  5  1 -1</clus>
<clus scale="   69.374">  1  6  2 -1</clus>
<clus scale="  127.926">  2  4  1 -1</clus>
<clus scale="   69.374">  1  3  2 -1</clus>
</clustering>
</event>
<event>
 6    0  0.8991567E+002  0.1069661E+03  0.7546771E-02  0.1266294E+00
         21   -1    0    0  503  501  0.00000000000E+00  0.00000000000E+00  0.48081198727E+02  0.48081198727E+02  0.00000000000E+00 0.  1.
         21   -1    0    0  506  502 -0.00000000000E+00 -0.00000000000E+00 -0.75027123626E+03  0.75027123626E+03  0.00000000000E+00 0.  1.
         21    1    1    2  503  505 -0.46168673597E+02 -0.94246068822E+01 -0.38206089688E+03  0.38495570987E+03  0.00000000000E+00 0.  1.
         21    1    1    2  504  501  0.10882337248E+03  0.58520910615E+02 -0.66237834202E+02  0.14019512850E+03  0.00000000000E+00 0.  1.
         21    1    1    2  505  502 -0.36486680468E+02  0.67652635651E+01 -0.69819708404E+02  0.79068567233E+02  0.00000000000E+00 0.  1.
         21    1    1    2  506  504 -0.26168018411E+02 -0.55861567298E+02 -0.18407159805E+03  0.19413302938E+03  0.00000000000E+00 0. -1.
<scales pt_clust_3="106.96615" pt_clust_4="14000.00000" pt_clust_5="37.10858" pt_clust_6="65.08392"></scales>
<clustering>
<clus scale="   37.109">  2  5  1 -1</clus>
<clus scale="   65.084">  2  6  1 -1</clus>
<clus scale="  106.966">  2  3  1 -1</clus>
<clus scale="  106.966">  1  3  2 -1</clus>
</clustering>
</event>
<event>
 6    0  0.8991567E+002  0.7847032E+02  0.7546771E-02  0.1333449E+00
         21   -1    0    0  505  501  0.00000000000E+00  0.00000000000E+00  0.73822182971E+03  0.73822182971E+03  0.00000000000E+00 0.  1.
         21   -1    0    0  503  502 -0.00000000000E+00 -0.00000000000E+00 -0.53216730099E+03  0.53216730099E+03  0.00000000000E+00 0.  1.
         21    1    1    2  503  504  0.32958650743E+02  0.58618012090E+01 -0.46991229591E+03  0.47110317258E+03  0.00000000000E+00 0.  1.
         21    1    1    2  504  501 -0.27661354446E+02  0.70302872634E+02 -0.22987365267E+02  0.78968749466E+02  0.00000000000E+00 0. -1.
         21    1    1    2  505  506  0.26541849005E+00  0.34292334913E+02  0.40159889611E+03  0.40306042728E+03  0.00000000000E+00 0.  1.
         21    1    1    2  506  502 -0.55627147871E+01 -0.11045700876E+03  0.29735529379E+03  0.31725678137E+03  0.00000000000E+00 0.  1.
<scales pt_clust_3="33.47586" pt_clust_4="14000.00000" pt_clust_5="34.36807" pt_clust_6="78.47032"></scales>
<clustering>
<clus scale="   33.476">  2  3  1 -1</clus>
<clus scale="   34.368">  1  5  2 -1</clus>
<clus scale="   78.470">  1  6  2 -1</clus>
<clus scale="   34.368">  1  3  2 -1</clus>
</clustering>
</event>
<event>
 6    0  0.8991567E+002  0.9462113E+02  0.7546771E-02  0.1292032E+00
         21   -1    0    0  506  501  0.00000000000E+00  0.00000000000E+00  0.86418998023E+02  0.86418998023E+02  0.00000000000E+00 0.  1.
         21   -1    0    0  504  502 -0.00000000000E+00 -0.00000000000E+00 -0.29911305033E+03  0.29911305033E+03  0.00000000000E+00 0.  1.
         21    1    1    2  503  505  0.33991770114E+02  0.10460957008E+03 -0.23756747040E+02  0.11252993210E+03  0.00000000000E+00 0.  1.
         21    1    1    2  504  503 -0.61959783706E+01 -0.90828713880E+02 -0.15561922689E+03  0.18029306473E+03  0.00000000000E+00 0.  1.
         21    1    1    2  505  501  0.27616034426E+01 -0.42599486852E+02 -0.73226761518E+01  0.43312403762E+02  0.00000000000E+00 0.  1.
         21    1    1    2  506  502 -0.30557395186E+02  0.28818630650E+02 -0.25995402231E+02  0.49396647763E+02  0.00000000000E+00 0.  1.
<scales pt_clust_3="94.62113" pt_clust_4="14000.00000" pt_clust_5="35.95411" pt_clust_6="42.00319"></scales>
<clustering>
<clus scale="   42.003">  1  6  2 -1</clus>
<clus scale="   35.954">  1  5  2 -1</clus>
<clus scale="   94.621">  1  3  2 -1</clus>
<clus scale="   42.003">  1  3  2 -1</clus>
</clustering>
</event>
<event>
 6    0  0.8991567E+002  0.9210796E+02  0.7546771E-02  0.1297826E+00
         21   -1    0    0  504  501  0.00000000000E+00  0.00000000000E+00  0.93181203239E+02  0.93181203239E+02  0.00000000000E+00 0.  1.
         21   -1    0    0  505  502 -0.00000000000E+00 -0.00000000000E+00 -0.83525356518E+03  0.83525356518E+03  0.00000000000E+00 0. -1.
         21    1    1    2  503  501 -0.14797162552E+02 -0.50167445415E+02  0.29571061869E+02  0.60084742648E+02  0.00000000000E+00 0.  1.
         21    1    1    2  504  502  0.21583739240E+01 -0.51049330134E+02 -0.24086094266E+03  0.24622080819E+03  0.00000000000E+00 0. -1.
         21    1    1    2  505  506 -0.43740407526E+02  0.13651115166E+03 -0.53654567644E+03  0.55536454756E+03  0.00000000000E+00 0. -1.
         21    1    1    2  506  503  0.56379196154E+02 -0.35294376108E+02  0.57631952904E+01  0.66764670026E+02  0.00000000000E+00 0.  1.
<scales pt_clust_3="53.55263" pt_clust_4="51.09494" pt_clust_5="92.10796" pt_clust_6="14000.00000"></scales>
<clustering>
<clus scale="   51.095">  2  4  1 -1</clus>
<clus scale="   53.553">  1  3  2 -1</clus>
<clus scale="   92.108">  2  5  1 -1</clus>
<clus scale="   53.553">  1  3  2 -1</clus>
</clustering>
</event>
<event>
 6    0  0.8991567E+002  0.9144585E+02  0.7546771E-02  0.1299388E+00
         21   -1    0    0  503  501  0.00000000000E+00  0.00000000000E+00  0.14129534208E+04  0.14129534208E+04  0.00000000000E+00 0. -1.
         21   -1    0    0  505  502 -0.00000000000E+00 -0.00000000000E+00 -0.32042039463E+02  0.32042039463E+02  0.00000000000E+00 0.  1.
         21    1    1    2  503  506 -0.82357914038E+01 -0.40366908192E+02  0.63622077323E+03  0.63755328234E+03  0.00000000000E+00 0. -1.
         21    1    1    2  504  501 -0.15869378261E+02  0.55813845002E+02  0.13583525275E+03  0.14770998054E+03  0.00000000000E+00 0.  1.
         21    1    1    2  505  504  0.28375682874E+02  0.85666351397E+02  0.77892469195E+02  0.11921048569E+03  0.00000000000E+00 0.  1.
         21    1    1    2  506  502 -0.42705132088E+01 -0.10111328821E+03  0.53096288619E+03  0.54052171173E+03  0.00000000000E+00 0. -1.
<scales pt_clust_3="41.19849" pt_clust_4="51.46110" pt_clust_5="91.44585" pt_clust_6="14000.00000"></scales>
<clustering>
<clus scale="   41.198">  1  3  2 -1</clus>
<clus scale="   51.461">  1  4  2 -1</clus>
<clus scale="   91.446">  2  5  1 -1</clus>
<clus scale="   41.198">  1  3  2 -1</clus>
</clustering>
</event>
<event>
 6    0  0.8991567E+002  0.8037351E+02  0.7546771E-02  0.1327995E+00
         21   -1    0    0  504  501  0.00000000000E+00  0.00000000000E+00  0.23509595045E+03  0.23509595045E+03  0.00000000000E+00 0. -1.
         21   -1    0    0  505  502 -0.00000000000E+00 -0.00000000000E+00 -0.42665176594E+03  0.42665176594E+03  0.00000000000E+00 0. -1.
         21    1    1    2  503  501  0.24523120416E+02 -0.48635114452E+02  0.44687238627E+02  0.70453581093E+02  0.00000000000E+00 0. -1.
         21    1    1    2  504  506 -0.72756245675E+02  0.10997702813E+03  0.13390763973E+03  0.18793529200E+03  0.00000000000E+00 0. -1.
         21    1    1    2  505  503  0.10801953769E+02 -0.44619255817E+02 -0.35752717374E+03  0.36046253641E+03  0.00000000000E+00 0. -1.
         21    1    1    2  506  502  0.37431171491E+02 -0.16722657858E+02 -0.12623520101E+02  0.42896306889E+02  0.00000000000E+00 0. -1.
<scales pt_clust_3="55.50081" pt_clust_4="80.37351" pt_clust_5="14000.00000" pt_clust_6="40.99683"></scales>
<clustering>
<clus scale="   40.997">  2  6  1 -1</clus>
<clus scale="   55.501">  1  3  2 -1</clus>
<clus scale="   80.374">  1  4  2 -1</clus>
<clus scale="   55.501">  1  3  2 -1</clus>
</clustering>
</event>
<event>
 6    0  0.8991567E+002  0.9408071E+02  0.7546771E-02  0.1293260E+00
         21   -1    0    0  505  501  0.00000000000E+00  0.00000000000E+00  0.94923185929E+03  0.94923185929E+03  0.00000000000E+00 0. -1.
         21   -1    0    0  504  502 -0.00000000000E+00 -0.00000000000E+00 -0.15707035506E+03  0.15707035506E+03  0.00000000000E+00 0. -1.
         21    1    1    2  503  501 -0.29349434179E+01  0.35271441257E+02  0.48536118783E+03  0.48664994720E+03  0.00000000000E+00 0. -1.
         21    1    1    2  504  506 -0.90927285918E+02  0.10188234416E+02 -0.11752172052E+03  0.14893933744E+03  0.00000000000E+00 0. -1.
         21    1    1    2  505  502 -0.29304286901E+02  0.19060288176E+02  0.22491992382E+03  0.22762031532E+03  0.00000000000E+00 0. -1.
         21    1    1    2  506  503  0.12316651624E+03 -0.64519963850E+02  0.19940211311E+03  0.24309261439E+03  0.00000000000E+00 0. -1.
<scales pt_clust_3="53.14554" pt_clust_4="94.08071" pt_clust_5="34.95763" pt_clust_6="14000.00000"></scales>
<clustering>
<clus scale="   34.958">  1  5  2 -1</clus>
<clus scale="   53.146">  1  3  2 -1</clus>
<clus scale="   94.081">  2  4  1 -1</clus>
<clus scale="   34.958">  1  3  2 -1</clus>
</clustering>
</event>
<event>
 6    0  0.8991567E+002  0.1414579E+03  0.7546771E-02  0.1211381E+00
         21   -1    0    0  504  501  0.00000000000E+00  0.00000000000E+00  0.43677274273E+03  0.43677274273E+03  0.00000000000E+00 0.  1.
         21   -1    0    0  505  502 -0.00000000000E+00 -0.00000000000E+00 -0.28522442784E+03  0.28522442784E+03  0.00000000000E+00 0. -1.
         21    1    1    2  503  506  0.72326201610E+02  0.26278012718E+02  0.17984837579E+03  0.19561966074E+03  0.00000000000E+00 0.  1.
         21    1    1    2  504  502 -0.13977702312E+02  0.27258957882E+02 -0.20570951867E+03  0.20797796282E+03  0.00000000000E+00 0. -1.
         21    1    1    2  505  503 -0.11359874645E+03 -0.17112907872E+02 -0.14133956474E+02  0.11574668694E+03  0.00000000000E+00 0.  1.
         21    1    1    2  506  501  0.55250247152E+02 -0.36424062728E+02  0.19154341424E+03  0.20265286007E+03  0.00000000000E+00 0.  1.
<scales pt_clust_3="60.13896" pt_clust_4="30.63376" pt_clust_5="125.29915" pt_clust_6="60.13896"></scales>
<clustering>
<clus scale="   30.634">  2  4  1 -1</clus>
<clus scale="   60.139">  3  6 -1 -1</clus>
<clus scale="  125.299">  2  5  1 -1</clus>
<clus scale="  141.458">  1  3  2 -1</clus>
</clustering>
</event>
<event>
 6    0  0.8991567E+002  0.7769010E+02  0.7546771E-02  0.1335737E+00
         21   -1    0    0  506  501  0.00000000000E+00  0.00000000000E+00  0.15879553214E+03  0.15879553214E+03  0.00000000000E+00 0.  1.
         21   -1    0    0  503  502 -0.00000000000E+00 -0.00000000000E+00 -0.65778570997E+03  0.65778570997E+03  0.00000000000E+00 0. -1.
         21    1    1    2  503  505 -0.75220020011E+02  0.14929741153E+02 -0.33042434571E+03  0.33920671695E+03  0.00000000000E+00 0.  1.
         21    1    1    2  504  501 -0.24597315462E+02 -0.17310221981E+02  0.82115488518E+02  0.87450701355E+02  0.00000000000E+00 0.  1.
         21    1    1    2  505  504  0.67213347685E+02 -0.49116010495E+02 -0.30011526380E+03  0.31144692672E+03  0.00000000000E+00 0. -1.
         21    1    1    2  506  502  0.32603987788E+02  0.51496491323E+02  0.49433943170E+02  0.78476897082E+02  0.00000000000E+00 0.  1.
<scales pt_clust_3="77.69010" pt_clust_4="30.07776" pt_clust_5="14000.00000" pt_clust_6="38.26039"></scales>
<clustering>
<clus scale="   30.078">  1  4  2 -1</clus>
<clus scale="   38.260">  1  6  2 -1</clus>
<clus scale="   77.690">  2  3  1 -1</clus>
<clus scale="   30.078">  1  3  2 -1</clus>
</clustering>
</event>
<event>
 6    0  0.8991567E+002  0.1360455E+03  0.7546771E-02  0.1218751E+00
         21   -1    0    0  502  501  0.00000000000E+00  0.00000000000E+00  0.57885261916E+03  0.57885261916E+03  0.00000000000E+00 0.  1.
         21   -1    0    0  503  502 -0.00000000000E+00 -0.00000000000E+00 -0.21150551986E+03  0.21150551986E+03  0.00000000000E+00 0. -1.
         21    1    1    2  503  504 -0.52410559569E+01  0.70235266842E+02 -0.92148709252E+02  0.11598209341E+03  0.00000000000E+00 0. -1.
         21    1    1    2  504  505 -0.13035217916E+03 -0.52855273004E+02 -0.39260485848E+02  0.14603683181E+03  0.00000000000E+00 0. -1.
         21    1    1    2  505  506  0.14346243026E+03  0.11935243993E+02  0.41149695916E+03  0.43595144952E+03  0.00000000000E+00 0.  1.
         21    1    1    2  506  501 -0.78691951430E+01 -0.29315237831E+02  0.87259335242E+02  0.92387764278E+02  0.00000000000E+00 0.  1.
<scales pt_clust_3="69.73287" pt_clust_4="136.04553" pt_clust_5="14000.00000" pt_clust_6="30.35305"></scales>
<clustering>
<clus scale="   30.353">  1  6  2 -1</clus>
<clus scale="   69.733">  2  3  1 -1</clus>
<clus scale="  136.046">  2  4  1 -1</clus>
<clus scale="   30.353">  1  3  2 -1</clus>
</clustering>
</event>
<event>
 6    0  0.9556301E+002  0.1050427E+03  0.7546771E-02  0.1270035E+00
         21   -1    0    0  506  501  0.00000000000E+00  0.00000000000E+00  0.18252158070E+03  0.18252158070E+03  0.00000000000E+00 0. -1.
         21   -1    0    0  503  502 -0.00000000000E+00 -0.00000000000E+00 -0.22259254980E+04  0.22259254980E+04  0.00000000000E+00 0. -1.
         21    1    1    2  503  505  0.93574126978E+02  0.19999185138E+02 -0.18611448462E+03  0.20927179941E+03  0.00000000000E+00 0.  1.
         21    1    1    2  504  502  0.16464985095E+02 -0.38022779247E+02 -0.19814563883E+04  0.19818895646E+04  0.00000000000E+00 0. -1.
         21    1    1    2  505  501 -0.78628783778E+02  0.58523339991E+02  0.13306254648E+03  0.16526677899E+03  0.00000000000E+00 0. -1.
         21    1    1    2  506  504 -0.31410328296E+02 -0.40499745882E+02 -0.88955909042E+01  0.52018935761E+02  0.00000000000E+00 0.  1.
<scales pt_clust_3="14000.00000" pt_clust_4="41.43462" pt_clust_5="105.04273" pt_clust_6="53.93141"></scales>
<clustering>
<clus scale="   41.435">  2  4  1 -1</clus>
<clus scale="   53.931">  1  6  2 -1</clus>
<clus scale="  105.043">  1  5  2 -1</clus>
<clus scale="   53.931">  1  3  2 -1</clus>
</clustering>
</event>
<event>
 6    0  0.8991567E+002  0.2053448E+03  0.7546771E-02  0.1145306E+00
         21   -1    0    0  506  501  0.00000000000E+00  0.00000000000E+00  0.49277675366E+03  0.49277675366E+03  0.00000000000E+00 0. -1.
         21   -1    0    0  505  502 -0.00000000000E+00 -0.00000000000E+00 -0.32664283355E+03  0.32664283355E+03  0.00000000000E+00 0. -1.
         21    1    1    2  503  501  0.17115753014E+03 -0.50747652958E+02  0.16510616462E+03  0.24316716472E+03  0.00000000000E+00 0. -1.
         21    1    1    2  504  503  0.76069366681E+02 -0.51426985160E+02 -0.97011684338E+02  0.13357600925E+03  0.00000000000E+00 0. -1.
         21    1    1    2  505  504 -0.30679100239E+02 -0.18459010908E+02 -0.11211856196E+03  0.11769670433E+03  0.00000000000E+00 0. -1.
         21    1    1    2  506  502 -0.21654779658E+03  0.12063364903E+03  0.21015800178E+03  0.32497970890E+03  0.00000000000E+00 0. -1.
<scales pt_clust_3="205.34482" pt_clust_4="85.46147" pt_clust_5="35.80422" pt_clust_6="14000.00000"></scales>
<clustering>
<clus scale="   35.804">  2  5  1 -1</clus>
<clus scale="   85.461">  2  4  1 -1</clus>
<clus scale="  205.345">  1  3  2 -1</clus>
<clus scale="  205.345">  1  3  2 -1</clus>
</clustering>
</event>
<event>
 6    0  0.8991567E+002  0.1206644E+03  0.7546771E-02  0.1242005E+00
         21   -1    0    0  506  501  0.00000000000E+00  0.00000000000E+00  0.12538508600E+03  0.12538508600E+03  0.00000000000E+00 0.  1.
         21   -1    0    0  504  502 -0.00000000000E+00 -0.00000000000E+00 -0.61933313688E+03  0.61933313688E+03  0.00000000000E+00 0. -1.
         21    1    1    2  503  502 -0.66379907223E+01  0.51147086906E+02 -0.51717222424E+02  0.73039431234E+02  0.00000000000E+00 0. -1.
         21    1    1    2  504  505  0.86117528906E+02 -0.68204621659E+01 -0.21688539796E+03  0.23345668407E+03  0.00000000000E+00 0. -1.
         21    1    1    2  505  501 -0.15823623570E+03  0.43022597384E+02 -0.26709875904E+03  0.31341888465E+03  0.00000000000E+00 0. -1.
         21    1    1    2  506  503  0.78756697515E+02 -0.87349222124E+02  0.41753328542E+02  0.12480322293E+03  0.00000000000E+00 0.  1.
<scales pt_clust_3="51.57604" pt_clust_4="84.57687" pt_clust_5="120.66438" pt_clust_6="14000.00000"></scales>
<clustering>
<clus scale="   51.576">  2  3  1 -1</clus>
<clus scale="   84.577">  2  4  1 -1</clus>
<clus scale="  120.664">  2  5  1 -1</clus>
<clus scale="  120.664">  1  3  2 -1</clus>
</clustering>
</event>
<event>
 6    0  0.8991567E+002  0.1358437E+03  0.7546771E-02  0.1219034E+00
         21   -1    0    0  503  501  0.00000000000E+00  0.00000000000E+00  0.74645417015E+03  0.74645417015E+03  0.00000000000E+00 0.  1.
         21   -1    0    0  505  502 -0.00000000000E+00 -0.00000000000E+00 -0.41730281515E+02  0.41730281515E+02  0.00000000000E+00 0. -1.
         21    1    1    2  503  506  0.91969582077E+01 -0.30198598182E+02  0.11216217909E+03  0.11651992873E+03  0.00000000000E+00 0. -1.
         21    1    1    2  504  501 -0.56955457536E+02 -0.50058263238E+02  0.10188076316E+03  0.12700174709E+03  0.00000000000E+00 0. -1.
         21    1    1    2  505  504 -0.37663132697E+02 -0.31659983396E+02  0.19548727764E+02  0.52943544180E+02  0.00000000000E+00 0. -1.
         21    1    1    2  506  502  0.85421632024E+02  0.11191684482E+03  0.47113221863E+03  0.49171923167E+03  0.00000000000E+00 0.  1.
<scales pt_clust_3="31.56801" pt_clust_4="35.74379" pt_clust_5="35.74379" pt_clust_6="128.25312"></scales>
<clustering>
<clus scale="   31.568">  1  3  2 -1</clus>
<clus scale="   35.744">  4  5 -1 -1</clus>
<clus scale="  128.253">  1  6  2 -1</clus>
<clus scale="   31.568">  1  3  2 -1</clus>
</clustering>
</event>
<event>
 6    0  0.8991567E+002  0.1034646E+03  0.7546771E-02  0.1273175E+00
         21   -1    0    0  506  501  0.00000000000E+00  0.00000000000E+00  0.23650722762E+03  0.23650722762E+03  0.00000000000E+00 0. -1.
         21   -1    0    0  505  502 -0.00000000000E+00 -0.00000000000E+00 -0.11620019928E+03  0.11620019928E+03  0.00000000000E+00 0.  1.
         21    1    1    2  503  504 -0.32884847793E+00  0.45196687519E+02  0.81251263908E+01  0.45922395222E+02  0.00000000000E+00 0.  1.
         21    1    1    2  504  502 -0.71127540411E+01 -0.66044571155E+02 -0.46650852731E+02  0.81171292398E+02  0.00000000000E+00 0.  1.
         21    1    1    2  505  501  0.48379818958E+02 -0.55478967067E+02  0.71915712542E+02  0.10290963210E+03  0.00000000000E+00 0.  1.
         21    1    1    2  506  503 -0.40938216439E+02  0.76326850703E+02  0.86917042134E+02  0.12270410717E+03  0.00000000000E+00 0. -1.
<scales pt_clust_3="39.10861" pt_clust_4="66.42648" pt_clust_5="88.17017" pt_clust_6="39.10861"></scales>
<clustering>
<clus scale="   39.109">  3  6 -1 -1</clus>
<clus scale="   66.426">  2  4  1 -1</clus>
<clus scale="   88.170">  1  5  2 -1</clus>
<clus scale="   88.170">  1  3  2 -1</clus>
</clustering>
</event>
<event>
 6    0  0.8991567E+002  0.1353072E+03  0.7546771E-02  0.1219787E+00
         21   -1    0    0  502  501  0.00000000000E+00  0.00000000000E+00  0.97560257060E+03  0.97560257060E+03  0.00000000000E+00 0.  1.
         21   -1    0    0  503  502 -0.00000000000E+00 -0.00000000000E+00 -0.42603070398E+02  0.42603070398E+02  0.00000000000E+00 0.  1.
         21    1    1    2  503  506 -0.35293062127E+01 -0.59532404006E+02  0.15804820452E+02  0.61695668232E+02  0.00000000000E+00 0.  1.
         21    1    1    2  504  505 -0.39217877201E+02  0.37119877652E+02  0.38979521831E+03  0.39351777523E+03  0.00000000000E+00 0.  1.
         21    1    1    2  505  501 -0.17532444854E+01  0.76121564818E+02  0.45910159014E+03  0.46537279310E+03  0.00000000000E+00 0.  1.
         21    1    1    2  506  504  0.44500427899E+02 -0.53709038464E+02  0.68297871305E+02  0.97619404427E+02  0.00000000000E+00 0.  1.
<scales pt_clust_3="57.04393" pt_clust_4="42.65039" pt_clust_5="130.64156" pt_clust_6="57.04393"></scales>
<clustering>
<clus scale="   42.650">  4  5 -1 -1</clus>
<clus scale="   57.044">  3  6 -1 -1</clus>
<clus scale="  130.642">  1  4  2 -1</clus>
<clus scale="  130.642">  1  3  2 -1</clus>
</clustering>
</event>
<event>
 6    0  0.8991567E+002  0.8903313E+02  0.7546771E-02  0.1305210E+00
         21   -1    0    0  503  501  0.00000000000E+00  0.00000000000E+00  0.49052311330E+03  0.49052311330E+03  0.00000000000E+00 0.  1.
         21   -1    0    0  506  502 -0.00000000000E+00 -0.00000000000E+00 -0.12232409146E+03  0.12232409146E+03  0.00000000000E+00 0.  1.
         21    1    1    2  503  505  0.44662416665E+02 -0.97585760501E+00  0.14772861128E+03  0.15433543453E+03  0.00000000000E+00 0.  1.
         21    1    1    2  504  502  0.13278200564E+02  0.13626388303E+03  0.18124261899E+03  0.22714102088E+03  0.00000000000E+00 0.  1.
         21    1    1    2  505  504 -0.53216423058E+02 -0.51307764676E+02  0.10231689256E+03  0.12622686284E+03  0.00000000000E+00 0.  1.
         21    1    1    2  506  501 -0.47241941700E+01 -0.83980260751E+02 -0.63089100990E+02  0.10514388651E+03  0.00000000000E+00 0.  1.
<scales pt_clust_3="44.67308" pt_clust_4="89.03313" pt_clust_5="64.22036" pt_clust_6="14000.00000"></scales>
<clustering>
<clus scale="   44.673">  1  3  2 -1</clus>
<clus scale="   64.220">  1  5  2 -1</clus>
<clus scale="   89.033">  1  4  2 -1</clus>
<clus scale="   44.673">  1  3  2 -1</clus>
</clustering>
</event>
<event>
 6    0  0.8991567E+002  0.1055506E+03  0.7546771E-02  0.1269039E+00
         21   -1    0    0  502  501  0.00000000000E+00  0.00000000000E+00  0.54135630708E+02  0.54135630708E+02  0.00000000000E+00 0.  1.
         21   -1    0    0  505  502 -0.00000000000E+00 -0.00000000000E+00 -0.10924762412E+04  0.10924762412E+04  0.00000000000E+00 0. -1.
         21    1    1    2  503  504 -0.64237334578E+02  0.88962870802E+02 -0.51855480193E+03  0.53003764973E+03  0.00000000000E+00 0. -1.
         21    1    1    2  504  506  0.99651104290E+02 -0.21474746476E+02 -0.22399491701E+03  0.24610004097E+03  0.00000000000E+00 0.  1.
         21    1    1    2  505  503 -0.32624311221E+02  0.27809510806E+01 -0.29831302469E+03  0.30010454857E+03  0.00000000000E+00 0. -1.
         21    1    1    2  506  501 -0.27894584906E+01 -0.70269075406E+02  0.25221331584E+01  0.70369632604E+02  0.00000000000E+00 0.  1.
<scales pt_clust_3="14000.00000" pt_clust_4="105.55061" pt_clust_5="32.74262" pt_clust_6="70.27485"></scales>
<clustering>
<clus scale="   32.743">  2  5  1 -1</clus>
<clus scale="   70.275">  1  6  2 -1</clus>
<clus scale="  105.551">  1  4  2 -1</clus>
<clus scale="   70.275">  1  3  2 -1</clus>
</clustering>
</event>
<event>
 6    0  0.8991567E+002  0.1889316E+03  0.7546771E-02  0.1159428E+00
         21   -1    0    0  503  501  0.00000000000E+00  0.00000000000E+00  0.51932847311E+03  0.51932847311E+03  0.00000000000E+00 0. -1.
         21   -1    0    0  504  502 -0.00000000000E+00 -0.00000000000E+00 -0.28489704229E+03  0.28489704229E+03  0.00000000000E+00 0. -1.
         21    1    1    2  503  506  0.12933239339E+03 -0.13984978794E+03  0.41703833561E+03  0.45848206566E+03  0.00000000000E+00 0. -1.
         21    1    1    2  504  501  0.25464363144E+01  0.69261272298E+02 -0.14668291126E+02  0.70843256156E+02  0.00000000000E+00 0. -1.
         21    1    1    2  505  502  0.27171351021E+02 -0.20146616722E+02 -0.34584126410E+02  0.48375926670E+02  0.00000000000E+00 0. -1.
         21    1    1    2  506  505 -0.15905018072E+03  0.90735132361E+02 -0.13335448725E+03  0.22652426692E+03  0.00000000000E+00 0. -1.
<scales pt_clust_3="14000.00000" pt_clust_4="66.12883" pt_clust_5="33.82556" pt_clust_6="188.93163"></scales>
<clustering>
<clus scale="   33.826">  2  5  1 -1</clus>
<clus scale="   66.129">  2  4  1 -1</clus>
<clus scale="  188.932">  2  6  1 -1</clus>
<clus scale="  188.932">  1  3  2 -1</clus>
</clustering>
</event>
<event>
 6    0  0.8991567E+002  0.1158950E+03  0.7546771E-02  0.1250027E+00
         21   -1    0    0  505  501  0.00000000000E+00  0.00000000000E+00  0.25516534855E+03  0.25516534855E+03  0.00000000000E+00 0. -1.
         21   -1    0    0  506  502 -0.00000000000E+00 -0.00000000000E+00 -0.76146713921E+03  0.76146713921E+03  0.00000000000E+00 0. -1.
         21    1    1    2  503  501  0.15592384068E+02  0.37597561402E+02  0.22006449403E+03  0.22379696289E+03  0.00000000000E+00 0. -1.
         21    1    1    2  504  503 -0.59829344630E+02  0.69009065936E+02 -0.12605846997E+03  0.15566804268E+03  0.00000000000E+00 0. -1.
         21    1    1    2  505  502  0.79193544884E+02 -0.13140850152E+03 -0.33555223167E+03  0.36896491974E+03  0.00000000000E+00 0. -1.
         21    1    1    2  506  504 -0.34956584322E+02  0.24801874184E+02 -0.26475558305E+03  0.26820256245E+03  0.00000000000E+00 0. -1.
<scales pt_clust_3="40.70257" pt_clust_4="115.89501" pt_clust_5="14000.00000" pt_clust_6="43.37896"></scales>
<clustering>
<clus scale="   40.703">  1  3  2 -1</clus>
<clus scale="   43.379">  2  6  1 -1</clus>
<clus scale="  115.895">  1  4  2 -1</clus>
<clus scale="   40.703">  1  3  2 -1</clus>
</clustering>
</event>
<event>
 6    0  0.8991567E+002  0.8284013E+02  0.7546771E-02  0.1321179E+00
         21   -1    0    0  503  501  0.00000000000E+00  0.00000000000E+00  0.14926221085E+04  0.14926221085E+04  0.00000000000E+00 0. -1.
         21   -1    0    0  506  502 -0.00000000000E+00 -0.00000000000E+00 -0.80953757980E+03  0.80953757980E+03  0.00000000000E+00 0.  1.
         21    1    1    2  503  504  0.19776740014E+02  0.11647441940E+03  0.56218442229E+03  0.57446386700E+03  0.00000000000E+00 0. -1.
         21    1    1    2  504  505 -0.41041659460E+02 -0.60336742203E+02 -0.89863145856E+02  0.11575977390E+03  0.00000000000E+00 0.  1.
         21    1    1    2  505  502  0.40835536564E+02 -0.22528454004E+02 -0.69939449097E+03  0.70094773435E+03  0.00000000000E+00 0.  1.
         21    1    1    2  506  501 -0.19570617119E+02 -0.33609223190E+02  0.91015774322E+03  0.91098831304E+03  0.00000000000E+00 0. -1.
<scales pt_clust_3="14000.00000" pt_clust_4="82.84013" pt_clust_5="46.63650" pt_clust_6="38.89202"></scales>
<clustering>
<clus scale="   38.892">  1  6  2 -1</clus>
<clus scale="   46.636">  2  5  1 -1</clus>
<clus scale="   82.840">  2  4  1 -1</clus>
<clus scale="   38.892">  1  3  2 -1</clus>
</clustering>
</event>
<event>
 6    0  0.8991567E+002  0.1228286E+03  0.7546771E-02  0.1238502E+00
         21   -1    0    0  504  501  0.00000000000E+00  0.00000000000E+00  0.10341007432E+04  0.10341007432E+04  0.00000000000E+00 0. -1.
         21   -1    0    0  503  502 -0.00000000000E+00 -0.00000000000E+00 -0.69717358665E+02  0.69717358665E+02  0.00000000000E+00 0. -1.
         21    1    1    2  503  501  0.28824450602E+02  0.95391840127E+01  0.31637379323E+02  0.43849387163E+02  0.00000000000E+00 0.  1.
         21    1    1    2  504  505 -0.21707568239E+02  0.13218563447E+03  0.87967518306E+03  0.88981609795E+03  0.00000000000E+00 0. -1.
         21    1    1    2  505  506  0.58606230412E+01 -0.81260917406E+02  0.68470430958E+02  0.10642313431E+03  0.00000000000E+00 0.  1.
         21    1    1    2  506  502 -0.12977505404E+02 -0.60463901080E+02 -0.15399608812E+02  0.63729482439E+02  0.00000000000E+00 0. -1.
<scales pt_clust_3="30.36190" pt_clust_4="14000.00000" pt_clust_5="122.82863" pt_clust_6="54.75504"></scales>
<clustering>
<clus scale="   30.362">  2  3  1 -1</clus>
<clus scale="   54.755">  2  6  1 -1</clus>
<clus scale="  122.829">  2  5  1 -1</clus>
<clus scale="  122.829">  1  3  2 -1</clus>
</clustering>
</event>
<event>
 6    0  0.8991567E+002  0.9977408E+02  0.7546771E-02  0.1280772E+00
         21   -1    0    0  503  501  0.00000000000E+00  0.00000000000E+00  0.11671592133E+04  0.11671592133E+04  0.00000000000E+00 0.  1.
         21   -1    0    0  506  502 -0.00000000000E+00 -0.00000000000E+00 -0.72993914342E+02  0.72993914342E+02  0.00000000000E+00 0. -1.
         21    1    1    2  503  502  0.11436602185E+02 -0.42999313091E+02 -0.31413274999E+02  0.54465866761E+02  0.00000000000E+00 0. -1.
         21    1    1    2  504  501 -0.41890167711E+02 -0.26589814664E+02  0.76273516686E+03  0.76434726346E+03  0.00000000000E+00 0.  1.
         21    1    1    2  505  504  0.33143536716E+02  0.13913822998E+03  0.26690260298E+03  0.30281172458E+03  0.00000000000E+00 0.  1.
         21    1    1    2  506  505 -0.26899711894E+01 -0.69549102224E+02  0.95940804076E+02  0.11852827280E+03  0.00000000000E+00 0.  1.
<scales pt_clust_3="44.49423" pt_clust_4="49.98859" pt_clust_5="99.77408" pt_clust_6="14000.00000"></scales>
<clustering>
<clus scale="   44.494">  2  3  1 -1</clus>
<clus scale="   49.989">  1  4  2 -1</clus>
<clus scale="   99.774">  1  5  2 -1</clus>
<clus scale="   49.989">  1  3  2 -1</clus>
</clustering>
</event>
<event>
 6    0  0.8991567E+002  0.6901926E+02  0.7546771E-02  0.1363460E+00
         21   -1    0    0  506  501  0.00000000000E+00  0.00000000000E+00  0.66908264314E+03  0.66908264314E+03  0.00000000000E+00 0. -1.
         21   -1    0    0  503  502 -0.00000000000E+00 -0.00000000000E+00 -0.13036949580E+03  0.13036949580E+03  0.00000000000E+00 0.  1.
         21    1    1    2  503  504 -0.18647317639E+02  0.88552634076E+02 -0.39086040478E+02  0.98574895472E+02  0.00000000000E+00 0.  1.
         21    1    1    2  504  501  0.48572306852E+02  0.36715141052E+01  0.59971242903E+02  0.77261238562E+02  0.00000000000E+00 0.  1.
         21    1    1    2  505  502 -0.50097872835E+02 -0.48444546525E+02 -0.28407858322E+02  0.75257407377E+02  0.00000000000E+00 0.  1.
         21    1    1    2  506  505  0.20172883621E+02 -0.43779601657E+02  0.54623580324E+03  0.54835859754E+03  0.00000000000E+00 0. -1.
<scales pt_clust_3="69.01926" pt_clust_4="63.50870" pt_clust_5="14000.00000" pt_clust_6="48.20372"></scales>
<clustering>
<clus scale="   48.204">  1  6  2 -1</clus>
<clus scale="   63.509">  1  4  2 -1</clus>
<clus scale="   69.019">  1  3  2 -1</clus>
<clus scale="   48.204">  1  3  2 -1</clus>
</clustering>
</event>
<event>
 6    0  0.8991567E+002  0.1438185E+03  0.7546771E-02  0.1208281E+00
         21   -1    0    0  503  501  0.00000000000E+00  0.00000000000E+00  0.86270309767E+02  0.86270309767E+02  0.00000000000E+00 0.  1.
         21   -1    0    0  506  502 -0.00000000000E+00 -0.00000000000E+00 -0.14638694368E+04  0.14638694368E+04  0.00000000000E+00 0. -1.
         21    1    1    2  503  504  0.33699587291E+02 -0.24332757421E+01  0.19550215665E+02  0.39035803398E+02  0.00000000000E+00 0.  1.
         21    1    1    2  504  502 -0.11452976876E+03 -0.75944483942E+01 -0.17887318565E+03  0.21253319769E+03  0.00000000000E+00 0.  1.
         21    1    1    2  505  501 -0.51480798928E+02  0.99440095238E+02 -0.55674112304E+02  0.12505283675E+03  0.00000000000E+00 0.  1.
         21    1    1    2  506  505  0.13231098040E+03 -0.89412371102E+02 -0.11626020448E+04  0.11735179087E+04  0.00000000000E+00 0. -1.
<scales pt_clust_3="33.78732" pt_clust_4="14000.00000" pt_clust_5="102.73577" pt_clust_6="143.81850"></scales>
<clustering>
<clus scale="   33.787">  1  3  2 -1</clus>
<clus scale="  102.736">  1  5  2 -1</clus>
<clus scale="  143.818">  2  6  1 -1</clus>
<clus scale="   33.787">  1  3  2 -1</clus>
</clustering>
</event>
<event>
 6    0  0.8991567E+002  0.1038006E+03  0.7546771E-02  0.1272501E+00
         21   -1    0    0  505  501  0.00000000000E+00  0.00000000000E+00  0.88710306994E+02  0.88710306994E+02  0.00000000000E+00 0. -1.
         21   -1    0    0  506  502 -0.00000000000E+00 -0.00000000000E+00 -0.14812320510E+04  0.14812320510E+04  0.00000000000E+00 0. -1.
         21    1    1    2  503  502 -0.87091413410E+02 -0.23449500750E+02 -0.97009818286E+03  0.97428192930E+03  0.00000000000E+00 0. -1.
         21    1    1    2  504  501  0.44567250532E+02 -0.85515791916E+00  0.18569168088E+02  0.48288560949E+02  0.00000000000E+00 0. -1.
         21    1    1    2  505  503 -0.18998975459E+02 -0.99656405951E+02 -0.18932559816E+02  0.10320272349E+03  0.00000000000E+00 0. -1.
         21    1    1    2  506  504  0.61523138337E+02  0.12396106462E+03 -0.42206016941E+03  0.44416914424E+03  0.00000000000E+00 0. -1.
<scales pt_clust_3="88.57430" pt_clust_4="44.57545" pt_clust_5="14000.00000" pt_clust_6="103.80058"></scales>
<clustering>
<clus scale="   44.575">  1  4  2 -1</clus>
<clus scale="   88.574">  2  3  1 -1</clus>
<clus scale="  103.801">  2  6  1 -1</clus>
<clus scale="   44.575">  1  3  2 -1</clus>
</clustering>
</event>
<event>
 6    0  0.8991567E+002  0.1237093E+03  0.7546771E-02  0.1237100E+00
         21   -1    0    0  503  501  0.00000000000E+00  0.00000000000E+00  0.80668050864E+02  0.80668050864E+02  0.00000000000E+00 0. -1.
         21   -1    0    0  501  502 -0.00000000000E+00 -0.00000000000E+00 -0.12369212979E+04  0.12369212979E+04  0.00000000000E+00 0. -1.
         21    1    1    2  503  505 -0.48772710527E+02  0.57321729812E+02  0.38619752886E+02  0.84593399942E+02  0.00000000000E+00 0. -1.
         21    1    1    2  504  506  0.22481350077E+02  0.11054861066E+03 -0.51234329743E+03  0.52461610807E+03  0.00000000000E+00 0. -1.
         21    1    1    2  505  504 -0.32841350571E+01 -0.15179936203E+03 -0.49187052178E+03  0.51477222346E+03  0.00000000000E+00 0. -1.
         21    1    1    2  506  502  0.29575495508E+02 -0.16070978450E+02 -0.19065918068E+03  0.19360761725E+03  0.00000000000E+00 0. -1.
<scales pt_clust_3="74.57276" pt_clust_4="123.70931" pt_clust_5="14000.00000" pt_clust_6="33.65986"></scales>
<clustering>
<clus scale="   33.660">  2  6  1 -1</clus>
<clus scale="   74.573">  1  3  2 -1</clus>
<clus scale="  123.709">  2  4  1 -1</clus>
<clus scale="   74.573">  1  3  2 -1</clus>
</clustering>
</event>
<event>
 6    0  0.8991567E+002  0.9455662E+02  0.7546771E-02  0.1292178E+00
         21   -1    0    0  506  501  0.00000000000E+00  0.00000000000E+00  0.15709415986E+04  0.15709415986E+04  0.00000000000E+00 0.  1.
         21   -1    0    0  504  502 -0.00000000000E+00 -0.00000000000E+00 -0.23081148655E+02  0.23081148655E+02  0.00000000000E+00 0.  1.
         21    1    1    2  503  502  0.10657908802E+02 -0.66690304806E+02  0.35094164564E+03  0.35738106612E+03  0.00000000000E+00 0.  1.
         21    1    1    2  504  501 -0.30009136684E+02 -0.41980798777E+02  0.54281514518E+02  0.74896051757E+02  0.00000000000E+00 0.  1.
         21    1    1    2  505  503  0.75446977323E+02  0.12891786609E+03  0.76800344559E+03  0.78239462870E+03  0.00000000000E+00 0.  1.
         21    1    1    2  506  505 -0.56095749442E+02 -0.20246762506E+02  0.37463384423E+03  0.37935100071E+03  0.00000000000E+00 0.  1.
<scales pt_clust_3="94.55662" pt_clust_4="51.60364" pt_clust_5="14000.00000" pt_clust_6="67.69766"></scales>
<clustering>
<clus scale="   51.604">  2  4  1 -1</clus>
<clus scale="   67.698">  1  6  2 -1</clus>
<clus scale="   94.557">  2  3  1 -1</clus>
<clus scale="   67.698">  1  3  2 -1</clus>
</clustering>
</event>
<event>
 6    0  0.8991567E+002  0.1291630E+03  0.7546771E-02  0.1228703E+00
         21   -1    0    0  505  501  0.00000000000E+00  0.00000000000E+00  0.22676504633E+03  0.22676504633E+03  0.00000000000E+00 0. -1.
         21   -1    0    0  504  502 -0.00000000000E+00 -0.00000000000E+00 -0.35824799861E+03  0.35824799861E+03  0.00000000000E+00 0. -1.
         21    1    1    2  503  502  0.95981436323E+02 -0.79376645955E+02 -0.23789113677E+03  0.26852426519E+03  0.00000000000E+00 0. -1.
         21    1    1    2  504  501  0.20445218888E+02  0.38449203953E+02 -0.79044746328E+02  0.90246441382E+02  0.00000000000E+00 0. -1.
         21    1    1    2  505  506 -0.56744250552E+02  0.37793099887E+02  0.11659666741E+03  0.13506669175E+03  0.00000000000E+00 0. -1.
         21    1    1    2  506  503 -0.59682404659E+02  0.31343421153E+01  0.68856263410E+02  0.91175646623E+02  0.00000000000E+00 0. -1.
<scales pt_clust_3="122.96539" pt_clust_4="43.54708" pt_clust_5="37.01026" pt_clust_6="37.01026"></scales>
<clustering>
<clus scale="   37.010">  5  6 -1 -1</clus>
<clus scale="   43.547">  2  4  1 -1</clus>
<clus scale="  122.965">  2  3  1 -1</clus>
<clus scale="  129.163">  1  3  2 -1</clus>
</clustering>
</event>
<event>
 6    0  0.8991567E+002  0.1338070E+03  0.7546771E-02  0.1221914E+00
         21   -1    0    0  504  501  0.00000000000E+00  0.00000000000E+00  0.77750620966E+03  0.77750620966E+03  0.00000000000E+00 0.  1.
         21   -1    0    0  503  502 -0.00000000000E+00 -0.00000000000E+00 -0.97656074847E+02  0.97656074847E+02  0.00000000000E+00 0.  1.
         21    1    1    2  503  506 -0.19710730221E+02 -0.28830849410E+02 -0.71352618667E+01  0.35646075877E+02  0.00000000000E+00 0.  1.
         21    1    1    2  504  505  0.43836134987E+02 -0.62297685839E+02  0.12988678582E+03  0.15057617847E+03  0.00000000000E+00 0.  1.
         21    1    1    2  505  502 -0.84536440858E+01  0.16652768831E+03  0.47249133485E+02  0.17330728688E+03  0.00000000000E+00 0.  1.
         21    1    1    2  506  501 -0.15671760679E+02 -0.75399153057E+02  0.50984947737E+03  0.51563274328E+03  0.00000000000E+00 0.  1.
<scales pt_clust_3="34.92464" pt_clust_4="77.96088" pt_clust_5="133.80699" pt_clust_6="14000.00000"></scales>
<clustering>
<clus scale="   34.925">  2  3  1 -1</clus>
<clus scale="   77.961">  1  4  2 -1</clus>
<clus scale="  133.807">  2  5  1 -1</clus>
<clus scale="   77.961">  1  3  2 -1</clus>
</clustering>
</event>
<event>
 6    0  0.8991567E+002  0.9262290E+02  0.7546771E-02  0.1296621E+00
         21   -1    0    0  505  501  0.00000000000E+00  0.00000000000E+00  0.53258311190E+03  0.53258311190E+03  0.00000000000E+00 0.  1.
         21   -1    0    0  504  502 -0.00000000000E+00 -0.00000000000E+00 -0.38631479602E+03  0.38631479602E+03  0.00000000000E+00 0. -1.
         21    1    1    2  503  502 -0.76465879344E+02  0.38821377310E+02 -0.32870358774E+03  0.33970601795E+03  0.00000000000E+00 0. -1.
         21    1    1    2  504  506  0.20330732251E+02  0.33783199564E+02 -0.16423277929E+02  0.42712612945E+02  0.00000000000E+00 0. -1.
         21    1    1    2  505  503 -0.53266210243E+02  0.91250341307E+01  0.47151659751E+02  0.71720529967E+02  0.00000000000E+00 0. -1.
         21    1    1    2  506  501  0.10940135734E+03 -0.81729611005E+02  0.44424352180E+03  0.46475874705E+03  0.00000000000E+00 0.  1.
<scales pt_clust_3="14000.00000" pt_clust_4="39.42896" pt_clust_5="53.56350" pt_clust_6="92.62290"></scales>
<clustering>
<clus scale="   39.429">  2  4  1 -1</clus>
<clus scale="   53.563">  1  5  2 -1</clus>
<clus scale="   92.623">  1  6  2 -1</clus>
<clus scale="   53.563">  1  3  2 -1</clus>
</clustering>
</event>
<event>
 6    0  0.8991567E+002  0.9439782E+02  0.7546771E-02  0.1292538E+00
         21   -1    0    0  506  501  0.00000000000E+00  0.00000000000E+00  0.62982522452E+02  0.62982522452E+02  0.00000000000E+00 0.  1.
         21   -1    0    0  505  502 -0.00000000000E+00 -0.00000000000E+00 -0.57959957791E+03  0.57959957791E+03  0.00000000000E+00 0.  1.
         21    1    1    2  503  502  0.33145579300E+02  0.17789173664E+02 -0.16855384048E+03  0.17270055376E+03  0.00000000000E+00 0.  1.
         21    1    1    2  504  501  0.85672838623E+02  0.59607672007E+01 -0.11841435912E+02  0.86692477342E+02  0.00000000000E+00 0.  1.
         21    1    1    2  505  504  0.23251399023E+02  0.24348753207E+02 -0.55652307264E+02  0.65043590331E+02  0.00000000000E+00 0.  1.
         21    1    1    2  506  503 -0.14206981695E+03 -0.48098694071E+02 -0.28056947180E+03  0.31814547893E+03  0.00000000000E+00 0.  1.
<scales pt_clust_3="48.25595" pt_clust_4="94.39782" pt_clust_5="33.66733" pt_clust_6="14000.00000"></scales>
<clustering>
<clus scale="   33.667">  2  5  1 -1</clus>
<clus scale="   48.256">  2  3  1 -1</clus>
<clus scale="   94.398">  1  4  2 -1</clus>
<clus scale="   94.398">  1  3  2 -1</clus>
</clustering>
</event>
<event>
 6    0  0.8991567E+002  0.2055019E+03  0.7546771E-02  0.1145178E+00
         21   -1    0    0  503  501  0.00000000000E+00  0.00000000000E+00  0.70392397069E+03  0.70392397069E+03  0.00000000000E+00 0. -1.
         21   -1    0    0  506  502 -0.00000000000E+00 -0.00000000000E+00 -0.45956312915E+03  0.45956312915E+03  0.00000000000E+00 0. -1.
         21    1    1    2  503  505  0.23138249480E+02  0.84840590009E+02  0.20916443629E+03  0.22689880059E+03  0.00000000000E+00 0.  1.
         21    1    1    2  504  502  0.81057056749E+02 -0.22001434048E+03 -0.37570250122E+03  0.44286445543E+03  0.00000000000E+00 0. -1.
         21    1    1    2  505  504 -0.64008192294E+02  0.10611330302E+03  0.57064940597E+02  0.13643126183E+03  0.00000000000E+00 0.  1.
         21    1    1    2  506  501 -0.40187113935E+02  0.29060447447E+02  0.35383396587E+03  0.35729258198E+03  0.00000000000E+00 0. -1.
<scales pt_clust_3="103.04859" pt_clust_4="14000.00000" pt_clust_5="205.50188" pt_clust_6="49.59348"></scales>
<clustering>
<clus scale="   49.593">  1  6  2 -1</clus>
<clus scale="  103.049">  1  3  2 -1</clus>
<clus scale="  205.502">  1  5  2 -1</clus>
<clus scale="   49.593">  1  3  2 -1</clus>
</clustering>
</event>
<event>
 6    0  0.8991567E+002  0.1087703E+03  0.7546771E-02  0.1262864E+00
         21   -1    0    0  506  501  0.00000000000E+00  0.00000000000E+00  0.29500764830E+03  0.29500764830E+03  0.00000000000E+00 0. -1.
         21   -1    0    0  503  502 -0.00000000000E+00 -0.00000000000E+00 -0.37054449675E+03  0.37054449675E+03  0.00000000000E+00 0.  1.
         21    1    1    2  503  505 -0.33814842123E+02  0.44858513822E+02 -0.16256493633E+03  0.17199734979E+03  0.00000000000E+00 0.  1.
         21    1    1    2  504  501 -0.10020221812E+02 -0.47447692057E+02  0.24911429410E+03  0.25379050386E+03  0.00000000000E+00 0. -1.
         21    1    1    2  505  504 -0.53812498749E+02  0.11859381989E+02 -0.12187859804E+03  0.13375657974E+03  0.00000000000E+00 0.  1.
         21    1    1    2  506  502  0.97647562684E+02 -0.92702037544E+01 -0.40207608165E+02  0.10600771165E+03  0.00000000000E+00 0.  1.
<scales pt_clust_3="40.61740" pt_clust_4="48.49421" pt_clust_5="40.61740" pt_clust_6="100.74283"></scales>
<clustering>
<clus scale="   40.617">  3  5 -1 -1</clus>
<clus scale="   48.494">  1  4  2 -1</clus>
<clus scale="  100.743">  1  6  2 -1</clus>
<clus scale="   48.494">  1  3  2 -1</clus>
</clustering>
</event>
<event>
 6    0  0.8991567E+002  0.1268557E+03  0.7546771E-02  0.1232197E+00
         21   -1    0    0  506  501  0.00000000000E+00  0.00000000000E+00  0.59050939937E+02  0.59050939937E+02  0.00000000000E+00 0. -1.
         21   -1    0    0  505  502 -0.00000000000E+00 -0.00000000000E+00 -0.71712496882E+03  0.71712496882E+03  0.00000000000E+00 0. -1.
         21    1    1    2  503  504  0.53913649619E+02  0.87735967054E+02 -0.24294102164E+03  0.26386477887E+03  0.00000000000E+00 0. -1.
         21    1    1    2  504  501 -0.48372666115E+02 -0.11926541437E+03 -0.58250046387E+02  0.14127003149E+03  0.00000000000E+00 0. -1.
         21    1    1    2  505  503  0.26960192828E+02  0.40077152363E+02 -0.30773100928E+03  0.31149864239E+03  0.00000000000E+00 0. -1.
         21    1    1    2  506  502 -0.32501176333E+02 -0.85477050478E+01 -0.49151951570E+02  0.59542456010E+02  0.00000000000E+00 0.  1.
<scales pt_clust_3="14000.00000" pt_clust_4="126.85573" pt_clust_5="47.42517" pt_clust_6="33.60639"></scales>
<clustering>
<clus scale="   33.606">  1  6  2 -1</clus>
<clus scale="   47.425">  2  5  1 -1</clus>
<clus scale="  126.856">  1  4  2 -1</clus>
<clus scale="   33.606">  1  3  2 -1</clus>
</clustering>
</event>
<event>
 6    0  0.8991567E+002  0.6784336E+02  0.7546771E-02  0.1367584E+00
         21   -1    0    0  506  501  0.00000000000E+00  0.00000000000E+00  0.10289286140E+02  0.10289286140E+02  0.00000000000E+00 0.  1.
         21   -1    0    0  504  502 -0.00000000000E+00 -0.00000000000E+00 -0.20153099219E+04  0.20153099219E+04  0.00000000000E+00 0.  1.
         21    1    1    2  503  501  0.65872141993E+02  0.88671442746E+02 -0.79360911096E+03  0.80125974868E+03  0.00000000000E+00 0.  1.
         21    1    1    2  504  503 -0.31819582398E+02  0.19096222883E+02 -0.32286793542E+03  0.32499362343E+03  0.00000000000E+00 0.  1.
         21    1    1    2  505  502 -0.17818122079E+00 -0.61894049192E+02 -0.69013657361E+03  0.69290648381E+03  0.00000000000E+00 0.  1.
         21    1    1    2  506  505 -0.33874378374E+02 -0.45873616437E+02 -0.19840701580E+03  0.20643935214E+03  0.00000000000E+00 0.  1.
<scales pt_clust_3="67.84336" pt_clust_4="37.10999" pt_clust_5="55.67107" pt_clust_6="14000.00000"></scales>
<clustering>
<clus scale="   37.110">  2  4  1 -1</clus>
<clus scale="   55.671">  2  5  1 -1</clus>
<clus scale="   67.843">  2  3  1 -1</clus>
<clus scale="   67.843">  1  3  2 -1</clus>
</clustering>
</event>
<event>
 6    0  0.8991567E+002  0.8896851E+02  0.7546771E-02  0.1305369E+00
         21   -1    0    0  505  501  0.00000000000E+00  0.00000000000E+00  0.97630080628E+02  0.97630080628E+02  0.00000000000E+00 0.  1.
         21   -1    0    0  504  502 -0.00000000000E+00 -0.00000000000E+00 -0.38836726513E+03  0.38836726513E+03  0.00000000000E+00 0.  1.
         21    1    1    2  503  502 -0.40858452853E+02  0.17862673397E+02 -0.21277247862E+03  0.21739506878E+03  0.00000000000E+00 0.  1.
         21    1    1    2  504  506 -0.58282424823E+02  0.13279041760E+02 -0.60926311288E+02  0.85353320969E+02  0.00000000000E+00 0.  1.
         21    1    1    2  505  503 -0.84349247052E+01  0.43773158680E+02  0.17165980413E+02  0.47769323411E+02  0.00000000000E+00 0. -1.
         21    1    1    2  506  501  0.10757580238E+03 -0.74914873838E+02 -0.34204375009E+02  0.13547963260E+03  0.00000000000E+00 0.  1.
<scales pt_clust_3="45.50720" pt_clust_4="14000.00000" pt_clust_5="44.57844" pt_clust_6="88.96851"></scales>
<clustering>
<clus scale="   44.578">  1  5  2 -1</clus>
<clus scale="   45.507">  2  3  1 -1</clus>
<clus scale="   88.969">  1  6  2 -1</clus>
<clus scale="   44.578">  1  3  2 -1</clus>
</clustering>
</event>
<event>
 6    0  0.1249869E+003  0.1033039E+03  0.7546771E-02  0.1273498E+00
         21   -1    0    0  506  501  0.00000000000E+00  0.00000000000E+00  0.53183037914E+03  0.53183037914E+03  0.00000000000E+00 0. -1.
         21   -1    0    0  504  502 -0.00000000000E+00 -0.00000000000E+00 -0.56601090481E+03  0.56601090481E+03  0.00000000000E+00 0.  1.
         21    1    1    2  503  501  0.85444488248E+02  0.68852613430E+02  0.46579034061E+03  0.47854162239E+03  0.00000000000E+00 0. -1.
         21    1    1    2  504  503 -0.78117428260E+02 -0.38316347972E+01 -0.52491555584E+03  0.53071023618E+03  0.00000000000E+00 0.  1.
         21    1    1    2  505  502 -0.22161374339E+02 -0.24738020933E+02 -0.83698639472E+01  0.34251289242E+02  0.00000000000E+00 0.  1.
         21    1    1    2  506  505  0.14834314352E+02 -0.40282957700E+02  0.33314553504E+02  0.54338136134E+02  0.00000000000E+00 0.  1.
<scales pt_clust_3="14000.00000" pt_clust_4="103.30385" pt_clust_5="33.21289" pt_clust_6="43.23145"></scales>
<clustering>
<clus scale="   33.213">  2  5  1 -1</clus>
<clus scale="   43.231">  1  6  2 -1</clus>
<clus scale="  103.304">  2  4  1 -1</clus>
<clus scale="   43.231">  1  3  2 -1</clus>
</clustering>
</event>
<event>
 6    0  0.8991567E+002  0.8208518E+02  0.7546771E-02  0.1323236E+00
         21   -1    0    0  503  501  0.00000000000E+00  0.00000000000E+00  0.12905987067E+03  0.12905987067E+03  0.00000000000E+00 0.  1.
         21   -1    0    0  505  502 -0.00000000000E+00 -0.00000000000E+00 -0.27135093129E+03  0.27135093129E+03  0.00000000000E+00 0.  1.
         21    1    1    2  503  506 -0.18690677936E+02  0.40884264774E+02  0.40702217510E+01  0.45137913697E+02  0.00000000000E+00 0.  1.
         21    1    1    2  504  502  0.10190833587E+03 -0.30393083946E+02 -0.75276884701E+02  0.13029066675E+03  0.00000000000E+00 0.  1.
         21    1    1    2  505  501 -0.41565972832E+02 -0.41930558902E+02 -0.13210007667E+03  0.14469392567E+03  0.00000000000E+00 0.  1.
         21    1    1    2  506  504 -0.41651685103E+02  0.31439378074E+02  0.61015679001E+02  0.80288295844E+02  0.00000000000E+00 0.  1.
<scales pt_clust_3="44.95403" pt_clust_4="82.08518" pt_clust_5="58.13972" pt_clust_6="14000.00000"></scales>
<clustering>
<clus scale="   44.954">  1  3  2 -1</clus>
<clus scale="   58.140">  2  5  1 -1</clus>
<clus scale="   82.085">  2  4  1 -1</clus>
<clus scale="   44.954">  1  3  2 -1</clus>
</clustering>
</event>
<event>
 6    0  0.8991567E+002  0.1100550E+03  0.7546771E-02  0.1260468E+00
         21   -1    0    0  505  501  0.00000000000E+00  0.00000000000E+00  0.16907927088E+03  0.16907927088E+03  0.00000000000E+00 0.  1.
         21   -1    0    0  506  502 -0.00000000000E+00 -0.00000000000E+00 -0.39813498511E+03  0.39813498511E+03  0.00000000000E+00 0.  1.
         21    1    1    2  503  501  0.81676724745E+02 -0.61896635268E+02 -0.13327076756E+02  0.10334356195E+03  0.00000000000E+00 0.  1.
         21    1    1    2  504  502  0.68191994433E+02  0.53832420908E+02 -0.16759404863E+03  0.18877458193E+03  0.00000000000E+00 0.  1.
         21    1    1    2  505  504  0.10601813173E+02  0.36491101207E+02  0.65984117444E+02  0.76143960133E+02  0.00000000000E+00 0.  1.
         21    1    1    2  506  503 -0.16047053235E+03 -0.28426886847E+02 -0.11411870629E+03  0.19895215197E+03  0.00000000000E+00 0.  1.
<scales pt_clust_3="14000.00000" pt_clust_4="90.25330" pt_clust_5="37.99999" pt_clust_6="110.05498"></scales>
<clustering>
<clus scale="   38.000">  1  5  2 -1</clus>
<clus scale="   90.253">  2  4  1 -1</clus>
<clus scale="  110.055">  2  6  1 -1</clus>
<clus scale="   38.000">  1  3  2 -1</clus>
</clustering>
</event>
<event>
 6    0  0.8991567E+002  0.1358439E+03  0.7546771E-02  0.1219033E+00
         21   -1    0    0  505  501  0.00000000000E+00  0.00000000000E+00  0.25179141470E+03  0.25179141470E+03  0.00000000000E+00 0. -1.
         21   -1    0    0  503  502 -0.00000000000E+00 -0.00000000000E+00 -0.18818413089E+04  0.18818413089E+04  0.00000000000E+00 0.  1.
         21    1    1    2  503  506 -0.10419717326E+03 -0.62040042406E+02 -0.75013857961E+03  0.75987756013E+03  0.00000000000E+00 0.  1.
         21    1    1    2  504  502  0.89335562121E+01 -0.33934420961E+02 -0.10235338693E+04  0.10241352133E+04  0.00000000000E+00 0.  1.
         21    1    1    2  505  504  0.14347236908E+03  0.16858491835E+03  0.14092419019E+03  0.26242107912E+03  0.00000000000E+00 0. -1.
         21    1    1    2  506  501 -0.48208752030E+02 -0.72610454988E+02  0.26983645781E+01  0.87198871078E+02  0.00000000000E+00 0. -1.
<scales pt_clust_3="135.84389" pt_clust_4="35.09064" pt_clust_5="14000.00000" pt_clust_6="88.31533"></scales>
<clustering>
<clus scale="   35.091">  2  4  1 -1</clus>
<clus scale="   88.315">  1  6  2 -1</clus>
<clus scale="  135.844">  2  3  1 -1</clus>
<clus scale="   88.315">  1  3  2 -1</clus>
</clustering>
</event>
<event>
 6    0  0.8991567E+002  0.6979339E+02  0.7546771E-02  0.1360797E+00
         21   -1    0    0  504  501  0.00000000000E+00  0.00000000000E+00  0.62180142862E+02  0.62180142862E+02  0.00000000000E+00 0.  1.
         21   -1    0    0  505  502 -0.00000000000E+00 -0.00000000000E+00 -0.45885854222E+03  0.45885854222E+03  0.00000000000E+00 0.  1.
         21    1    1    2  503  506  0.16986381486E+02  0.61841485470E+02 -0.65417462294E+02  0.91609774883E+02  0.00000000000E+00 0.  1.
         21    1    1    2  504  502  0.51604847086E+02 -0.98192487906E+02 -0.13189907510E+03  0.17234323583E+03  0.00000000000E+00 0.  1.
         21    1    1    2  505  503 -0.24091859183E+02  0.55682053802E+02 -0.19954924304E+03  0.20856847603E+03  0.00000000000E+00 0.  1.
         21    1    1    2  506  501 -0.44499369390E+02 -0.19331051366E+02  0.18738107927E+00  0.48517198339E+02  0.00000000000E+00 0.  1.
<scales pt_clust_3="55.17164" pt_clust_4="14000.00000" pt_clust_5="69.79339" pt_clust_6="48.51684"></scales>
<clustering>
<clus scale="   48.517">  1  6  2 -1</clus>
<clus scale="   55.172">  1  3  2 -1</clus>
<clus scale="   69.793">  2  5  1 -1</clus>
<clus scale="   48.517">  1  3  2 -1</clus>
</clustering>
</event>
<event>
 6    0  0.8991567E+002  0.9336341E+02  0.7546771E-02  0.1294905E+00
         21   -1    0    0  504  501  0.00000000000E+00  0.00000000000E+00  0.18459251336E+03  0.18459251336E+03  0.00000000000E+00 0.  1.
         21   -1    0    0  506  502 -0.00000000000E+00 -0.00000000000E+00 -0.25625157517E+03  0.25625157517E+03  0.00000000000E+00 0.  1.
         21    1    1    2  503  502  0.44799705997E+02 -0.16815069123E+02 -0.12867878474E+03  0.13728798145E+03  0.00000000000E+00 0.  1.
         21    1    1    2  504  505  0.63314577383E+02  0.83384573708E+01  0.59455483752E+02  0.87253768564E+02  0.00000000000E+00 0.  1.
         21    1    1    2  505  503 -0.92214391455E+02 -0.80601430312E+02 -0.20086215343E+02  0.12411100115E+03  0.00000000000E+00 0.  1.
         21    1    1    2  506  501 -0.15899891925E+02  0.89078042063E+02  0.17650454529E+02  0.92191337370E+02  0.00000000000E+00 0.  1.
<scales pt_clust_3="47.85144" pt_clust_4="68.66886" pt_clust_5="93.36341" pt_clust_6="14000.00000"></scales>
<clustering>
<clus scale="   47.851">  2  3  1 -1</clus>
<clus scale="   68.669">  1  4  2 -1</clus>
<clus scale="   93.363">  2  5  1 -1</clus>
<clus scale="   68.669">  1  3  2 -1</clus>
</clustering>
</event>
<event>
 6    0  0.8991567E+002  0.9334605E+02  0.7546771E-02  0.1294945E+00
         21   -1    0    0  504  501  0.00000000000E+00  0.00000000000E+00  0.20731553043E+04  0.20731553043E+04  0.00000000000E+00 0.  1.
         21   -1    0    0  505  502 -0.00000000000E+00 -0.00000000000E+00 -0.26630270475E+03  0.26630270475E+03  0.00000000000E+00 0. -1.
         21    1    1    2  503  501 -0.92944502722E+02  0.62800962475E+01  0.19188848588E+04  0.19211447685E+04  0.00000000000E+00 0.  1.
         21    1    1    2  504  502 -0.72130504755E+02 -0.24108202590E+02  0.89680570617E+02  0.11758664845E+03  0.00000000000E+00 0.  1.
         21    1    1    2  505  506  0.53776867426E+02  0.78467230002E+02 -0.10187052104E+03  0.13937955629E+03  0.00000000000E+00 0.  1.
         21    1    1    2  506  503  0.11129814005E+03 -0.60639123660E+02 -0.99842308894E+02  0.16134703574E+03  0.00000000000E+00 0. -1.
<scales pt_clust_3="14000.00000" pt_clust_4="76.05271" pt_clust_5="69.66936" pt_clust_6="93.34605"></scales>
<clustering>
<clus scale="   76.053">  2  4  1 -1</clus>
<clus scale="   69.669">  2  5  1 -1</clus>
<clus scale="   93.346">  2  6  1 -1</clus>
<clus scale="   93.346">  1  3  2 -1</clus>
</clustering>
</event>
<event>
 6    0  0.8991567E+002  0.1675895E+03  0.7546771E-02  0.1180385E+00
         21   -1    0    0  505  501  0.00000000000E+00  0.00000000000E+00  0.28357678626E+04  0.28357678626E+04  0.00000000000E+00 0.  1.
         21   -1    0    0  504  502 -0.00000000000E+00 -0.00000000000E+00 -0.12547933280E+03  0.12547933280E+03  0.00000000000E+00 0. -1.
         21    1    1    2  503  501  0.34263832948E+02  0.45823652419E+01  0.13057657882E+03  0.13507498383E+03  0.00000000000E+00 0.  1.
         21    1    1    2  504  503 -0.60237006987E+02 -0.15858085471E+03 -0.72409391659E+01  0.16979050531E+03  0.00000000000E+00 0. -1.
         21    1    1    2  505  506  0.38689505377E+02 -0.19519397378E+02  0.24022435769E+04  0.24026344057E+04  0.00000000000E+00 0.  1.
         21    1    1    2  506  502 -0.12716331338E+02  0.17351788685E+03  0.18470931323E+03  0.25374730054E+03  0.00000000000E+00 0. -1.
<scales pt_clust_3="34.56889" pt_clust_4="167.58949" pt_clust_5="70.84835" pt_clust_6="14000.00000"></scales>
<clustering>
<clus scale="   34.569">  1  3  2 -1</clus>
<clus scale="   70.848">  1  5  2 -1</clus>
<clus scale="  167.589">  2  4  1 -1</clus>
<clus scale="   34.569">  1  3  2 -1</clus>
</clustering>
</event>
<event>
 6    0  0.8991567E+002  0.1657888E+03  0.7546771E-02  0.1182312E+00
         21   -1    0    0  505  501  0.00000000000E+00  0.00000000000E+00  0.83114726808E+03  0.83114726808E+03  0.00000000000E+00 0. -1.
         21   -1    0    0  506  502 -0.00000000000E+00 -0.00000000000E+00 -0.18905146670E+03  0.18905146670E+03  0.00000000000E+00 0.  1.
         21    1    1    2  503  502  0.33723685787E+02 -0.45891524091E+02 -0.43565109690E+02  0.71702424985E+02  0.00000000000E+00 0.  1.
         21    1    1    2  504  501  0.14033132368E+03  0.82151052057E+02  0.47567675754E+03  0.50270274858E+03  0.00000000000E+00 0. -1.
         21    1    1    2  505  503 -0.15550587013E+03 -0.72556661600E+02  0.30076866788E+03  0.34627783118E+03  0.00000000000E+00 0.  1.
         21    1    1    2  506  504 -0.18549139345E+02  0.36297133634E+02 -0.90784514346E+02  0.99515730041E+02  0.00000000000E+00 0.  1.
<scales pt_clust_3="32.50564" pt_clust_4="14000.00000" pt_clust_5="165.78877" pt_clust_6="40.76215"></scales>
<clustering>
<clus scale="   40.762">  2  6  1 -1</clus>
<clus scale="   32.506">  2  3  1 -1</clus>
<clus scale="  165.789">  2  5  1 -1</clus>
<clus scale="  165.789">  1  3  2 -1</clus>
</clustering>
</event>
<event>
 6    0  0.8991567E+002  0.6775973E+02  0.7546771E-02  0.1367881E+00
         21   -1    0    0  506  501  0.00000000000E+00  0.00000000000E+00  0.20079508967E+03  0.20079508967E+03  0.00000000000E+00 0.  1.
         21   -1    0    0  503  502 -0.00000000000E+00 -0.00000000000E+00 -0.29307341836E+03  0.29307341836E+03  0.00000000000E+00 0.  1.
         21    1    1    2  503  504 -0.43252505892E+02 -0.64917812713E+02 -0.45052877576E+02  0.90082536883E+02  0.00000000000E+00 0.  1.
         21    1    1    2  504  501 -0.52805124391E+01 -0.46785941245E+02  0.13701384935E+03  0.14487789004E+03  0.00000000000E+00 0.  1.
         21    1    1    2  505  502  0.41144799043E+02  0.25044135557E+02 -0.16217789880E+03  0.16917970940E+03  0.00000000000E+00 0.  1.
         21    1    1    2  506  505  0.73882192877E+01  0.86659618400E+02 -0.22061401662E+02  0.89728371705E+02  0.00000000000E+00 0.  1.
<scales pt_clust_3="14000.00000" pt_clust_4="47.08299" pt_clust_5="46.53161" pt_clust_6="67.75973"></scales>
<clustering>
<clus scale="   47.083">  1  4  2 -1</clus>
<clus scale="   46.532">  2  5  1 -1</clus>
<clus scale="   67.760">  1  6  2 -1</clus>
<clus scale="   47.083">  1  3  2 -1</clus>
</clustering>
</event>
<event>
 6    0  0.8991567E+002  0.7560200E+02  0.7546771E-02  0.1342017E+00
         21   -1    0    0  506  501  0.00000000000E+00  0.00000000000E+00  0.40690450620E+03  0.40690450620E+03  0.00000000000E+00 0. -1.
         21   -1    0    0  504  502 -0.00000000000E+00 -0.00000000000E+00 -0.52769613889E+02  0.52769613889E+02  0.00000000000E+00 0. -1.
         21    1    1    2  503  502  0.17825120803E+01 -0.40595813099E+02  0.27475648404E+02  0.49052101338E+02  0.00000000000E+00 0. -1.
         21    1    1    2  504  505  0.11195626945E+02  0.76233033228E+02  0.94216297257E+02  0.12171083800E+03  0.00000000000E+00 0. -1.
         21    1    1    2  505  501 -0.64530654526E+02 -0.51533701240E+02  0.21791965866E+03  0.23304271147E+03  0.00000000000E+00 0. -1.
         21    1    1    2  506  503  0.51552515500E+02  0.15896481111E+02  0.14523287989E+02  0.55868469284E+02  0.00000000000E+00 0. -1.
<scales pt_clust_3="40.63493" pt_clust_4="75.60200" pt_clust_5="14000.00000" pt_clust_6="52.58985"></scales>
<clustering>
<clus scale="   40.635">  2  3  1 -1</clus>
<clus scale="   52.590">  2  6  1 -1</clus>
<clus scale="   75.602">  2  4  1 -1</clus>
<clus scale="   75.602">  1  3  2 -1</clus>
</clustering>
</event>
<event>
 6    0  0.8991567E+002  0.2111154E+03  0.7546771E-02  0.1140686E+00
         21   -1    0    0  503  501  0.00000000000E+00  0.00000000000E+00  0.71399001112E+03  0.71399001112E+03  0.00000000000E+00 0. -1.
         21   -1    0    0  504  502 -0.00000000000E+00 -0.00000000000E+00 -0.17819965193E+03  0.17819965193E+03  0.00000000000E+00 0. -1.
         21    1    1    2  503  505  0.97966692170E+02  0.13734739570E+03  0.53430084467E+03  0.56030275075E+03  0.00000000000E+00 0. -1.
         21    1    1    2  504  501 -0.11081730638E+03 -0.17519170754E+03 -0.57753072693E+02  0.21519299986E+03  0.00000000000E+00 0. -1.
         21    1    1    2  505  506  0.36432189745E+02  0.10502050083E+02  0.69490266914E+02  0.79161194416E+02  0.00000000000E+00 0.  1.
         21    1    1    2  506  502 -0.23581575536E+02  0.27342261756E+02 -0.10247679713E+02  0.37532718024E+02  0.00000000000E+00 0. -1.
<scales pt_clust_3="31.54593" pt_clust_4="200.35419" pt_clust_5="31.54593" pt_clust_6="36.10665"></scales>
<clustering>
<clus scale="   31.546">  3  5 -1 -1</clus>
<clus scale="   36.107">  2  6  1 -1</clus>
<clus scale="  200.354">  2  4  1 -1</clus>
<clus scale="  211.115">  1  3  2 -1</clus>
</clustering>
</event>
<event>
 6    0  0.8991567E+002  0.9681796E+02  0.7546771E-02  0.1287133E+00
         21   -1    0    0  503  501  0.00000000000E+00  0.00000000000E+00  0.47702076963E+03  0.47702076963E+03  0.00000000000E+00 0. -1.
         21   -1    0    0  504  502 -0.00000000000E+00 -0.00000000000E+00 -0.65106890422E+02  0.65106890422E+02  0.00000000000E+00 0. -1.
         21    1    1    2  503  502  0.88090639211E+02  0.33621418978E+02  0.13116016310E+03  0.16153435831E+03  0.00000000000E+00 0. -1.
         21    1    1    2  504  506 -0.38611783437E+02  0.14537553766E+02  0.27676952141E+02  0.49681223510E+02  0.00000000000E+00 0. -1.
         21    1    1    2  505  501 -0.58037469833E+01 -0.89381409770E+02  0.25556228435E+03  0.27080399014E+03  0.00000000000E+00 0. -1.
         21    1    1    2  506  505 -0.43675108791E+02  0.41222437026E+02 -0.24855203850E+01  0.60108088091E+02  0.00000000000E+00 0. -1.
<scales pt_clust_3="88.51520" pt_clust_4="32.51324" pt_clust_5="89.56964" pt_clust_6="32.51324"></scales>
<clustering>
<clus scale="   32.513">  4  6 -1 -1</clus>
<clus scale="   89.570">  1  5  2 -1</clus>
<clus scale="   88.515">  1  3  2 -1</clus>
<clus scale="   89.570">  1  3  2 -1</clus>
</clustering>
</event>
<event>
 6    0  0.8991567E+002  0.7187211E+02  0.7546771E-02  0.1353840E+00
         21   -1    0    0  503  501  0.00000000000E+00  0.00000000000E+00  0.28778021062E+03  0.28778021062E+03  0.00000000000E+00 0.  1.
         21   -1    0    0  505  502 -0.00000000000E+00 -0.00000000000E+00 -0.13384555408E+03  0.13384555408E+03  0.00000000000E+00 0.  1.
         21    1    1    2  503  506 -0.53972538274E+02  0.84619411547E+02  0.81568638370E+02  0.12933260403E+03  0.00000000000E+00 0.  1.
         21    1    1    2  504  501 -0.38082159481E+01 -0.66760149094E+02  0.13688271186E+03  0.15234269534E+03  0.00000000000E+00 0.  1.
         21    1    1    2  505  504  0.24828028438E+02 -0.55023952590E+02 -0.23957402916E+01  0.60413623681E+02  0.00000000000E+00 0.  1.
         21    1    1    2  506  502  0.32952725784E+02  0.37164690136E+02 -0.62120953396E+02  0.79536841655E+02  0.00000000000E+00 0.  1.
<scales pt_clust_3="14000.00000" pt_clust_4="71.87211" pt_clust_5="55.08201" pt_clust_6="49.66987"></scales>
<clustering>
<clus scale="   49.670">  2  6  1 -1</clus>
<clus scale="   55.082">  2  5  1 -1</clus>
<clus scale="   71.872">  1  4  2 -1</clus>
<clus scale="   71.872">  1  3  2 -1</clus>
</clustering>
</event>
<event>
 6    0  0.8991567E+002  0.1609035E+03  0.7546771E-02  0.1187680E+00
         21   -1    0    0  503  501  0.00000000000E+00  0.00000000000E+00  0.72181224900E+03  0.72181224900E+03  0.00000000000E+00 0.  1.
         21   -1    0    0  506  502 -0.00000000000E+00 -0.00000000000E+00 -0.18481718855E+04  0.18481718855E+04  0.00000000000E+00 0. -1.
         21    1    1    2  503  504 -0.12070130487E+02 -0.43086063353E+02  0.67200365407E+03  0.67349165399E+03  0.00000000000E+00 0.  1.
         21    1    1    2  504  505 -0.37728408135E+02 -0.12430370304E+03 -0.40371537061E+03  0.42410015779E+03  0.00000000000E+00 0. -1.
         21    1    1    2  505  502  0.11384701375E+02 -0.34102457379E+02 -0.11606936344E+04  0.11612503184E+04  0.00000000000E+00 0. -1.
         21    1    1    2  506  501  0.38413837247E+02  0.20149222377E+03 -0.23395428555E+03  0.31114200433E+03  0.00000000000E+00 0. -1.
<scales pt_clust_3="44.77703" pt_clust_4="14000.00000" pt_clust_5="35.95259" pt_clust_6="160.90348"></scales>
<clustering>
<clus scale="   35.953">  2  5  1 -1</clus>
<clus scale="   44.777">  1  3  2 -1</clus>
<clus scale="  160.903">  1  6  2 -1</clus>
<clus scale="   44.777">  1  3  2 -1</clus>
</clustering>
</event>
<event>
 6    0  0.8991567E+002  0.9927277E+02  0.7546771E-02  0.1281833E+00
         21   -1    0    0  504  501  0.00000000000E+00  0.00000000000E+00  0.11156553748E+03  0.11156553748E+03  0.00000000000E+00 0. -1.
         21   -1    0    0  503  502 -0.00000000000E+00 -0.00000000000E+00 -0.86610402074E+03  0.86610402074E+03  0.00000000000E+00 0. -1.
         21    1    1    2  503  501 -0.35950682049E+02 -0.10621494569E+03 -0.61919231113E+03  0.62926400214E+03  0.00000000000E+00 0. -1.
         21    1    1    2  504  505  0.23140656687E+02  0.49669422604E+02  0.72351206744E+02  0.90759234522E+02  0.00000000000E+00 0. -1.
         21    1    1    2  505  506 -0.24302010253E+02  0.61404576995E+02 -0.24141127242E+02  0.70312899263E+02  0.00000000000E+00 0. -1.
         21    1    1    2  506  502  0.37112035615E+02 -0.48590539074E+01 -0.18355625163E+03  0.18733342229E+03  0.00000000000E+00 0. -1.
<scales pt_clust_3="14000.00000" pt_clust_4="54.94994" pt_clust_5="99.27277" pt_clust_6="37.42878"></scales>
<clustering>
<clus scale="   37.429">  2  6  1 -1</clus>
<clus scale="   54.950">  1  4  2 -1</clus>
<clus scale="   99.273">  1  5  2 -1</clus>
<clus scale="   54.950">  1  3  2 -1</clus>
</clustering>
</event>
<event>
 6    0  0.8991567E+002  0.7743707E+02  0.7546771E-02  0.1336486E+00
         21   -1    0    0  505  501  0.00000000000E+00  0.00000000000E+00  0.12979905008E+04  0.12979905008E+04  0.00000000000E+00 0. -1.
         21   -1    0    0  506  502 -0.00000000000E+00 -0.00000000000E+00 -0.17516408822E+03  0.17516408822E+03  0.00000000000E+00 0. -1.
         21    1    1    2  503  501 -0.20619324505E+02  0.46193225828E+02  0.45497925582E+03  0.45778280208E+03  0.00000000000E+00 0. -1.
         21    1    1    2  504  502 -0.29700741084E+02  0.60405724117E+01 -0.17406829591E+02  0.34951684543E+02  0.00000000000E+00 0.  1.
         21    1    1    2  505  504 -0.55965058137E+02 -0.33929964086E+02  0.81163898590E+03  0.81427340226E+03  0.00000000000E+00 0. -1.
         21    1    1    2  506  503  0.10628512373E+03 -0.18303834154E+02 -0.12638499952E+03  0.16614670016E+03  0.00000000000E+00 0. -1.
<scales pt_clust_3="50.75260" pt_clust_4="30.30879" pt_clust_5="77.43707" pt_clust_6="14000.00000"></scales>
<clustering>
<clus scale="   30.309">  2  4  1 -1</clus>
<clus scale="   50.753">  1  3  2 -1</clus>
<clus scale="   77.437">  1  5  2 -1</clus>
<clus scale="   50.753">  1  3  2 -1</clus>
</clustering>
</event>
<event>
 6    0  0.8991567E+002  0.1051895E+03  0.7546771E-02  0.1269747E+00
         21   -1    0    0  506  501  0.00000000000E+00  0.00000000000E+00  0.52556823239E+03  0.52556823239E+03  0.00000000000E+00 0. -1.
         21   -1    0    0  505  502 -0.00000000000E+00 -0.00000000000E+00 -0.35548643163E+02  0.35548643163E+02  0.00000000000E+00 0.  1.
         21    1    1    2  503  504  0.58552126341E+02  0.22859294473E+02  0.11633801602E+03  0.13223249530E+03  0.00000000000E+00 0. -1.
         21    1    1    2  504  502 -0.35853320651E+02  0.43060639546E+02  0.78854048965E+02  0.96734897105E+02  0.00000000000E+00 0.  1.
         21    1    1    2  505  501 -0.41350086953E+02 -0.96347271226E+02  0.15013508722E+03  0.18312064542E+03  0.00000000000E+00 0.  1.
         21    1    1    2  506  503  0.18651281263E+02  0.30427337207E+02  0.14469243702E+03  0.14902883773E+03  0.00000000000E+00 0. -1.
<scales pt_clust_3="35.11099" pt_clust_4="56.03284" pt_clust_5="94.30598" pt_clust_6="35.11099"></scales>
<clustering>
<clus scale="   35.111">  3  6 -1 -1</clus>
<clus scale="   56.033">  2  4  1 -1</clus>
<clus scale="   94.306">  2  5  1 -1</clus>
<clus scale="  105.189">  1  3  2 -1</clus>
</clustering>
</event>
<event>
 6    0  0.8991567E+002  0.2214092E+03  0.7546771E-02  0.1132837E+00
         21   -1    0    0  506  501  0.00000000000E+00  0.00000000000E+00  0.83888718449E+03  0.83888718449E+03  0.00000000000E+00 0.  1.
         21   -1    0    0  503  502 -0.00000000000E+00 -0.00000000000E+00 -0.55221163372E+03  0.55221163372E+03  0.00000000000E+00 0. -1.
         21    1    1    2  503  505 -0.85659194916E+02  0.16769249964E+03 -0.39950524464E+02  0.19249497790E+03  0.00000000000E+00 0. -1.
         21    1    1    2  504  502 -0.15305463880E+02  0.34596010450E+02 -0.29715061674E+03  0.29954904472E+03  0.00000000000E+00 0. -1.
         21    1    1    2  505  501  0.24652961554E+00  0.37763251874E+02  0.63726295620E+03  0.63838092023E+03  0.00000000000E+00 0.  1.
         21    1    1    2  506  504  0.10071812918E+03 -0.24005176197E+03 -0.13486264224E+02  0.26067387535E+03  0.00000000000E+00 0.  1.
<scales pt_clust_3="221.40921" pt_clust_4="38.03592" pt_clust_5="37.76406" pt_clust_6="14000.00000"></scales>
<clustering>
<clus scale="   37.764">  1  5  2 -1</clus>
<clus scale="   38.036">  2  4  1 -1</clus>
<clus scale="  221.409">  2  3  1 -1</clus>
<clus scale="   37.764">  1  3  2 -1</clus>
</clustering>
</event>
<event>
 6    0  0.8991567E+002  0.8007723E+02  0.7546771E-02  0.1328832E+00
         21   -1    0    0  503  501  0.00000000000E+00  0.00000000000E+00  0.65887042497E+02  0.65887042497E+02  0.00000000000E+00 0. -1.
         21   -1    0    0  505  502 -0.00000000000E+00 -0.00000000000E+00 -0.36587036527E+03  0.36587036527E+03  0.00000000000E+00 0. -1.
         21    1    1    2  503  506 -0.60414180242E+02 -0.63546325647E+02 -0.18764695208E+02  0.89666729971E+02  0.00000000000E+00 0. -1.
         21    1    1    2  504  502  0.36745422463E+02 -0.12803254218E+02 -0.17070577736E+03  0.17508458474E+03  0.00000000000E+00 0. -1.
         21    1    1    2  505  501  0.34691453312E+02 -0.11344854847E+02 -0.37914595486E+02  0.52628121906E+02  0.00000000000E+00 0.  1.
         21    1    1    2  506  504 -0.11022695534E+02  0.87694434712E+02 -0.72598254725E+02  0.11437797115E+03  0.00000000000E+00 0. -1.
<scales pt_clust_3="80.07723" pt_clust_4="58.59332" pt_clust_5="36.49935" pt_clust_6="14000.00000"></scales>
<clustering>
<clus scale="   36.499">  2  5  1 -1</clus>
<clus scale="   58.593">  2  4  1 -1</clus>
<clus scale="   80.077">  1  3  2 -1</clus>
<clus scale="   80.077">  1  3  2 -1</clus>
</clustering>
</event>
<event>
 6    0  0.8991567E+002  0.1135205E+03  0.7546771E-02  0.1254186E+00
         21   -1    0    0  503  501  0.00000000000E+00  0.00000000000E+00  0.39175833103E+03  0.39175833103E+03  0.00000000000E+00 0. -1.
         21   -1    0    0  504  502 -0.00000000000E+00 -0.00000000000E+00 -0.13782957051E+03  0.13782957051E+03  0.00000000000E+00 0. -1.
         21    1    1    2  503  506 -0.11492669158E+03 -0.24650133467E+02  0.11408031241E+03  0.16379893528E+03  0.00000000000E+00 0. -1.
         21    1    1    2  504  505  0.10311342216E+03  0.11247676247E+03  0.36333401034E+02  0.15685507947E+03  0.00000000000E+00 0. -1.
         21    1    1    2  505  501  0.42918052031E+02 -0.27188618316E+02  0.12705205604E+03  0.13683349407E+03  0.00000000000E+00 0. -1.
         21    1    1    2  506  502 -0.31104782606E+02 -0.60638010687E+02 -0.23537008961E+02  0.72100392730E+02  0.00000000000E+00 0. -1.
<scales pt_clust_3="113.52046" pt_clust_4="14000.00000" pt_clust_5="50.80532" pt_clust_6="68.74342"></scales>
<clustering>
<clus scale="   50.805">  1  5  2 -1</clus>
<clus scale="   68.743">  2  6  1 -1</clus>
<clus scale="  113.520">  1  3  2 -1</clus>
<clus scale="   50.805">  1  3  2 -1</clus>
</clustering>
</event>
<event>
 6    0  0.8991567E+002  0.1086404E+03  0.7546771E-02  0.1263109E+00
         21   -1    0    0  504  501  0.00000000000E+00  0.00000000000E+00  0.55471384452E+03  0.55471384452E+03  0.00000000000E+00 0. -1.
         21   -1    0    0  506  502 -0.00000000000E+00 -0.00000000000E+00 -0.58279169073E+03  0.58279169073E+03  0.00000000000E+00 0. -1.
         21    1    1    2  503  502 -0.13164726324E+03  0.15537944695E+02 -0.35598868151E+03  0.37986888660E+03  0.00000000000E+00 0. -1.
         21    1    1    2  504  503  0.27414335994E+02 -0.10611442871E+03  0.50145190866E+03  0.51328923084E+03  0.00000000000E+00 0. -1.
         21    1    1    2  505  501  0.89588869845E+02  0.33474987676E+02 -0.15575360939E+03  0.18277288430E+03  0.00000000000E+00 0. -1.
         21    1    1    2  506  505  0.14644057404E+02  0.57101496342E+02 -0.17787463979E+02  0.61574533506E+02  0.00000000000E+00 0. -1.
<scales pt_clust_3="108.64043" pt_clust_4="14000.00000" pt_clust_5="107.20753" pt_clust_6="58.94938"></scales>
<clustering>
<clus scale="   58.949">  2  6  1 -1</clus>
<clus scale="  107.208">  2  5  1 -1</clus>
<clus scale="  108.640">  2  3  1 -1</clus>
<clus scale="  108.640">  1  3  2 -1</clus>
</clustering>
</event>
<event>
 6    0  0.8991567E+002  0.1236578E+03  0.7546771E-02  0.1237182E+00
         21   -1    0    0  504  501  0.00000000000E+00  0.00000000000E+00  0.87413020578E+03  0.87413020578E+03  0.00000000000E+00 0.  1.
         21   -1    0    0  506  502 -0.00000000000E+00 -0.00000000000E+00 -0.29635466881E+03  0.29635466881E+03  0.00000000000E+00 0. -1.
         21    1    1    2  503  501  0.30750471433E+02 -0.72940388560E+02  0.41418339392E+03  0.42167970733E+03  0.00000000000E+00 0.  1.
         21    1    1    2  504  502 -0.51054187931E+02  0.23214386363E+03  0.29904603594E+03  0.38200240201E+03  0.00000000000E+00 0.  1.
         21    1    1    2  505  503  0.78970645601E+02 -0.53510009945E+02  0.76848993809E+02  0.12249674233E+03  0.00000000000E+00 0.  1.
         21    1    1    2  506  505 -0.58666929103E+02 -0.10569346512E+03 -0.21230288670E+03  0.24430602293E+03  0.00000000000E+00 0. -1.
<scales pt_clust_3="79.15739" pt_clust_4="123.65783" pt_clust_5="110.29707" pt_clust_6="14000.00000"></scales>
<clustering>
<clus scale="   79.157">  1  3  2 -1</clus>
<clus scale="  110.297">  1  5  2 -1</clus>
<clus scale="  123.658">  1  4  2 -1</clus>
<clus scale="   79.157">  1  3  2 -1</clus>
</clustering>
</event>
<event>
 6    0  0.8991567E+002  0.7443473E+02  0.7546771E-02  0.1345630E+00
         21   -1    0    0  504  501  0.00000000000E+00  0.00000000000E+00  0.85729360332E+03  0.85729360332E+03  0.00000000000E+00 0.  1.
         21   -1    0    0  505  502 -0.00000000000E+00 -0.00000000000E+00 -0.22155671909E+03  0.22155671909E+03  0.00000000000E+00 0.  1.
         21    1    1    2  503  502 -0.75197319361E+02  0.37278881953E+02  0.96993672202E+01  0.84489227735E+02  0.00000000000E+00 0. -1.
         21    1    1    2  504  503 -0.52230229193E+02  0.23914592131E+02  0.68127027864E+03  0.68368786527E+03  0.00000000000E+00 0.  1.
         21    1    1    2  505  506  0.48614782912E+02 -0.55426922978E+02 -0.16191552764E+03  0.17791059271E+03  0.00000000000E+00 0.  1.
         21    1    1    2  506  501  0.78812765642E+02 -0.57665511064E+01  0.10668276601E+03  0.13276263670E+03  0.00000000000E+00 0. -1.
<scales pt_clust_3="14000.00000" pt_clust_4="57.44480" pt_clust_5="74.43473" pt_clust_6="44.33136"></scales>
<clustering>
<clus scale="   57.445">  1  4  2 -1</clus>
<clus scale="   44.331">  1  6  2 -1</clus>
<clus scale="   74.435">  2  5  1 -1</clus>
<clus scale="   57.445">  1  3  2 -1</clus>
</clustering>
</event>
<event>
 6    0  0.8991567E+002  0.1000928E+03  0.7546771E-02  0.1280101E+00
         21   -1    0    0  503  501  0.00000000000E+00  0.00000000000E+00  0.92637414338E+03  0.92637414338E+03  0.00000000000E+00 0. -1.
         21   -1    0    0  504  502 -0.00000000000E+00 -0.00000000000E+00 -0.33459498070E+03  0.33459498070E+03  0.00000000000E+00 0.  1.
         21    1    1    2  503  506 -0.51115218910E+02  0.57052380955E+02  0.29392361198E+03  0.30374138581E+03  0.00000000000E+00 0. -1.
         21    1    1    2  504  505 -0.11501489028E+02  0.33825784773E+02 -0.15346718128E+02  0.38884312038E+02  0.00000000000E+00 0.  1.
         21    1    1    2  505  501 -0.43346187449E+02 -0.19201168447E+02  0.60127572434E+03  0.60314183532E+03  0.00000000000E+00 0. -1.
         21    1    1    2  506  502  0.10596289539E+03 -0.71676997280E+02 -0.28807345551E+03  0.31520159090E+03  0.00000000000E+00 0.  1.
<scales pt_clust_3="100.09283" pt_clust_4="35.72769" pt_clust_5="47.39908" pt_clust_6="14000.00000"></scales>
<clustering>
<clus scale="   35.728">  2  4  1 -1</clus>
<clus scale="   47.399">  1  5  2 -1</clus>
<clus scale="  100.093">  1  3  2 -1</clus>
<clus scale="   47.399">  1  3  2 -1</clus>
</clustering>
</event>
<event>
 6    0  0.8991567E+002  0.7532826E+02  0.7546771E-02  0.1342858E+00
         21   -1    0    0  504  501  0.00000000000E+00  0.00000000000E+00  0.62436204103E+03  0.62436204103E+03  0.00000000000E+00 0.  1.
         21   -1    0    0  503  502 -0.00000000000E+00 -0.00000000000E+00 -0.17816043703E+04  0.17816043703E+04  0.00000000000E+00 0.  1.
         21    1    1    2  503  501 -0.94895908458E+01 -0.45910642238E+02 -0.16186879396E+03  0.16852105466E+03  0.00000000000E+00 0.  1.
         21    1    1    2  504  506 -0.74943608138E+02  0.47324467343E+01  0.60810942153E+03  0.61272833213E+03  0.00000000000E+00 0.  1.
         21    1    1    2  505  502 -0.43417431804E+02 -0.14766032363E+02 -0.11341145645E+04  0.11350413889E+04  0.00000000000E+00 0.  1.
         21    1    1    2  506  505  0.12785063079E+03  0.55944227867E+02 -0.46936839237E+03  0.48967563568E+03  0.00000000000E+00 0.  1.
<scales pt_clust_3="53.77249" pt_clust_4="14000.00000" pt_clust_5="45.85967" pt_clust_6="75.32826"></scales>
<clustering>
<clus scale="   45.860">  2  5  1 -1</clus>
<clus scale="   53.772">  2  3  1 -1</clus>
<clus scale="   75.328">  2  6  1 -1</clus>
<clus scale="   75.328">  1  3  2 -1</clus>
</clustering>
</event>
<event>
 6    0  0.8991567E+002  0.9270029E+02  0.7546771E-02  0.1296441E+00
         21   -1    0    0  505  501  0.00000000000E+00  0.00000000000E+00  0.62891737565E+03  0.62891737565E+03  0.00000000000E+00 0.  1.
         21   -1    0    0  504  502 -0.00000000000E+00 -0.00000000000E+00 -0.43334584797E+03  0.43334584797E+03  0.00000000000E+00 0.  1.
         21    1    1    2  503  501 -0.53719429435E+02 -0.47622425410E+02  0.53996268424E+03  0.54471402853E+03  0.00000000000E+00 0.  1.
         21    1    1    2  504  503 -0.57166326137E+02 -0.37583518832E+02 -0.36889084786E+01  0.68513632056E+02  0.00000000000E+00 0.  1.
         21    1    1    2  505  506  0.13474441364E+03  0.15833712802E+02 -0.42843167740E+02  0.14227543882E+03  0.00000000000E+00 0.  1.
         21    1    1    2  506  502 -0.23858658074E+02  0.69372231441E+02 -0.29785908035E+03  0.30676012421E+03  0.00000000000E+00 0.  1.
<scales pt_clust_3="72.19403" pt_clust_4="68.41425" pt_clust_5="14000.00000" pt_clust_6="92.70029"></scales>
<clustering>
<clus scale="   68.414">  2  4  1 -1</clus>
<clus scale="   72.194">  1  3  2 -1</clus>
<clus scale="   92.700">  2  6  1 -1</clus>
<clus scale="   72.194">  1  3  2 -1</clus>
</clustering>
</event>
<event>
 6    0  0.8991567E+002  0.6958377E+02  0.7546771E-02  0.1361514E+00
         21   -1    0    0  505  501  0.00000000000E+00  0.00000000000E+00  0.41463233967E+03  0.41463233967E+03  0.00000000000E+00 0.  1.
         21   -1    0    0  506  502 -0.00000000000E+00 -0.00000000000E+00 -0.10464515250E+03  0.10464515250E+03  0.00000000000E+00 0. -1.
         21    1    1    2  503  501 -0.26185702034E+02  0.71886247869E+02  0.23574123016E+03  0.24784521626E+03  0.00000000000E+00 0.  1.
         21    1    1    2  504  503  0.57174916794E+02 -0.75185637591E+01  0.11688995688E+02  0.58839888950E+02  0.00000000000E+00 0. -1.
         21    1    1    2  505  502  0.40841960105E+02 -0.19337080147E+02  0.10751867647E+03  0.11662870214E+03  0.00000000000E+00 0. -1.
         21    1    1    2  506  504 -0.71831174865E+02 -0.45030603962E+02 -0.44961715145E+02  0.95963684821E+02  0.00000000000E+00 0. -1.
<scales pt_clust_3="56.80062" pt_clust_4="14000.00000" pt_clust_5="45.18837" pt_clust_6="69.58377"></scales>
<clustering>
<clus scale="   45.188">  1  5  2 -1</clus>
<clus scale="   56.801">  1  3  2 -1</clus>
<clus scale="   69.584">  2  6  1 -1</clus>
<clus scale="   45.188">  1  3  2 -1</clus>
</clustering>
</event>
<event>
 6    0  0.8991567E+002  0.9153713E+02  0.7546771E-02  0.1299171E+00
         21   -1    0    0  504  501  0.00000000000E+00  0.00000000000E+00  0.47349465985E+03  0.47349465985E+03  0.00000000000E+00 0.  1.
         21   -1    0    0  505  502 -0.00000000000E+00 -0.00000000000E+00 -0.13169215982E+03  0.13169215982E+03  0.00000000000E+00 0.  1.
         21    1    1    2  503  501 -0.24658117585E+02 -0.33273279337E+02  0.19103655428E+03  0.19547403651E+03  0.00000000000E+00 0.  1.
         21    1    1    2  504  502  0.26435128130E+02 -0.79938796306E+02  0.18924716078E+03  0.20713163693E+03  0.00000000000E+00 0.  1.
         21    1    1    2  505  506  0.26807724269E+02  0.33974181119E+02 -0.92768987717E+02  0.10236690942E+03  0.00000000000E+00 0.  1.
         21    1    1    2  506  503 -0.28584734814E+02  0.79237894524E+02  0.54287772694E+02  0.10021423680E+03  0.00000000000E+00 0.  1.
<scales pt_clust_3="41.41417" pt_clust_4="91.53713" pt_clust_5="42.56814" pt_clust_6="14000.00000"></scales>
<clustering>
<clus scale="   41.414">  1  3  2 -1</clus>
<clus scale="   42.568">  2  5  1 -1</clus>
<clus scale="   91.537">  1  4  2 -1</clus>
<clus scale="   41.414">  1  3  2 -1</clus>
</clustering>
</event>
<event>
 6    0  0.8991567E+002  0.2385444E+03  0.7546771E-02  0.1120766E+00
         21   -1    0    0  506  501  0.00000000000E+00  0.00000000000E+00  0.31264183831E+03  0.31264183831E+03  0.00000000000E+00 0.  1.
         21   -1    0    0  503  502 -0.00000000000E+00 -0.00000000000E+00 -0.71815115400E+03  0.71815115400E+03  0.00000000000E+00 0. -1.
         21    1    1    2  503  505  0.19952497302E+03 -0.15956417352E+03 -0.46970322138E+03  0.53468874732E+03  0.00000000000E+00 0. -1.
         21    1    1    2  504  501 -0.13470759278E+03  0.12237054759E+03  0.22133804904E+03  0.28655055126E+03  0.00000000000E+00 0.  1.
         21    1    1    2  505  504 -0.39457895165E+02  0.10467122497E+02  0.69187942963E+01  0.41404780626E+02  0.00000000000E+00 0. -1.
         21    1    1    2  506  502 -0.25359485078E+02  0.26726503430E+02 -0.16406293765E+03  0.16814891311E+03  0.00000000000E+00 0.  1.
<scales pt_clust_3="222.32716" pt_clust_4="41.19094" pt_clust_5="41.19094" pt_clust_6="36.84304"></scales>
<clustering>
<clus scale="   36.843">  2  6  1 -1</clus>
<clus scale="   41.191">  4  5 -1 -1</clus>
<clus scale="  222.327">  2  3  1 -1</clus>
<clus scale="  238.544">  1  3  2 -1</clus>
</clustering>
</event>
<event>
 6    0  0.8991567E+002  0.2491692E+03  0.7546771E-02  0.1113831E+00
         21   -1    0    0  506  501  0.00000000000E+00  0.00000000000E+00  0.10582934475E+04  0.10582934475E+04  0.00000000000E+00 0.  1.
         21   -1    0    0  501  502 -0.00000000000E+00 -0.00000000000E+00 -0.41693168409E+03  0.41693168409E+03  0.00000000000E+00 0.  1.
         21    1    1    2  503  505 -0.15348039400E+03 -0.25559952417E+03  0.13966559818E+03  0.32923217858E+03  0.00000000000E+00 0.  1.
         21    1    1    2  504  503  0.17053690740E+03  0.14071367482E+03  0.17785735236E+03  0.28375414156E+03  0.00000000000E+00 0.  1.
         21    1    1    2  505  502 -0.77856454454E+01  0.85145074473E+02 -0.26198678398E+03  0.27558551298E+03  0.00000000000E+00 0.  1.
         21    1    1    2  506  504 -0.92708679499E+01  0.29740774876E+02  0.58582559685E+03  0.58665329847E+03  0.00000000000E+00 0.  1.
<scales pt_clust_3="14000.00000" pt_clust_4="249.16922" pt_clust_5="85.93910" pt_clust_6="31.15225"></scales>
<clustering>
<clus scale="   31.152">  1  6  2 -1</clus>
<clus scale="   85.939">  2  5  1 -1</clus>
<clus scale="  249.169">  1  4  2 -1</clus>
<clus scale="   31.152">  1  3  2 -1</clus>
</clustering>
</event>
<event>
 6    0  0.8991567E+002  0.6941406E+02  0.7546771E-02  0.1362097E+00
         21   -1    0    0  503  501  0.00000000000E+00  0.00000000000E+00  0.12334408822E+04  0.12334408822E+04  0.00000000000E+00 0. -1.
         21   -1    0    0  504  502 -0.00000000000E+00 -0.00000000000E+00 -0.54929178695E+02  0.54929178695E+02  0.00000000000E+00 0.  1.
         21    1    1    2  503  506  0.75968051177E+02 -0.74926844363E+02  0.34000059808E+03  0.35635036622E+03  0.00000000000E+00 0. -1.
         21    1    1    2  504  505  0.15499351153E+01  0.47679532703E+02  0.10884755829E+03  0.11884246330E+03  0.00000000000E+00 0. -1.
         21    1    1    2  505  501 -0.45721917253E+02  0.43935129647E+02  0.76213225224E+03  0.76476555835E+03  0.00000000000E+00 0. -1.
         21    1    1    2  506  502 -0.31796069039E+02 -0.16687817987E+02 -0.32468705098E+02  0.48411673037E+02  0.00000000000E+00 0.  1.
<scales pt_clust_3="14000.00000" pt_clust_4="42.96829" pt_clust_5="69.41406" pt_clust_6="35.90924"></scales>
<clustering>
<clus scale="   35.909">  2  6  1 -1</clus>
<clus scale="   42.968">  2  4  1 -1</clus>
<clus scale="   69.414">  1  5  2 -1</clus>
<clus scale="   69.414">  1  3  2 -1</clus>
</clustering>
</event>
<event>
 6    0  0.8991567E+002  0.1759496E+03  0.7546771E-02  0.1171782E+00
         21   -1    0    0  506  501  0.00000000000E+00  0.00000000000E+00  0.26002558788E+03  0.26002558788E+03  0.00000000000E+00 0. -1.
         21   -1    0    0  503  502 -0.00000000000E+00 -0.00000000000E+00 -0.29857894627E+03  0.29857894627E+03  0.00000000000E+00 0. -1.
         21    1    1    2  503  501 -0.13169282758E+03 -0.95581983440E+02 -0.81553124354E+02  0.18201601162E+03  0.00000000000E+00 0. -1.
         21    1    1    2  504  505  0.13408785539E+03 -0.38551389783E+02 -0.82516352944E+00  0.13952219720E+03  0.00000000000E+00 0. -1.
         21    1    1    2  505  502  0.15213348869E+02 -0.45643509836E+02 -0.88203968256E+01  0.48913958889E+02  0.00000000000E+00 0.  1.
         21    1    1    2  506  504 -0.17608376680E+02  0.17977688306E+03  0.52645326321E+02  0.18815236644E+03  0.00000000000E+00 0. -1.
<scales pt_clust_3="162.72344" pt_clust_4="45.62119" pt_clust_5="45.62119" pt_clust_6="157.86936"></scales>
<clustering>
<clus scale="   45.621">  4  5 -1 -1</clus>
<clus scale="  162.723">  2  3  1 -1</clus>
<clus scale="  157.869">  1  6  2 -1</clus>
<clus scale="  157.869">  1  3  2 -1</clus>
</clustering>
</event>
<event>
 6    0  0.8991567E+002  0.1778414E+03  0.7546771E-02  0.1169909E+00
         21   -1    0    0  506  501  0.00000000000E+00  0.00000000000E+00  0.57046770603E+03  0.57046770603E+03  0.00000000000E+00 0. -1.
         21   -1    0    0  504  502 -0.00000000000E+00 -0.00000000000E+00 -0.16231907650E+03  0.16231907650E+03  0.00000000000E+00 0. -1.
         21    1    1    2  503  501  0.80921923545E+01  0.10040386221E+03  0.35010895774E+03  0.36431126995E+03  0.00000000000E+00 0. -1.
         21    1    1    2  504  505  0.48485623492E+02 -0.16116257626E+03 -0.86038641390E+02  0.18901555355E+03  0.00000000000E+00 0. -1.
         21    1    1    2  505  503 -0.94922951314E+01  0.58331924281E+02  0.90533728245E+02  0.10811601642E+03  0.00000000000E+00 0. -1.
         21    1    1    2  506  502 -0.47085520715E+02  0.24267897705E+01  0.53544584944E+02  0.71343942605E+02  0.00000000000E+00 0. -1.
<scales pt_clust_3="47.36775" pt_clust_4="166.74839" pt_clust_5="47.36775" pt_clust_6="47.14802"></scales>
<clustering>
<clus scale="   47.148">  1  6  2 -1</clus>
<clus scale="   47.368">  3  5 -1 -1</clus>
<clus scale="  166.748">  2  4  1 -1</clus>
<clus scale="   47.148">  1  3  2 -1</clus>
</clustering>
</event>
<event>
 6    0  0.8991567E+002  0.1882997E+03  0.7546771E-02  0.1160004E+00
         21   -1    0    0  503  501  0.00000000000E+00  0.00000000000E+00  0.48666375137E+03  0.48666375137E+03  0.00000000000E+00 0.  1.
         21   -1    0    0  505  502 -0.00000000000E+00 -0.00000000000E+00 -0.63637777218E+03  0.63637777218E+03  0.00000000000E+00 0. -1.
         21    1    1    2  503  506 -0.15753118930E+03  0.55432017644E+02 -0.45316762099E+03  0.48295929114E+03  0.00000000000E+00 0. -1.
         21    1    1    2  504  501  0.23291804093E+02  0.26112797399E+02  0.12277692128E+03  0.12766580875E+03  0.00000000000E+00 0. -1.
         21    1    1    2  505  504  0.15035510956E+03  0.16333427176E+02  0.31265654768E+03  0.34731478031E+03  0.00000000000E+00 0.  1.
         21    1    1    2  506  502 -0.16115724356E+02 -0.97878242219E+02 -0.13197986878E+03  0.16510164335E+03  0.00000000000E+00 0.  1.
<scales pt_clust_3="177.22146" pt_clust_4="30.60821" pt_clust_5="30.60821" pt_clust_6="99.19610"></scales>
<clustering>
<clus scale="   30.608">  4  5 -1 -1</clus>
<clus scale="   99.196">  2  6  1 -1</clus>
<clus scale="  177.221">  2  3  1 -1</clus>
<clus scale="  188.300">  1  3  2 -1</clus>
</clustering>
</event>
<event>
 6    0  0.8991567E+002  0.1177652E+03  0.7546771E-02  0.1246830E+00
         21   -1    0    0  506  501  0.00000000000E+00  0.00000000000E+00  0.60005154276E+03  0.60005154276E+03  0.00000000000E+00 0.  1.
         21   -1    0    0  505  502 -0.00000000000E+00 -0.00000000000E+00 -0.17164451953E+04  0.17164451953E+04  0.00000000000E+00 0. -1.
         21    1    1    2  503  501  0.10851851103E+02 -0.39607465281E+02  0.64483748818E+02  0.76450427337E+02  0.00000000000E+00 0.  1.
         21    1    1    2  504  502 -0.29756811721E+02 -0.72249762365E+02 -0.11420555164E+04  0.11447254250E+04  0.00000000000E+00 0. -1.
         21    1    1    2  505  503  0.41826595263E+02 -0.45232822797E+02 -0.55339586269E+03  0.55681455905E+03  0.00000000000E+00 0. -1.
         21    1    1    2  506  504 -0.22921634646E+02  0.15709005044E+03  0.51457397776E+03  0.53850632668E+03  0.00000000000E+00 0.  1.
<scales pt_clust_3="41.06719" pt_clust_4="14000.00000" pt_clust_5="61.72508" pt_clust_6="117.76523"></scales>
<clustering>
<clus scale="   41.067">  1  3  2 -1</clus>
<clus scale="   61.725">  2  5  1 -1</clus>
<clus scale="  117.765">  1  6  2 -1</clus>
<clus scale="   41.067">  1  3  2 -1</clus>
</clustering>
</event>
<event>
 6    0  0.8991567E+002  0.1349312E+03  0.7546771E-02  0.1220317E+00
         21   -1    0    0  504  501  0.00000000000E+00  0.00000000000E+00  0.18008736551E+04  0.18008736551E+04  0.00000000000E+00 0. -1.
         21   -1    0    0  505  502 -0.00000000000E+00 -0.00000000000E+00 -0.20379280897E+03  0.20379280897E+03  0.00000000000E+00 0.  1.
         21    1    1    2  503  506  0.16886227557E+03 -0.80345690489E+02  0.20725815061E+03  0.27915199997E+03  0.00000000000E+00 0. -1.
         21    1    1    2  504  503 -0.99719514675E+02 -0.53050745602E+02  0.14533913006E+04  0.14577738630E+04  0.00000000000E+00 0. -1.
         21    1    1    2  505  501 -0.32085272155E+02  0.36884066530E+02  0.78234559713E+02  0.92252617234E+02  0.00000000000E+00 0.  1.
         21    1    1    2  506  502 -0.37057488735E+02  0.96512369561E+02 -0.14180316473E+03  0.17548798385E+03  0.00000000000E+00 0.  1.
<scales pt_clust_3="134.93119" pt_clust_4="14000.00000" pt_clust_5="48.88659" pt_clust_6="103.83334"></scales>
<clustering>
<clus scale="   48.887">  1  5  2 -1</clus>
<clus scale="  103.833">  2  6  1 -1</clus>
<clus scale="  134.931">  2  3  1 -1</clus>
<clus scale="   48.887">  1  3  2 -1</clus>
</clustering>
</event>
<event>
 6    0  0.8991567E+002  0.1009102E+03  0.7546771E-02  0.1278393E+00
         21   -1    0    0  503  501  0.00000000000E+00  0.00000000000E+00  0.33120285133E+04  0.33120285133E+04  0.00000000000E+00 0.  1.
         21   -1    0    0  504  502 -0.00000000000E+00 -0.00000000000E+00 -0.10446434155E+03  0.10446434155E+03  0.00000000000E+00 0.  1.
         21    1    1    2  503  506 -0.34429679817E+02  0.49621421684E+02  0.45691835955E+03  0.46089269427E+03  0.00000000000E+00 0. -1.
         21    1    1    2  504  505 -0.53160229238E+02 -0.38578366495E+02  0.15187221132E+02  0.67416259313E+02  0.00000000000E+00 0.  1.
         21    1    1    2  505  501  0.95320145993E+02  0.37129803161E+02  0.28029988122E+04  0.28048648620E+04  0.00000000000E+00 0.  1.
         21    1    1    2  506  502 -0.77302369379E+01 -0.48172858349E+02 -0.67540221132E+02  0.83319039332E+02  0.00000000000E+00 0.  1.
<scales pt_clust_3="58.03504" pt_clust_4="14000.00000" pt_clust_5="100.91023" pt_clust_6="48.78915"></scales>
<clustering>
<clus scale="   48.789">  2  6  1 -1</clus>
<clus scale="   58.035">  1  3  2 -1</clus>
<clus scale="  100.910">  1  5  2 -1</clus>
<clus scale="   58.035">  1  3  2 -1</clus>
</clustering>
</event>
<event>
 6    0  0.8991567E+002  0.1801432E+03  0.7546771E-02  0.1167665E+00
         21   -1    0    0  506  501  0.00000000000E+00  0.00000000000E+00  0.29857730707E+03  0.29857730707E+03  0.00000000000E+00 0. -1.
         21   -1    0    0  501  502 -0.00000000000E+00 -0.00000000000E+00 -0.44910503565E+03  0.44910503565E+03  0.00000000000E+00 0.  1.
         21    1    1    2  503  505 -0.70641518806E+02 -0.24980970004E+02  0.50268547231E+02  0.90228597918E+02  0.00000000000E+00 0. -1.
         21    1    1    2  504  502  0.58227961124E+02  0.22853533484E+02 -0.17155347111E+02  0.64862048872E+02  0.00000000000E+00 0.  1.
         21    1    1    2  505  504  0.91702063807E+02  0.57878148281E+02 -0.36835839889E+03  0.38398835736E+03  0.00000000000E+00 0.  1.
         21    1    1    2  506  503 -0.79288506124E+02 -0.55750711760E+02  0.18471747020E+03  0.20860333857E+03  0.00000000000E+00 0. -1.
<scales pt_clust_3="61.97702" pt_clust_4="62.55221" pt_clust_5="165.42702" pt_clust_6="61.97702"></scales>
<clustering>
<clus scale="   62.552">  2  4  1 -1</clus>
<clus scale="   61.977">  3  6 -1 -1</clus>
<clus scale="  165.427">  2  5  1 -1</clus>
<clus scale="  180.143">  1  3  2 -1</clus>
</clustering>
</event>
<event>
 6    0  0.8991567E+002  0.1131586E+03  0.7546771E-02  0.1254830E+00
         21   -1    0    0  505  501  0.00000000000E+00  0.00000000000E+00  0.48431218150E+03  0.48431218150E+03  0.00000000000E+00 0.  1.
         21   -1    0    0  503  502 -0.00000000000E+00 -0.00000000000E+00 -0.24054343560E+03  0.24054343560E+03  0.00000000000E+00 0. -1.
         21    1    1    2  503  504  0.41788752915E+02 -0.20171851586E+01 -0.16087867020E+03  0.16622970682E+03  0.00000000000E+00 0. -1.
         21    1    1    2  504  501  0.37549565447E+02 -0.26198415137E+02  0.93099900276E+01  0.46722614816E+02  0.00000000000E+00 0. -1.
         21    1    1    2  505  506 -0.68959670044E+02  0.10219605171E+03  0.41641482250E+03  0.43428190554E+03  0.00000000000E+00 0.  1.
         21    1    1    2  506  502 -0.10378648319E+02 -0.73980451419E+02 -0.21077396432E+02  0.77621389922E+02  0.00000000000E+00 0. -1.
<scales pt_clust_3="41.83741" pt_clust_4="54.66136" pt_clust_5="14000.00000" pt_clust_6="113.15862"></scales>
<clustering>
<clus scale="   41.837">  2  3  1 -1</clus>
<clus scale="   54.661">  2  4  1 -1</clus>
<clus scale="  113.159">  2  6  1 -1</clus>
<clus scale="  113.159">  1  3  2 -1</clus>
</clustering>
</event>
<event>
 6    0  0.8991567E+002  0.9199628E+02  0.7546771E-02  0.1298088E+00
         21   -1    0    0  504  501  0.00000000000E+00  0.00000000000E+00  0.21866202905E+03  0.21866202905E+03  0.00000000000E+00 0. -1.
         21   -1    0    0  503  502 -0.00000000000E+00 -0.00000000000E+00 -0.26053444384E+03  0.26053444384E+03  0.00000000000E+00 0. -1.
         21    1    1    2  503  501  0.58915812042E+02  0.83006178692E+01 -0.83573147812E+01  0.60081759927E+02  0.00000000000E+00 0. -1.
         21    1    1    2  504  506  0.38313089924E+02  0.92276231087E+01  0.13779924359E+03  0.14332366665E+03  0.00000000000E+00 0. -1.
         21    1    1    2  505  502  0.42663138001E+02  0.17887488842E+02 -0.10937170594E+03  0.11875300275E+03  0.00000000000E+00 0. -1.
         21    1    1    2  506  505 -0.13989203997E+03 -0.35415729819E+02 -0.61942637663E+02  0.15703804356E+03  0.00000000000E+00 0. -1.
<scales pt_clust_3="91.99628" pt_clust_4="39.40865" pt_clust_5="48.59912" pt_clust_6="14000.00000"></scales>
<clustering>
<clus scale="   39.409">  1  4  2 -1</clus>
<clus scale="   48.599">  2  5  1 -1</clus>
<clus scale="   91.996">  1  3  2 -1</clus>
<clus scale="   39.409">  1  3  2 -1</clus>
</clustering>
</event>
<event>
 6    0  0.8991567E+002  0.1919060E+03  0.7546771E-02  0.1156753E+00
         21   -1    0    0  506  501  0.00000000000E+00  0.00000000000E+00  0.14943021082E+04  0.14943021082E+04  0.00000000000E+00 0. -1.
         21   -1    0    0  504  502 -0.00000000000E+00 -0.00000000000E+00 -0.63063951349E+03  0.63063951349E+03  0.00000000000E+00 0.  1.
         21    1    1    2  503  502 -0.16109482614E+02  0.25017529684E+03 -0.47087672850E+03  0.53345298577E+03  0.00000000000E+00 0.  1.
         21    1    1    2  504  505 -0.80542091099E+02 -0.80385518885E+02 -0.81466924653E+02  0.13994899034E+03  0.00000000000E+00 0. -1.
         21    1    1    2  505  501  0.17003648332E+03 -0.55120529954E+02  0.68330077082E+03  0.70629358052E+03  0.00000000000E+00 0.  1.
         21    1    1    2  506  503 -0.73384909607E+02 -0.11466924800E+03  0.73270547704E+03  0.74524606505E+03  0.00000000000E+00 0. -1.
<scales pt_clust_3="14000.00000" pt_clust_4="113.79306" pt_clust_5="191.90602" pt_clust_6="137.48147"></scales>
<clustering>
<clus scale="  113.793">  2  4  1 -1</clus>
<clus scale="  137.481">  1  6  2 -1</clus>
<clus scale="  191.906">  1  5  2 -1</clus>
<clus scale="  137.481">  1  3  2 -1</clus>
</clustering>
</event>
<event>
 6    0  0.8991567E+002  0.1022729E+03  0.7546771E-02  0.1275588E+00
         21   -1    0    0  503  501  0.00000000000E+00  0.00000000000E+00  0.69033675845E+03  0.69033675845E+03  0.00000000000E+00 0.  1.
         21   -1    0    0  506  502 -0.00000000000E+00 -0.00000000000E+00 -0.11668365538E+03  0.11668365538E+03  0.00000000000E+00 0.  1.
         21    1    1    2  503  505  0.21138391816E+02 -0.29804214551E+02  0.19141957229E+03  0.19487579498E+03  0.00000000000E+00 0.  1.
         21    1    1    2  504  501  0.60090320453E+02  0.40548226915E+02  0.21428599127E+03  0.22621558605E+03  0.00000000000E+00 0.  1.
         21    1    1    2  505  502  0.75415799058E+02  0.57651615564E+02 -0.51319668243E+02  0.10791181526E+03  0.00000000000E+00 0.  1.
         21    1    1    2  506  504 -0.15664451133E+03 -0.68395627928E+02  0.21926720776E+03  0.27801721753E+03  0.00000000000E+00 0.  1.
<scales pt_clust_3="36.53933" pt_clust_4="74.64370" pt_clust_5="102.27289" pt_clust_6="14000.00000"></scales>
<clustering>
<clus scale="   36.539">  1  3  2 -1</clus>
<clus scale="   74.644">  1  4  2 -1</clus>
<clus scale="  102.273">  2  5  1 -1</clus>
<clus scale="   36.539">  1  3  2 -1</clus>
</clustering>
</event>
<event>
 6    0  0.8991567E+002  0.3776534E+03  0.7546771E-02  0.1051805E+00
         21   -1    0    0  506  501  0.00000000000E+00  0.00000000000E+00  0.63217710769E+03  0.63217710769E+03  0.00000000000E+00 0.  1.
         21   -1    0    0  504  502 -0.00000000000E+00 -0.00000000000E+00 -0.54010658316E+03  0.54010658316E+03  0.00000000000E+00 0. -1.
         21    1    1    2  503  505  0.17218656282E+03 -0.29378201849E+03 -0.86265154177E+02  0.35128017825E+03  0.00000000000E+00 0.  1.
         21    1    1    2  504  503  0.29841256166E+02  0.40401577624E+02 -0.53125586150E+02  0.73110299875E+02  0.00000000000E+00 0. -1.
         21    1    1    2  505  501 -0.39568733271E+02 -0.17929589202E+03  0.21868655505E+03  0.28554598738E+03  0.00000000000E+00 0.  1.
         21    1    1    2  506  502 -0.16245908571E+03  0.43267633289E+03  0.12774709802E+02  0.46234722534E+03  0.00000000000E+00 0. -1.
<scales pt_clust_3="377.65338" pt_clust_4="50.22736" pt_clust_5="180.40015" pt_clust_6="14000.00000"></scales>
<clustering>
<clus scale="   50.227">  2  4  1 -1</clus>
<clus scale="  180.400">  1  5  2 -1</clus>
<clus scale="  377.653">  2  3  1 -1</clus>
<clus scale="  180.400">  1  3  2 -1</clus>
</clustering>
</event>
<event>
 6    0  0.8991567E+002  0.1492214E+03  0.7546771E-02  0.1201433E+00
         21   -1    0    0  506  501  0.00000000000E+00  0.00000000000E+00  0.25037344451E+03  0.25037344451E+03  0.00000000000E+00 0.  1.
         21   -1    0    0  504  502 -0.00000000000E+00 -0.00000000000E+00 -0.44285632646E+03  0.44285632646E+03  0.00000000000E+00 0.  1.
         21    1    1    2  503  501 -0.42296017071E+02 -0.21259652064E+02  0.16468578356E+03  0.17135440809E+03  0.00000000000E+00 0.  1.
         21    1    1    2  504  505 -0.77880274741E+02 -0.12289487530E+03 -0.20752982419E+03  0.25345042020E+03  0.00000000000E+00 0.  1.
         21    1    1    2  505  503  0.63732616726E+02 -0.38772944803E+01 -0.51814174280E+02  0.82228878769E+02  0.00000000000E+00 0.  1.
         21    1    1    2  506  502  0.56443675086E+02  0.14803182184E+03 -0.97824667036E+02  0.18619606391E+03  0.00000000000E+00 0.  1.
<scales pt_clust_3="47.33842" pt_clust_4="149.22142" pt_clust_5="56.46402" pt_clust_6="14000.00000"></scales>
<clustering>
<clus scale="   47.338">  1  3  2 -1</clus>
<clus scale="   56.464">  1  5  2 -1</clus>
<clus scale="  149.221">  2  4  1 -1</clus>
<clus scale="   47.338">  1  3  2 -1</clus>
</clustering>
</event>
<event>
 6    0  0.8991567E+002  0.1588983E+03  0.7546771E-02  0.1189946E+00
         21   -1    0    0  502  501  0.00000000000E+00  0.00000000000E+00  0.39880493200E+02  0.39880493200E+02  0.00000000000E+00 0.  1.
         21   -1    0    0  505  502 -0.00000000000E+00 -0.00000000000E+00 -0.17949843735E+04  0.17949843735E+04  0.00000000000E+00 0. -1.
         21    1    1    2  503  501 -0.47246990692E+02 -0.44800880935E+02 -0.33593521442E+02  0.73266102291E+02  0.00000000000E+00 0.  1.
         21    1    1    2  504  503 -0.87578453613E+02 -0.82654439088E+02 -0.30974616604E+03  0.33233180591E+03  0.00000000000E+00 0.  1.
         21    1    1    2  505  506  0.20946060009E+02 -0.22949726687E+02 -0.30061712310E+03  0.30221859984E+03  0.00000000000E+00 0.  1.
         21    1    1    2  506  504  0.11387938430E+03  0.15040504671E+03 -0.11111470697E+04  0.11270483587E+04  0.00000000000E+00 0. -1.
<scales pt_clust_3="65.14130" pt_clust_4="158.89826" pt_clust_5="31.07133" pt_clust_6="14000.00000"></scales>
<clustering>
<clus scale="   31.071">  2  5  1 -1</clus>
<clus scale="   65.141">  1  3  2 -1</clus>
<clus scale="  158.898">  1  4  2 -1</clus>
<clus scale="   65.141">  1  3  2 -1</clus>
</clustering>
</event>
<event>
 6    0  0.8991567E+002  0.9899865E+02  0.7546771E-02  0.1282416E+00
         21   -1    0    0  505  501  0.00000000000E+00  0.00000000000E+00  0.39034344951E+03  0.39034344951E+03  0.00000000000E+00 0. -1.
         21   -1    0    0  506  502 -0.00000000000E+00 -0.00000000000E+00 -0.12392797186E+04  0.12392797186E+04  0.00000000000E+00 0.  1.
         21    1    1    2  503  502  0.38787511892E+02  0.64551023874E+02  0.13659180577E+01  0.75320458669E+02  0.00000000000E+00 0.  1.
         21    1    1    2  504  501  0.31680129901E+02 -0.23234569216E+02  0.51998240572E+02  0.65171257927E+02  0.00000000000E+00 0.  1.
         21    1    1    2  505  503 -0.10509853774E+03 -0.57378369265E+02  0.28087839778E+03  0.30533695197E+03  0.00000000000E+00 0. -1.
         21    1    1    2  506  504  0.34630895951E+02  0.16061914607E+02 -0.11831788255E+04  0.11837944995E+04  0.00000000000E+00 0.  1.
<scales pt_clust_3="98.99865" pt_clust_4="41.64980" pt_clust_5="14000.00000" pt_clust_6="38.17439"></scales>
<clustering>
<clus scale="   38.174">  2  6  1 -1</clus>
<clus scale="   41.650">  1  4  2 -1</clus>
<clus scale="   98.999">  2  3  1 -1</clus>
<clus scale="   41.650">  1  3  2 -1</clus>
</clustering>
</event>
<event>
 6    0  0.8991567E+002  0.1192926E+03  0.7546771E-02  0.1244269E+00
         21   -1    0    0  504  501  0.00000000000E+00  0.00000000000E+00  0.13684991694E+03  0.13684991694E+03  0.00000000000E+00 0. -1.
         21   -1    0    0  503  502 -0.00000000000E+00 -0.00000000000E+00 -0.10731209849E+04  0.10731209849E+04  0.00000000000E+00 0.  1.
         21    1    1    2  503  505 -0.77624282338E+02  0.10668020390E+03 -0.58524772975E+03  0.59993424664E+03  0.00000000000E+00 0.  1.
         21    1    1    2  504  506  0.11453807744E+02 -0.11588871919E+03 -0.87561129379E+02  0.14569947263E+03  0.00000000000E+00 0. -1.
         21    1    1    2  505  501  0.36225752891E+02  0.65186370153E+01  0.96417224822E+02  0.10320406505E+03  0.00000000000E+00 0. -1.
         21    1    1    2  506  502  0.29944721703E+02  0.26898782742E+01 -0.35987943363E+03  0.36113311749E+03  0.00000000000E+00 0.  1.
<scales pt_clust_3="14000.00000" pt_clust_4="119.29258" pt_clust_5="36.95019" pt_clust_6="30.06529"></scales>
<clustering>
<clus scale="   30.065">  2  6  1 -1</clus>
<clus scale="   36.950">  1  5  2 -1</clus>
<clus scale="  119.293">  1  4  2 -1</clus>
<clus scale="   36.950">  1  3  2 -1</clus>
</clustering>
</event>
<event>
 6    0  0.8991567E+002  0.6235157E+02  0.7546771E-02  0.1388220E+00
         21   -1    0    0  505  501  0.00000000000E+00  0.00000000000E+00  0.85186494073E+03  0.85186494073E+03  0.00000000000E+00 0.  1.
         21   -1    0    0  504  502 -0.00000000000E+00 -0.00000000000E+00 -0.28636372328E+03  0.28636372328E+03  0.00000000000E+00 0. -1.
         21    1    1    2  503  506  0.70301451213E+02 -0.51123570800E+02  0.33937871643E+02  0.93315018435E+02  0.00000000000E+00 0.  1.
         21    1    1    2  504  501 -0.58530223129E+02 -0.19681395119E+02  0.22681234383E+02  0.65784365365E+02  0.00000000000E+00 0. -1.
         21    1    1    2  505  503 -0.52104809185E+02  0.22107853004E+02  0.73865214534E+03  0.74081756196E+03  0.00000000000E+00 0.  1.
         21    1    1    2  506  502  0.40333581101E+02  0.48697112915E+02 -0.22977003391E+03  0.23831171825E+03  0.00000000000E+00 0. -1.
<scales pt_clust_3="56.10435" pt_clust_4="14000.00000" pt_clust_5="56.60096" pt_clust_6="62.35157"></scales>
<clustering>
<clus scale="   56.601">  1  5  2 -1</clus>
<clus scale="   56.104">  1  3  2 -1</clus>
<clus scale="   62.352">  2  6  1 -1</clus>
<clus scale="   56.601">  1  3  2 -1</clus>
</clustering>
</event>
<event>
 6    0  0.8991567E+002  0.8810754E+02  0.7546771E-02  0.1307500E+00
         21   -1    0    0  504  501  0.00000000000E+00  0.00000000000E+00  0.17493074065E+03  0.17493074065E+03  0.00000000000E+00 0. -1.
         21   -1    0    0  503  502 -0.00000000000E+00 -0.00000000000E+00 -0.22013857129E+03  0.22013857129E+03  0.00000000000E+00 0. -1.
         21    1    1    2  503  505 -0.16162002210E+02  0.31775107387E+02 -0.98689894894E+02  0.10493123043E+03  0.00000000000E+00 0. -1.
         21    1    1    2  504  502  0.64191445563E+02  0.53473230297E+02  0.10380937502E+02  0.84188430947E+02  0.00000000000E+00 0. -1.
         21    1    1    2  505  506 -0.17820725565E+02 -0.10830741353E+03 -0.38186799102E+02  0.11621663268E+03  0.00000000000E+00 0. -1.
         21    1    1    2  506  501 -0.30208717789E+02  0.23059075846E+02  0.81287925851E+02  0.89733017883E+02  0.00000000000E+00 0. -1.
<scales pt_clust_3="35.64923" pt_clust_4="14000.00000" pt_clust_5="88.10754" pt_clust_6="39.15411"></scales>
<clustering>
<clus scale="   35.649">  2  3  1 -1</clus>
<clus scale="   39.154">  1  6  2 -1</clus>
<clus scale="   88.108">  2  5  1 -1</clus>
<clus scale="   39.154">  1  3  2 -1</clus>
</clustering>
</event>
<event>
 6    0  0.8991567E+002  0.6912986E+02  0.7546771E-02  0.1363077E+00
         21   -1    0    0  504  501  0.00000000000E+00  0.00000000000E+00  0.25721401777E+03  0.25721401777E+03  0.00000000000E+00 0. -1.
         21   -1    0    0  503  502 -0.00000000000E+00 -0.00000000000E+00 -0.79345059352E+03  0.79345059352E+03  0.00000000000E+00 0.  1.
         21    1    1    2  503  505 -0.29866259892E+02 -0.34290455065E+02 -0.71252590553E+02  0.84526684834E+02  0.00000000000E+00 0.  1.
         21    1    1    2  504  506  0.72588264361E+01  0.66382463504E+02  0.19087823314E+03  0.20222220924E+03  0.00000000000E+00 0. -1.
         21    1    1    2  505  501 -0.33523179880E+02 -0.80557923346E+02  0.15371034801E+02  0.88598257962E+02  0.00000000000E+00 0.  1.
         21    1    1    2  506  502  0.56130613336E+02  0.48465914906E+02 -0.67123325314E+03  0.67531745926E+03  0.00000000000E+00 0.  1.
<scales pt_clust_3="45.47339" pt_clust_4="69.12986" pt_clust_5="14000.00000" pt_clust_6="32.37499"></scales>
<clustering>
<clus scale="   45.473">  2  3  1 -1</clus>
<clus scale="   32.375">  2  6  1 -1</clus>
<clus scale="   69.130">  1  4  2 -1</clus>
<clus scale="   69.130">  1  3  2 -1</clus>
</clustering>
</event>
<event>
 6    0  0.8991567E+002  0.1727249E+03  0.7546771E-02  0.1175036E+00
         21   -1    0    0  503  501  0.00000000000E+00  0.00000000000E+00  0.15466589088E+04  0.15466589088E+04  0.00000000000E+00 0.  1.
         21   -1    0    0  504  502 -0.00000000000E+00 -0.00000000000E+00 -0.51071315230E+02  0.51071315230E+02  0.00000000000E+00 0.  1.
         21    1    1    2  503  506  0.11950978669E+01 -0.32268276354E+02  0.15800570193E+03  0.16127142264E+03  0.00000000000E+00 0. -1.
         21    1    1    2  504  505 -0.22522815618E+01 -0.31061883426E+02  0.18151521839E+01  0.31196284260E+02  0.00000000000E+00 0. -1.
         21    1    1    2  505  501 -0.15366152949E+03  0.11312953273E+03  0.11144852178E+04  0.11307021967E+04  0.00000000000E+00 0.  1.
         21    1    1    2  506  502  0.15471871319E+03 -0.49799372955E+02  0.22128152168E+03  0.27456032050E+03  0.00000000000E+00 0.  1.
<scales pt_clust_3="33.68019" pt_clust_4="31.14343" pt_clust_5="14000.00000" pt_clust_6="172.72493"></scales>
<clustering>
<clus scale="   31.143">  2  4  1 -1</clus>
<clus scale="   33.680">  1  3  2 -1</clus>
<clus scale="  172.725">  2  6  1 -1</clus>
<clus scale="   33.680">  1  3  2 -1</clus>
</clustering>
</event>
<event>
 6    0  0.8991567E+002  0.9889541E+02  0.7546771E-02  0.1282636E+00
         21   -1    0    0  506  501  0.00000000000E+00  0.00000000000E+00  0.20110281725E+04  0.20110281725E+04  0.00000000000E+00 0. -1.
         21   -1    0    0  503  502 -0.00000000000E+00 -0.00000000000E+00 -0.42259942770E+02  0.42259942770E+02  0.00000000000E+00 0.  1.
         21    1    1    2  503  501 -0.97580902144E+01 -0.30243764351E+02 -0.14590964813E+02  0.34968583914E+02  0.00000000000E+00 0.  1.
         21    1    1    2  504  502 -0.43363638763E+02 -0.39478935391E+01  0.36483692999E+02  0.56807137624E+02  0.00000000000E+00 0.  1.
         21    1    1    2  505  504  0.43742851718E+02  0.12472705202E+03  0.78248467212E+03  0.79356949077E+03  0.00000000000E+00 0. -1.
         21    1    1    2  506  505  0.93788772596E+01 -0.90535394132E+02  0.11643908294E+04  0.11679429030E+04  0.00000000000E+00 0. -1.
<scales pt_clust_3="31.77901" pt_clust_4="53.55442" pt_clust_5="14000.00000" pt_clust_6="98.89541"></scales>
<clustering>
<clus scale="   31.779">  2  3  1 -1</clus>
<clus scale="   53.554">  2  4  1 -1</clus>
<clus scale="   98.895">  1  6  2 -1</clus>
<clus scale="   98.895">  1  3  2 -1</clus>
</clustering>
</event>
<event>
 6    0  0.8991567E+002  0.6338884E+02  0.7546771E-02  0.1384137E+00
         21   -1    0    0  505  501  0.00000000000E+00  0.00000000000E+00  0.14838322164E+03  0.14838322164E+03  0.00000000000E+00 0.  1.
         21   -1    0    0  506  502 -0.00000000000E+00 -0.00000000000E+00 -0.35637965623E+03  0.35637965623E+03  0.00000000000E+00 0.  1.
         21    1    1    2  503  502 -0.48111433643E+02  0.60059492523E+01 -0.42042975766E+02  0.64174709075E+02  0.00000000000E+00 0.  1.
         21    1    1    2  504  501  0.25058325583E+02  0.53917896835E+02  0.75041864811E+02  0.95741008740E+02  0.00000000000E+00 0.  1.
         21    1    1    2  505  503 -0.53110148678E+02 -0.58056527891E+02  0.12929195150E+02  0.79739653940E+02  0.00000000000E+00 0.  1.
         21    1    1    2  506  504  0.76163256738E+02 -0.18673181969E+01 -0.25392451879E+03  0.26510750611E+03  0.00000000000E+00 0.  1.
<scales pt_clust_3="48.48486" pt_clust_4="63.38884" pt_clust_5="14000.00000" pt_clust_6="35.14581"></scales>
<clustering>
<clus scale="   48.485">  2  3  1 -1</clus>
<clus scale="   35.146">  2  6  1 -1</clus>
<clus scale="   63.389">  1  4  2 -1</clus>
<clus scale="   63.389">  1  3  2 -1</clus>
</clustering>
</event>
<event>
 6    0  0.8991567E+002  0.7936181E+02  0.7546771E-02  0.1330872E+00
         21   -1    0    0  504  501  0.00000000000E+00  0.00000000000E+00  0.78448895764E+03  0.78448895764E+03  0.00000000000E+00 0.  1.
         21   -1    0    0  503  502 -0.00000000000E+00 -0.00000000000E+00 -0.25005115980E+03  0.25005115980E+03  0.00000000000E+00 0.  1.
         21    1    1    2  503  505  0.29694755203E+02 -0.14277608081E+02 -0.92409077015E+02  0.98107421197E+02  0.00000000000E+00 0. -1.
         21    1    1    2  504  506 -0.40093328785E+01 -0.47642165943E+02  0.65769979359E+03  0.65943526537E+03  0.00000000000E+00 0.  1.
         21    1    1    2  505  501  0.46535792256E+02  0.10698956985E+03  0.76853636493E+02  0.13970980445E+03  0.00000000000E+00 0.  1.
         21    1    1    2  506  502 -0.72221214580E+02 -0.45069795830E+02 -0.10770655522E+03  0.13728762642E+03  0.00000000000E+00 0.  1.
<scales pt_clust_3="32.94888" pt_clust_4="47.87668" pt_clust_5="14000.00000" pt_clust_6="79.36181"></scales>
<clustering>
<clus scale="   32.949">  2  3  1 -1</clus>
<clus scale="   47.877">  1  4  2 -1</clus>
<clus scale="   79.362">  2  6  1 -1</clus>
<clus scale="   47.877">  1  3  2 -1</clus>
</clustering>
</event>
<event>
 6    0  0.8991567E+002  0.1103690E+03  0.7546771E-02  0.1259888E+00
         21   -1    0    0  505  501  0.00000000000E+00  0.00000000000E+00  0.70905925553E+03  0.70905925553E+03  0.00000000000E+00 0.  1.
         21   -1    0    0  506  502 -0.00000000000E+00 -0.00000000000E+00 -0.16494924234E+03  0.16494924234E+03  0.00000000000E+00 0.  1.
         21    1    1    2  503  502  0.25888798163E+02 -0.66536721538E+02 -0.98391387119E+02  0.12156574453E+03  0.00000000000E+00 0.  1.
         21    1    1    2  504  503  0.37181411226E+02  0.92921112163E+02  0.43376518904E+03  0.44516180165E+03  0.00000000000E+00 0.  1.
         21    1    1    2  505  504 -0.29845476616E+02  0.22549339506E+02  0.23825731937E+03  0.24117581848E+03  0.00000000000E+00 0. -1.
         21    1    1    2  506  501 -0.33224732774E+02 -0.48933730131E+02 -0.29521108103E+02  0.66105133205E+02  0.00000000000E+00 0.  1.
<scales pt_clust_3="110.36902" pt_clust_4="14000.00000" pt_clust_5="37.40622" pt_clust_6="59.09148"></scales>
<clustering>
<clus scale="   37.406">  1  5  2 -1</clus>
<clus scale="   59.091">  2  6  1 -1</clus>
<clus scale="  110.369">  2  3  1 -1</clus>
<clus scale="   37.406">  1  3  2 -1</clus>
</clustering>
</event>
<event>
 6    0  0.8991567E+002  0.1020195E+03  0.7546771E-02  0.1276106E+00
         21   -1    0    0  503  501  0.00000000000E+00  0.00000000000E+00  0.96881159203E+03  0.96881159203E+03  0.00000000000E+00 0. -1.
         21   -1    0    0  505  502 -0.00000000000E+00 -0.00000000000E+00 -0.11974790854E+04  0.11974790854E+04  0.00000000000E+00 0.  1.
         21    1    1    2  503  504  0.50742439191E+02  0.15809473402E+02  0.92491106897E+03  0.92643684086E+03  0.00000000000E+00 0. -1.
         21    1    1    2  504  502 -0.96521855292E+02  0.73938801549E+02 -0.57677458636E+02  0.13457378704E+03  0.00000000000E+00 0. -1.
         21    1    1    2  505  506  0.28920148875E+02  0.18169163098E+02 -0.29281466617E+03  0.29479980024E+03  0.00000000000E+00 0.  1.
         21    1    1    2  506  501  0.16859267226E+02 -0.10791743805E+03 -0.80308643751E+03  0.81048024926E+03  0.00000000000E+00 0.  1.
<scales pt_clust_3="53.17610" pt_clust_4="102.01951" pt_clust_5="34.15397" pt_clust_6="14000.00000"></scales>
<clustering>
<clus scale="   34.154">  2  5  1 -1</clus>
<clus scale="   53.176">  1  3  2 -1</clus>
<clus scale="  102.020">  1  4  2 -1</clus>
<clus scale="   53.176">  1  3  2 -1</clus>
</clustering>
</event>
<event>
 6    0  0.8991567E+002  0.1594873E+03  0.7546771E-02  0.1189277E+00
         21   -1    0    0  504  501  0.00000000000E+00  0.00000000000E+00  0.15285462285E+04  0.15285462285E+04  0.00000000000E+00 0. -1.
         21   -1    0    0  506  502 -0.00000000000E+00 -0.00000000000E+00 -0.14112332451E+03  0.14112332451E+03  0.00000000000E+00 0.  1.
         21    1    1    2  503  502 -0.89219031362E+02 -0.12584111497E+03 -0.62277896072E+02  0.16635671947E+03  0.00000000000E+00 0.  1.
         21    1    1    2  504  503 -0.77921093934E+02 -0.10551713377E+02  0.51779213891E+03  0.52372868420E+03  0.00000000000E+00 0. -1.
         21    1    1    2  505  501  0.32240345607E+02 -0.20287084525E+02  0.49242968035E+03  0.49390079548E+03  0.00000000000E+00 0. -1.
         21    1    1    2  506  505  0.13489977969E+03  0.15667991287E+03  0.43947898083E+03  0.48568335389E+03  0.00000000000E+00 0. -1.
<scales pt_clust_3="14000.00000" pt_clust_4="65.10249" pt_clust_5="38.09207" pt_clust_6="159.48735"></scales>
<clustering>
<clus scale="   38.092">  1  5  2 -1</clus>
<clus scale="   65.102">  1  4  2 -1</clus>
<clus scale="  159.487">  1  6  2 -1</clus>
<clus scale="   38.092">  1  3  2 -1</clus>
</clustering>
</event>
<event>
 6    0  0.8991567E+002  0.1227160E+03  0.7546771E-02  0.1238683E+00
         21   -1    0    0  504  501  0.00000000000E+00  0.00000000000E+00  0.10007890025E+03  0.10007890025E+03  0.00000000000E+00 0.  1.
         21   -1    0    0  506  502 -0.00000000000E+00 -0.00000000000E+00 -0.15008265941E+04  0.15008265941E+04  0.00000000000E+00 0.  1.
         21    1    1    2  503  501  0.11476249664E+03  0.14167454478E+02 -0.67319047574E+03  0.68304945943E+03  0.00000000000E+00 0.  1.
         21    1    1    2  504  505 -0.26727483805E+02 -0.15270855501E+02  0.57040996166E+02  0.64816916480E+02  0.00000000000E+00 0.  1.
         21    1    1    2  505  502 -0.94288593418E+02 -0.30723094299E+02 -0.38724469066E+02  0.10646047096E+03  0.00000000000E+00 0.  1.
         21    1    1    2  506  503  0.62535805842E+01  0.31826495322E+02 -0.74587374524E+03  0.74657864751E+03  0.00000000000E+00 0.  1.
<scales pt_clust_3="14000.00000" pt_clust_4="30.78242" pt_clust_5="122.71598" pt_clust_6="32.25445"></scales>
<clustering>
<clus scale="   30.782">  1  4  2 -1</clus>
<clus scale="   32.254">  2  6  1 -1</clus>
<clus scale="  122.716">  1  5  2 -1</clus>
<clus scale="   30.782">  1  3  2 -1</clus>
</clustering>
</event>
<event>
 6    0  0.8991567E+002  0.1187316E+03  0.7546771E-02  0.1245204E+00
         21   -1    0    0  505  501  0.00000000000E+00  0.00000000000E+00  0.49709053935E+03  0.49709053935E+03  0.00000000000E+00 0. -1.
         21   -1    0    0  504  502 -0.00000000000E+00 -0.00000000000E+00 -0.39199496725E+02  0.39199496725E+02  0.00000000000E+00 0. -1.
         21    1    1    2  503  506  0.45260373798E+02  0.59572158496E+01  0.63942564131E+02  0.78566159157E+02  0.00000000000E+00 0. -1.
         21    1    1    2  504  501 -0.11699108979E+03  0.46307847795E+02  0.21595272669E+03  0.24993381528E+03  0.00000000000E+00 0. -1.
         21    1    1    2  505  503  0.47632295751E+02 -0.31254426600E+02  0.16262548043E+03  0.17231576151E+03  0.00000000000E+00 0. -1.
         21    1    1    2  506  502  0.24098420241E+02 -0.21010637045E+02  0.15370271379E+02  0.35474300126E+02  0.00000000000E+00 0. -1.
<scales pt_clust_3="43.91801" pt_clust_4="108.43211" pt_clust_5="43.91801" pt_clust_6="31.97156"></scales>
<clustering>
<clus scale="   31.972">  2  6  1 -1</clus>
<clus scale="   43.918">  3  5 -1 -1</clus>
<clus scale="  108.432">  2  4  1 -1</clus>
<clus scale="  118.732">  1  3  2 -1</clus>
</clustering>
</event>
<event>
 6    0  0.8991567E+002  0.9723393E+02  0.7546771E-02  0.1286223E+00
         21   -1    0    0  505  501  0.00000000000E+00  0.00000000000E+00  0.37384976733E+03  0.37384976733E+03  0.00000000000E+00 0.  1.
         21   -1    0    0  503  502 -0.00000000000E+00 -0.00000000000E+00 -0.52773608323E+03  0.52773608323E+03  0.00000000000E+00 0. -1.
         21    1    1    2  503  504  0.21744523594E+02  0.74651735999E+02 -0.54315688876E+02  0.94846718721E+02  0.00000000000E+00 0.  1.
         21    1    1    2  504  506  0.24524787301E+02 -0.11747843349E+03  0.29373407274E+03  0.31730482665E+03  0.00000000000E+00 0.  1.
         21    1    1    2  505  502 -0.18747590437E+02  0.25330310357E+02 -0.43520145613E+03  0.43634092656E+03  0.00000000000E+00 0. -1.
         21    1    1    2  506  501 -0.27521720457E+02  0.17496387129E+02  0.41896756381E+02  0.53093378633E+02  0.00000000000E+00 0. -1.
<scales pt_clust_3="14000.00000" pt_clust_4="97.23393" pt_clust_5="31.51344" pt_clust_6="34.40966"></scales>
<clustering>
<clus scale="   31.513">  2  5  1 -1</clus>
<clus scale="   34.410">  1  6  2 -1</clus>
<clus scale="   97.234">  1  4  2 -1</clus>
<clus scale="   34.410">  1  3  2 -1</clus>
</clustering>
</event>
<event>
 6    0  0.8991567E+002  0.9186569E+02  0.7546771E-02  0.1298396E+00
         21   -1    0    0  505  501  0.00000000000E+00  0.00000000000E+00  0.17159891628E+03  0.17159891628E+03  0.00000000000E+00 0. -1.
         21   -1    0    0  504  502 -0.00000000000E+00 -0.00000000000E+00 -0.85168620524E+03  0.85168620524E+03  0.00000000000E+00 0. -1.
         21    1    1    2  503  506  0.91017564772E+02 -0.54382535075E+02 -0.44425555820E+03  0.45673258939E+03  0.00000000000E+00 0. -1.
         21    1    1    2  504  501 -0.84693275346E+02  0.36042827353E+02 -0.11563252417E+03  0.14779349424E+03  0.00000000000E+00 0. -1.
         21    1    1    2  505  503  0.25014552005E+02  0.29607953886E+02  0.14570758524E+03  0.15077486244E+03  0.00000000000E+00 0. -1.
         21    1    1    2  506  502 -0.31338841431E+02 -0.11268246164E+02 -0.26590679183E+03  0.26798417546E+03  0.00000000000E+00 0. -1.
<scales pt_clust_3="91.86569" pt_clust_4="14000.00000" pt_clust_5="38.63541" pt_clust_6="33.30310"></scales>
<clustering>
<clus scale="   33.303">  2  6  1 -1</clus>
<clus scale="   38.635">  1  5  2 -1</clus>
<clus scale="   91.866">  2  3  1 -1</clus>
<clus scale="   38.635">  1  3  2 -1</clus>
</clustering>
</event>
<event>
 6    0  0.8991567E+002  0.1853288E+03  0.7546771E-02  0.1162743E+00
         21   -1    0    0  503  501  0.00000000000E+00  0.00000000000E+00  0.17634903456E+03  0.17634903456E+03  0.00000000000E+00 0.  1.
         21   -1    0    0  506  502 -0.00000000000E+00 -0.00000000000E+00 -0.68398372154E+03  0.68398372154E+03  0.00000000000E+00 0.  1.
         21    1    1    2  503  504 -0.20015021649E+03  0.11895520091E+03 -0.24103941901E+03  0.33512751379E+03  0.00000000000E+00 0.  1.
         21    1    1    2  504  505 -0.17566014624E+01 -0.60266529277E+02 -0.20677219357E+03  0.21538310108E+03  0.00000000000E+00 0.  1.
         21    1    1    2  505  502  0.29158433566E+02 -0.20871973304E+02 -0.11826055362E+03  0.12357755484E+03  0.00000000000E+00 0.  1.
         21    1    1    2  506  501  0.17274838439E+03 -0.37816698329E+02  0.58437479205E+02  0.18624458638E+03  0.00000000000E+00 0.  1.
<scales pt_clust_3="185.32883" pt_clust_4="96.16673" pt_clust_5="33.73705" pt_clust_6="14000.00000"></scales>
<clustering>
<clus scale="   33.737">  4  5 -1 -1</clus>
<clus scale="   96.167">  2  4  1 -1</clus>
<clus scale="  185.329">  2  3  1 -1</clus>
<clus scale="  185.329">  1  3  2 -1</clus>
</clustering>
</event>
<event>
 6    0  0.8991567E+002  0.1470152E+03  0.7546771E-02  0.1204189E+00
         21   -1    0    0  506  501  0.00000000000E+00  0.00000000000E+00  0.33038662154E+03  0.33038662154E+03  0.00000000000E+00 0.  1.
         21   -1    0    0  503  502 -0.00000000000E+00 -0.00000000000E+00 -0.50327177800E+03  0.50327177800E+03  0.00000000000E+00 0.  1.
         21    1    1    2  503  505 -0.16285919442E+02  0.28068683435E+02 -0.62052391304E+02  0.70025576959E+02  0.00000000000E+00 0.  1.
         21    1    1    2  504  501  0.13406896073E+03 -0.67632481896E+02  0.28933537461E+03  0.32598097773E+03  0.00000000000E+00 0.  1.
         21    1    1    2  505  504 -0.35269597536E+02  0.24317065692E+02 -0.18148943819E+02  0.46525781627E+02  0.00000000000E+00 0.  1.
         21    1    1    2  506  502 -0.82513443753E+02  0.15246732769E+02 -0.38201919595E+03  0.39112606323E+03  0.00000000000E+00 0.  1.
<scales pt_clust_3="32.45123" pt_clust_4="14000.00000" pt_clust_5="45.02166" pt_clust_6="147.01517"></scales>
<clustering>
<clus scale="   32.451">  2  3  1 -1</clus>
<clus scale="   45.022">  2  5  1 -1</clus>
<clus scale="  147.015">  2  6  1 -1</clus>
<clus scale="  147.015">  1  3  2 -1</clus>
</clustering>
</event>
<event>
 6    0  0.8991567E+002  0.7658229E+02  0.7546771E-02  0.1339040E+00
         21   -1    0    0  505  501  0.00000000000E+00  0.00000000000E+00  0.58261827992E+02  0.58261827992E+02  0.00000000000E+00 0. -1.
         21   -1    0    0  506  502 -0.00000000000E+00 -0.00000000000E+00 -0.94904228232E+03  0.94904228232E+03  0.00000000000E+00 0. -1.
         21    1    1    2  503  504 -0.48674741430E+02  0.33214790132E+02 -0.11022939150E+03  0.12499188569E+03  0.00000000000E+00 0. -1.
         21    1    1    2  504  502  0.25517304970E+02  0.49512656195E+02 -0.68938816711E+03  0.69163478869E+03  0.00000000000E+00 0. -1.
         21    1    1    2  505  503 -0.35399907260E+02  0.23012324402E+01  0.18545333447E+02  0.40029720176E+02  0.00000000000E+00 0. -1.
         21    1    1    2  506  501  0.58557343720E+02 -0.85028678767E+02 -0.10970822916E+03  0.15064771575E+03  0.00000000000E+00 0. -1.
<scales pt_clust_3="76.58229" pt_clust_4="55.16630" pt_clust_5="35.47463" pt_clust_6="14000.00000"></scales>
<clustering>
<clus scale="   35.475">  1  5  2 -1</clus>
<clus scale="   55.166">  2  4  1 -1</clus>
<clus scale="   76.582">  2  3  1 -1</clus>
<clus scale="   35.475">  1  3  2 -1</clus>
</clustering>
</event>
<event>
 6    0  0.8991567E+002  0.1014445E+03  0.7546771E-02  0.1277287E+00
         21   -1    0    0  504  501  0.00000000000E+00  0.00000000000E+00  0.26221515583E+03  0.26221515583E+03  0.00000000000E+00 0.  1.
         21   -1    0    0  505  502 -0.00000000000E+00 -0.00000000000E+00 -0.63039645500E+03  0.63039645500E+03  0.00000000000E+00 0. -1.
         21    1    1    2  503  501  0.11191648254E+03  0.47983494545E+02  0.14669952433E+03  0.19065273470E+03  0.00000000000E+00 0.  1.
         21    1    1    2  504  506 -0.85221965590E+02  0.20831840392E+02  0.43711641586E+02  0.98017634144E+02  0.00000000000E+00 0.  1.
         21    1    1    2  505  503  0.52852973160E+02  0.42350756469E+02 -0.73454392306E+02  0.99912817468E+02  0.00000000000E+00 0.  1.
         21    1    1    2  506  502 -0.79547490108E+02 -0.11116609141E+03 -0.48513807277E+03  0.50402842451E+03  0.00000000000E+00 0. -1.
<scales pt_clust_3="101.44447" pt_clust_4="14000.00000" pt_clust_5="67.72757" pt_clust_6="79.16601"></scales>
<clustering>
<clus scale="   67.728">  2  5  1 -1</clus>
<clus scale="   79.166">  2  6  1 -1</clus>
<clus scale="  101.444">  1  3  2 -1</clus>
<clus scale="  101.444">  1  3  2 -1</clus>
</clustering>
</event>
<event>
 6    0  0.8991567E+002  0.1612827E+03  0.7546771E-02  0.1187256E+00
         21   -1    0    0  505  501  0.00000000000E+00  0.00000000000E+00  0.20429637106E+03  0.20429637106E+03  0.00000000000E+00 0. -1.
         21   -1    0    0  503  502 -0.00000000000E+00 -0.00000000000E+00 -0.46936167101E+03  0.46936167101E+03  0.00000000000E+00 0.  1.
         21    1    1    2  503  501  0.94078180177E+00  0.53495192188E+02 -0.24742963253E+03  0.25314826428E+03  0.00000000000E+00 0.  1.
         21    1    1    2  504  502  0.16402047850E+03 -0.56849815647E+01 -0.11936769029E+03  0.20293763049E+03  0.00000000000E+00 0.  1.
         21    1    1    2  505  506 -0.32209032981E+02  0.20436844987E+02  0.22915939254E+01  0.38214366949E+02  0.00000000000E+00 0. -1.
         21    1    1    2  506  504 -0.13275222732E+03 -0.68247055611E+02  0.99440428949E+02  0.17935778034E+03  0.00000000000E+00 0. -1.
<scales pt_clust_3="53.81450" pt_clust_4="14000.00000" pt_clust_5="38.14560" pt_clust_6="161.28273"></scales>
<clustering>
<clus scale="   38.146">  1  5  2 -1</clus>
<clus scale="   53.815">  2  3  1 -1</clus>
<clus scale="  161.283">  1  6  2 -1</clus>
<clus scale="   38.146">  1  3  2 -1</clus>
</clustering>
</event>
<event>
 6    0  0.8991567E+002  0.7434496E+02  0.7546771E-02  0.1345912E+00
         21   -1    0    0  504  501  0.00000000000E+00  0.00000000000E+00  0.35933529285E+03  0.35933529285E+03  0.00000000000E+00 0.  1.
         21   -1    0    0  505  502 -0.00000000000E+00 -0.00000000000E+00 -0.61366392977E+02  0.61366392977E+02  0.00000000000E+00 0.  1.
         21    1    1    2  503  502  0.91332462926E+02  0.74718495103E+02  0.16014762991E+03  0.19892645792E+03  0.00000000000E+00 0.  1.
         21    1    1    2  504  503 -0.31422040346E+02 -0.19681704604E+02  0.10891894719E+03  0.11505673023E+03  0.00000000000E+00 0.  1.
         21    1    1    2  505  506 -0.11143972938E+02 -0.45366208213E+02 -0.43347494699E+01  0.46915573464E+02  0.00000000000E+00 0.  1.
         21    1    1    2  506  501 -0.48766449643E+02 -0.96705822858E+01  0.33237072246E+02  0.59802924209E+02  0.00000000000E+00 0.  1.
<scales pt_clust_3="74.34496" pt_clust_4="37.07714" pt_clust_5="49.05565" pt_clust_6="14000.00000"></scales>
<clustering>
<clus scale="   37.077">  1  4  2 -1</clus>
<clus scale="   49.056">  2  5  1 -1</clus>
<clus scale="   74.345">  1  3  2 -1</clus>
<clus scale="   37.077">  1  3  2 -1</clus>
</clustering>
</event>
<event>
 6    0  0.8991567E+002  0.2180193E+03  0.7546771E-02  0.1135368E+00
         21   -1    0    0  505  501  0.00000000000E+00  0.00000000000E+00  0.39020977465E+03  0.39020977465E+03  0.00000000000E+00 0. -1.
         21   -1    0    0  504  502 -0.00000000000E+00 -0.00000000000E+00 -0.16212874879E+04  0.16212874879E+04  0.00000000000E+00 0.  1.
         21    1    1    2  503  502  0.12048498058E+03 -0.19743744504E+03 -0.94783129848E+03  0.97564457956E+03  0.00000000000E+00 0.  1.
         21    1    1    2  504  506 -0.38233978371E+02 -0.20968953058E+02 -0.14633333462E+03  0.15269243241E+03  0.00000000000E+00 0. -1.
         21    1    1    2  505  503 -0.23610853724E+01  0.33958100732E+02  0.35246748555E+03  0.35410740701E+03  0.00000000000E+00 0. -1.
         21    1    1    2  506  501 -0.79889916832E+02  0.18444829737E+03 -0.48938056568E+03  0.52905284356E+03  0.00000000000E+00 0.  1.
<scales pt_clust_3="14000.00000" pt_clust_4="42.46217" pt_clust_5="34.04008" pt_clust_6="218.01929"></scales>
<clustering>
<clus scale="   34.040">  1  5  2 -1</clus>
<clus scale="   42.462">  2  4  1 -1</clus>
<clus scale="  218.019">  1  6  2 -1</clus>
<clus scale="   34.040">  1  3  2 -1</clus>
</clustering>
</event>
<event>
 6    0  0.8991567E+002  0.1444200E+03  0.7546771E-02  0.1207502E+00
         21   -1    0    0  505  501  0.00000000000E+00  0.00000000000E+00  0.97945395928E+03  0.97945395928E+03  0.00000000000E+00 0.  1.
         21   -1    0    0  506  502 -0.00000000000E+00 -0.00000000000E+00 -0.42350683781E+03  0.42350683781E+03  0.00000000000E+00 0.  1.
         21    1    1    2  503  501  0.10753743422E+02  0.89969723355E+02  0.39761643059E+02  0.98950403621E+02  0.00000000000E+00 0.  1.
         21    1    1    2  504  502 -0.15969835958E+02 -0.32612365182E+02 -0.14888894457E+03  0.15325312343E+03  0.00000000000E+00 0.  1.
         21    1    1    2  505  504 -0.23060975861E+02 -0.15520044305E+03  0.89006464571E+03  0.90378872513E+03  0.00000000000E+00 0.  1.
         21    1    1    2  506  503  0.28277068398E+02  0.97843084873E+02 -0.22499022273E+03  0.24696854491E+03  0.00000000000E+00 0.  1.
<scales pt_clust_3="14000.00000" pt_clust_4="36.31256" pt_clust_5="144.41996" pt_clust_6="71.07793"></scales>
<clustering>
<clus scale="   36.313">  2  4  1 -1</clus>
<clus scale="   71.078">  2  6  1 -1</clus>
<clus scale="  144.420">  1  5  2 -1</clus>
<clus scale="  144.420">  1  3  2 -1</clus>
</clustering>
</event>
<event>
 6    0  0.8991567E+002  0.6889829E+02  0.7546771E-02  0.1363880E+00
         21   -1    0    0  505  501  0.00000000000E+00  0.00000000000E+00  0.81067247909E+02  0.81067247909E+02  0.00000000000E+00 0. -1.
         21   -1    0    0  506  502 -0.00000000000E+00 -0.00000000000E+00 -0.86234705429E+03  0.86234705429E+03  0.00000000000E+00 0.  1.
         21    1    1    2  503  502  0.14677650057E+02  0.39903509158E+02 -0.69089349791E+03  0.69220051207E+03  0.00000000000E+00 0.  1.
         21    1    1    2  504  501 -0.68390411416E+02 -0.77343849536E+01  0.17072275254E+02  0.70912140474E+02  0.00000000000E+00 0. -1.
         21    1    1    2  505  503 -0.10124603310E+02 -0.66676872600E+02 -0.74829909551E+02  0.10073642983E+03  0.00000000000E+00 0. -1.
         21    1    1    2  506  504  0.63837364669E+02  0.34507748396E+02 -0.32628674173E+02  0.79565219823E+02  0.00000000000E+00 0. -1.
<scales pt_clust_3="42.51733" pt_clust_4="14000.00000" pt_clust_5="46.24044" pt_clust_6="68.89829"></scales>
<clustering>
<clus scale="   42.517">  2  3  1 -1</clus>
<clus scale="   46.240">  2  5  1 -1</clus>
<clus scale="   68.898">  2  6  1 -1</clus>
<clus scale="   68.898">  1  3  2 -1</clus>
</clustering>
</event>
<event>
 6    0  0.8991567E+002  0.1166196E+03  0.7546771E-02  0.1248780E+00
         21   -1    0    0  503  501  0.00000000000E+00  0.00000000000E+00  0.17050453313E+03  0.17050453313E+03  0.00000000000E+00 0. -1.
         21   -1    0    0  504  502 -0.00000000000E+00 -0.00000000000E+00 -0.62044101352E+03  0.62044101352E+03  0.00000000000E+00 0. -1.
         21    1    1    2  503  506  0.10340783148E+03 -0.19215030075E+02  0.70544595226E+02  0.12664492453E+03  0.00000000000E+00 0. -1.
         21    1    1    2  504  505  0.58505002295E+02  0.11432750463E+02 -0.22777788003E+03  0.23544915738E+03  0.00000000000E+00 0. -1.
         21    1    1    2  505  501  0.17524661552E+02  0.58752745865E+02 -0.22043952179E+03  0.22880686545E+03  0.00000000000E+00 0. -1.
         21    1    1    2  506  502 -0.17943749533E+03 -0.50970466254E+02 -0.72263673783E+02  0.20004459930E+03  0.00000000000E+00 0. -1.
<scales pt_clust_3="116.61964" pt_clust_4="59.61160" pt_clust_5="83.09993" pt_clust_6="14000.00000"></scales>
<clustering>
<clus scale="   59.612">  2  4  1 -1</clus>
<clus scale="   83.100">  2  5  1 -1</clus>
<clus scale="  116.620">  1  3  2 -1</clus>
<clus scale="  116.620">  1  3  2 -1</clus>
</clustering>
</event>
<event>
 6    0  0.8991567E+002  0.1497699E+03  0.7546771E-02  0.1200756E+00
         21   -1    0    0  503  501  0.00000000000E+00  0.00000000000E+00  0.81486270539E+02  0.81486270539E+02  0.00000000000E+00 0.  1.
         21   -1    0    0  506  502 -0.00000000000E+00 -0.00000000000E+00 -0.73217529103E+03  0.73217529103E+03  0.00000000000E+00 0. -1.
         21    1    1    2  503  505 -0.45346004599E+02  0.14581747779E+03 -0.93675093902E+02  0.17914803984E+03  0.00000000000E+00 0.  1.
         21    1    1    2  504  502  0.85348562871E+02 -0.19200383438E+02 -0.15072247327E+03  0.17427075445E+03  0.00000000000E+00 0. -1.
         21    1    1    2  505  504 -0.23609059262E+02 -0.15293533807E+03 -0.20643901512E+03  0.25799936487E+03  0.00000000000E+00 0. -1.
         21    1    1    2  506  501 -0.16393499010E+02  0.26318243718E+02 -0.19985243821E+03  0.20224340241E+03  0.00000000000E+00 0.  1.
<scales pt_clust_3="149.76992" pt_clust_4="81.10291" pt_clust_5="14000.00000" pt_clust_6="31.00640"></scales>
<clustering>
<clus scale="   31.006">  2  6  1 -1</clus>
<clus scale="   81.103">  2  4  1 -1</clus>
<clus scale="  149.770">  1  3  2 -1</clus>
<clus scale="  149.770">  1  3  2 -1</clus>
</clustering>
</event>
<event>
 6    0  0.8991567E+002  0.9815734E+02  0.7546771E-02  0.1284219E+00
         21   -1    0    0  503  501  0.00000000000E+00  0.00000000000E+00  0.76485564873E+02  0.76485564873E+02  0.00000000000E+00 0.  1.
         21   -1    0    0  504  502 -0.00000000000E+00 -0.00000000000E+00 -0.73297675187E+03  0.73297675187E+03  0.00000000000E+00 0. -1.
         21    1    1    2  503  505  0.68520676000E+02 -0.25614030510E+02  0.39378337177E+02  0.83077163151E+02  0.00000000000E+00 0.  1.
         21    1    1    2  504  506 -0.10984211247E+03  0.30122699133E+02 -0.38676917382E+03  0.40319109674E+03  0.00000000000E+00 0. -1.
         21    1    1    2  505  502  0.25838079807E+02  0.24203107774E+02 -0.26982932073E+03  0.27214198338E+03  0.00000000000E+00 0. -1.
         21    1    1    2  506  501  0.15483356664E+02 -0.28711776397E+02 -0.39271029620E+02  0.51052073463E+02  0.00000000000E+00 0. -1.
<scales pt_clust_3="14000.00000" pt_clust_4="98.15734" pt_clust_5="35.27071" pt_clust_6="32.62055"></scales>
<clustering>
<clus scale="   32.621">  1  6  2 -1</clus>
<clus scale="   35.271">  2  5  1 -1</clus>
<clus scale="   98.157">  2  4  1 -1</clus>
<clus scale="   32.621">  1  3  2 -1</clus>
</clustering>
</event>
<event>
 6    0  0.8991567E+002  0.1310779E+03  0.7546771E-02  0.1225865E+00
         21   -1    0    0  504  501  0.00000000000E+00  0.00000000000E+00  0.89334455988E+03  0.89334455988E+03  0.00000000000E+00 0. -1.
         21   -1    0    0  506  502 -0.00000000000E+00 -0.00000000000E+00 -0.63423863132E+03  0.63423863132E+03  0.00000000000E+00 0. -1.
         21    1    1    2  503  501 -0.71447181941E+02 -0.11278402862E+03  0.79845137081E+03  0.80953661342E+03  0.00000000000E+00 0. -1.
         21    1    1    2  504  502  0.83633708445E+02 -0.38548436309E+01  0.60967916782E+02  0.10356902956E+03  0.00000000000E+00 0.  1.
         21    1    1    2  505  503  0.10806964892E+02  0.53990405191E+02 -0.16172788733E+03  0.17084397526E+03  0.00000000000E+00 0. -1.
         21    1    1    2  506  505 -0.22993491397E+02  0.62648467061E+02 -0.43858547170E+03  0.44363357296E+03  0.00000000000E+00 0. -1.
<scales pt_clust_3="117.16664" pt_clust_4="83.72250" pt_clust_5="53.37897" pt_clust_6="53.37897"></scales>
<clustering>
<clus scale="   53.379">  5  6 -1 -1</clus>
<clus scale="   83.723">  1  4  2 -1</clus>
<clus scale="  117.167">  1  3  2 -1</clus>
<clus scale="   83.723">  1  3  2 -1</clus>
</clustering>
</event>
<event>
 6    0  0.8991567E+002  0.1385897E+03  0.7546771E-02  0.1215239E+00
         21   -1    0    0  503  501  0.00000000000E+00  0.00000000000E+00  0.11220437931E+03  0.11220437931E+03  0.00000000000E+00 0. -1.
         21   -1    0    0  504  502 -0.00000000000E+00 -0.00000000000E+00 -0.19634283602E+04  0.19634283602E+04  0.00000000000E+00 0.  1.
         21    1    1    2  503  502  0.56365022923E+02  0.11601351755E+03 -0.12844723216E+04  0.12909319490E+04  0.00000000000E+00 0.  1.
         21    1    1    2  504  506 -0.19477214682E+03 -0.15217008269E+03 -0.48913343762E+03  0.54803598699E+03  0.00000000000E+00 0.  1.
         21    1    1    2  505  501  0.48377184807E+02 -0.34214819849E+02  0.40925526961E+02  0.72013225620E+02  0.00000000000E+00 0. -1.
         21    1    1    2  506  505  0.90029939089E+02  0.70371384989E+02 -0.11854374868E+03  0.16465157791E+03  0.00000000000E+00 0. -1.
<scales pt_clust_3="14000.00000" pt_clust_4="138.58969" pt_clust_5="59.25374" pt_clust_6="123.56967"></scales>
<clustering>
<clus scale="   59.254">  1  5  2 -1</clus>
<clus scale="  123.570">  1  6  2 -1</clus>
<clus scale="  138.590">  1  4  2 -1</clus>
<clus scale="   59.254">  1  3  2 -1</clus>
</clustering>
</event>
<event>
 6    0  0.8991567E+002  0.1656566E+03  0.7546771E-02  0.1182455E+00
         21   -1    0    0  504  501  0.00000000000E+00  0.00000000000E+00  0.23000459525E+03  0.23000459525E+03  0.00000000000E+00 0.  1.
         21   -1    0    0  506  502 -0.00000000000E+00 -0.00000000000E+00 -0.71174459024E+03  0.71174459024E+03  0.00000000000E+00 0.  1.
         21    1    1    2  503  505  0.83864786176E+02  0.18001244326E+03 -0.49494040522E+02  0.20466421802E+03  0.00000000000E+00 0.  1.
         21    1    1    2  504  502  0.33960664550E+02 -0.97562455135E+02 -0.45072370192E+03  0.46241065609E+03  0.00000000000E+00 0. -1.
         21    1    1    2  505  501 -0.12749599765E+03  0.13378731267E+02  0.88342863156E+02  0.15568776874E+03  0.00000000000E+00 0.  1.
         21    1    1    2  506  503  0.96705469192E+01 -0.95828719392E+02 -0.69865115697E+02  0.11898654264E+03  0.00000000000E+00 0.  1.
<scales pt_clust_3="14000.00000" pt_clust_4="165.65657" pt_clust_5="127.22991" pt_clust_6="96.31543"></scales>
<clustering>
<clus scale="   96.315">  2  6  1 -1</clus>
<clus scale="  127.230">  1  5  2 -1</clus>
<clus scale="  165.657">  2  4  1 -1</clus>
<clus scale="  127.230">  1  3  2 -1</clus>
</clustering>
</event>
<event>
 6    0  0.8991567E+002  0.1888067E+03  0.7546771E-02  0.1159542E+00
         21   -1    0    0  504  501  0.00000000000E+00  0.00000000000E+00  0.16252135424E+04  0.16252135424E+04  0.00000000000E+00 0. -1.
         21   -1    0    0  503  502 -0.00000000000E+00 -0.00000000000E+00 -0.42624584538E+03  0.42624584538E+03  0.00000000000E+00 0.  1.
         21    1    1    2  503  501 -0.49456334267E+01  0.84263401827E+02  0.11674993229E+03  0.14406709155E+03  0.00000000000E+00 0. -1.
         21    1    1    2  504  505 -0.16159732581E+02  0.25598026518E+02  0.12044859095E+04  0.12048662590E+04  0.00000000000E+00 0. -1.
         21    1    1    2  505  506 -0.16858617629E+03 -0.82523587382E+02  0.23279564549E+03  0.29904055556E+03  0.00000000000E+00 0. -1.
         21    1    1    2  506  502  0.18969154230E+03 -0.27337840963E+02 -0.35506379025E+03  0.40348548167E+03  0.00000000000E+00 0.  1.
<scales pt_clust_3="92.73739" pt_clust_4="30.27203" pt_clust_5="188.80667" pt_clust_6="14000.00000"></scales>
<clustering>
<clus scale="   30.272">  1  4  2 -1</clus>
<clus scale="   92.737">  1  3  2 -1</clus>
<clus scale="  188.807">  1  5  2 -1</clus>
<clus scale="   30.272">  1  3  2 -1</clus>
</clustering>
</event>
<event>
 6    0  0.8991567E+002  0.1069045E+03  0.7546771E-02  0.1266412E+00
         21   -1    0    0  506  501  0.00000000000E+00  0.00000000000E+00  0.27515782412E+03  0.27515782412E+03  0.00000000000E+00 0.  1.
         21   -1    0    0  504  502 -0.00000000000E+00 -0.00000000000E+00 -0.16355961712E+04  0.16355961712E+04  0.00000000000E+00 0. -1.
         21    1    1    2  503  502 -0.34411170060E+02 -0.45850091174E+02 -0.85165057236E+03  0.85357779779E+03  0.00000000000E+00 0. -1.
         21    1    1    2  504  501  0.11059617336E+03  0.12178046768E+03 -0.75950161066E+03  0.77711304999E+03  0.00000000000E+00 0. -1.
         21    1    1    2  505  503 -0.53276533850E+02 -0.50954397798E+02  0.92619541185E+02  0.11837702110E+03  0.00000000000E+00 0.  1.
         21    1    1    2  506  505 -0.22908469445E+02 -0.24975978704E+02  0.15809429470E+03  0.16168612650E+03  0.00000000000E+00 0.  1.
<scales pt_clust_3="57.60874" pt_clust_4="14000.00000" pt_clust_5="106.90448" pt_clust_6="33.89096"></scales>
<clustering>
<clus scale="   33.891">  1  6  2 -1</clus>
<clus scale="   57.609">  2  3  1 -1</clus>
<clus scale="  106.904">  1  5  2 -1</clus>
<clus scale="   33.891">  1  3  2 -1</clus>
</clustering>
</event>
<event>
 6    0  0.8991567E+002  0.1584659E+03  0.7546771E-02  0.1190440E+00
         21   -1    0    0  506  501  0.00000000000E+00  0.00000000000E+00  0.77414999039E+03  0.77414999039E+03  0.00000000000E+00 0.  1.
         21   -1    0    0  503  502 -0.00000000000E+00 -0.00000000000E+00 -0.80154368380E+02  0.80154368380E+02  0.00000000000E+00 0.  1.
         21    1    1    2  503  501  0.13369138318E+03  0.41173917819E+01  0.57696363413E+03  0.59226461482E+03  0.00000000000E+00 0.  1.
         21    1    1    2  504  505 -0.11763497381E+03 -0.17014585905E+02  0.40310778439E+02  0.12550873299E+03  0.00000000000E+00 0. -1.
         21    1    1    2  505  502 -0.27601011286E+02 -0.15527692519E+02 -0.18371284376E+02  0.36611871689E+02  0.00000000000E+00 0.  1.
         21    1    1    2  506  504  0.11544601917E+02  0.28424886642E+02  0.95092493810E+02  0.99919139272E+02  0.00000000000E+00 0.  1.
<scales pt_clust_3="146.49980" pt_clust_4="31.26757" pt_clust_5="31.26757" pt_clust_6="30.67983"></scales>
<clustering>
<clus scale="   30.680">  1  6  2 -1</clus>
<clus scale="   31.268">  4  5 -1 -1</clus>
<clus scale="  146.500">  1  3  2 -1</clus>
<clus scale="   30.680">  1  3  2 -1</clus>
</clustering>
</event>
<event>
 6    0  0.8991567E+002  0.1292841E+03  0.7546771E-02  0.1228522E+00
         21   -1    0    0  504  501  0.00000000000E+00  0.00000000000E+00  0.11476314018E+03  0.11476314018E+03  0.00000000000E+00 0. -1.
         21   -1    0    0  505  502 -0.00000000000E+00 -0.00000000000E+00 -0.12313588913E+04  0.12313588913E+04  0.00000000000E+00 0. -1.
         21    1    1    2  503  502 -0.31328871283E+02  0.13141524855E+03 -0.46578814015E+02  0.14290224506E+03  0.00000000000E+00 0. -1.
         21    1    1    2  504  503 -0.27148606180E+02  0.21161873479E+02  0.44062350645E+02  0.55913884241E+02  0.00000000000E+00 0. -1.
         21    1    1    2  505  506  0.37299233596E+02 -0.50347028937E+02 -0.95484260412E+03  0.95689626125E+03  0.00000000000E+00 0. -1.
         21    1    1    2  506  501  0.21178243867E+02 -0.10223009309E+03 -0.15923668367E+03  0.19040964097E+03  0.00000000000E+00 0. -1.
<scales pt_clust_3="14000.00000" pt_clust_4="34.42197" pt_clust_5="62.13268" pt_clust_6="129.28407"></scales>
<clustering>
<clus scale="   34.422">  1  4  2 -1</clus>
<clus scale="   62.133">  2  5  1 -1</clus>
<clus scale="  129.284">  2  6  1 -1</clus>
<clus scale="   34.422">  1  3  2 -1</clus>
</clustering>
</event>
<event>
 6    0  0.8991567E+002  0.1012894E+03  0.7546771E-02  0.1277608E+00
         21   -1    0    0  504  501  0.00000000000E+00  0.00000000000E+00  0.24794661871E+03  0.24794661871E+03  0.00000000000E+00 0.  1.
         21   -1    0    0  506  502 -0.00000000000E+00 -0.00000000000E+00 -0.36321506340E+03  0.36321506340E+03  0.00000000000E+00 0.  1.
         21    1    1    2  503  501 -0.35702161586E+02  0.38892453034E+02 -0.21161353360E+02  0.56877676825E+02  0.00000000000E+00 0. -1.
         21    1    1    2  504  505  0.78047982502E+02  0.65584484402E+02  0.19761794419E+03  0.22236381008E+03  0.00000000000E+00 0.  1.
         21    1    1    2  505  502 -0.60111210097E+02 -0.75340261515E+02 -0.10674768206E+03  0.14382134824E+03  0.00000000000E+00 0.  1.
         21    1    1    2  506  503  0.17765389182E+02 -0.29136675921E+02 -0.18497735346E+03  0.18809884697E+03  0.00000000000E+00 0.  1.
<scales pt_clust_3="45.42438" pt_clust_4="101.28939" pt_clust_5="14000.00000" pt_clust_6="34.12558"></scales>
<clustering>
<clus scale="   34.126">  2  6  1 -1</clus>
<clus scale="   45.424">  2  3  1 -1</clus>
<clus scale="  101.289">  1  4  2 -1</clus>
<clus scale="  101.289">  1  3  2 -1</clus>
</clustering>
</event>
<event>
 6    0  0.8991567E+002  0.8727175E+02  0.7546771E-02  0.1309596E+00
         21   -1    0    0  503  501  0.00000000000E+00  0.00000000000E+00  0.46665296290E+03  0.46665296290E+03  0.00000000000E+00 0.  1.
         21   -1    0    0  506  502 -0.00000000000E+00 -0.00000000000E+00 -0.54129566435E+02  0.54129566435E+02  0.00000000000E+00 0. -1.
         21    1    1    2  503  502 -0.35541408955E+02 -0.15157141408E+02 -0.97732944238E+01  0.39855338037E+02  0.00000000000E+00 0. -1.
         21    1    1    2  504  505  0.10808394875E+03 -0.18638322190E+02  0.19760328481E+03  0.22600129468E+03  0.00000000000E+00 0.  1.
         21    1    1    2  505  501 -0.38506312327E+01  0.40408236813E+02  0.13951924836E+03  0.14530407299E+03  0.00000000000E+00 0. -1.
         21    1    1    2  506  504 -0.68691908565E+02 -0.66127732157E+01  0.85174157718E+02  0.10962182363E+03  0.00000000000E+00 0. -1.
<scales pt_clust_3="38.63846" pt_clust_4="87.27175" pt_clust_5="39.60218" pt_clust_6="14000.00000"></scales>
<clustering>
<clus scale="   38.638">  2  3  1 -1</clus>
<clus scale="   39.602">  1  5  2 -1</clus>
<clus scale="   87.272">  1  4  2 -1</clus>
<clus scale="   39.602">  1  3  2 -1</clus>
</clustering>
</event>
<event>
 6    0  0.8991567E+002  0.1158024E+03  0.7546771E-02  0.1250187E+00
         21   -1    0    0  505  501  0.00000000000E+00  0.00000000000E+00  0.20505954758E+04  0.20505954758E+04  0.00000000000E+00 0. -1.
         21   -1    0    0  504  502 -0.00000000000E+00 -0.00000000000E+00 -0.42578903529E+02  0.42578903529E+02  0.00000000000E+00 0. -1.
         21    1    1    2  503  502  0.54107222724E+00 -0.32595061838E+02 -0.38559145179E+01  0.32826801430E+02  0.00000000000E+00 0. -1.
         21    1    1    2  504  501 -0.10238501104E+03  0.92857673026E+02  0.38792709711E+03  0.41181630687E+03  0.00000000000E+00 0. -1.
         21    1    1    2  505  506 -0.23164439925E+02 -0.10654807810E+03  0.11794094212E+04  0.11844389672E+04  0.00000000000E+00 0. -1.
         21    1    1    2  506  503  0.12500837874E+03  0.46285466913E+02  0.44453596852E+03  0.46409230387E+03  0.00000000000E+00 0. -1.
<scales pt_clust_3="32.59955" pt_clust_4="14000.00000" pt_clust_5="112.33252" pt_clust_6="115.80243"></scales>
<clustering>
<clus scale="   32.600">  2  3  1 -1</clus>
<clus scale="  112.333">  1  5  2 -1</clus>
<clus scale="  115.802">  1  6  2 -1</clus>
<clus scale="  112.333">  1  3  2 -1</clus>
</clustering>
</event>
<event>
 6    0  0.1302516E+003  0.1507339E+03  0.7546771E-02  0.1199574E+00
         21   -1    0    0  502  501  0.00000000000E+00  0.00000000000E+00  0.15419361981E+04  0.15419361981E+04  0.00000000000E+00 0. -1.
         21   -1    0    0  503  502 -0.00000000000E+00 -0.00000000000E+00 -0.21013034036E+03  0.21013034036E+03  0.00000000000E+00 0. -1.
         21    1    1    2  503  505  0.41628401629E+02  0.35322936257E+01 -0.85687152037E+02  0.95329370840E+02  0.00000000000E+00 0. -1.
         21    1    1    2  504  501 -0.58128609012E+02  0.12954807844E+01  0.11502312670E+04  0.11516998659E+04  0.00000000000E+00 0. -1.
         21    1    1    2  505  506  0.10487764204E+03 -0.12397455793E+02 -0.88870303031E+02  0.13802516970E+03  0.00000000000E+00 0. -1.
         21    1    1    2  506  504 -0.88377434652E+02  0.75696813829E+01  0.35613204584E+03  0.36701213209E+03  0.00000000000E+00 0. -1.
<scales pt_clust_3="31.07759" pt_clust_4="58.14304" pt_clust_5="31.07759" pt_clust_6="142.40530"></scales>
<clustering>
<clus scale="   31.078">  3  5 -1 -1</clus>
<clus scale="   58.143">  1  4  2 -1</clus>
<clus scale="  142.405">  1  6  2 -1</clus>
<clus scale="   58.143">  1  3  2 -1</clus>
</clustering>
</event>
<event>
 6    0  0.8991567E+002  0.1211249E+03  0.7546771E-02  0.1241253E+00
         21   -1    0    0  503  501  0.00000000000E+00  0.00000000000E+00  0.10511497271E+03  0.10511497271E+03  0.00000000000E+00 0.  1.
         21   -1    0    0  506  502 -0.00000000000E+00 -0.00000000000E+00 -0.19672923383E+04  0.19672923383E+04  0.00000000000E+00 0. -1.
         21    1    1    2  503  504  0.24691023842E+02  0.33853301291E+02  0.11712108323E+02  0.43507081584E+02  0.00000000000E+00 0.  1.
         21    1    1    2  504  502 -0.38388574707E+02  0.68637821219E+02 -0.16469094920E+04  0.16487861317E+04  0.00000000000E+00 0. -1.
         21    1    1    2  505  501  0.76648161736E+02 -0.10411429043E+03  0.14927910393E+02  0.13014441470E+03  0.00000000000E+00 0.  1.
         21    1    1    2  506  505 -0.62950610871E+02  0.16231679216E+01 -0.24190789224E+03  0.24996968299E+03  0.00000000000E+00 0. -1.
<scales pt_clust_3="41.90099" pt_clust_4="14000.00000" pt_clust_5="121.12493" pt_clust_6="61.75925"></scales>
<clustering>
<clus scale="   41.901">  1  3  2 -1</clus>
<clus scale="   61.759">  2  6  1 -1</clus>
<clus scale="  121.125">  1  5  2 -1</clus>
<clus scale="   41.901">  1  3  2 -1</clus>
</clustering>
</event>
<event>
 6    0  0.8991567E+002  0.1259008E+03  0.7546771E-02  0.1233668E+00
         21   -1    0    0  506  501  0.00000000000E+00  0.00000000000E+00  0.77013146222E+03  0.77013146222E+03  0.00000000000E+00 0.  1.
         21   -1    0    0  505  502 -0.00000000000E+00 -0.00000000000E+00 -0.13766116434E+03  0.13766116434E+03  0.00000000000E+00 0.  1.
         21    1    1    2  503  502  0.10264652069E+03 -0.56087667984E+02 -0.51564970922E+02  0.12783223746E+03  0.00000000000E+00 0.  1.
         21    1    1    2  504  501 -0.31783972542E+01 -0.34552730491E+02  0.80313004823E+02  0.87488125693E+02  0.00000000000E+00 0.  1.
         21    1    1    2  505  504 -0.13454305257E+03  0.88331029194E+02  0.10424189983E+03  0.19175655763E+03  0.00000000000E+00 0.  1.
         21    1    1    2  506  503  0.35074929143E+02  0.23093692803E+01  0.49948036415E+03  0.50071570578E+03  0.00000000000E+00 0.  1.
<scales pt_clust_3="14000.00000" pt_clust_4="34.69861" pt_clust_5="125.90083" pt_clust_6="39.95278"></scales>
<clustering>
<clus scale="   34.699">  1  4  2 -1</clus>
<clus scale="   39.953">  1  6  2 -1</clus>
<clus scale="  125.901">  1  5  2 -1</clus>
<clus scale="   34.699">  1  3  2 -1</clus>
</clustering>
</event>
<event>
 6    0  0.8991567E+002  0.7388572E+02  0.7546771E-02  0.1347357E+00
         21   -1    0    0  503  501  0.00000000000E+00  0.00000000000E+00  0.52575167324E+03  0.52575167324E+03  0.00000000000E+00 0.  1.
         21   -1    0    0  506  502 -0.00000000000E+00 -0.00000000000E+00 -0.59831821261E+02  0.59831821261E+02  0.00000000000E+00 0.  1.
         21    1    1    2  503  505  0.81598482107E+01 -0.56320049274E+02  0.88721192782E+02  0.10540389519E+03  0.00000000000E+00 0.  1.
         21    1    1    2  504  502  0.28175856103E+02  0.68698068613E+02 -0.72125796321E+01  0.74601104571E+02  0.00000000000E+00 0.  1.
         21    1    1    2  505  504 -0.54833170403E+02 -0.54185178740E+02  0.17486574747E+03  0.19110400260E+03  0.00000000000E+00 0.  1.
         21    1    1    2  506  501  0.18497466089E+02  0.41807159402E+02  0.20954549136E+03  0.21447449214E+03  0.00000000000E+00 0.  1.
<scales pt_clust_3="45.55303" pt_clust_4="14000.00000" pt_clust_5="73.88572" pt_clust_6="45.71646"></scales>
<clustering>
<clus scale="   45.716">  1  6  2 -1</clus>
<clus scale="   45.553">  1  3  2 -1</clus>
<clus scale="   73.886">  1  5  2 -1</clus>
<clus scale="   45.716">  1  3  2 -1</clus>
</clustering>
</event>
<event>
 6    0  0.8991567E+002  0.7840750E+02  0.7546771E-02  0.1333632E+00
         21   -1    0    0  503  501  0.00000000000E+00  0.00000000000E+00  0.36803204717E+03  0.36803204717E+03  0.00000000000E+00 0. -1.
         21   -1    0    0  504  502 -0.00000000000E+00 -0.00000000000E+00 -0.35602650281E+03  0.35602650281E+03  0.00000000000E+00 0.  1.
         21    1    1    2  503  505  0.56016524917E+02  0.88599925834E+02  0.13106557186E+03  0.16782723870E+03  0.00000000000E+00 0. -1.
         21    1    1    2  504  506  0.49923808344E+02 -0.45811738526E+02 -0.10466077948E+03  0.12467951230E+03  0.00000000000E+00 0.  1.
         21    1    1    2  505  502 -0.27591112948E+02 -0.34848775646E+02 -0.21316719131E+03  0.21775205654E+03  0.00000000000E+00 0.  1.
         21    1    1    2  506  501 -0.78349220314E+02 -0.79394116613E+01  0.19876794330E+03  0.21379974243E+03  0.00000000000E+00 0. -1.
<scales pt_clust_3="78.40750" pt_clust_4="79.14070" pt_clust_5="44.44892" pt_clust_6="14000.00000"></scales>
<clustering>
<clus scale="   44.449">  2  5  1 -1</clus>
<clus scale="   79.141">  2  4  1 -1</clus>
<clus scale="   78.408">  2  3  1 -1</clus>
<clus scale="   78.408">  1  3  2 -1</clus>
</clustering>
</event>
<event>
 6    0  0.8991567E+002  0.9354858E+02  0.7546771E-02  0.1294479E+00
         21   -1    0    0  504  501  0.00000000000E+00  0.00000000000E+00  0.13143834120E+04  0.13143834120E+04  0.00000000000E+00 0. -1.
         21   -1    0    0  503  502 -0.00000000000E+00 -0.00000000000E+00 -0.20619670420E+03  0.20619670420E+03  0.00000000000E+00 0. -1.
         21    1    1    2  503  501  0.17852490192E+01  0.34446125411E+02  0.45442060806E+02  0.57050009291E+02  0.00000000000E+00 0. -1.
         21    1    1    2  504  506  0.62306078813E+02 -0.94706875512E+02  0.71545346683E+03  0.72437911547E+03  0.00000000000E+00 0. -1.
         21    1    1    2  505  502 -0.63143948083E+02 -0.26091455528E+02 -0.18639551598E+03  0.19852256952E+03  0.00000000000E+00 0. -1.
         21    1    1    2  506  505 -0.94737974873E+00  0.86352205629E+02  0.53368669611E+03  0.54062842189E+03  0.00000000000E+00 0. -1.
<scales pt_clust_3="34.49236" pt_clust_4="14000.00000" pt_clust_5="68.25129" pt_clust_6="93.54858"></scales>
<clustering>
<clus scale="   34.492">  1  3  2 -1</clus>
<clus scale="   68.251">  2  5  1 -1</clus>
<clus scale="   93.549">  2  6  1 -1</clus>
<clus scale="   34.492">  1  3  2 -1</clus>
</clustering>
</event>
<event>
 6    0  0.8991567E+002  0.1474081E+03  0.7546771E-02  0.1203695E+00
         21   -1    0    0  503  501  0.00000000000E+00  0.00000000000E+00  0.87994406317E+02  0.87994406317E+02  0.00000000000E+00 0.  1.
         21   -1    0    0  506  502 -0.00000000000E+00 -0.00000000000E+00 -0.19759421276E+04  0.19759421276E+04  0.00000000000E+00 0. -1.
         21    1    1    2  503  502 -0.57338559248E+02 -0.24150953002E+02 -0.92362954213E+03  0.92572269606E+03  0.00000000000E+00 0. -1.
         21    1    1    2  504  505 -0.10550636817E+03 -0.12521296115E+02 -0.21188611621E+03  0.23703186036E+03  0.00000000000E+00 0.  1.
         21    1    1    2  505  501  0.13948644009E+03  0.97025713478E+02 -0.26021197340E+02  0.17189403351E+03  0.00000000000E+00 0.  1.
         21    1    1    2  506  504  0.23358487330E+02 -0.60353464362E+02 -0.72641086560E+03  0.72928794400E+03  0.00000000000E+00 0. -1.
<scales pt_clust_3="62.21719" pt_clust_4="14000.00000" pt_clust_5="147.40811" pt_clust_6="78.78756"></scales>
<clustering>
<clus scale="   62.217">  2  3  1 -1</clus>
<clus scale="   78.788">  2  6  1 -1</clus>
<clus scale="  147.408">  1  5  2 -1</clus>
<clus scale="  147.408">  1  3  2 -1</clus>
</clustering>
</event>
<event>
 6    0  0.8991567E+002  0.1198828E+03  0.7546771E-02  0.1243291E+00
         21   -1    0    0  505  501  0.00000000000E+00  0.00000000000E+00  0.17590382515E+03  0.17590382515E+03  0.00000000000E+00 0. -1.
         21   -1    0    0  503  502 -0.00000000000E+00 -0.00000000000E+00 -0.70693579531E+03  0.70693579531E+03  0.00000000000E+00 0.  1.
         21    1    1    2  503  501 -0.74876633930E+02 -0.76341252896E+02  0.11896760104E+03  0.15996183076E+03  0.00000000000E+00 0. -1.
         21    1    1    2  504  502  0.21881313986E+02 -0.45374609391E+02 -0.54309602480E+03  0.54542729967E+03  0.00000000000E+00 0.  1.
         21    1    1    2  505  506  0.11306147139E+02  0.85992270720E+02 -0.65733834656E+02  0.10882755444E+03  0.00000000000E+00 0.  1.
         21    1    1    2  506  504  0.41689172804E+02  0.35723591566E+02 -0.41169711747E+02  0.68622935589E+02  0.00000000000E+00 0.  1.
<scales pt_clust_3="109.24664" pt_clust_4="50.37506" pt_clust_5="39.27657" pt_clust_6="39.27657"></scales>
<clustering>
<clus scale="   39.277">  5  6 -1 -1</clus>
<clus scale="   50.375">  2  4  1 -1</clus>
<clus scale="  109.247">  1  3  2 -1</clus>
<clus scale="  109.247">  1  3  2 -1</clus>
</clustering>
</event>
<event>
 6    0  0.8991567E+002  0.8797123E+02  0.7546771E-02  0.1307840E+00
         21   -1    0    0  505  501  0.00000000000E+00  0.00000000000E+00  0.83810190621E+03  0.83810190621E+03  0.00000000000E+00 0.  1.
         21   -1    0    0  506  502 -0.00000000000E+00 -0.00000000000E+00 -0.23514651512E+03  0.23514651512E+03  0.00000000000E+00 0. -1.
         21    1    1    2  503  501 -0.16845986338E+02 -0.39582740085E+02  0.84324755387E+02  0.94663852338E+02  0.00000000000E+00 0. -1.
         21    1    1    2  504  502 -0.52450883318E+02  0.26983958043E+02  0.85263181991E+02  0.10367757402E+03  0.00000000000E+00 0.  1.
         21    1    1    2  505  504  0.12686974564E+03  0.19597435593E+02  0.64387935162E+03  0.65655206289E+03  0.00000000000E+00 0.  1.
         21    1    1    2  506  503 -0.57572875988E+02 -0.69986535512E+01 -0.21051189791E+03  0.21835493208E+03  0.00000000000E+00 0. -1.
<scales pt_clust_3="43.01837" pt_clust_4="87.97123" pt_clust_5="14000.00000" pt_clust_6="58.10965"></scales>
<clustering>
<clus scale="   43.018">  1  3  2 -1</clus>
<clus scale="   58.110">  2  6  1 -1</clus>
<clus scale="   87.971">  2  4  1 -1</clus>
<clus scale="   43.018">  1  3  2 -1</clus>
</clustering>
</event>
<event>
 6    0  0.8991567E+002  0.2155899E+03  0.7546771E-02  0.1137214E+00
         21   -1    0    0  503  501  0.00000000000E+00  0.00000000000E+00  0.12505797345E+04  0.12505797345E+04  0.00000000000E+00 0. -1.
         21   -1    0    0  504  502 -0.00000000000E+00 -0.00000000000E+00 -0.78853590696E+02  0.78853590696E+02  0.00000000000E+00 0. -1.
         21    1    1    2  503  502  0.22784954438E+02  0.42916704561E+02 -0.24893232300E+02  0.54595518987E+02  0.00000000000E+00 0. -1.
         21    1    1    2  504  505  0.12019211031E+03 -0.18113593299E+03  0.45891043083E+03  0.50779440044E+03  0.00000000000E+00 0. -1.
         21    1    1    2  505  506 -0.10712750734E+03  0.12023320287E+03  0.48152519371E+03  0.50773894678E+03  0.00000000000E+00 0. -1.
         21    1    1    2  506  501 -0.35849557411E+02  0.17986025558E+02  0.25618375161E+03  0.25930445902E+03  0.00000000000E+00 0. -1.
<scales pt_clust_3="48.59010" pt_clust_4="204.65797" pt_clust_5="33.82657" pt_clust_6="33.82657"></scales>
<clustering>
<clus scale="   33.827">  5  6 -1 -1</clus>
<clus scale="   48.590">  2  3  1 -1</clus>
<clus scale="  204.658">  2  4  1 -1</clus>
<clus scale="  215.590">  1  3  2 -1</clus>
</clustering>
</event>
<event>
 6    0  0.8991567E+002  0.1360480E+03  0.7546771E-02  0.1218748E+00
         21   -1    0    0  503  501  0.00000000000E+00  0.00000000000E+00  0.93389902941E+03  0.93389902941E+03  0.00000000000E+00 0.  1.
         21   -1    0    0  504  502 -0.00000000000E+00 -0.00000000000E+00 -0.29971626147E+03  0.29971626147E+03  0.00000000000E+00 0.  1.
         21    1    1    2  503  505  0.22697041691E+01 -0.65573209680E+02  0.53244464455E+03  0.53647208398E+03  0.00000000000E+00 0.  1.
         21    1    1    2  504  506 -0.48188318943E+02  0.12984376070E+03 -0.26291312177E+03  0.29716127923E+03  0.00000000000E+00 0.  1.
         21    1    1    2  505  502  0.92476457240E+02 -0.70952937192E+02  0.24159575376E+03  0.26824377471E+03  0.00000000000E+00 0.  1.
         21    1    1    2  506  501 -0.46557842466E+02  0.66823861738E+01  0.12305549140E+03  0.13173815295E+03  0.00000000000E+00 0.  1.
<scales pt_clust_3="67.49605" pt_clust_4="14000.00000" pt_clust_5="136.04800" pt_clust_6="47.03495"></scales>
<clustering>
<clus scale="   47.035">  1  6  2 -1</clus>
<clus scale="   67.496">  1  3  2 -1</clus>
<clus scale="  136.048">  1  5  2 -1</clus>
<clus scale="   47.035">  1  3  2 -1</clus>
</clustering>
</event>
<event>
 6    0  0.8991567E+002  0.1501163E+03  0.7546771E-02  0.1200330E+00
         21   -1    0    0  505  501  0.00000000000E+00  0.00000000000E+00  0.12953776425E+04  0.12953776425E+04  0.00000000000E+00 0. -1.
         21   -1    0    0  504  502 -0.00000000000E+00 -0.00000000000E+00 -0.16277883286E+03  0.16277883286E+03  0.00000000000E+00 0.  1.
         21    1    1    2  503  502  0.90581473356E+01  0.84379168389E+02  0.26139974448E+02  0.88798605593E+02  0.00000000000E+00 0. -1.
         21    1    1    2  504  506  0.98694389910E+02  0.19823673447E+02 -0.88914576280E+02  0.13431069393E+03  0.00000000000E+00 0.  1.
         21    1    1    2  505  503  0.46471218766E+02  0.63547037017E+02  0.40009459069E+03  0.40776645471E+03  0.00000000000E+00 0. -1.
         21    1    1    2  506  501 -0.15422375601E+03 -0.16774987885E+03  0.79527882082E+03  0.82728072117E+03  0.00000000000E+00 0. -1.
<scales pt_clust_3="89.29323" pt_clust_4="14000.00000" pt_clust_5="78.72611" pt_clust_6="150.11631"></scales>
<clustering>
<clus scale="   78.726">  1  5  2 -1</clus>
<clus scale="   89.293">  2  3  1 -1</clus>
<clus scale="  150.116">  1  6  2 -1</clus>
<clus scale="   78.726">  1  3  2 -1</clus>
</clustering>
</event>
<event>
 6    0  0.8991567E+002  0.9793053E+02  0.7546771E-02  0.1284709E+00
         21   -1    0    0  503  501  0.00000000000E+00  0.00000000000E+00  0.57947486497E+03  0.57947486497E+03  0.00000000000E+00 0.  1.
         21   -1    0    0  504  502 -0.00000000000E+00 -0.00000000000E+00 -0.54918502905E+03  0.54918502905E+03  0.00000000000E+00 0.  1.
         21    1    1    2  503  505  0.13773209250E+02 -0.38751307853E+02  0.60690165278E+02  0.73312081643E+02  0.00000000000E+00 0.  1.
         21    1    1    2  504  506  0.77018760832E+02  0.54697569639E+02 -0.44913661690E+03  0.45896341280E+03  0.00000000000E+00 0.  1.
         21    1    1    2  505  502  0.18733490715E+02 -0.33271950819E+02 -0.78307970112E+02  0.87121206194E+02  0.00000000000E+00 0.  1.
         21    1    1    2  506  501 -0.10952546080E+03  0.17325689033E+02  0.49704425766E+03  0.50926319338E+03  0.00000000000E+00 0.  1.
<scales pt_clust_3="41.63533" pt_clust_4="97.93053" pt_clust_5="38.18333" pt_clust_6="14000.00000"></scales>
<clustering>
<clus scale="   38.183">  2  5  1 -1</clus>
<clus scale="   41.635">  1  3  2 -1</clus>
<clus scale="   97.931">  2  4  1 -1</clus>
<clus scale="   41.635">  1  3  2 -1</clus>
</clustering>
</event>
<event>
 6    0  0.8991567E+002  0.7361481E+02  0.7546771E-02  0.1348215E+00
         21   -1    0    0  506  501  0.00000000000E+00  0.00000000000E+00  0.99531341951E+03  0.99531341951E+03  0.00000000000E+00 0.  1.
         21   -1    0    0  505  502 -0.00000000000E+00 -0.00000000000E+00 -0.19484199741E+03  0.19484199741E+03  0.00000000000E+00 0. -1.
         21    1    1    2  503  504  0.82291268165E+02  0.57905965694E+02  0.43753028892E+03  0.44895178739E+03  0.00000000000E+00 0.  1.
         21    1    1    2  504  501 -0.32932371300E+02 -0.79427773281E+01  0.50436072022E+03  0.50549714627E+03  0.00000000000E+00 0.  1.
         21    1    1    2  505  503  0.54841526644E+02 -0.40891427813E+02 -0.10427611099E+03  0.12471250633E+03  0.00000000000E+00 0. -1.
         21    1    1    2  506  502 -0.10420042351E+03 -0.90717605522E+01 -0.37143476046E+02  0.11099397692E+03  0.00000000000E+00 0. -1.
<scales pt_clust_3="73.61481" pt_clust_4="33.87667" pt_clust_5="67.95932" pt_clust_6="14000.00000"></scales>
<clustering>
<clus scale="   33.877">  1  4  2 -1</clus>
<clus scale="   67.959">  2  5  1 -1</clus>
<clus scale="   73.615">  1  3  2 -1</clus>
<clus scale="   33.877">  1  3  2 -1</clus>
</clustering>
</event>
<event>
 6    0  0.8991567E+002  0.1012940E+03  0.7546771E-02  0.1277598E+00
         21   -1    0    0  506  501  0.00000000000E+00  0.00000000000E+00  0.39571371753E+03  0.39571371753E+03  0.00000000000E+00 0.  1.
         21   -1    0    0  505  502 -0.00000000000E+00 -0.00000000000E+00 -0.73744005200E+03  0.73744005200E+03  0.00000000000E+00 0.  1.
         21    1    1    2  503  502  0.76182754457E+02 -0.74257719153E+02 -0.62462962199E+03  0.63362464093E+03  0.00000000000E+00 0.  1.
         21    1    1    2  504  501  0.10347474665E+02 -0.48655049964E+02  0.24399152394E+03  0.24901053767E+03  0.00000000000E+00 0.  1.
         21    1    1    2  505  504 -0.80892085115E+02  0.26580568215E+02 -0.66181851604E+02  0.10784291132E+03  0.00000000000E+00 0.  1.
         21    1    1    2  506  503 -0.56381440077E+01  0.96332200902E+02  0.10509361518E+03  0.14267567960E+03  0.00000000000E+00 0.  1.
<scales pt_clust_3="14000.00000" pt_clust_4="49.74318" pt_clust_5="101.29397" pt_clust_6="56.01397"></scales>
<clustering>
<clus scale="   49.743">  1  4  2 -1</clus>
<clus scale="   56.014">  1  6  2 -1</clus>
<clus scale="  101.294">  1  5  2 -1</clus>
<clus scale="   49.743">  1  3  2 -1</clus>
</clustering>
</event>
<event>
 6    0  0.8991567E+002  0.6645770E+02  0.7546771E-02  0.1372571E+00
         21   -1    0    0  503  501  0.00000000000E+00  0.00000000000E+00  0.17393237335E+03  0.17393237335E+03  0.00000000000E+00 0. -1.
         21   -1    0    0  504  502 -0.00000000000E+00 -0.00000000000E+00 -0.58393230467E+03  0.58393230467E+03  0.00000000000E+00 0. -1.
         21    1    1    2  503  506 -0.44977645738E+02  0.35033208588E+02  0.91722695649E+02  0.10799707041E+03  0.00000000000E+00 0. -1.
         21    1    1    2  504  505  0.45254923726E+02 -0.93896847526E+02 -0.36300161387E+02  0.11037358295E+03  0.00000000000E+00 0. -1.
         21    1    1    2  505  501  0.42911801117E+02  0.24984773445E+02  0.18110754039E+02  0.52855094278E+02  0.00000000000E+00 0. -1.
         21    1    1    2  506  502 -0.43189079105E+02  0.33878865493E+02 -0.48353321962E+03  0.48663893037E+03  0.00000000000E+00 0. -1.
<scales pt_clust_3="14000.00000" pt_clust_4="66.45770" pt_clust_5="49.65543" pt_clust_6="54.68819"></scales>
<clustering>
<clus scale="   49.655">  1  5  2 -1</clus>
<clus scale="   54.688">  2  6  1 -1</clus>
<clus scale="   66.458">  2  4  1 -1</clus>
<clus scale="   49.655">  1  3  2 -1</clus>
</clustering>
</event>
<event>
 6    0  0.8991567E+002  0.8311717E+02  0.7546771E-02  0.1320431E+00
         21   -1    0    0  503  501  0.00000000000E+00  0.00000000000E+00  0.11241352776E+03  0.11241352776E+03  0.00000000000E+00 0.  1.
         21   -1    0    0  505  502 -0.00000000000E+00 -0.00000000000E+00 -0.54169500166E+03  0.54169500166E+03  0.00000000000E+00 0.  1.
         21    1    1    2  503  504  0.33414335046E+02 -0.77667537500E+01  0.35887775748E+01  0.34492311823E+02  0.00000000000E+00 0. -1.
         21    1    1    2  504  502 -0.46100919181E+02  0.65105646183E+02  0.51559772713E+02  0.94986578401E+02  0.00000000000E+00 0.  1.
         21    1    1    2  505  506  0.65951501021E+02 -0.51145522441E+02 -0.45669429509E+03  0.46425762688E+03  0.00000000000E+00 0.  1.
         21    1    1    2  506  501 -0.53264916886E+02 -0.61933699912E+01 -0.27735729095E+02  0.60372012317E+02  0.00000000000E+00 0.  1.
<scales pt_clust_3="34.30511" pt_clust_4="14000.00000" pt_clust_5="83.11717" pt_clust_6="48.02265"></scales>
<clustering>
<clus scale="   34.305">  1  3  2 -1</clus>
<clus scale="   48.023">  1  6  2 -1</clus>
<clus scale="   83.117">  2  5  1 -1</clus>
<clus scale="   34.305">  1  3  2 -1</clus>
</clustering>
</event>
<event>
 6    0  0.8991567E+002  0.7789022E+02  0.7546771E-02  0.1335148E+00
         21   -1    0    0  503  501  0.00000000000E+00  0.00000000000E+00  0.10597188939E+03  0.10597188939E+03  0.00000000000E+00 0.  1.
         21   -1    0    0  506  502 -0.00000000000E+00 -0.00000000000E+00 -0.49072309057E+03  0.49072309057E+03  0.00000000000E+00 0. -1.
         21    1    1    2  503  504 -0.42599834049E+02  0.64695764730E+02  0.67762509526E+02  0.10291766385E+03  0.00000000000E+00 0.  1.
         21    1    1    2  504  505  0.26086482818E+02 -0.80031366870E+02 -0.13706608405E+03  0.16084973008E+03  0.00000000000E+00 0. -1.
         21    1    1    2  505  502  0.29550608369E+02 -0.31841387942E+02 -0.23325213481E+03  0.23726287285E+03  0.00000000000E+00 0. -1.
         21    1    1    2  506  501 -0.13037257138E+02  0.47176990082E+02 -0.82195491845E+02  0.95664713173E+02  0.00000000000E+00 0.  1.
<scales pt_clust_3="77.89022" pt_clust_4="14000.00000" pt_clust_5="43.44091" pt_clust_6="36.19733"></scales>
<clustering>
<clus scale="   43.441">  2  5  1 -1</clus>
<clus scale="   36.197">  2  6  1 -1</clus>
<clus scale="   77.890">  1  3  2 -1</clus>
<clus scale="   77.890">  1  3  2 -1</clus>
</clustering>
</event>
<event>
 6    0  0.8991567E+002  0.8423134E+02  0.7546771E-02  0.1317455E+00
         21   -1    0    0  506  501  0.00000000000E+00  0.00000000000E+00  0.25790338809E+03  0.25790338809E+03  0.00000000000E+00 0. -1.
         21   -1    0    0  503  502 -0.00000000000E+00 -0.00000000000E+00 -0.23597446578E+03  0.23597446578E+03  0.00000000000E+00 0. -1.
         21    1    1    2  503  501 -0.52576237831E+02 -0.32323076459E+02 -0.39604246064E+02  0.73331700939E+02  0.00000000000E+00 0. -1.
         21    1    1    2  504  502  0.93077372804E+02 -0.37296735024E+02 -0.99049085984E+02  0.14094383706E+03  0.00000000000E+00 0. -1.
         21    1    1    2  505  504 -0.89697355561E+00  0.10535266650E+03 -0.51651509693E+01  0.10548302083E+03  0.00000000000E+00 0. -1.
         21    1    1    2  506  505 -0.39604161417E+02 -0.35732855015E+02  0.16574740533E+03  0.17411929503E+03  0.00000000000E+00 0. -1.
<scales pt_clust_3="71.79658" pt_clust_4="14000.00000" pt_clust_5="84.23134" pt_clust_6="53.34160"></scales>
<clustering>
<clus scale="   53.342">  1  6  2 -1</clus>
<clus scale="   71.797">  2  3  1 -1</clus>
<clus scale="   84.231">  1  5  2 -1</clus>
<clus scale="   53.342">  1  3  2 -1</clus>
</clustering>
</event>
