<event>
 6    0  0.4017242E+002  0.1114639E+03  0.7546771E-02  0.1257883E+00
         21   -1    0    0  504  502  0.00000000000E+00  0.00000000000E+00  0.74657320743E+02  0.74657320743E+02  0.00000000000E+00 0. -1.
          1   -1    0    0  503    0 -0.00000000000E+00 -0.00000000000E+00 -0.92185981077E+03  0.92185981077E+03  0.00000000000E+00 0.  1.
         21    1    1    2  503  502 -0.10078429907E+03 -0.10126395731E+03 -0.14660466136E+03  0.20470659667E+03  0.00000000000E+00 0.  1.
         21    1    1    2  504  505  0.29081611322E+02  0.10810936524E+02 -0.25165133360E+02  0.39948722165E+02  0.00000000000E+00 0. -1.
         21    1    1    2  505  501  0.16223321120E+02  0.92814073627E+02 -0.22891550242E+02  0.96962216785E+02  0.00000000000E+00 0. -1.
          1    1    1    2  501    0  0.55479366627E+02 -0.23610528372E+01 -0.65254114507E+03  0.65489959589E+03  0.00000000000E+00 0.  1.
<scales pt_clust_3="111.46391" pt_clust_4="31.02606" pt_clust_5="14000.00000" pt_clust_6="56.03129"></scales>
<clustering>
<clus scale="   31.026">  1  4  2 -1</clus>
<clus scale="   56.031">  2  6  1 -1</clus>
<clus scale="  111.464">  2  3  1 -1</clus>
<clus scale="   31.026">  1  3  2 -1</clus>
</clustering>
</event>
<event>
 6    0  0.4017242E+002  0.9454475E+02  0.7546771E-02  0.1292205E+00
          1   -1    0    0  503    0 -0.00000000000E+00  0.00000000000E+00  0.16445362646E+04  0.16445362646E+04  0.00000000000E+00 0. -1.
         21   -1    0    0  505  502  0.00000000000E+00 -0.00000000000E+00 -0.98452287721E+02  0.98452287721E+02  0.00000000000E+00 0.  1.
         21    1    1    2  503  502  0.10959483325E+03  0.72742101031E+02 -0.19915809674E+02  0.13303789014E+03  0.00000000000E+00 0.  1.
         21    1    1    2  504  501 -0.67734781825E+02 -0.30561568032E+02  0.14356320466E+03  0.16165520048E+03  0.00000000000E+00 0.  1.
         21    1    1    2  505  504 -0.21219754933E+02  0.50055511726E+02  0.54099962773E+02  0.76698358689E+02  0.00000000000E+00 0. -1.
          1    1    1    2  501    0 -0.20640296488E+02 -0.92236044725E+02  0.13683366191E+04  0.13715971030E+04  0.00000000000E+00 0. -1.
<scales pt_clust_3="94.54475" pt_clust_4="74.39530" pt_clust_5="54.36757" pt_clust_6="14000.00000"></scales>
<clustering>
<clus scale="   54.368">  2  5  1 -1</clus>
<clus scale="   74.395">  2  4  1 -1</clus>
<clus scale="   94.545">  2  3  1 -1</clus>
<clus scale="   54.368">  2  3  1 -1</clus>
</clustering>
</event>
<event>
 6    0  0.4017242E+002  0.6677357E+02  0.7546771E-02  0.1371422E+00
         21   -1    0    0  505  502  0.00000000000E+00  0.00000000000E+00  0.10268939263E+04  0.10268939263E+04  0.00000000000E+00 0.  1.
          2   -1    0    0  503    0 -0.00000000000E+00 -0.00000000000E+00 -0.17251836482E+04  0.17251836482E+04  0.00000000000E+00 0.  1.
         21    1    1    2  503  502 -0.29285271735E+02  0.98787231899E+02  0.81435983957E+03  0.82085229647E+03  0.00000000000E+00 0.  1.
         21    1    1    2  504  501 -0.50222965634E+02 -0.46203074425E+02  0.15081513541E+03  0.16553632663E+03  0.00000000000E+00 0.  1.
         21    1    1    2  505  504  0.21629543993E+02 -0.26314941553E+02  0.44779350436E+02  0.56262807856E+02  0.00000000000E+00 0.  1.
          2    1    1    2  501    0  0.57878693376E+02 -0.26269215922E+02 -0.17082440473E+04  0.17094261435E+04  0.00000000000E+00 0.  1.
<scales pt_clust_3="14000.00000" pt_clust_4="66.77357" pt_clust_5="34.06337" pt_clust_6="63.57962"></scales>
<clustering>
<clus scale="   34.063">  1  5  2 -1</clus>
<clus scale="   63.580">  2  6  1 -1</clus>
<clus scale="   66.774">  2  4  1 -1</clus>
<clus scale="   34.063">  1  3  2 -1</clus>
</clustering>
</event>
<event>
 6    0  0.4017242E+002  0.1991797E+03  0.7546771E-02  0.1150433E+00
         21   -1    0    0  505  502  0.00000000000E+00  0.00000000000E+00  0.23003479780E+03  0.23003479780E+03  0.00000000000E+00 0. -1.
          3   -1    0    0  504    0 -0.00000000000E+00 -0.00000000000E+00 -0.42756816540E+03  0.42756816540E+03  0.00000000000E+00 0.  1.
         21    1    1    2  503  502 -0.10465221533E+03  0.67188905152E+02  0.50706631176E+02  0.13430412352E+03  0.00000000000E+00 0. -1.
         21    1    1    2  504  503 -0.87249545824E+02 -0.10053054756E+02  0.39299407910E+01  0.87914683592E+02  0.00000000000E+00 0. -1.
         21    1    1    2  505  501  0.16956270848E+03  0.16502340146E+01  0.59884410018E+01  0.16967644741E+03  0.00000000000E+00 0. -1.
          3    1    1    2  501    0  0.22339052671E+02 -0.58786084410E+02 -0.25815838057E+03  0.26570770868E+03  0.00000000000E+00 0.  1.
<scales pt_clust_3="69.30337" pt_clust_4="69.30337" pt_clust_5="182.66720" pt_clust_6="62.88749"></scales>
<clustering>
<clus scale="   62.887">  2  6  1 -1</clus>
<clus scale="   69.303">  3  4 -1 -1</clus>
<clus scale="  182.667">  2  5  1 -1</clus>
<clus scale="  199.180">  1  3  2 -1</clus>
</clustering>
</event>
<event>
 6    0  0.4017242E+002  0.8182310E+02  0.7546771E-02  0.1323956E+00
         21   -1    0    0  505  502  0.00000000000E+00  0.00000000000E+00  0.38195864976E+02  0.38195864976E+02  0.00000000000E+00 0.  1.
          1   -1    0    0  504    0 -0.00000000000E+00 -0.00000000000E+00 -0.38821538135E+04  0.38821538135E+04  0.00000000000E+00 0. -1.
         21    1    1    2  503  501  0.62188956226E+02 -0.15052981048E+02 -0.27780680191E+03  0.28508012505E+03  0.00000000000E+00 0. -1.
         21    1    1    2  504  502  0.36932264120E+02 -0.14863901611E+02  0.15310577353E+02  0.42653739379E+02  0.00000000000E+00 0.  1.
         21    1    1    2  505  503 -0.10784044481E+03 -0.12287131976E+02 -0.53750525893E+03  0.54835430018E+03  0.00000000000E+00 0. -1.
          1    1    1    2  501    0  0.87192244594E+01  0.42204014635E+02 -0.30439564651E+04  0.30442615139E+04  0.00000000000E+00 0. -1.
<scales pt_clust_3="81.82310" pt_clust_4="39.81115" pt_clust_5="14000.00000" pt_clust_6="42.98291"></scales>
<clustering>
<clus scale="   39.811">  1  4  2 -1</clus>
<clus scale="   42.983">  2  6  1 -1</clus>
<clus scale="   81.823">  2  3  1 -1</clus>
<clus scale="   39.811">  1  3  2 -1</clus>
</clustering>
</event>
<event>
 6    0  0.4017242E+002  0.8982499E+02  0.7546771E-02  0.1303276E+00
         21   -1    0    0  503  502  0.00000000000E+00  0.00000000000E+00  0.49323532548E+03  0.49323532548E+03  0.00000000000E+00 0. -1.
         -3   -1    0    0    0  501 -0.00000000000E+00 -0.00000000000E+00 -0.95236744960E+03  0.95236744960E+03  0.00000000000E+00 0.  1.
         21    1    1    2  503  505  0.74247621810E+02  0.51113137649E+02  0.47490365081E+03  0.48338260182E+03  0.00000000000E+00 0. -1.
         21    1    1    2  504  502 -0.46882205315E+02 -0.53917196277E+02 -0.27254539668E+03  0.28175521021E+03  0.00000000000E+00 0. -1.
         21    1    1    2  505  501  0.24857554747E+02 -0.57007550785E+02 -0.14311667974E+03  0.15604532320E+03  0.00000000000E+00 0.  1.
         -3    1    1    2    0  504 -0.52222971242E+02  0.59811609413E+02 -0.51837369851E+03  0.52441963984E+03  0.00000000000E+00 0.  1.
<scales pt_clust_3="14000.00000" pt_clust_4="89.82499" pt_clust_5="62.19131" pt_clust_6="42.67152"></scales>
<clustering>
<clus scale="   62.191">  2  5  1 -1</clus>
<clus scale="   42.672">  2  6  1 -1</clus>
<clus scale="   89.825">  2  4  1 -1</clus>
<clus scale="   89.825">  1  3  2 -1</clus>
</clustering>
</event>
<event>
 6    0  0.4017242E+002  0.9101441E+02  0.7546771E-02  0.1300414E+00
          2   -1    0    0  503    0 -0.00000000000E+00  0.00000000000E+00  0.28688056984E+04  0.28688056984E+04  0.00000000000E+00 0. -1.
         21   -1    0    0  501  502  0.00000000000E+00 -0.00000000000E+00 -0.16032702035E+03  0.16032702035E+03  0.00000000000E+00 0. -1.
         21    1    1    2  503  504 -0.14236769582E+02  0.54839256344E+02  0.44541006243E+03  0.44899905719E+03  0.00000000000E+00 0. -1.
         21    1    1    2  504  505  0.70240518381E+02  0.24933114115E+02  0.85329962911E+02  0.11329869007E+03  0.00000000000E+00 0. -1.
         21    1    1    2  505  502  0.25816430464E+02 -0.34325063858E+02 -0.14039238120E+03  0.14681525394E+03  0.00000000000E+00 0. -1.
          2    1    1    2  501    0 -0.81820179264E+02 -0.45447306601E+02  0.23181310339E+04  0.23200197175E+04  0.00000000000E+00 0. -1.
<scales pt_clust_3="52.42533" pt_clust_4="14000.00000" pt_clust_5="42.94995" pt_clust_6="91.01441"></scales>
<clustering>
<clus scale="   42.950">  2  5  1 -1</clus>
<clus scale="   52.425">  1  3  2 -1</clus>
<clus scale="   91.014">  1  6  2 -1</clus>
<clus scale="   42.950">  2  3  1 -1</clus>
</clustering>
</event>
<event>
 6    0  0.4017242E+002  0.1147096E+03  0.7546771E-02  0.1252089E+00
         21   -1    0    0  501  502  0.00000000000E+00  0.00000000000E+00  0.20841778185E+03  0.20841778185E+03  0.00000000000E+00 0.  1.
          2   -1    0    0  503    0 -0.00000000000E+00 -0.00000000000E+00 -0.22469582733E+04  0.22469582733E+04  0.00000000000E+00 0.  1.
         21    1    1    2  503  504  0.62807169923E+02  0.99007895680E+02 -0.17358322224E+04  0.17397875757E+04  0.00000000000E+00 0.  1.
         21    1    1    2  504  505 -0.28757595123E+01 -0.56392334369E+02 -0.89202746227E+02  0.10557222790E+03  0.00000000000E+00 0.  1.
         21    1    1    2  505  502  0.25620413237E+01  0.43082441626E+02  0.18895146097E+03  0.19381773767E+03  0.00000000000E+00 0.  1.
          2    1    1    2  501    0 -0.62493451734E+02 -0.85698002937E+02 -0.40245698382E+03  0.41619851398E+03  0.00000000000E+00 0.  1.
<scales pt_clust_3="14000.00000" pt_clust_4="35.72834" pt_clust_5="43.15855" pt_clust_6="114.70957"></scales>
<clustering>
<clus scale="   43.159">  1  5  2 -1</clus>
<clus scale="   35.728">  1  4  2 -1</clus>
<clus scale="  114.710">  1  6  2 -1</clus>
<clus scale="   43.159">  1  3  2 -1</clus>
</clustering>
</event>
<event>
 6    0  0.4017242E+002  0.1585018E+03  0.7546771E-02  0.1190399E+00
          2   -1    0    0  505    0 -0.00000000000E+00  0.00000000000E+00  0.45718717005E+04  0.45718717005E+04  0.00000000000E+00 0.  1.
         21   -1    0    0  501  502  0.00000000000E+00 -0.00000000000E+00 -0.12878458633E+02  0.12878458633E+02  0.00000000000E+00 0. -1.
         21    1    1    2  503  504  0.61538837539E+02 -0.35532383048E+02  0.12866014757E+04  0.12885623524E+04  0.00000000000E+00 0.  1.
         21    1    1    2  504  502 -0.10974526389E+03  0.10074092425E+03  0.55782973074E+03  0.57737922136E+03  0.00000000000E+00 0. -1.
         21    1    1    2  505  503  0.78576974541E+02 -0.34590002504E+02  0.23705130729E+04  0.23720672499E+04  0.00000000000E+00 0.  1.
          2    1    1    2  501    0 -0.30370548185E+02 -0.30618538699E+02  0.34404896253E+03  0.34674133547E+03  0.00000000000E+00 0.  1.
<scales pt_clust_3="31.15470" pt_clust_4="154.75839" pt_clust_5="31.15470" pt_clust_6="43.12615"></scales>
<clustering>
<clus scale="   31.155">  3  5 -1 -1</clus>
<clus scale="   43.126">  2  6  1 -1</clus>
<clus scale="  154.758">  2  4  1 -1</clus>
<clus scale="   43.126">  2  3  1 -1</clus>
</clustering>
</event>
<event>
 6    0  0.4017242E+002  0.9981456E+02  0.7546771E-02  0.1280686E+00
         21   -1    0    0  504  502  0.00000000000E+00  0.00000000000E+00  0.12853305847E+03  0.12853305847E+03  0.00000000000E+00 0. -1.
          2   -1    0    0  505    0 -0.00000000000E+00 -0.00000000000E+00 -0.10164641233E+04  0.10164641233E+04  0.00000000000E+00 0. -1.
         21    1    1    2  503  501  0.11990835187E+03 -0.27834866833E+02 -0.16362575101E+03  0.20475883144E+03  0.00000000000E+00 0.  1.
         21    1    1    2  504  503 -0.12652333637E+01 -0.33713598360E+02  0.39716505573E+02  0.52111499160E+02  0.00000000000E+00 0. -1.
         21    1    1    2  505  502 -0.84334003229E+02  0.65358189782E+02  0.15522436134E+02  0.10781865838E+03  0.00000000000E+00 0. -1.
          2    1    1    2  501    0 -0.34309115278E+02 -0.38097245883E+01 -0.77954425554E+03  0.78030819280E+03  0.00000000000E+00 0. -1.
<scales pt_clust_3="14000.00000" pt_clust_4="33.73733" pt_clust_5="99.81456" pt_clust_6="34.54335"></scales>
<clustering>
<clus scale="   33.737">  1  4  2 -1</clus>
<clus scale="   34.543">  2  6  1 -1</clus>
<clus scale="   99.815">  1  5  2 -1</clus>
<clus scale="   33.737">  1  3  2 -1</clus>
</clustering>
</event>
<event>
 6    0  0.4017242E+002  0.9729780E+02  0.7546771E-02  0.1286083E+00
         -1   -1    0    0    0  501 -0.00000000000E+00  0.00000000000E+00  0.27096996727E+03  0.27096996727E+03  0.00000000000E+00 0.  1.
         21   -1    0    0  504  502  0.00000000000E+00 -0.00000000000E+00 -0.77048668541E+03  0.77048668541E+03  0.00000000000E+00 0.  1.
         21    1    1    2  503  505 -0.12457188227E+03  0.23783789674E+02 -0.32414405340E+02  0.13089887768E+03  0.00000000000E+00 0.  1.
         21    1    1    2  504  501  0.87214527574E+02 -0.74265445871E+02 -0.59759616805E+03  0.60847589134E+03  0.00000000000E+00 0.  1.
         21    1    1    2  505  502 -0.42402156924E+02 -0.62840881465E+01 -0.68215766380E+02  0.80565646888E+02  0.00000000000E+00 0.  1.
         -1    1    1    2    0  503  0.79759511623E+02  0.56765744343E+02  0.19870962163E+03  0.22151623677E+03  0.00000000000E+00 0.  1.
<scales pt_clust_3="97.29780" pt_clust_4="94.35003" pt_clust_5="42.86529" pt_clust_6="14000.00000"></scales>
<clustering>
<clus scale="   42.865">  2  5  1 -1</clus>
<clus scale="   94.350">  2  4  1 -1</clus>
<clus scale="   97.298">  2  3  1 -1</clus>
<clus scale="   42.865">  2  3  1 -1</clus>
</clustering>
</event>
<event>
 6    0  0.4017242E+002  0.3623684E+03  0.7546771E-02  0.1057650E+00
          2   -1    0    0  504    0 -0.00000000000E+00  0.00000000000E+00  0.33737074387E+04  0.33737074387E+04  0.00000000000E+00 0. -1.
         21   -1    0    0  503  502  0.00000000000E+00 -0.00000000000E+00 -0.65436040348E+02  0.65436040348E+02  0.00000000000E+00 0. -1.
         21    1    1    2  503  501  0.47081254718E+02  0.54293302953E+02  0.10499637772E+03  0.12723461253E+03  0.00000000000E+00 0.  1.
         21    1    1    2  504  505 -0.19625264262E+03 -0.46632908965E+02  0.53608250311E+03  0.57277759914E+03  0.00000000000E+00 0. -1.
         21    1    1    2  505  502 -0.10019173732E+03 -0.18004960166E+03  0.38298442033E+03  0.43489459585E+03  0.00000000000E+00 0. -1.
          2    1    1    2  501    0  0.24936312522E+03  0.17238920767E+03  0.22842080972E+04  0.23042366715E+04  0.00000000000E+00 0. -1.
<scales pt_clust_3="71.86381" pt_clust_4="172.44370" pt_clust_5="172.44370" pt_clust_6="315.99974"></scales>
<clustering>
<clus scale="   71.864">  2  3  1 -1</clus>
<clus scale="  172.444">  4  5 -1 -1</clus>
<clus scale="  316.000">  1  6  2 -1</clus>
<clus scale="   71.864">  2  3  1 -1</clus>
</clustering>
</event>
<event>
 6    0  0.4017242E+002  0.1560356E+03  0.7546771E-02  0.1193247E+00
         -4   -1    0    0    0  501 -0.00000000000E+00  0.00000000000E+00  0.11267118662E+04  0.11267118662E+04  0.00000000000E+00 0. -1.
         21   -1    0    0  504  502  0.00000000000E+00 -0.00000000000E+00 -0.27877955762E+03  0.27877955762E+03  0.00000000000E+00 0.  1.
         21    1    1    2  503  501 -0.31042312161E+02  0.15973785333E+02 -0.11295522976E+03  0.11822720031E+03  0.00000000000E+00 0.  1.
         21    1    1    2  504  503 -0.93087009887E+02 -0.20500409145E+02 -0.11741746232E+03  0.15123597007E+03  0.00000000000E+00 0.  1.
         21    1    1    2  505  502 -0.16927235674E+02  0.25651577198E+02 -0.14480703231E+02  0.33973894189E+02  0.00000000000E+00 0.  1.
         -4    1    1    2    0  505  0.14105655772E+03 -0.21124953385E+02  0.10927857039E+04  0.11020543592E+04  0.00000000000E+00 0. -1.
<scales pt_clust_3="43.72745" pt_clust_4="43.72745" pt_clust_5="30.73328" pt_clust_6="142.25631"></scales>
<clustering>
<clus scale="   30.733">  2  5  1 -1</clus>
<clus scale="   43.727">  3  4 -1 -1</clus>
<clus scale="  142.256">  1  6  2 -1</clus>
<clus scale="   30.733">  2  3  1 -1</clus>
</clustering>
</event>
<event>
 6    0  0.4017242E+002  0.1225027E+03  0.7546771E-02  0.1239025E+00
         21   -1    0    0  505  502  0.00000000000E+00  0.00000000000E+00  0.11544040552E+04  0.11544040552E+04  0.00000000000E+00 0.  1.
          2   -1    0    0  504    0 -0.00000000000E+00 -0.00000000000E+00 -0.62258214953E+03  0.62258214953E+03  0.00000000000E+00 0.  1.
         21    1    1    2  503  502 -0.99725125979E+02 -0.28849802083E+00  0.71175700910E+03  0.71870941554E+03  0.00000000000E+00 0.  1.
         21    1    1    2  504  503 -0.32321059778E+02  0.30907109774E+02  0.39086863112E+03  0.39341859022E+03  0.00000000000E+00 0.  1.
         21    1    1    2  505  501  0.39317097619E+02  0.30373308612E+02  0.27200504509E+02  0.56641323137E+02  0.00000000000E+00 0. -1.
          2    1    1    2  501    0  0.92729088138E+02 -0.60991920365E+02 -0.59800423905E+03  0.60821687584E+03  0.00000000000E+00 0.  1.
<scales pt_clust_3="34.61330" pt_clust_4="34.61330" pt_clust_5="49.68271" pt_clust_6="111.06400"></scales>
<clustering>
<clus scale="   34.613">  3  4 -1 -1</clus>
<clus scale="   49.683">  1  5  2 -1</clus>
<clus scale="  111.064">  2  6  1 -1</clus>
<clus scale="   49.683">  1  3  2 -1</clus>
</clustering>
</event>
<event>
 6    0  0.4017242E+002  0.1555907E+03  0.7546771E-02  0.1193767E+00
          4   -1    0    0  505    0 -0.00000000000E+00  0.00000000000E+00  0.26949409899E+04  0.26949409899E+04  0.00000000000E+00 0.  1.
         21   -1    0    0  503  502  0.00000000000E+00 -0.00000000000E+00 -0.10635414179E+03  0.10635414179E+03  0.00000000000E+00 0. -1.
         21    1    1    2  503  501 -0.32978180526E+02  0.72729851713E+01  0.46181630556E+02  0.57211884298E+02  0.00000000000E+00 0.  1.
         21    1    1    2  504  502 -0.39861605720E+02 -0.43724151421E+02 -0.65271120038E+02  0.88096924685E+02  0.00000000000E+00 0. -1.
         21    1    1    2  505  504 -0.58315721796E+02 -0.62634694343E+02  0.63648183897E+02  0.10665326839E+03  0.00000000000E+00 0. -1.
          4    1    1    2  501    0  0.13115550804E+03  0.99085860592E+02  0.25440281537E+04  0.25493330543E+04  0.00000000000E+00 0.  1.
<scales pt_clust_3="33.77065" pt_clust_4="75.33896" pt_clust_5="14000.00000" pt_clust_6="155.59067"></scales>
<clustering>
<clus scale="   33.771">  2  3  1 -1</clus>
<clus scale="   75.339">  2  4  1 -1</clus>
<clus scale="  155.591">  1  6  2 -1</clus>
<clus scale="   33.771">  2  3  1 -1</clus>
</clustering>
</event>
<event>
 6    0  0.4017242E+002  0.1191310E+03  0.7546771E-02  0.1244538E+00
         21   -1    0    0  503  502  0.00000000000E+00  0.00000000000E+00  0.26131373602E+03  0.26131373602E+03  0.00000000000E+00 0.  1.
         -3   -1    0    0    0  501 -0.00000000000E+00 -0.00000000000E+00 -0.63357198808E+03  0.63357198808E+03  0.00000000000E+00 0.  1.
         21    1    1    2  503  505  0.23422897391E+02 -0.11748572135E+03  0.16261607351E+03  0.20197899447E+03  0.00000000000E+00 0.  1.
         21    1    1    2  504  502 -0.45182394324E+02 -0.25680974974E+01 -0.17230707190E+02  0.48424592428E+02  0.00000000000E+00 0.  1.
         21    1    1    2  505  501  0.12569286404E+03  0.64138729451E+02 -0.31987464928E+02  0.14469163970E+03  0.00000000000E+00 0.  1.
         -3    1    1    2    0  504 -0.10393336711E+03  0.55915089395E+02 -0.48565615345E+03  0.49979049751E+03  0.00000000000E+00 0.  1.
<scales pt_clust_3="14000.00000" pt_clust_4="45.25532" pt_clust_5="110.34762" pt_clust_6="119.13103"></scales>
<clustering>
<clus scale="   45.255">  1  4  2 -1</clus>
<clus scale="  119.131">  2  6  1 -1</clus>
<clus scale="  110.348">  2  5  1 -1</clus>
<clus scale="   45.255">  1  3  2 -1</clus>
</clustering>
</event>
<event>
 6    0  0.4017242E+002  0.2168367E+03  0.7546771E-02  0.1136264E+00
         21   -1    0    0  505  502  0.00000000000E+00  0.00000000000E+00  0.32101609647E+03  0.32101609647E+03  0.00000000000E+00 0. -1.
          2   -1    0    0  504    0 -0.00000000000E+00 -0.00000000000E+00 -0.62712839313E+03  0.62712839313E+03  0.00000000000E+00 0.  1.
         21    1    1    2  503  501 -0.64753741218E+02 -0.20044434104E+02  0.71437273693E+02  0.98478984625E+02  0.00000000000E+00 0.  1.
         21    1    1    2  504  502  0.25628684179E+02  0.14332473698E+03 -0.43081171410E+01  0.14566183288E+03  0.00000000000E+00 0.  1.
         21    1    1    2  505  503 -0.11612239711E+03  0.30363467584E+02  0.11680689474E+03  0.16748194509E+03  0.00000000000E+00 0. -1.
          2    1    1    2  501    0  0.15524745415E+03 -0.15364377046E+03 -0.49004834795E+03  0.53652172701E+03  0.00000000000E+00 0.  1.
<scales pt_clust_3="37.39939" pt_clust_4="145.59811" pt_clust_5="37.39939" pt_clust_6="211.04845"></scales>
<clustering>
<clus scale="   37.399">  3  5 -1 -1</clus>
<clus scale="  145.598">  1  4  2 -1</clus>
<clus scale="  211.048">  2  6  1 -1</clus>
<clus scale="  145.598">  1  3  2 -1</clus>
</clustering>
</event>
<event>
 6    0  0.4017242E+002  0.9743092E+02  0.7546771E-02  0.1285793E+00
          2   -1    0    0  505    0 -0.00000000000E+00  0.00000000000E+00  0.10746397174E+04  0.10746397174E+04  0.00000000000E+00 0. -1.
         21   -1    0    0  503  502  0.00000000000E+00 -0.00000000000E+00 -0.16030824613E+03  0.16030824613E+03  0.00000000000E+00 0.  1.
         21    1    1    2  503  501  0.32412205764E+00 -0.13174306797E+03 -0.62870036724E+02  0.14597596559E+03  0.00000000000E+00 0.  1.
         21    1    1    2  504  502  0.34513213801E+02  0.60780395665E+00 -0.21876195801E+02  0.40866848365E+02  0.00000000000E+00 0.  1.
         21    1    1    2  505  504 -0.45662300501E+02  0.35071753922E+02  0.15280692997E+02  0.59569901702E+02  0.00000000000E+00 0. -1.
          2    1    1    2  501    0  0.10824964643E+02  0.96063510086E+02  0.98379701082E+03  0.98853524790E+03  0.00000000000E+00 0. -1.
<scales pt_clust_3="97.43092" pt_clust_4="34.51857" pt_clust_5="53.06797" pt_clust_6="14000.00000"></scales>
<clustering>
<clus scale="   34.519">  2  4  1 -1</clus>
<clus scale="   53.068">  2  5  1 -1</clus>
<clus scale="   97.431">  2  3  1 -1</clus>
<clus scale="   34.519">  2  3  1 -1</clus>
</clustering>
</event>
<event>
 6    0  0.4017242E+002  0.3720617E+03  0.7546771E-02  0.1053907E+00
         21   -1    0    0  504  502  0.00000000000E+00  0.00000000000E+00  0.14753381521E+04  0.14753381521E+04  0.00000000000E+00 0.  1.
          1   -1    0    0  505    0 -0.00000000000E+00 -0.00000000000E+00 -0.15531607401E+04  0.15531607401E+04  0.00000000000E+00 0.  1.
         21    1    1    2  503  501  0.17651741347E+03  0.13582066104E+02 -0.94230649274E+02  0.20055494269E+03  0.00000000000E+00 0. -1.
         21    1    1    2  504  503  0.16425247890E+03  0.30184423411E+02 -0.13821793690E+03  0.21678139755E+03  0.00000000000E+00 0. -1.
         21    1    1    2  505  502  0.24441747327E+02  0.53974077828E+02  0.13531382857E+04  0.13544348712E+04  0.00000000000E+00 0.  1.
          1    1    1    2  501    0 -0.36521163969E+03 -0.97740567343E+02 -0.11985122875E+04  0.12567276807E+04  0.00000000000E+00 0.  1.
<scales pt_clust_3="44.48298" pt_clust_4="44.48298" pt_clust_5="59.25032" pt_clust_6="369.23203"></scales>
<clustering>
<clus scale="   44.483">  3  4 -1 -1</clus>
<clus scale="   59.250">  1  5  2 -1</clus>
<clus scale="  369.232">  2  6  1 -1</clus>
<clus scale="   59.250">  1  3  2 -1</clus>
</clustering>
</event>
<event>
 6    0  0.4017242E+002  0.1156411E+03  0.7546771E-02  0.1250466E+00
         21   -1    0    0  505  502  0.00000000000E+00  0.00000000000E+00  0.60382315249E+02  0.60382315249E+02  0.00000000000E+00 0.  1.
          1   -1    0    0  504    0 -0.00000000000E+00 -0.00000000000E+00 -0.11786610775E+04  0.11786610775E+04  0.00000000000E+00 0.  1.
         21    1    1    2  503  502  0.19476888410E+02 -0.56469332316E+02 -0.20444926204E+02  0.63135803487E+02  0.00000000000E+00 0.  1.
         21    1    1    2  504  503  0.33851377119E+01 -0.34003720671E+02 -0.55332710218E+02  0.65033998776E+02  0.00000000000E+00 0.  1.
         21    1    1    2  505  501 -0.81103220070E+01  0.12189560292E+03 -0.76269430379E+02  0.14401854514E+03  0.00000000000E+00 0.  1.
          1    1    1    2  501    0 -0.14751704115E+02 -0.31422549931E+02 -0.96623169542E+03  0.96685504532E+03  0.00000000000E+00 0.  1.
<scales pt_clust_3="33.63173" pt_clust_4="33.63173" pt_clust_5="106.75047" pt_clust_6="34.71296"></scales>
<clustering>
<clus scale="   33.632">  3  4 -1 -1</clus>
<clus scale="   34.713">  2  6  1 -1</clus>
<clus scale="  106.750">  2  5  1 -1</clus>
<clus scale="  115.641">  1  3  2 -1</clus>
</clustering>
</event>
<event>
 6    0  0.4017242E+002  0.1442532E+03  0.7546771E-02  0.1207718E+00
         21   -1    0    0  504  502  0.00000000000E+00  0.00000000000E+00  0.24230141074E+03  0.24230141074E+03  0.00000000000E+00 0.  1.
          2   -1    0    0  505    0 -0.00000000000E+00 -0.00000000000E+00 -0.70169301146E+03  0.70169301146E+03  0.00000000000E+00 0.  1.
         21    1    1    2  503  502 -0.56910887138E+01  0.32503272372E+02  0.21493161390E+02  0.39380289387E+02  0.00000000000E+00 0. -1.
         21    1    1    2  504  501 -0.11477537794E+03 -0.10622259327E+03  0.15979602997E+03  0.22358756203E+03  0.00000000000E+00 0.  1.
         21    1    1    2  505  503 -0.12511407727E+02 -0.41592729394E+02 -0.58763368178E+02  0.73072730217E+02  0.00000000000E+00 0.  1.
          2    1    1    2  501    0  0.13297787438E+03  0.11531205029E+03 -0.58191742390E+03  0.60795384056E+03  0.00000000000E+00 0.  1.
<scales pt_clust_3="32.99775" pt_clust_4="144.25317" pt_clust_5="42.44095" pt_clust_6="14000.00000"></scales>
<clustering>
<clus scale="   32.998">  1  3  2 -1</clus>
<clus scale="   42.441">  2  5  1 -1</clus>
<clus scale="  144.253">  1  4  2 -1</clus>
<clus scale="   32.998">  1  3  2 -1</clus>
</clustering>
</event>
<event>
 6    0  0.4017242E+002  0.1215304E+03  0.7546771E-02  0.1240594E+00
         21   -1    0    0  505  502  0.00000000000E+00  0.00000000000E+00  0.23264396327E+03  0.23264396327E+03  0.00000000000E+00 0.  1.
          2   -1    0    0  504    0 -0.00000000000E+00 -0.00000000000E+00 -0.29628422737E+04  0.29628422737E+04  0.00000000000E+00 0.  1.
         21    1    1    2  503  502  0.43497599878E+02 -0.12947949676E+03 -0.15850101054E+03  0.20923563658E+03  0.00000000000E+00 0.  1.
         21    1    1    2  504  503  0.47580861143E+02  0.59251633418E+02 -0.14065034096E+04  0.14085547685E+04  0.00000000000E+00 0.  1.
         21    1    1    2  505  501 -0.50278240624E+02  0.12241428462E+01  0.20199343020E+03  0.20816038492E+03  0.00000000000E+00 0.  1.
          2    1    1    2  501    0 -0.40800220398E+02  0.69003720493E+02 -0.13671873204E+04  0.13695354470E+04  0.00000000000E+00 0.  1.
<scales pt_clust_3="121.53036" pt_clust_4="74.87039" pt_clust_5="50.29314" pt_clust_6="14000.00000"></scales>
<clustering>
<clus scale="   50.293">  1  5  2 -1</clus>
<clus scale="   74.870">  2  4  1 -1</clus>
<clus scale="  121.530">  1  3  2 -1</clus>
<clus scale="   50.293">  1  3  2 -1</clus>
</clustering>
</event>
<event>
 6    0  0.4017242E+002  0.8354800E+02  0.7546771E-02  0.1319274E+00
          2   -1    0    0  504    0 -0.00000000000E+00  0.00000000000E+00  0.21929179107E+04  0.21929179107E+04  0.00000000000E+00 0.  1.
         21   -1    0    0  503  502  0.00000000000E+00 -0.00000000000E+00 -0.78619335614E+02  0.78619335614E+02  0.00000000000E+00 0. -1.
         21    1    1    2  503  501  0.56589269968E+02 -0.81349310023E+02  0.61175111552E+02  0.11645793228E+03  0.00000000000E+00 0.  1.
         21    1    1    2  504  505 -0.37793594575E+02  0.43532258732E+02  0.10390404102E+03  0.11882534697E+03  0.00000000000E+00 0. -1.
         21    1    1    2  505  502 -0.35556837783E+02  0.69067978124E+02 -0.85600362043E+01  0.78153365475E+02  0.00000000000E+00 0. -1.
          2    1    1    2  501    0  0.16761162391E+02 -0.31250926834E+02  0.19577794587E+04  0.19581006016E+04  0.00000000000E+00 0.  1.
<scales pt_clust_3="14000.00000" pt_clust_4="41.42375" pt_clust_5="83.54800" pt_clust_6="35.46205"></scales>
<clustering>
<clus scale="   35.462">  1  6  2 -1</clus>
<clus scale="   41.424">  1  4  2 -1</clus>
<clus scale="   83.548">  2  5  1 -1</clus>
<clus scale="   83.548">  2  3  1 -1</clus>
</clustering>
</event>
<event>
 6    0  0.4017242E+002  0.1372456E+03  0.7546771E-02  0.1217084E+00
          1   -1    0    0  502    0 -0.00000000000E+00  0.00000000000E+00  0.14183777708E+04  0.14183777708E+04  0.00000000000E+00 0. -1.
         21   -1    0    0  503  502  0.00000000000E+00 -0.00000000000E+00 -0.54660481881E+02  0.54660481881E+02  0.00000000000E+00 0. -1.
         21    1    1    2  503  505  0.27498864563E+02 -0.13298098509E+02  0.43402407159E+01  0.30852304058E+02  0.00000000000E+00 0. -1.
         21    1    1    2  504  501 -0.68980299493E+02  0.33335398761E+02  0.97416246585E+02  0.12393327087E+03  0.00000000000E+00 0. -1.
         21    1    1    2  505  504 -0.75282534422E+02  0.29325508042E+02  0.40764423797E+02  0.90494108419E+02  0.00000000000E+00 0. -1.
          1    1    1    2  501    0  0.11676396935E+03 -0.49362808294E+02  0.12211963779E+04  0.12277585694E+04  0.00000000000E+00 0. -1.
<scales pt_clust_3="30.54549" pt_clust_4="44.81770" pt_clust_5="44.81770" pt_clust_6="129.18707"></scales>
<clustering>
<clus scale="   30.545">  2  3  1 -1</clus>
<clus scale="   44.818">  4  5 -1 -1</clus>
<clus scale="  129.187">  1  6  2 -1</clus>
<clus scale="   30.545">  2  3  1 -1</clus>
</clustering>
</event>
<event>
 6    0  0.4017242E+002  0.2853323E+03  0.7546771E-02  0.1092812E+00
          2   -1    0    0  504    0 -0.00000000000E+00  0.00000000000E+00  0.23507417369E+03  0.23507417369E+03  0.00000000000E+00 0. -1.
         21   -1    0    0  501  502  0.00000000000E+00 -0.00000000000E+00 -0.81363834759E+03  0.81363834759E+03  0.00000000000E+00 0.  1.
         21    1    1    2  503  505 -0.47431652398E+02 -0.18747547754E+03 -0.43379844175E+03  0.47495042309E+03  0.00000000000E+00 0.  1.
         21    1    1    2  504  503  0.69514391369E+01 -0.59214883439E+02 -0.69428242240E+02  0.91515057489E+02  0.00000000000E+00 0.  1.
         21    1    1    2  505  502 -0.38012639201E+02 -0.23400426879E+02 -0.17748144895E+03  0.18300875782E+03  0.00000000000E+00 0.  1.
          2    1    1    2  501    0  0.78492852462E+02  0.27009078786E+03  0.10214395904E+03  0.29923828288E+03  0.00000000000E+00 0. -1.
<scales pt_clust_3="39.85196" pt_clust_4="39.85196" pt_clust_5="44.63788" pt_clust_6="276.15804"></scales>
<clustering>
<clus scale="   39.852">  3  4 -1 -1</clus>
<clus scale="   44.638">  2  5  1 -1</clus>
<clus scale="  276.158">  1  6  2 -1</clus>
<clus scale="   44.638">  2  3  1 -1</clus>
</clustering>
</event>
<event>
 6    0  0.4017242E+002  0.2740068E+03  0.7546771E-02  0.1099008E+00
          2   -1    0    0  503    0 -0.00000000000E+00  0.00000000000E+00  0.17029442103E+04  0.17029442103E+04  0.00000000000E+00 0.  1.
         21   -1    0    0  505  502  0.00000000000E+00 -0.00000000000E+00 -0.70613586462E+03  0.70613586462E+03  0.00000000000E+00 0.  1.
         21    1    1    2  503  504 -0.31158927737E+02 -0.31850050871E+03  0.21970781317E+03  0.38818162758E+03  0.00000000000E+00 0.  1.
         21    1    1    2  504  502  0.20802129997E+03  0.13802115118E+03  0.69854086659E+02  0.25923405030E+03  0.00000000000E+00 0.  1.
         21    1    1    2  505  501  0.45112899289E+02 -0.39832509676E+01 -0.50932078249E+03  0.51133032322E+03  0.00000000000E+00 0.  1.
          2    1    1    2  501    0 -0.22197527152E+03  0.18446260849E+03  0.12165672284E+04  0.12503340738E+04  0.00000000000E+00 0.  1.
<scales pt_clust_3="14000.00000" pt_clust_4="267.10836" pt_clust_5="45.28841" pt_clust_6="274.00676"></scales>
<clustering>
<clus scale="   45.288">  2  5  1 -1</clus>
<clus scale="  267.108">  2  4  1 -1</clus>
<clus scale="  274.007">  1  6  2 -1</clus>
<clus scale="   45.288">  2  3  1 -1</clus>
</clustering>
</event>
<event>
 6    0  0.4017242E+002  0.1182163E+03  0.7546771E-02  0.1246069E+00
          1   -1    0    0  503    0 -0.00000000000E+00  0.00000000000E+00  0.15092099724E+04  0.15092099724E+04  0.00000000000E+00 0. -1.
         21   -1    0    0  504  502  0.00000000000E+00 -0.00000000000E+00 -0.56866510579E+02  0.56866510579E+02  0.00000000000E+00 0.  1.
         21    1    1    2  503  502  0.20731566889E+02  0.39520805171E+02 -0.12284879071E+02  0.46288337201E+02  0.00000000000E+00 0.  1.
         21    1    1    2  504  505  0.13434541837E+03 -0.16050457784E+01  0.23460879765E+03  0.27035634918E+03  0.00000000000E+00 0.  1.
         21    1    1    2  505  501 -0.78026434346E+02 -0.74689145481E+02  0.37751771546E+03  0.39266552993E+03  0.00000000000E+00 0. -1.
          1    1    1    2  501    0 -0.77050550915E+02  0.36773386089E+02  0.85250182777E+03  0.85676626665E+03  0.00000000000E+00 0. -1.
<scales pt_clust_3="44.62838" pt_clust_4="14000.00000" pt_clust_5="118.21629" pt_clust_6="85.31529"></scales>
<clustering>
<clus scale="   44.628">  2  3  1 -1</clus>
<clus scale="   85.315">  1  6  2 -1</clus>
<clus scale="  118.216">  1  5  2 -1</clus>
<clus scale="   44.628">  2  3  1 -1</clus>
</clustering>
</event>
<event>
 6    0  0.4017242E+002  0.5986106E+02  0.7546771E-02  0.1398416E+00
         21   -1    0    0  503  502  0.00000000000E+00  0.00000000000E+00  0.35925281631E+03  0.35925281631E+03  0.00000000000E+00 0. -1.
          3   -1    0    0  504    0 -0.00000000000E+00 -0.00000000000E+00 -0.50562212630E+03  0.50562212630E+03  0.00000000000E+00 0. -1.
         21    1    1    2  503  505  0.55431443807E+02 -0.41923339118E+01  0.16761079514E+03  0.17658878581E+03  0.00000000000E+00 0. -1.
         21    1    1    2  504  502 -0.93058873458E+02 -0.12123629301E+02  0.13045584561E+03  0.16070365263E+03  0.00000000000E+00 0. -1.
         21    1    1    2  505  501  0.81783944068E+02  0.22110127583E+02 -0.39089458854E+01  0.84810088474E+02  0.00000000000E+00 0. -1.
          3    1    1    2  501    0 -0.44156514417E+02 -0.57941643709E+01 -0.44052700485E+03  0.44277241570E+03  0.00000000000E+00 0. -1.
<scales pt_clust_3="52.53463" pt_clust_4="14000.00000" pt_clust_5="59.86106" pt_clust_6="44.53504"></scales>
<clustering>
<clus scale="   44.535">  2  6  1 -1</clus>
<clus scale="   52.535">  1  3  2 -1</clus>
<clus scale="   59.861">  2  5  1 -1</clus>
<clus scale="   52.535">  1  3  2 -1</clus>
</clustering>
</event>
<event>
 6    0  0.4017242E+002  0.8390529E+02  0.7546771E-02  0.1318320E+00
         21   -1    0    0  504  502  0.00000000000E+00  0.00000000000E+00  0.36681693174E+03  0.36681693174E+03  0.00000000000E+00 0.  1.
          1   -1    0    0  505    0 -0.00000000000E+00 -0.00000000000E+00 -0.18238630650E+04  0.18238630650E+04  0.00000000000E+00 0. -1.
         21    1    1    2  503  501 -0.18984791831E+02 -0.10167524870E+03  0.40102690488E+02  0.11093468485E+03  0.00000000000E+00 0.  1.
         21    1    1    2  504  503 -0.45714213970E+02 -0.83823736413E+01  0.88163834053E+02  0.99664011468E+02  0.00000000000E+00 0.  1.
         21    1    1    2  505  502  0.69521264902E-01  0.56466069341E+02  0.19233481634E+03  0.20045224717E+03  0.00000000000E+00 0.  1.
          1    1    1    2  501    0  0.64629484536E+02  0.53591553001E+02 -0.17776474741E+04  0.17796290532E+04  0.00000000000E+00 0. -1.
<scales pt_clust_3="83.90529" pt_clust_4="46.47638" pt_clust_5="60.17701" pt_clust_6="14000.00000"></scales>
<clustering>
<clus scale="   46.476">  1  4  2 -1</clus>
<clus scale="   60.177">  1  5  2 -1</clus>
<clus scale="   83.905">  1  3  2 -1</clus>
<clus scale="   46.476">  1  3  2 -1</clus>
</clustering>
</event>
<event>
 6    0  0.4017242E+002  0.1637899E+03  0.7546771E-02  0.1184483E+00
          1   -1    0    0  504    0 -0.00000000000E+00  0.00000000000E+00  0.27835151412E+03  0.27835151412E+03  0.00000000000E+00 0.  1.
         21   -1    0    0  501  502  0.00000000000E+00 -0.00000000000E+00 -0.53393912263E+03  0.53393912263E+03  0.00000000000E+00 0.  1.
         21    1    1    2  503  502 -0.13979248084E+03 -0.22149503248E+02 -0.42895343769E+03  0.45170077474E+03  0.00000000000E+00 0.  1.
         21    1    1    2  504  505  0.77078610888E+02  0.82920957388E+02  0.86529069624E+02  0.14249307815E+03  0.00000000000E+00 0.  1.
         21    1    1    2  505  503  0.38120597698E+02  0.50712755288E+02 -0.14911116229E+02  0.65171350339E+02  0.00000000000E+00 0. -1.
          1    1    1    2  501    0  0.24593272251E+02 -0.11148420943E+03  0.10174787578E+03  0.15292543352E+03  0.00000000000E+00 0.  1.
<scales pt_clust_3="141.28186" pt_clust_4="62.03166" pt_clust_5="62.03166" pt_clust_6="114.16461"></scales>
<clustering>
<clus scale="   62.032">  4  5 -1 -1</clus>
<clus scale="  114.165">  1  6  2 -1</clus>
<clus scale="  141.282">  2  3  1 -1</clus>
<clus scale="  141.282">  2  3  1 -1</clus>
</clustering>
</event>
<event>
 6    0  0.4017242E+002  0.1970586E+03  0.7546771E-02  0.1152245E+00
         21   -1    0    0  504  502  0.00000000000E+00  0.00000000000E+00  0.16167465830E+03  0.16167465830E+03  0.00000000000E+00 0. -1.
          2   -1    0    0  503    0 -0.00000000000E+00 -0.00000000000E+00 -0.17857228810E+04  0.17857228810E+04  0.00000000000E+00 0. -1.
         21    1    1    2  503  505 -0.14305003809E+03  0.34391786390E+02 -0.52990003688E+03  0.54994559499E+03  0.00000000000E+00 0. -1.
         21    1    1    2  504  501  0.18996328650E+03 -0.11904857253E+03  0.51732778390E+02  0.23007584228E+03  0.00000000000E+00 0. -1.
         21    1    1    2  505  502 -0.35451693719E+02 -0.25716784763E+02 -0.52461359256E+02  0.68340104047E+02  0.00000000000E+00 0.  1.
          2    1    1    2  501    0 -0.11461554696E+02  0.11037357090E+03 -0.10934196050E+04  0.10990359980E+04  0.00000000000E+00 0. -1.
<scales pt_clust_3="197.05861" pt_clust_4="14000.00000" pt_clust_5="43.79698" pt_clust_6="110.56889"></scales>
<clustering>
<clus scale="   43.797">  1  5  2 -1</clus>
<clus scale="  110.569">  2  6  1 -1</clus>
<clus scale="  197.059">  2  3  1 -1</clus>
<clus scale="   43.797">  1  3  2 -1</clus>
</clustering>
</event>
<event>
 6    0  0.4017242E+002  0.1845120E+03  0.7546771E-02  0.1163506E+00
         21   -1    0    0  505  502  0.00000000000E+00  0.00000000000E+00  0.15363733131E+03  0.15363733131E+03  0.00000000000E+00 0.  1.
         -2   -1    0    0    0  501 -0.00000000000E+00 -0.00000000000E+00 -0.11599567880E+04  0.11599567880E+04  0.00000000000E+00 0. -1.
         21    1    1    2  503  504 -0.65844705217E+01  0.16339738139E+03 -0.96029610075E+01  0.16381171007E+03  0.00000000000E+00 0.  1.
         21    1    1    2  504  502 -0.63512922947E+02  0.16123385578E+02  0.41988011618E+02  0.77825754500E+02  0.00000000000E+00 0.  1.
         21    1    1    2  505  501  0.34410096662E+02 -0.18195343099E+03 -0.51942620200E+03  0.55144780816E+03  0.00000000000E+00 0. -1.
         -2    1    1    2    0  503  0.35687296807E+02  0.24326640226E+01 -0.51927830531E+03  0.52050884658E+03  0.00000000000E+00 0. -1.
<scales pt_clust_3="14000.00000" pt_clust_4="64.57666" pt_clust_5="184.51203" pt_clust_6="35.77011"></scales>
<clustering>
<clus scale="   35.770">  2  6  1 -1</clus>
<clus scale="   64.577">  1  4  2 -1</clus>
<clus scale="  184.512">  2  5  1 -1</clus>
<clus scale="   64.577">  1  3  2 -1</clus>
</clustering>
</event>
<event>
 6    0  0.4017242E+002  0.1247763E+03  0.7546771E-02  0.1235419E+00
          1   -1    0    0  504    0 -0.00000000000E+00  0.00000000000E+00  0.16574016383E+04  0.16574016383E+04  0.00000000000E+00 0. -1.
         21   -1    0    0  505  502  0.00000000000E+00 -0.00000000000E+00 -0.23957141456E+03  0.23957141456E+03  0.00000000000E+00 0.  1.
         21    1    1    2  503  502  0.35043934740E+02  0.91652134951E+01  0.12368565106E+02  0.38276100941E+02  0.00000000000E+00 0. -1.
         21    1    1    2  504  503  0.65008680082E+01 -0.10564247764E+03 -0.40030216839E+02  0.11315923572E+03  0.00000000000E+00 0.  1.
         21    1    1    2  505  501 -0.52531989869E+02  0.13752287293E+03 -0.11354891097E+03  0.18591800806E+03  0.00000000000E+00 0.  1.
          1    1    1    2  501    0  0.10987187121E+02 -0.41045608778E+02  0.15590407865E+04  0.15596197082E+04  0.00000000000E+00 0. -1.
<scales pt_clust_3="36.22262" pt_clust_4="14000.00000" pt_clust_5="124.77628" pt_clust_6="42.49100"></scales>
<clustering>
<clus scale="   36.223">  2  3  1 -1</clus>
<clus scale="   42.491">  1  6  2 -1</clus>
<clus scale="  124.776">  2  5  1 -1</clus>
<clus scale="   36.223">  2  3  1 -1</clus>
</clustering>
</event>
<event>
 6    0  0.4017242E+002  0.7448777E+02  0.7546771E-02  0.1345465E+00
         21   -1    0    0  501  502  0.00000000000E+00  0.00000000000E+00  0.46869488470E+02  0.46869488470E+02  0.00000000000E+00 0.  1.
          2   -1    0    0  503    0 -0.00000000000E+00 -0.00000000000E+00 -0.13871210540E+04  0.13871210540E+04  0.00000000000E+00 0.  1.
         21    1    1    2  503  505  0.13316214072E+02 -0.29809833107E+02 -0.23720523873E+03  0.23944158575E+03  0.00000000000E+00 0. -1.
         21    1    1    2  504  502 -0.48517986614E+02  0.39170597276E+02 -0.27135350734E+02  0.68004837883E+02  0.00000000000E+00 0.  1.
         21    1    1    2  505  504 -0.20145679876E+02 -0.72764036758E+02 -0.36731765904E+02  0.83962349237E+02  0.00000000000E+00 0.  1.
          2    1    1    2  501    0  0.55347452418E+02  0.63403272589E+02 -0.10391792102E+04  0.10425817696E+04  0.00000000000E+00 0.  1.
<scales pt_clust_3="32.64885" pt_clust_4="61.15512" pt_clust_5="14000.00000" pt_clust_6="74.48777"></scales>
<clustering>
<clus scale="   32.649">  2  3  1 -1</clus>
<clus scale="   61.155">  1  4  2 -1</clus>
<clus scale="   74.488">  2  6  1 -1</clus>
<clus scale="   61.155">  1  3  2 -1</clus>
</clustering>
</event>
<event>
 6    0  0.4017242E+002  0.1378545E+03  0.7546771E-02  0.1216245E+00
         21   -1    0    0  505  502  0.00000000000E+00  0.00000000000E+00  0.28612152156E+02  0.28612152156E+02  0.00000000000E+00 0.  1.
          2   -1    0    0  503    0 -0.00000000000E+00 -0.00000000000E+00 -0.21772797633E+04  0.21772797633E+04  0.00000000000E+00 0.  1.
         21    1    1    2  503  502  0.53012686707E+02  0.23320090583E+02 -0.13447138069E+03  0.14641285395E+03  0.00000000000E+00 0. -1.
         21    1    1    2  504  501 -0.45123545642E+02  0.33531783884E+02 -0.16408786646E+03  0.17345126930E+03  0.00000000000E+00 0.  1.
         21    1    1    2  505  504 -0.99774212271E+02  0.26515630011E+02 -0.15408672028E+03  0.18547422850E+03  0.00000000000E+00 0.  1.
          2    1    1    2  501    0  0.91885071206E+02 -0.83367504478E+02 -0.16960216437E+04  0.17005535637E+04  0.00000000000E+00 0.  1.
<scales pt_clust_3="57.91521" pt_clust_4="40.36060" pt_clust_5="40.36060" pt_clust_6="126.54035"></scales>
<clustering>
<clus scale="   40.361">  4  5 -1 -1</clus>
<clus scale="   57.915">  1  3  2 -1</clus>
<clus scale="  126.540">  2  6  1 -1</clus>
<clus scale="   57.915">  1  3  2 -1</clus>
</clustering>
</event>
<event>
 6    0  0.4017242E+002  0.1088039E+03  0.7546771E-02  0.1262801E+00
          2   -1    0    0  505    0 -0.00000000000E+00  0.00000000000E+00  0.28635398057E+04  0.28635398057E+04  0.00000000000E+00 0. -1.
         21   -1    0    0  503  502  0.00000000000E+00 -0.00000000000E+00 -0.24095034659E+02  0.24095034659E+02  0.00000000000E+00 0.  1.
         21    1    1    2  503  501 -0.20794659098E+02 -0.28079612770E+02  0.12547887675E+03  0.13025295011E+03  0.00000000000E+00 0.  1.
         21    1    1    2  504  502 -0.38215480427E+02  0.15504055210E+02  0.10081831342E+03  0.10892718207E+03  0.00000000000E+00 0.  1.
         21    1    1    2  505  504  0.95563598643E+02  0.11261083242E+03  0.31570155286E+03  0.34854134825E+03  0.00000000000E+00 0.  1.
          2    1    1    2  501    0 -0.36553459119E+02 -0.10003527486E+03  0.22974460280E+04  0.22999133599E+04  0.00000000000E+00 0. -1.
<scales pt_clust_3="34.94113" pt_clust_4="43.33143" pt_clust_5="14000.00000" pt_clust_6="108.80389"></scales>
<clustering>
<clus scale="   34.941">  2  3  1 -1</clus>
<clus scale="   43.331">  2  4  1 -1</clus>
<clus scale="  108.804">  1  6  2 -1</clus>
<clus scale="   34.941">  2  3  1 -1</clus>
</clustering>
</event>
<event>
 6    0  0.4017242E+002  0.7680120E+02  0.7546771E-02  0.1338382E+00
         21   -1    0    0  505  502  0.00000000000E+00  0.00000000000E+00  0.51269204003E+02  0.51269204003E+02  0.00000000000E+00 0. -1.
          1   -1    0    0  504    0 -0.00000000000E+00 -0.00000000000E+00 -0.14757203915E+04  0.14757203915E+04  0.00000000000E+00 0. -1.
         21    1    1    2  503  501  0.34596033130E+02  0.33189405120E+02 -0.10101577801E+03  0.11181506843E+03  0.00000000000E+00 0. -1.
         21    1    1    2  504  502 -0.91428354769E+02 -0.64816801774E+02 -0.17671850510E+03  0.20926010583E+03  0.00000000000E+00 0. -1.
         21    1    1    2  505  503  0.40790199246E+02  0.57075227906E+02 -0.12450430345E+02  0.71249106737E+02  0.00000000000E+00 0. -1.
          1    1    1    2  501    0  0.16042122393E+02 -0.25447831252E+02 -0.11342664740E+04  0.11346653145E+04  0.00000000000E+00 0. -1.
<scales pt_clust_3="46.96597" pt_clust_4="14000.00000" pt_clust_5="76.80120" pt_clust_6="30.08225"></scales>
<clustering>
<clus scale="   30.082">  2  6  1 -1</clus>
<clus scale="   46.966">  2  3  1 -1</clus>
<clus scale="   76.801">  1  5  2 -1</clus>
<clus scale="   76.801">  1  3  2 -1</clus>
</clustering>
</event>
<event>
 6    0  0.4017242E+002  0.1638458E+03  0.7546771E-02  0.1184422E+00
          2   -1    0    0  505    0 -0.00000000000E+00  0.00000000000E+00  0.29656699150E+04  0.29656699150E+04  0.00000000000E+00 0. -1.
         21   -1    0    0  504  502  0.00000000000E+00 -0.00000000000E+00 -0.39223463726E+02  0.39223463726E+02  0.00000000000E+00 0. -1.
         21    1    1    2  503  501  0.22514805972E+02  0.41582970642E+02  0.12093587134E+03  0.12985201159E+03  0.00000000000E+00 0. -1.
         21    1    1    2  504  503  0.63517724839E+01 -0.38356702579E+02  0.40709221967E+01  0.39091611044E+02  0.00000000000E+00 0. -1.
         21    1    1    2  505  502 -0.85654911661E+02 -0.15452064709E+03  0.52800487676E+03  0.55677872099E+03  0.00000000000E+00 0.  1.
          2    1    1    2  501    0  0.56788333205E+02  0.15129437903E+03  0.22734347810E+04  0.22791710351E+04  0.00000000000E+00 0. -1.
<scales pt_clust_3="41.27408" pt_clust_4="38.87906" pt_clust_5="163.84580" pt_clust_6="14000.00000"></scales>
<clustering>
<clus scale="   38.879">  2  4  1 -1</clus>
<clus scale="   41.274">  2  3  1 -1</clus>
<clus scale="  163.846">  2  5  1 -1</clus>
<clus scale="   38.879">  2  3  1 -1</clus>
</clustering>
</event>
<event>
 6    0  0.4017242E+002  0.1272315E+03  0.7546771E-02  0.1231622E+00
         21   -1    0    0  501  502  0.00000000000E+00  0.00000000000E+00  0.15415206622E+03  0.15415206622E+03  0.00000000000E+00 0.  1.
         -4   -1    0    0    0  501 -0.00000000000E+00 -0.00000000000E+00 -0.59734503444E+03  0.59734503444E+03  0.00000000000E+00 0. -1.
         21    1    1    2  503  502  0.41016439600E+01  0.51940803099E+02  0.47103000376E+00  0.52104629152E+02  0.00000000000E+00 0.  1.
         21    1    1    2  504  505  0.38375953450E+02  0.39881046405E+00  0.45739886979E+01  0.38649634223E+02  0.00000000000E+00 0.  1.
         21    1    1    2  505  503  0.72754753625E+02 -0.30823170016E+02  0.84249724728E+02  0.11550471030E+03  0.00000000000E+00 0.  1.
         -4    1    1    2    0  504 -0.11523235103E+03 -0.21516443547E+02 -0.53248771165E+03  0.54523812699E+03  0.00000000000E+00 0. -1.
<scales pt_clust_3="52.10250" pt_clust_4="35.52438" pt_clust_5="35.52438" pt_clust_6="116.57455"></scales>
<clustering>
<clus scale="   35.524">  4  5 -1 -1</clus>
<clus scale="   52.103">  1  3  2 -1</clus>
<clus scale="  116.575">  2  6  1 -1</clus>
<clus scale="   52.103">  1  3  2 -1</clus>
</clustering>
</event>
<event>
 6    0  0.4017242E+002  0.1793571E+03  0.7546771E-02  0.1168427E+00
         21   -1    0    0  503  502  0.00000000000E+00  0.00000000000E+00  0.11773832231E+03  0.11773832231E+03  0.00000000000E+00 0.  1.
          1   -1    0    0  504    0 -0.00000000000E+00 -0.00000000000E+00 -0.93368368475E+03  0.93368368475E+03  0.00000000000E+00 0. -1.
         21    1    1    2  503  505 -0.29115852315E+02  0.13433302799E+02  0.19772290931E+01  0.32126249626E+02  0.00000000000E+00 0. -1.
         21    1    1    2  504  502  0.26520877768E+02 -0.43409941888E+02 -0.51651912814E+02  0.72496207554E+02  0.00000000000E+00 0. -1.
         21    1    1    2  505  501  0.14242407869E+03 -0.85511570491E+02 -0.71073668004E+01  0.16627495765E+03  0.00000000000E+00 0.  1.
          1    1    1    2  501    0 -0.13982910415E+03  0.11548820958E+03 -0.75916331192E+03  0.78052459223E+03  0.00000000000E+00 0. -1.
<scales pt_clust_3="32.06535" pt_clust_4="48.14786" pt_clust_5="179.35711" pt_clust_6="14000.00000"></scales>
<clustering>
<clus scale="   32.065">  1  3  2 -1</clus>
<clus scale="   48.148">  1  4  2 -1</clus>
<clus scale="  179.357">  1  5  2 -1</clus>
<clus scale="   32.065">  1  3  2 -1</clus>
</clustering>
</event>
<event>
 6    0  0.4017242E+002  0.4044726E+03  0.7546771E-02  0.1042242E+00
         21   -1    0    0  501  502  0.00000000000E+00  0.00000000000E+00  0.63847094876E+03  0.63847094876E+03  0.00000000000E+00 0. -1.
          2   -1    0    0  503    0 -0.00000000000E+00 -0.00000000000E+00 -0.16047879512E+04  0.16047879512E+04  0.00000000000E+00 0. -1.
         21    1    1    2  503  505  0.40237996629E+03 -0.85470819611E+02 -0.18796441390E+03  0.45226708831E+03  0.00000000000E+00 0. -1.
         21    1    1    2  504  502 -0.70253523519E+02  0.85320982250E+02  0.16865069073E+03  0.20163899192E+03  0.00000000000E+00 0. -1.
         21    1    1    2  505  504 -0.15958951188E+03  0.25799608009E+03  0.22454098505E+03  0.37742475226E+03  0.00000000000E+00 0. -1.
          2    1    1    2  501    0 -0.17253693089E+03 -0.25784624273E+03 -0.11715442644E+04  0.12119280675E+04  0.00000000000E+00 0. -1.
<scales pt_clust_3="391.88950" pt_clust_4="60.42145" pt_clust_5="60.42145" pt_clust_6="310.24777"></scales>
<clustering>
<clus scale="   60.421">  4  5 -1 -1</clus>
<clus scale="  310.248">  2  6  1 -1</clus>
<clus scale="  391.889">  2  3  1 -1</clus>
<clus scale="  404.473">  1  3  2 -1</clus>
</clustering>
</event>
<event>
 6    0  0.4017242E+002  0.1326055E+03  0.7546771E-02  0.1223640E+00
         -2   -1    0    0    0  501 -0.00000000000E+00  0.00000000000E+00  0.22344370211E+04  0.22344370211E+04  0.00000000000E+00 0.  1.
         21   -1    0    0  504  502  0.00000000000E+00 -0.00000000000E+00 -0.56651326119E+03  0.56651326119E+03  0.00000000000E+00 0.  1.
         21    1    1    2  503  502 -0.95602521918E+01 -0.35900523017E+02 -0.12881846517E+03  0.13406879929E+03  0.00000000000E+00 0. -1.
         21    1    1    2  504  501  0.71291130552E+02 -0.88626005242E+02 -0.23621447757E+03  0.26217222110E+03  0.00000000000E+00 0.  1.
         21    1    1    2  505  503 -0.60346649485E+02 -0.84169623746E+01 -0.17883263284E+03  0.18892769497E+03  0.00000000000E+00 0.  1.
         -2    1    1    2    0  505 -0.13842288750E+01  0.13294349063E+03  0.22117893355E+04  0.22157815669E+04  0.00000000000E+00 0.  1.
<scales pt_clust_3="37.15166" pt_clust_4="132.60550" pt_clust_5="68.57268" pt_clust_6="14000.00000"></scales>
<clustering>
<clus scale="   37.152">  2  3  1 -1</clus>
<clus scale="   68.573">  2  5  1 -1</clus>
<clus scale="  132.606">  2  4  1 -1</clus>
<clus scale="   37.152">  2  3  1 -1</clus>
</clustering>
</event>
<event>
 6    0  0.4017242E+002  0.1207348E+03  0.7546771E-02  0.1241890E+00
          2   -1    0    0  503    0 -0.00000000000E+00  0.00000000000E+00  0.37409216243E+03  0.37409216243E+03  0.00000000000E+00 0. -1.
         21   -1    0    0  504  502  0.00000000000E+00 -0.00000000000E+00 -0.12568712930E+04  0.12568712930E+04  0.00000000000E+00 0.  1.
         21    1    1    2  503  505  0.35860713449E+02  0.19472745765E+02  0.21757667132E+02  0.46244725923E+02  0.00000000000E+00 0.  1.
         21    1    1    2  504  501  0.55717010644E+02 -0.13122373577E+02 -0.10660831232E+04  0.10676187557E+04  0.00000000000E+00 0.  1.
         21    1    1    2  505  502 -0.16007426833E+03 -0.46740618142E+02 -0.13218585116E+03  0.21279463342E+03  0.00000000000E+00 0.  1.
          2    1    1    2  501    0  0.68496544238E+02  0.40390245955E+02  0.29373217669E+03  0.30430534035E+03  0.00000000000E+00 0. -1.
<scales pt_clust_3="40.80660" pt_clust_4="57.31020" pt_clust_5="14000.00000" pt_clust_6="120.73480"></scales>
<clustering>
<clus scale="   40.807">  1  3  2 -1</clus>
<clus scale="   57.310">  2  4  1 -1</clus>
<clus scale="  120.735">  1  6  2 -1</clus>
<clus scale="   57.310">  2  3  1 -1</clus>
</clustering>
</event>
<event>
 6    0  0.4017242E+002  0.1362201E+03  0.7546771E-02  0.1218508E+00
         21   -1    0    0  504  502  0.00000000000E+00  0.00000000000E+00  0.29335261472E+03  0.29335261472E+03  0.00000000000E+00 0. -1.
          1   -1    0    0  503    0 -0.00000000000E+00 -0.00000000000E+00 -0.45571637850E+03  0.45571637850E+03  0.00000000000E+00 0.  1.
         21    1    1    2  503  502  0.65439809592E+01  0.43155139602E+02  0.15790819085E+03  0.16382974852E+03  0.00000000000E+00 0. -1.
         21    1    1    2  504  505  0.22426560413E+02 -0.65010737740E+02  0.34554520504E+01  0.68857002420E+02  0.00000000000E+00 0. -1.
         21    1    1    2  505  501 -0.11853215742E+03 -0.80193474739E+02  0.22144377796E+02  0.14481449928E+03  0.00000000000E+00 0. -1.
          1    1    1    2  501    0  0.89561616045E+02  0.10204907288E+03 -0.34587178448E+03  0.37156774300E+03  0.00000000000E+00 0.  1.
<scales pt_clust_3="43.64848" pt_clust_4="58.48095" pt_clust_5="14000.00000" pt_clust_6="136.22006"></scales>
<clustering>
<clus scale="   43.648">  1  3  2 -1</clus>
<clus scale="   58.481">  1  4  2 -1</clus>
<clus scale="  136.220">  2  6  1 -1</clus>
<clus scale="   43.648">  1  3  2 -1</clus>
</clustering>
</event>
<event>
 6    0  0.4017242E+002  0.1548496E+03  0.7546771E-02  0.1194637E+00
          4   -1    0    0  502    0 -0.00000000000E+00  0.00000000000E+00  0.16203402563E+03  0.16203402563E+03  0.00000000000E+00 0.  1.
         21   -1    0    0  505  502  0.00000000000E+00 -0.00000000000E+00 -0.90899849465E+03  0.90899849465E+03  0.00000000000E+00 0. -1.
         21    1    1    2  503  504  0.74190863129E+01  0.76504880994E+02 -0.94984648413E+02  0.12218888285E+03  0.00000000000E+00 0. -1.
         21    1    1    2  504  501  0.32543880496E+02  0.10235245797E+03 -0.21961589861E+03  0.24447141496E+03  0.00000000000E+00 0. -1.
         21    1    1    2  505  503 -0.19261955617E+02 -0.35571168649E+02 -0.52884836763E+03  0.53039318144E+03  0.00000000000E+00 0. -1.
          4    1    1    2  501    0 -0.20701011192E+02 -0.14328617031E+03  0.96484445632E+02  0.17397904103E+03  0.00000000000E+00 0.  1.
<scales pt_clust_3="36.67342" pt_clust_4="36.67342" pt_clust_5="40.45159" pt_clust_6="148.65766"></scales>
<clustering>
<clus scale="   36.673">  3  4 -1 -1</clus>
<clus scale="   40.452">  2  5  1 -1</clus>
<clus scale="  148.658">  1  6  2 -1</clus>
<clus scale="   40.452">  2  3  1 -1</clus>
</clustering>
</event>
<event>
 6    0  0.4017242E+002  0.1088527E+03  0.7546771E-02  0.1262709E+00
          2   -1    0    0  504    0 -0.00000000000E+00  0.00000000000E+00  0.98066691922E+03  0.98066691922E+03  0.00000000000E+00 0. -1.
         21   -1    0    0  503  502  0.00000000000E+00 -0.00000000000E+00 -0.85537216269E+02  0.85537216269E+02  0.00000000000E+00 0.  1.
         21    1    1    2  503  501  0.68546705943E+02 -0.13111655870E+02  0.23711025434E+02  0.73707388655E+02  0.00000000000E+00 0.  1.
         21    1    1    2  504  505 -0.55941170849E+02 -0.44455351611E+02  0.32184836009E+01  0.71526579112E+02  0.00000000000E+00 0.  1.
         21    1    1    2  505  502 -0.11550923164E+02 -0.45418958315E+02  0.18382621776E+00  0.46865119144E+02  0.00000000000E+00 0.  1.
          2    1    1    2  501    0 -0.10546119303E+01  0.10298596580E+03  0.86801636770E+03  0.87410504858E+03  0.00000000000E+00 0. -1.
<scales pt_clust_3="69.78944" pt_clust_4="30.00246" pt_clust_5="30.00246" pt_clust_6="102.35458"></scales>
<clustering>
<clus scale="   30.002">  4  5 -1 -1</clus>
<clus scale="   69.789">  2  3  1 -1</clus>
<clus scale="  102.355">  1  6  2 -1</clus>
<clus scale="   69.789">  2  3  1 -1</clus>
</clustering>
</event>
<event>
 6    0  0.4017242E+002  0.1268300E+03  0.7546771E-02  0.1232237E+00
         21   -1    0    0  505  502  0.00000000000E+00  0.00000000000E+00  0.68527516430E+02  0.68527516430E+02  0.00000000000E+00 0. -1.
          2   -1    0    0  503    0 -0.00000000000E+00 -0.00000000000E+00 -0.21595437504E+04  0.21595437504E+04  0.00000000000E+00 0.  1.
         21    1    1    2  503  502  0.57456517413E+02  0.84316801363E+02  0.19578936206E+02  0.10389373960E+03  0.00000000000E+00 0. -1.
         21    1    1    2  504  501 -0.34142075285E+02 -0.77959751971E+02 -0.10603175669E+04  0.10637277597E+04  0.00000000000E+00 0. -1.
         21    1    1    2  505  504 -0.21944183666E+02  0.26127333212E+02 -0.55556637356E+02  0.65197581948E+02  0.00000000000E+00 0. -1.
          2    1    1    2  501    0 -0.13702584623E+01 -0.32484382603E+02 -0.99472096598E+03  0.99525218557E+03  0.00000000000E+00 0.  1.
<scales pt_clust_3="115.45490" pt_clust_4="32.44779" pt_clust_5="34.12015" pt_clust_6="32.44779"></scales>
<clustering>
<clus scale="   32.448">  4  6 -1 -1</clus>
<clus scale="   34.120">  1  5  2 -1</clus>
<clus scale="  115.455">  1  3  2 -1</clus>
<clus scale="   34.120">  1  3  2 -1</clus>
</clustering>
</event>
<event>
 6    0  0.4017242E+002  0.9585888E+02  0.7546771E-02  0.1289253E+00
         -3   -1    0    0    0  501 -0.00000000000E+00  0.00000000000E+00  0.13857132510E+03  0.13857132510E+03  0.00000000000E+00 0.  1.
         21   -1    0    0  504  502  0.00000000000E+00 -0.00000000000E+00 -0.17856913726E+04  0.17856913726E+04  0.00000000000E+00 0.  1.
         21    1    1    2  503  505 -0.66112169843E+02  0.85647390017E+02 -0.48701057284E+03  0.49888434779E+03  0.00000000000E+00 0.  1.
         21    1    1    2  504  501  0.24206553503E+02  0.42154003870E+02 -0.99907658003E+03  0.10002584316E+04  0.00000000000E+00 0.  1.
         21    1    1    2  505  502  0.43894101026E+01 -0.39935695913E+02 -0.27413654319E+03  0.27706492207E+03  0.00000000000E+00 0. -1.
         -3    1    1    2    0  503  0.37516206237E+02 -0.87865697974E+02  0.11310364851E+03  0.14805499626E+03  0.00000000000E+00 0.  1.
<scales pt_clust_3="95.85888" pt_clust_4="31.33845" pt_clust_5="40.17620" pt_clust_6="14000.00000"></scales>
<clustering>
<clus scale="   40.176">  2  5  1 -1</clus>
<clus scale="   31.338">  2  4  1 -1</clus>
<clus scale="   95.859">  2  3  1 -1</clus>
<clus scale="   40.176">  2  3  1 -1</clus>
</clustering>
</event>
<event>
 6    0  0.4017242E+002  0.1333199E+03  0.7546771E-02  0.1222611E+00
         21   -1    0    0  504  502  0.00000000000E+00  0.00000000000E+00  0.19200181006E+03  0.19200181006E+03  0.00000000000E+00 0. -1.
          2   -1    0    0  503    0 -0.00000000000E+00 -0.00000000000E+00 -0.38333257722E+04  0.38333257722E+04  0.00000000000E+00 0.  1.
         21    1    1    2  503  505 -0.23170219591E+02  0.32465796187E+02 -0.19446298805E+03  0.19851131131E+03  0.00000000000E+00 0. -1.
         21    1    1    2  504  501 -0.31455051837E+02 -0.54416572074E+01  0.10076086188E+03  0.10569665655E+03  0.00000000000E+00 0. -1.
         21    1    1    2  505  502  0.95060524546E+02 -0.11209223179E+03  0.23427079681E+02  0.14882876004E+03  0.00000000000E+00 0. -1.
          2    1    1    2  501    0 -0.40435253118E+02  0.85068092808E+02 -0.35710489157E+04  0.35722908544E+04  0.00000000000E+00 0.  1.
<scales pt_clust_3="40.20692" pt_clust_4="31.92228" pt_clust_5="133.31989" pt_clust_6="14000.00000"></scales>
<clustering>
<clus scale="   31.922">  1  4  2 -1</clus>
<clus scale="   40.207">  2  3  1 -1</clus>
<clus scale="  133.320">  1  5  2 -1</clus>
<clus scale="   31.922">  1  3  2 -1</clus>
</clustering>
</event>
<event>
 6    0  0.4017242E+002  0.1190589E+03  0.7546771E-02  0.1244658E+00
         21   -1    0    0  505  502  0.00000000000E+00  0.00000000000E+00  0.21335612628E+03  0.21335612628E+03  0.00000000000E+00 0.  1.
          2   -1    0    0  503    0 -0.00000000000E+00 -0.00000000000E+00 -0.20560387765E+03  0.20560387765E+03  0.00000000000E+00 0.  1.
         21    1    1    2  503  502 -0.30107058639E+01  0.42816236361E+02  0.33791863253E+02  0.54627689572E+02  0.00000000000E+00 0.  1.
         21    1    1    2  504  501  0.68324162501E+02  0.24742235897E+02 -0.87182378741E+02  0.11349509497E+03  0.00000000000E+00 0.  1.
         21    1    1    2  505  504 -0.78677443910E+02 -0.10900208302E+03  0.11823900686E+03  0.17903088288E+03  0.00000000000E+00 0.  1.
          2    1    1    2  501    0  0.13363987273E+02  0.41443610765E+02 -0.57096242738E+02  0.71806336516E+02  0.00000000000E+00 0.  1.
<scales pt_clust_3="42.92196" pt_clust_4="38.44752" pt_clust_5="108.20466" pt_clust_6="38.44752"></scales>
<clustering>
<clus scale="   38.448">  4  6 -1 -1</clus>
<clus scale="   42.922">  1  3  2 -1</clus>
<clus scale="  108.205">  1  5  2 -1</clus>
<clus scale="   42.922">  1  3  2 -1</clus>
</clustering>
</event>
<event>
 6    0  0.4017242E+002  0.2367531E+03  0.7546771E-02  0.1121975E+00
          2   -1    0    0  505    0 -0.00000000000E+00  0.00000000000E+00  0.46638488094E+03  0.46638488094E+03  0.00000000000E+00 0. -1.
         21   -1    0    0  504  502  0.00000000000E+00 -0.00000000000E+00 -0.20202633959E+03  0.20202633959E+03  0.00000000000E+00 0. -1.
         21    1    1    2  503  502 -0.76164685192E+02 -0.85583209795E+02  0.12097761365E+02  0.11520373648E+03  0.00000000000E+00 0. -1.
         21    1    1    2  504  501 -0.65875970568E+01  0.37615821131E+02 -0.41869889085E+02  0.56669516024E+02  0.00000000000E+00 0. -1.
         21    1    1    2  505  503 -0.12576125624E+03 -0.33354715011E+02  0.40754587706E+01  0.13017311531E+03  0.00000000000E+00 0. -1.
          2    1    1    2  501    0  0.20851353849E+03  0.81322103675E+02  0.29005521030E+03  0.36636485272E+03  0.00000000000E+00 0. -1.
<scales pt_clust_3="64.41338" pt_clust_4="38.18830" pt_clust_5="64.41338" pt_clust_6="225.88515"></scales>
<clustering>
<clus scale="   38.188">  2  4  1 -1</clus>
<clus scale="   64.413">  3  5 -1 -1</clus>
<clus scale="  225.885">  1  6  2 -1</clus>
<clus scale="   38.188">  2  3  1 -1</clus>
</clustering>
</event>
<event>
 6    0  0.4017242E+002  0.7709006E+02  0.7546771E-02  0.1337518E+00
          2   -1    0    0  505    0 -0.00000000000E+00  0.00000000000E+00  0.35449691378E+04  0.35449691378E+04  0.00000000000E+00 0. -1.
         21   -1    0    0  503  502  0.00000000000E+00 -0.00000000000E+00 -0.39844006578E+02  0.39844006578E+02  0.00000000000E+00 0. -1.
         21    1    1    2  503  504  0.27950032802E+02  0.41760472064E+02  0.64133238898E+02  0.81475233612E+02  0.00000000000E+00 0. -1.
         21    1    1    2  504  501  0.35039633015E+02 -0.87131730196E+02  0.83462421967E+02  0.12564111656E+03  0.00000000000E+00 0. -1.
         21    1    1    2  505  502 -0.89950083078E+02  0.28286309426E+01  0.19498633017E+03  0.21475261943E+03  0.00000000000E+00 0. -1.
          2    1    1    2  501    0  0.26960417261E+02  0.42542627190E+02  0.31625431402E+04  0.31629441748E+04  0.00000000000E+00 0. -1.
<scales pt_clust_3="50.25078" pt_clust_4="77.09006" pt_clust_5="14000.00000" pt_clust_6="50.68919"></scales>
<clustering>
<clus scale="   50.251">  2  3  1 -1</clus>
<clus scale="   50.689">  1  6  2 -1</clus>
<clus scale="   77.090">  2  4  1 -1</clus>
<clus scale="   50.251">  2  3  1 -1</clus>
</clustering>
</event>
<event>
 6    0  0.4017242E+002  0.1600033E+03  0.7546771E-02  0.1188693E+00
         -1   -1    0    0    0  501 -0.00000000000E+00  0.00000000000E+00  0.59075259111E+02  0.59075259111E+02  0.00000000000E+00 0. -1.
         21   -1    0    0  504  502  0.00000000000E+00 -0.00000000000E+00 -0.48154223662E+03  0.48154223662E+03  0.00000000000E+00 0. -1.
         21    1    1    2  503  502  0.49316829742E+01  0.53809477396E+02 -0.74414078878E+02  0.91963234447E+02  0.00000000000E+00 0. -1.
         21    1    1    2  504  505 -0.27701376342E+02 -0.10348862018E+03 -0.15086319298E+03  0.18503233164E+03  0.00000000000E+00 0. -1.
         21    1    1    2  505  501 -0.23019938959E+02 -0.33313978598E+02 -0.15440460693E+03  0.15962619271E+03  0.00000000000E+00 0. -1.
         -1    1    1    2    0  503  0.45789632326E+02  0.82993121385E+02 -0.42785098725E+02  0.10399573693E+03  0.00000000000E+00 0. -1.
<scales pt_clust_3="43.87405" pt_clust_4="40.37823" pt_clust_5="40.37823" pt_clust_6="157.04863"></scales>
<clustering>
<clus scale="   40.378">  4  5 -1 -1</clus>
<clus scale="   43.874">  3  6 -1 -1</clus>
<clus scale="  157.049">  1  3  2 -1</clus>
<clus scale="  160.003">  2  3  1 -1</clus>
</clustering>
</event>
<event>
 6    0  0.4017242E+002  0.7923854E+02  0.7546771E-02  0.1331226E+00
         21   -1    0    0  503  502  0.00000000000E+00  0.00000000000E+00  0.12225737828E+03  0.12225737828E+03  0.00000000000E+00 0. -1.
          1   -1    0    0  505    0 -0.00000000000E+00 -0.00000000000E+00 -0.68021944157E+03  0.68021944157E+03  0.00000000000E+00 0.  1.
         21    1    1    2  503  501 -0.33787833585E+01 -0.38130772699E+02 -0.30297457497E+02  0.48819134920E+02  0.00000000000E+00 0.  1.
         21    1    1    2  504  502 -0.33231057606E+02 -0.85423642186E+01  0.20391248217E+02  0.39913383468E+02  0.00000000000E+00 0. -1.
         21    1    1    2  505  504  0.32237003620E+02  0.12437416333E+03  0.28791874663E+02  0.13167053183E+03  0.00000000000E+00 0. -1.
          1    1    1    2  501    0  0.43728373441E+01 -0.77701026415E+02 -0.57684772867E+03  0.58207376962E+03  0.00000000000E+00 0.  1.
<scales pt_clust_3="39.56455" pt_clust_4="34.31144" pt_clust_5="79.23854" pt_clust_6="14000.00000"></scales>
<clustering>
<clus scale="   34.311">  1  4  2 -1</clus>
<clus scale="   39.565">  1  3  2 -1</clus>
<clus scale="   79.239">  1  5  2 -1</clus>
<clus scale="   34.311">  1  3  2 -1</clus>
</clustering>
</event>
<event>
 6    0  0.4017242E+002  0.1575255E+03  0.7546771E-02  0.1191519E+00
         21   -1    0    0  505  502  0.00000000000E+00  0.00000000000E+00  0.19572080315E+03  0.19572080315E+03  0.00000000000E+00 0.  1.
          2   -1    0    0  503    0 -0.00000000000E+00 -0.00000000000E+00 -0.60902475799E+03  0.60902475799E+03  0.00000000000E+00 0.  1.
         21    1    1    2  503  502 -0.10435771926E+02 -0.53556215877E+02 -0.45517943333E+02  0.71056715095E+02  0.00000000000E+00 0.  1.
         21    1    1    2  504  501 -0.58211435956E+02 -0.30957365879E+02 -0.18297362117E+03  0.19448978334E+03  0.00000000000E+00 0.  1.
         21    1    1    2  505  504  0.12343376594E+03  0.86232647478E+02  0.14251006527E+03  0.20731879502E+03  0.00000000000E+00 0.  1.
          2    1    1    2  501    0 -0.54786558056E+02 -0.17190657223E+01 -0.32732245562E+03  0.33188026769E+03  0.00000000000E+00 0.  1.
<scales pt_clust_3="54.56348" pt_clust_4="48.48025" pt_clust_5="148.28090" pt_clust_6="48.48025"></scales>
<clustering>
<clus scale="   48.480">  4  6 -1 -1</clus>
<clus scale="   54.563">  2  3  1 -1</clus>
<clus scale="  148.281">  1  5  2 -1</clus>
<clus scale="  148.281">  1  3  2 -1</clus>
</clustering>
</event>
<event>
 6    0  0.4017242E+002  0.9501816E+02  0.7546771E-02  0.1291135E+00
          1   -1    0    0  505    0 -0.00000000000E+00  0.00000000000E+00  0.84130039565E+03  0.84130039565E+03  0.00000000000E+00 0. -1.
         21   -1    0    0  501  502  0.00000000000E+00 -0.00000000000E+00 -0.15977713619E+03  0.15977713619E+03  0.00000000000E+00 0. -1.
         21    1    1    2  503  504 -0.83224883150E+02 -0.10653288588E+02 -0.31611154388E+02  0.89661244776E+02  0.00000000000E+00 0. -1.
         21    1    1    2  504  502  0.28211444976E+02 -0.77722522412E+02 -0.54203071796E+02  0.98866825123E+02  0.00000000000E+00 0. -1.
         21    1    1    2  505  503  0.84664440883E+02  0.70273284110E+02  0.11453324760E+03  0.15882149356E+03  0.00000000000E+00 0. -1.
          1    1    1    2  501    0 -0.29651002709E+02  0.18102526891E+02  0.65280423804E+03  0.65372796838E+03  0.00000000000E+00 0. -1.
<scales pt_clust_3="95.01816" pt_clust_4="79.50351" pt_clust_5="14000.00000" pt_clust_6="34.74023"></scales>
<clustering>
<clus scale="   34.740">  1  6  2 -1</clus>
<clus scale="   79.504">  2  4  1 -1</clus>
<clus scale="   95.018">  2  3  1 -1</clus>
<clus scale="   79.504">  2  3  1 -1</clus>
</clustering>
</event>
<event>
 6    0  0.4017242E+002  0.2123769E+03  0.7546771E-02  0.1139697E+00
         -1   -1    0    0    0  501 -0.00000000000E+00  0.00000000000E+00  0.20796150490E+03  0.20796150490E+03  0.00000000000E+00 0. -1.
         21   -1    0    0  504  502  0.00000000000E+00 -0.00000000000E+00 -0.12999519646E+04  0.12999519646E+04  0.00000000000E+00 0.  1.
         21    1    1    2  503  502  0.37657466490E+02 -0.31580267564E+02 -0.94838779092E+02  0.10681662839E+03  0.00000000000E+00 0. -1.
         21    1    1    2  504  505  0.46956946527E+02 -0.16025738762E+02 -0.50849833614E+03  0.51091323822E+03  0.00000000000E+00 0.  1.
         21    1    1    2  505  501 -0.11206086717E+03 -0.16618115073E+03 -0.61051723749E+03  0.64257692931E+03  0.00000000000E+00 0.  1.
         -1    1    1    2    0  503  0.27446454152E+02  0.21378715706E+03  0.12186389303E+03  0.24760667357E+03  0.00000000000E+00 0. -1.
<scales pt_clust_3="49.14670" pt_clust_4="69.51050" pt_clust_5="212.37689" pt_clust_6="14000.00000"></scales>
<clustering>
<clus scale="   49.147">  2  3  1 -1</clus>
<clus scale="   69.511">  2  4  1 -1</clus>
<clus scale="  212.377">  2  5  1 -1</clus>
<clus scale="   49.147">  2  3  1 -1</clus>
</clustering>
</event>
<event>
 6    0  0.4017242E+002  0.1609584E+03  0.7546771E-02  0.1187619E+00
         21   -1    0    0  503  502  0.00000000000E+00  0.00000000000E+00  0.24893877586E+03  0.24893877586E+03  0.00000000000E+00 0. -1.
          2   -1    0    0  504    0 -0.00000000000E+00 -0.00000000000E+00 -0.73858230725E+03  0.73858230725E+03  0.00000000000E+00 0.  1.
         21    1    1    2  503  501 -0.34140025790E+02  0.28282579437E+02  0.64985463080E+02  0.78667376162E+02  0.00000000000E+00 0. -1.
         21    1    1    2  504  505 -0.92970061980E+02 -0.33739950969E+02  0.25405006480E+01  0.98935690524E+02  0.00000000000E+00 0.  1.
         21    1    1    2  505  502 -0.41356840811E+02 -0.41322597126E+02  0.10764522201E+03  0.12249669031E+03  0.00000000000E+00 0. -1.
          2    1    1    2  501    0  0.16846692858E+03  0.46779968658E+02 -0.66481471712E+03  0.68742132612E+03  0.00000000000E+00 0.  1.
<scales pt_clust_3="44.33335" pt_clust_4="160.95835" pt_clust_5="67.55465" pt_clust_6="14000.00000"></scales>
<clustering>
<clus scale="   44.333">  1  3  2 -1</clus>
<clus scale="   67.555">  1  5  2 -1</clus>
<clus scale="  160.958">  1  4  2 -1</clus>
<clus scale="   44.333">  1  3  2 -1</clus>
</clustering>
</event>
<event>
 6    0  0.7924747E+002  0.8531886E+02  0.7546771E-02  0.1314601E+00
         21   -1    0    0  505  502  0.00000000000E+00  0.00000000000E+00  0.33105628390E+03  0.33105628390E+03  0.00000000000E+00 0. -1.
          2   -1    0    0  503    0 -0.00000000000E+00 -0.00000000000E+00 -0.19862679642E+04  0.19862679642E+04  0.00000000000E+00 0.  1.
         21    1    1    2  503  504  0.95799505537E+02  0.70630195934E+02 -0.83345719004E+02  0.14530202585E+03  0.00000000000E+00 0.  1.
         21    1    1    2  504  502 -0.16450198278E+02 -0.68432280084E+02  0.28504162944E+03  0.29360231010E+03  0.00000000000E+00 0. -1.
         21    1    1    2  505  501 -0.32692190020E+02  0.67083010422E+01 -0.16196248725E+02  0.37095809251E+02  0.00000000000E+00 0. -1.
          2    1    1    2  501    0 -0.46657117239E+02 -0.89062168916E+01 -0.18407113420E+04  0.18413241029E+04  0.00000000000E+00 0.  1.
<scales pt_clust_3="85.31886" pt_clust_4="14000.00000" pt_clust_5="33.37335" pt_clust_6="47.52904"></scales>
<clustering>
<clus scale="   33.373">  1  5  2 -1</clus>
<clus scale="   47.529">  2  6  1 -1</clus>
<clus scale="   85.319">  2  3  1 -1</clus>
<clus scale="   33.373">  1  3  2 -1</clus>
</clustering>
</event>
<event>
 6    0  0.4017242E+002  0.7269653E+02  0.7546771E-02  0.1351156E+00
         21   -1    0    0  505  502  0.00000000000E+00  0.00000000000E+00  0.25665372983E+03  0.25665372983E+03  0.00000000000E+00 0. -1.
          2   -1    0    0  503    0 -0.00000000000E+00 -0.00000000000E+00 -0.17485760572E+04  0.17485760572E+04  0.00000000000E+00 0. -1.
         21    1    1    2  503  502  0.45205651054E+02 -0.20133799750E+02  0.11352380068E+03  0.12384092256E+03  0.00000000000E+00 0. -1.
         21    1    1    2  504  501  0.65756077862E+02 -0.36394655002E+02  0.13817207330E+01  0.75168755748E+02  0.00000000000E+00 0. -1.
         21    1    1    2  505  504 -0.66083688013E+02 -0.74946277921E+00  0.87876645592E+02  0.10995417389E+03  0.00000000000E+00 0. -1.
          2    1    1    2  501    0 -0.44878040903E+02  0.57277917531E+02 -0.16947044943E+04  0.16962659348E+04  0.00000000000E+00 0. -1.
<scales pt_clust_3="49.48657" pt_clust_4="72.69653" pt_clust_5="36.93949" pt_clust_6="14000.00000"></scales>
<clustering>
<clus scale="   49.487">  1  3  2 -1</clus>
<clus scale="   36.939">  1  5  2 -1</clus>
<clus scale="   72.697">  1  4  2 -1</clus>
<clus scale="   49.487">  1  3  2 -1</clus>
</clustering>
</event>
<event>
 6    0  0.4017242E+002  0.1195433E+03  0.7546771E-02  0.1243852E+00
         21   -1    0    0  505  502  0.00000000000E+00  0.00000000000E+00  0.11721923098E+04  0.11721923098E+04  0.00000000000E+00 0.  1.
          1   -1    0    0  504    0 -0.00000000000E+00 -0.00000000000E+00 -0.49250704851E+03  0.49250704851E+03  0.00000000000E+00 0. -1.
         21    1    1    2  503  501 -0.49133651505E+02  0.73641269717E+02 -0.10383304991E+03  0.13644945793E+03  0.00000000000E+00 0. -1.
         21    1    1    2  504  502 -0.47170546325E+02 -0.43957780220E+02  0.75379981732E+03  0.75655238515E+03  0.00000000000E+00 0.  1.
         21    1    1    2  505  503  0.14507460539E+03 -0.30421528383E+02  0.38527751215E+03  0.41280851722E+03  0.00000000000E+00 0. -1.
          1    1    1    2  501    0 -0.48770407559E+02  0.73803888595E+00 -0.35555901832E+03  0.35888899797E+03  0.00000000000E+00 0. -1.
<scales pt_clust_3="14000.00000" pt_clust_4="64.83626" pt_clust_5="119.54328" pt_clust_6="48.77599"></scales>
<clustering>
<clus scale="   48.776">  2  6  1 -1</clus>
<clus scale="   64.836">  1  4  2 -1</clus>
<clus scale="  119.543">  1  5  2 -1</clus>
<clus scale="   64.836">  1  3  2 -1</clus>
</clustering>
</event>
<event>
 6    0  0.4017242E+002  0.1378484E+03  0.7546771E-02  0.1216254E+00
         21   -1    0    0  503  502  0.00000000000E+00  0.00000000000E+00  0.12450232543E+04  0.12450232543E+04  0.00000000000E+00 0.  1.
          3   -1    0    0  505    0 -0.00000000000E+00 -0.00000000000E+00 -0.12512874134E+03  0.12512874134E+03  0.00000000000E+00 0.  1.
         21    1    1    2  503  501 -0.27202839943E+02  0.26539589443E+02  0.27869908023E+03  0.28127837036E+03  0.00000000000E+00 0. -1.
         21    1    1    2  504  502 -0.10442278675E+02 -0.75135846026E+02  0.50933533114E+03  0.51495331447E+03  0.00000000000E+00 0. -1.
         21    1    1    2  505  504  0.30762576422E+02 -0.79532249775E+02  0.41325956593E+03  0.42196585608E+03  0.00000000000E+00 0.  1.
          3    1    1    2  501    0  0.68825421956E+01  0.12812850636E+03 -0.81399464316E+02  0.15195445475E+03  0.00000000000E+00 0.  1.
<scales pt_clust_3="38.00453" pt_clust_4="46.33852" pt_clust_5="46.33852" pt_clust_6="129.23289"></scales>
<clustering>
<clus scale="   38.005">  1  3  2 -1</clus>
<clus scale="   46.339">  4  5 -1 -1</clus>
<clus scale="  129.233">  2  6  1 -1</clus>
<clus scale="   38.005">  1  3  2 -1</clus>
</clustering>
</event>
<event>
 6    0  0.4017242E+002  0.1081889E+03  0.7546771E-02  0.1263961E+00
         21   -1    0    0  501  502  0.00000000000E+00  0.00000000000E+00  0.27840935435E+02  0.27840935435E+02  0.00000000000E+00 0.  1.
          2   -1    0    0  505    0 -0.00000000000E+00 -0.00000000000E+00 -0.28314534809E+04  0.28314534809E+04  0.00000000000E+00 0.  1.
         21    1    1    2  503  504 -0.33829160902E+02  0.41780720703E+02 -0.76931126141E+02  0.93853284008E+02  0.00000000000E+00 0.  1.
         21    1    1    2  504  502  0.16442652381E+02 -0.98013670443E+02 -0.15240310468E+03  0.18194435064E+03  0.00000000000E+00 0.  1.
         21    1    1    2  505  503 -0.30999617505E+02  0.46582729348E+02 -0.17535268191E+03  0.18406382049E+03  0.00000000000E+00 0.  1.
          2    1    1    2  501    0  0.48386126026E+02  0.96502203917E+01 -0.23989256327E+04  0.23994329612E+04  0.00000000000E+00 0.  1.
<scales pt_clust_3="38.96066" pt_clust_4="100.62258" pt_clust_5="38.96066" pt_clust_6="49.33907"></scales>
<clustering>
<clus scale="   38.961">  3  5 -1 -1</clus>
<clus scale="   49.339">  2  6  1 -1</clus>
<clus scale="  100.623">  1  4  2 -1</clus>
<clus scale="  100.623">  1  3  2 -1</clus>
</clustering>
</event>
<event>
 6    0  0.4017242E+002  0.1532428E+03  0.7546771E-02  0.1196544E+00
          2   -1    0    0  505    0 -0.00000000000E+00  0.00000000000E+00  0.13560323430E+04  0.13560323430E+04  0.00000000000E+00 0.  1.
         21   -1    0    0  504  502  0.00000000000E+00 -0.00000000000E+00 -0.45574415455E+03  0.45574415455E+03  0.00000000000E+00 0.  1.
         21    1    1    2  503  501 -0.13050500892E+03 -0.22311149499E+03 -0.30005685605E+02  0.26021267786E+03  0.00000000000E+00 0.  1.
         21    1    1    2  504  503 -0.50841440568E+02  0.38377762975E+02 -0.10933505849E+02  0.64631620126E+02  0.00000000000E+00 0.  1.
         21    1    1    2  505  502  0.45346720600E+02  0.11877173515E+03 -0.25301621206E+03  0.28316117973E+03  0.00000000000E+00 0.  1.
          2    1    1    2  501    0  0.13599972889E+03  0.65961996862E+02  0.11942435919E+04  0.12037710198E+04  0.00000000000E+00 0.  1.
<scales pt_clust_3="153.24277" pt_clust_4="63.70012" pt_clust_5="143.95249" pt_clust_6="14000.00000"></scales>
<clustering>
<clus scale="   63.700">  2  4  1 -1</clus>
<clus scale="  143.952">  2  5  1 -1</clus>
<clus scale="  153.243">  2  3  1 -1</clus>
<clus scale="   63.700">  2  3  1 -1</clus>
</clustering>
</event>
<event>
 6    0  0.4017242E+002  0.8566132E+02  0.7546771E-02  0.1313712E+00
          2   -1    0    0  505    0 -0.00000000000E+00  0.00000000000E+00  0.20649114378E+04  0.20649114378E+04  0.00000000000E+00 0.  1.
         21   -1    0    0  504  502  0.00000000000E+00 -0.00000000000E+00 -0.66361554409E+02  0.66361554409E+02  0.00000000000E+00 0. -1.
         21    1    1    2  503  501 -0.87805315025E+02  0.19191692936E+02  0.18997839382E+03  0.21016632590E+03  0.00000000000E+00 0. -1.
         21    1    1    2  504  503 -0.28156323540E+02 -0.28569967515E+02 -0.39829954481E+02  0.56528283833E+02  0.00000000000E+00 0. -1.
         21    1    1    2  505  502  0.41934509152E+02  0.52412283031E+02  0.15373182540E+03  0.16774690641E+03  0.00000000000E+00 0.  1.
          2    1    1    2  501    0  0.74027129413E+02 -0.43034008452E+02  0.16946696187E+04  0.16968314761E+04  0.00000000000E+00 0.  1.
<scales pt_clust_3="14000.00000" pt_clust_4="40.11261" pt_clust_5="51.77091" pt_clust_6="85.66132"></scales>
<clustering>
<clus scale="   40.113">  2  4  1 -1</clus>
<clus scale="   51.771">  2  5  1 -1</clus>
<clus scale="   85.661">  1  6  2 -1</clus>
<clus scale="   40.113">  2  3  1 -1</clus>
</clustering>
</event>
<event>
 6    0  0.4017242E+002  0.1713077E+03  0.7546771E-02  0.1176491E+00
          2   -1    0    0  504    0 -0.00000000000E+00  0.00000000000E+00  0.15095330871E+04  0.15095330871E+04  0.00000000000E+00 0.  1.
         21   -1    0    0  503  502  0.00000000000E+00 -0.00000000000E+00 -0.29645236459E+03  0.29645236459E+03  0.00000000000E+00 0. -1.
         21    1    1    2  503  501 -0.49468235399E+02  0.14376091901E+03 -0.23396259429E+03  0.27902115274E+03  0.00000000000E+00 0. -1.
         21    1    1    2  504  505  0.30258854630E+02 -0.22053282998E+02  0.69284262844E+02  0.78754394496E+02  0.00000000000E+00 0. -1.
         21    1    1    2  505  502  0.29473885482E+02 -0.17778150483E+03  0.20054680867E+03  0.26961824095E+03  0.00000000000E+00 0. -1.
          2    1    1    2  501    0 -0.10264504714E+02  0.56073868819E+02  0.11772122453E+04  0.11785916635E+04  0.00000000000E+00 0.  1.
<scales pt_clust_3="155.86395" pt_clust_4="32.40106" pt_clust_5="32.40106" pt_clust_6="57.00560"></scales>
<clustering>
<clus scale="   32.401">  4  5 -1 -1</clus>
<clus scale="   57.006">  1  6  2 -1</clus>
<clus scale="  155.864">  2  3  1 -1</clus>
<clus scale="  155.864">  2  3  1 -1</clus>
</clustering>
</event>
<event>
 6    0  0.4017242E+002  0.1368747E+03  0.7546771E-02  0.1217597E+00
         21   -1    0    0  504  502  0.00000000000E+00  0.00000000000E+00  0.49066128047E+03  0.49066128047E+03  0.00000000000E+00 0. -1.
          1   -1    0    0  505    0 -0.00000000000E+00 -0.00000000000E+00 -0.37226880317E+03  0.37226880317E+03  0.00000000000E+00 0. -1.
         21    1    1    2  503  502  0.10474388445E+03 -0.98104981991E+02  0.20686485936E+03  0.25177160058E+03  0.00000000000E+00 0. -1.
         21    1    1    2  504  501 -0.40196532158E+02  0.36429994166E+02  0.42680413522E+02  0.69025526951E+02  0.00000000000E+00 0. -1.
         21    1    1    2  505  503 -0.91335471668E+02 -0.76139272856E+02  0.17139158592E+03  0.20860113369E+03  0.00000000000E+00 0. -1.
          1    1    1    2  501    0  0.26788119380E+02  0.13781426068E+03 -0.30254438150E+03  0.33353182242E+03  0.00000000000E+00 0. -1.
<scales pt_clust_3="114.90668" pt_clust_4="54.24855" pt_clust_5="14000.00000" pt_clust_6="136.87474"></scales>
<clustering>
<clus scale="   54.249">  1  4  2 -1</clus>
<clus scale="  114.907">  1  3  2 -1</clus>
<clus scale="  136.875">  2  6  1 -1</clus>
<clus scale="   54.249">  1  3  2 -1</clus>
</clustering>
</event>
<event>
 6    0  0.4017242E+002  0.8626631E+02  0.7546771E-02  0.1312154E+00
          2   -1    0    0  502    0 -0.00000000000E+00  0.00000000000E+00  0.62740264727E+03  0.62740264727E+03  0.00000000000E+00 0. -1.
         21   -1    0    0  505  502  0.00000000000E+00 -0.00000000000E+00 -0.47554655615E+03  0.47554655615E+03  0.00000000000E+00 0.  1.
         21    1    1    2  503  501 -0.37677004126E+02  0.62106173043E+02 -0.16754340675E+03  0.18261305133E+03  0.00000000000E+00 0.  1.
         21    1    1    2  504  503  0.18621697124E+02  0.62173509665E+02 -0.52408898273E+02  0.83420654074E+02  0.00000000000E+00 0.  1.
         21    1    1    2  505  504 -0.15055141473E+02 -0.44766717667E+02 -0.22701389902E+03  0.23187502376E+03  0.00000000000E+00 0.  1.
          2    1    1    2  501    0  0.34110448475E+02 -0.79512965041E+02  0.59882229517E+03  0.60504047426E+03  0.00000000000E+00 0. -1.
<scales pt_clust_3="86.26631" pt_clust_4="51.87763" pt_clust_5="47.23046" pt_clust_6="14000.00000"></scales>
<clustering>
<clus scale="   47.230">  2  5  1 -1</clus>
<clus scale="   51.878">  2  4  1 -1</clus>
<clus scale="   86.266">  2  3  1 -1</clus>
<clus scale="   47.230">  2  3  1 -1</clus>
</clustering>
</event>
<event>
 6    0  0.4017242E+002  0.7795901E+02  0.7546771E-02  0.1334945E+00
          2   -1    0    0  505    0 -0.00000000000E+00  0.00000000000E+00  0.38513003759E+04  0.38513003759E+04  0.00000000000E+00 0. -1.
         21   -1    0    0  501  502  0.00000000000E+00 -0.00000000000E+00 -0.23250474105E+03  0.23250474105E+03  0.00000000000E+00 0. -1.
         21    1    1    2  503  502  0.58358120974E+01  0.49367332994E+02 -0.22460495150E+03  0.23004037582E+03  0.00000000000E+00 0. -1.
         21    1    1    2  504  503 -0.52142279667E+02  0.13205855475E+02  0.23320399455E+03  0.23932679545E+03  0.00000000000E+00 0. -1.
         21    1    1    2  505  504 -0.35065011862E+02 -0.83554531342E+02  0.17504564930E+04  0.17528002877E+04  0.00000000000E+00 0. -1.
          2    1    1    2  501    0  0.81371479431E+02  0.20981342873E+02  0.18597400989E+04  0.18616376580E+04  0.00000000000E+00 0. -1.
<scales pt_clust_3="49.71107" pt_clust_4="64.54786" pt_clust_5="77.95901" pt_clust_6="14000.00000"></scales>
<clustering>
<clus scale="   49.711">  2  3  1 -1</clus>
<clus scale="   64.548">  2  4  1 -1</clus>
<clus scale="   77.959">  2  5  1 -1</clus>
<clus scale="   49.711">  2  3  1 -1</clus>
</clustering>
</event>
<event>
 6    0  0.4017242E+002  0.1486215E+03  0.7546771E-02  0.1202177E+00
          2   -1    0    0  503    0 -0.00000000000E+00  0.00000000000E+00  0.25956254661E+04  0.25956254661E+04  0.00000000000E+00 0. -1.
         21   -1    0    0  501  502  0.00000000000E+00 -0.00000000000E+00 -0.34290378503E+02  0.34290378503E+02  0.00000000000E+00 0. -1.
         21    1    1    2  503  504 -0.25013357621E+02 -0.12843476129E+03  0.39305767997E+03  0.41426500667E+03  0.00000000000E+00 0. -1.
         21    1    1    2  504  505  0.26128762547E+01  0.40518354394E+02  0.11023130537E+03  0.11747129372E+03  0.00000000000E+00 0. -1.
         21    1    1    2  505  502  0.55415911354E+02  0.87017916421E+02  0.11360236936E+03  0.15345533335E+03  0.00000000000E+00 0. -1.
          2    1    1    2  501    0 -0.33015429987E+02  0.89849047871E+00  0.19444437329E+04  0.19447242109E+04  0.00000000000E+00 0. -1.
<scales pt_clust_3="135.72571" pt_clust_4="38.70697" pt_clust_5="38.70697" pt_clust_6="33.02765"></scales>
<clustering>
<clus scale="   33.028">  1  6  2 -1</clus>
<clus scale="   38.707">  4  5 -1 -1</clus>
<clus scale="  135.726">  1  3  2 -1</clus>
<clus scale="  148.622">  2  3  1 -1</clus>
</clustering>
</event>
<event>
 6    0  0.4017242E+002  0.2198416E+03  0.7546771E-02  0.1134001E+00
         21   -1    0    0  505  502  0.00000000000E+00  0.00000000000E+00  0.26883099051E+03  0.26883099051E+03  0.00000000000E+00 0. -1.
          3   -1    0    0  504    0 -0.00000000000E+00 -0.00000000000E+00 -0.54312684953E+03  0.54312684953E+03  0.00000000000E+00 0. -1.
         21    1    1    2  503  502  0.11459229600E+03 -0.64381682102E+01  0.84585752087E+02  0.14257487074E+03  0.00000000000E+00 0. -1.
         21    1    1    2  504  503  0.16656143455E+03  0.41714158654E+02 -0.35861039357E+02  0.17541036644E+03  0.00000000000E+00 0. -1.
         21    1    1    2  505  501 -0.38536330667E+02  0.61263871380E+01  0.39677311535E+02  0.55649532355E+02  0.00000000000E+00 0.  1.
          3    1    1    2  501    0 -0.24261739988E+03 -0.41402377582E+02 -0.36269788328E+03  0.43832307050E+03  0.00000000000E+00 0. -1.
<scales pt_clust_3="94.85915" pt_clust_4="219.84164" pt_clust_5="39.02027" pt_clust_6="14000.00000"></scales>
<clustering>
<clus scale="   39.020">  1  5  2 -1</clus>
<clus scale="   94.859">  1  3  2 -1</clus>
<clus scale="  219.842">  1  4  2 -1</clus>
<clus scale="   39.020">  1  3  2 -1</clus>
</clustering>
</event>
<event>
 6    0  0.4017242E+002  0.2034009E+03  0.7546771E-02  0.1146901E+00
          2   -1    0    0  505    0 -0.00000000000E+00  0.00000000000E+00  0.33491291960E+04  0.33491291960E+04  0.00000000000E+00 0.  1.
         21   -1    0    0  503  502  0.00000000000E+00 -0.00000000000E+00 -0.60847022639E+02  0.60847022639E+02  0.00000000000E+00 0.  1.
         21    1    1    2  503  501  0.37327982176E+02  0.70408452644E+01  0.32410567654E+02  0.49933922848E+02  0.00000000000E+00 0. -1.
         21    1    1    2  504  502 -0.43746611329E+01 -0.47669422811E+02  0.82132158912E+02  0.95064204928E+02  0.00000000000E+00 0. -1.
         21    1    1    2  505  504 -0.23054602294E+03  0.73913113261E+02  0.30574843177E+03  0.38999579554E+03  0.00000000000E+00 0.  1.
          2    1    1    2  501    0  0.19759270190E+03 -0.33284535715E+02  0.28679910150E+04  0.28749822953E+04  0.00000000000E+00 0.  1.
<scales pt_clust_3="37.98620" pt_clust_4="46.79607" pt_clust_5="14000.00000" pt_clust_6="203.40090"></scales>
<clustering>
<clus scale="   37.986">  2  3  1 -1</clus>
<clus scale="   46.796">  2  4  1 -1</clus>
<clus scale="  203.401">  1  6  2 -1</clus>
<clus scale="   37.986">  2  3  1 -1</clus>
</clustering>
</event>
<event>
 6    0  0.4017242E+002  0.8256233E+02  0.7546771E-02  0.1321933E+00
          3   -1    0    0  504    0 -0.00000000000E+00  0.00000000000E+00  0.21430131032E+03  0.21430131032E+03  0.00000000000E+00 0.  1.
         21   -1    0    0  503  502  0.00000000000E+00 -0.00000000000E+00 -0.15580546377E+03  0.15580546377E+03  0.00000000000E+00 0. -1.
         21    1    1    2  503  501  0.27985054825E+02  0.86082204799E+02 -0.38150117639E+01  0.90597260397E+02  0.00000000000E+00 0.  1.
         21    1    1    2  504  505 -0.69933264686E+02 -0.51070189585E+02  0.54065075226E+02  0.10208750234E+03  0.00000000000E+00 0. -1.
         21    1    1    2  505  502 -0.42493834472E+02  0.41671398600E+01 -0.51432786346E+02  0.66846260434E+02  0.00000000000E+00 0. -1.
          3    1    1    2  501    0  0.84442044333E+02 -0.39179155074E+02  0.59678569436E+02  0.11057575093E+03  0.00000000000E+00 0.  1.
<scales pt_clust_3="14000.00000" pt_clust_4="81.83557" pt_clust_5="42.69767" pt_clust_6="82.56233"></scales>
<clustering>
<clus scale="   42.698">  2  5  1 -1</clus>
<clus scale="   82.562">  1  6  2 -1</clus>
<clus scale="   81.836">  1  4  2 -1</clus>
<clus scale="   42.698">  2  3  1 -1</clus>
</clustering>
</event>
<event>
 6    0  0.4017242E+002  0.1658982E+03  0.7546771E-02  0.1182194E+00
          2   -1    0    0  505    0 -0.00000000000E+00  0.00000000000E+00  0.12691946759E+04  0.12691946759E+04  0.00000000000E+00 0.  1.
         21   -1    0    0  504  502  0.00000000000E+00 -0.00000000000E+00 -0.14864590198E+03  0.14864590198E+03  0.00000000000E+00 0. -1.
         21    1    1    2  503  501  0.20951952207E+02 -0.48637032185E+02 -0.26667737874E+02  0.59293451952E+02  0.00000000000E+00 0. -1.
         21    1    1    2  504  503 -0.23587100372E+02 -0.71113787031E+02 -0.60526068744E+02  0.96316805426E+02  0.00000000000E+00 0. -1.
         21    1    1    2  505  502  0.71971620790E+02 -0.25876557422E+02  0.45800423384E+02  0.89147008953E+02  0.00000000000E+00 0.  1.
          2    1    1    2  501    0 -0.69336472625E+02  0.14562737664E+03  0.11619421572E+04  0.11730833116E+04  0.00000000000E+00 0.  1.
<scales pt_clust_3="40.00843" pt_clust_4="40.00843" pt_clust_5="76.48209" pt_clust_6="158.92646"></scales>
<clustering>
<clus scale="   40.008">  3  4 -1 -1</clus>
<clus scale="   76.482">  2  5  1 -1</clus>
<clus scale="  158.926">  1  6  2 -1</clus>
<clus scale="   76.482">  2  3  1 -1</clus>
</clustering>
</event>
<event>
 6    0  0.4017242E+002  0.9320537E+02  0.7546771E-02  0.1295270E+00
         21   -1    0    0  503  502  0.00000000000E+00  0.00000000000E+00  0.17143993362E+03  0.17143993362E+03  0.00000000000E+00 0.  1.
          2   -1    0    0  505    0 -0.00000000000E+00 -0.00000000000E+00 -0.74239189927E+03  0.74239189927E+03  0.00000000000E+00 0.  1.
         21    1    1    2  503  501 -0.36790884841E+02  0.11916955957E+03  0.75994988183E+02  0.14604859247E+03  0.00000000000E+00 0.  1.
         21    1    1    2  504  502 -0.31851299539E+02 -0.13585050810E+02  0.46533954169E+01  0.34938703135E+02  0.00000000000E+00 0.  1.
         21    1    1    2  505  504  0.25238835690E+01 -0.40582306454E+02  0.26435319577E+02  0.48498656750E+02  0.00000000000E+00 0.  1.
          2    1    1    2  501    0  0.66118300812E+02 -0.65002202303E+02 -0.67803566882E+03  0.68434588053E+03  0.00000000000E+00 0.  1.
<scales pt_clust_3="93.20537" pt_clust_4="34.62743" pt_clust_5="44.26278" pt_clust_6="14000.00000"></scales>
<clustering>
<clus scale="   34.627">  1  4  2 -1</clus>
<clus scale="   44.263">  1  5  2 -1</clus>
<clus scale="   93.205">  1  3  2 -1</clus>
<clus scale="   34.627">  1  3  2 -1</clus>
</clustering>
</event>
<event>
 6    0  0.4017242E+002  0.1244796E+03  0.7546771E-02  0.1235885E+00
          3   -1    0    0  505    0 -0.00000000000E+00  0.00000000000E+00  0.31486007858E+03  0.31486007858E+03  0.00000000000E+00 0. -1.
         21   -1    0    0  504  502  0.00000000000E+00 -0.00000000000E+00 -0.14895163448E+03  0.14895163448E+03  0.00000000000E+00 0.  1.
         21    1    1    2  503  502 -0.13940384690E+02 -0.27256301581E+02 -0.84272375156E+01  0.31753088563E+02  0.00000000000E+00 0.  1.
         21    1    1    2  504  501  0.18269198348E+02  0.14238566783E+03  0.32527594103E+02  0.14719200518E+03  0.00000000000E+00 0.  1.
         21    1    1    2  505  503  0.65586820815E+02 -0.10098148113E+03 -0.61947147948E+01  0.12057058135E+03  0.00000000000E+00 0.  1.
          3    1    1    2  501    0 -0.69915634473E+02 -0.14147885113E+02  0.14800280231E+03  0.16429603796E+03  0.00000000000E+00 0. -1.
<scales pt_clust_3="30.61438" pt_clust_4="14000.00000" pt_clust_5="124.47959" pt_clust_6="72.55410"></scales>
<clustering>
<clus scale="   30.614">  2  3  1 -1</clus>
<clus scale="   72.554">  1  6  2 -1</clus>
<clus scale="  124.480">  2  5  1 -1</clus>
<clus scale="   30.614">  2  3  1 -1</clus>
</clustering>
</event>
<event>
 6    0  0.4017242E+002  0.7458485E+02  0.7546771E-02  0.1345161E+00
         21   -1    0    0  505  502  0.00000000000E+00  0.00000000000E+00  0.69373327413E+03  0.69373327413E+03  0.00000000000E+00 0. -1.
         -4   -1    0    0    0  501 -0.00000000000E+00 -0.00000000000E+00 -0.14148569194E+03  0.14148569194E+03  0.00000000000E+00 0. -1.
         21    1    1    2  503  502 -0.88071858019E+02  0.17434933843E+02 -0.23921726983E+02  0.92913282769E+02  0.00000000000E+00 0. -1.
         21    1    1    2  504  501  0.30316074538E+02  0.89347670810E+01 -0.65528903849E+00  0.31612083796E+02  0.00000000000E+00 0. -1.
         21    1    1    2  505  504  0.27736832760E+02  0.45510063827E+02  0.61955758358E+03  0.62184571815E+03  0.00000000000E+00 0. -1.
         -4    1    1    2    0  503  0.30018950721E+02 -0.71879764751E+02 -0.42732985377E+02  0.88847881361E+02  0.00000000000E+00 0. -1.
<scales pt_clust_3="14000.00000" pt_clust_4="31.60529" pt_clust_5="53.51030" pt_clust_6="74.58485"></scales>
<clustering>
<clus scale="   31.605">  2  4  1 -1</clus>
<clus scale="   53.510">  1  5  2 -1</clus>
<clus scale="   74.585">  2  6  1 -1</clus>
<clus scale="   53.510">  1  3  2 -1</clus>
</clustering>
</event>
<event>
 6    0  0.4017242E+002  0.1222275E+03  0.7546771E-02  0.1239467E+00
         21   -1    0    0  503  502  0.00000000000E+00  0.00000000000E+00  0.52659410451E+02  0.52659410451E+02  0.00000000000E+00 0. -1.
          2   -1    0    0  505    0 -0.00000000000E+00 -0.00000000000E+00 -0.10915681780E+04  0.10915681780E+04  0.00000000000E+00 0. -1.
         21    1    1    2  503  504  0.42636092017E+02 -0.65135331699E+02 -0.41142919677E+02  0.88052186899E+02  0.00000000000E+00 0. -1.
         21    1    1    2  504  501 -0.12051733647E+02 -0.46019477432E+02 -0.24070014168E+02  0.53314183564E+02  0.00000000000E+00 0. -1.
         21    1    1    2  505  502 -0.70529017524E+02  0.85728706322E+02 -0.20858683396E+03  0.23628842693E+03  0.00000000000E+00 0.  1.
          2    1    1    2  501    0  0.39944659153E+02  0.25426102810E+02 -0.76510899977E+03  0.76657279108E+03  0.00000000000E+00 0. -1.
<scales pt_clust_3="38.62107" pt_clust_4="38.62107" pt_clust_5="111.79725" pt_clust_6="47.35042"></scales>
<clustering>
<clus scale="   38.621">  3  4 -1 -1</clus>
<clus scale="   47.350">  2  6  1 -1</clus>
<clus scale="  111.797">  2  5  1 -1</clus>
<clus scale="  122.227">  1  3  2 -1</clus>
</clustering>
</event>
<event>
 6    0  0.4017242E+002  0.1201676E+03  0.7546771E-02  0.1242821E+00
         21   -1    0    0  504  502  0.00000000000E+00  0.00000000000E+00  0.14879357417E+04  0.14879357417E+04  0.00000000000E+00 0.  1.
         -1   -1    0    0    0  501 -0.00000000000E+00 -0.00000000000E+00 -0.27814877325E+03  0.27814877325E+03  0.00000000000E+00 0. -1.
         21    1    1    2  503  501  0.70095572969E+02  0.73635918051E+02  0.21737376272E+03  0.23997289534E+03  0.00000000000E+00 0. -1.
         21    1    1    2  504  505 -0.31624082028E+02 -0.34471758091E+02  0.74209602662E+03  0.74356902665E+03  0.00000000000E+00 0.  1.
         21    1    1    2  505  503 -0.66612189077E+02 -0.14051678990E+02  0.51283262623E+03  0.51733155321E+03  0.00000000000E+00 0.  1.
         -1    1    1    2    0  502  0.28140698136E+02 -0.25112480970E+02 -0.26251544716E+03  0.26521103972E+03  0.00000000000E+00 0. -1.
<scales pt_clust_3="106.86811" pt_clust_4="46.71835" pt_clust_5="46.71835" pt_clust_6="37.71652"></scales>
<clustering>
<clus scale="   37.717">  2  6  1 -1</clus>
<clus scale="   46.718">  4  5 -1 -1</clus>
<clus scale="  106.868">  2  3  1 -1</clus>
<clus scale="  120.168">  1  3  2 -1</clus>
</clustering>
</event>
<event>
 6    0  0.4017242E+002  0.1539525E+03  0.7546771E-02  0.1195699E+00
         21   -1    0    0  504  502  0.00000000000E+00  0.00000000000E+00  0.15976500072E+03  0.15976500072E+03  0.00000000000E+00 0. -1.
          1   -1    0    0  505    0 -0.00000000000E+00 -0.00000000000E+00 -0.19006166263E+04  0.19006166263E+04  0.00000000000E+00 0.  1.
         21    1    1    2  503  501 -0.68987747824E+02  0.16513468879E+03 -0.84513988255E+03  0.86388089217E+03  0.00000000000E+00 0.  1.
         21    1    1    2  504  503  0.25254498810E+02 -0.15090117305E+03  0.10806767254E+03  0.18731677871E+03  0.00000000000E+00 0. -1.
         21    1    1    2  505  502  0.10288070760E+02 -0.31104132562E+02 -0.11394077787E+03  0.11855721118E+03  0.00000000000E+00 0.  1.
          1    1    1    2  501    0  0.33445178253E+02  0.16870616831E+02 -0.88983863768E+03  0.89062674493E+03  0.00000000000E+00 0.  1.
<scales pt_clust_3="153.95248" pt_clust_4="14000.00000" pt_clust_5="32.76143" pt_clust_6="38.60167"></scales>
<clustering>
<clus scale="   32.761">  2  5  1 -1</clus>
<clus scale="   38.602">  2  6  1 -1</clus>
<clus scale="  153.952">  2  3  1 -1</clus>
<clus scale="  153.952">  1  3  2 -1</clus>
</clustering>
</event>
<event>
 6    0  0.4017242E+002  0.9341504E+02  0.7546771E-02  0.1294786E+00
         21   -1    0    0  504  502  0.00000000000E+00  0.00000000000E+00  0.23330028553E+03  0.23330028553E+03  0.00000000000E+00 0.  1.
         -3   -1    0    0    0  501 -0.00000000000E+00 -0.00000000000E+00 -0.13686464811E+03  0.13686464811E+03  0.00000000000E+00 0.  1.
         21    1    1    2  503  505  0.50956554489E+01  0.47543251963E+02 -0.99900608657E+01  0.48848007408E+02  0.00000000000E+00 0.  1.
         21    1    1    2  504  503 -0.18061731550E+02 -0.72529372666E+02  0.15202683130E+03  0.16940747764E+03  0.00000000000E+00 0.  1.
         21    1    1    2  505  501 -0.46766042712E+02  0.51726835753E+02 -0.50775660694E+02  0.86260628370E+02  0.00000000000E+00 0.  1.
         -3    1    1    2    0  502  0.59732118813E+02 -0.26740715050E+02  0.51745276826E+01  0.65648820218E+02  0.00000000000E+00 0.  1.
<scales pt_clust_3="45.13449" pt_clust_4="75.86482" pt_clust_5="45.13449" pt_clust_6="65.44457"></scales>
<clustering>
<clus scale="   45.134">  3  5 -1 -1</clus>
<clus scale="   65.445">  2  6  1 -1</clus>
<clus scale="   75.865">  1  4  2 -1</clus>
<clus scale="   75.865">  1  3  2 -1</clus>
</clustering>
</event>
<event>
 6    0  0.4017242E+002  0.1349704E+03  0.7546771E-02  0.1220262E+00
         21   -1    0    0  501  502  0.00000000000E+00  0.00000000000E+00  0.79303479848E+02  0.79303479848E+02  0.00000000000E+00 0.  1.
          2   -1    0    0  505    0 -0.00000000000E+00 -0.00000000000E+00 -0.17483348269E+04  0.17483348269E+04  0.00000000000E+00 0. -1.
         21    1    1    2  503  504  0.13210040089E+02  0.52680291092E+02 -0.25340268529E+03  0.25915755660E+03  0.00000000000E+00 0. -1.
         21    1    1    2  504  502 -0.55008466993E+02  0.11720085078E+03 -0.69543948458E+01  0.12965467393E+03  0.00000000000E+00 0.  1.
         21    1    1    2  505  503  0.26173521283E+02  0.51011530390E+02 -0.51252624871E+03  0.51572316708E+03  0.00000000000E+00 0. -1.
          2    1    1    2  501    0  0.15624905621E+02 -0.22089267226E+03 -0.89614801825E+03  0.92310290919E+03  0.00000000000E+00 0. -1.
<scales pt_clust_3="37.56841" pt_clust_4="134.97038" pt_clust_5="117.44362" pt_clust_6="14000.00000"></scales>
<clustering>
<clus scale="   37.568">  3  5 -1 -1</clus>
<clus scale="  117.444">  2  3  1 -1</clus>
<clus scale="  134.970">  1  4  2 -1</clus>
<clus scale="  134.970">  1  3  2 -1</clus>
</clustering>
</event>
<event>
 6    0  0.4017242E+002  0.9058931E+02  0.7546771E-02  0.1301431E+00
         21   -1    0    0  501  502  0.00000000000E+00  0.00000000000E+00  0.61608814484E+02  0.61608814484E+02  0.00000000000E+00 0.  1.
         -3   -1    0    0    0  501 -0.00000000000E+00 -0.00000000000E+00 -0.97723177412E+03  0.97723177412E+03  0.00000000000E+00 0.  1.
         21    1    1    2  503  505  0.67733549211E+02 -0.46305395938E+02 -0.15659546612E+03  0.17678847075E+03  0.00000000000E+00 0.  1.
         21    1    1    2  504  502 -0.75812263641E+02 -0.22605604912E+02 -0.42509755772E+02  0.89808641164E+02  0.00000000000E+00 0.  1.
         21    1    1    2  505  504 -0.54687515568E+02  0.61543928193E+02 -0.37806632644E+02  0.90596473045E+02  0.00000000000E+00 0.  1.
         -3    1    1    2    0  503  0.62766229998E+02  0.73670726574E+01 -0.67871110510E+03  0.68164700364E+03  0.00000000000E+00 0.  1.
<scales pt_clust_3="90.58931" pt_clust_4="65.29050" pt_clust_5="14000.00000" pt_clust_6="63.19710"></scales>
<clustering>
<clus scale="   63.197">  2  6  1 -1</clus>
<clus scale="   65.291">  1  4  2 -1</clus>
<clus scale="   90.589">  2  3  1 -1</clus>
<clus scale="   65.291">  1  3  2 -1</clus>
</clustering>
</event>
<event>
 6    0  0.4017242E+002  0.7959877E+02  0.7546771E-02  0.1330194E+00
          2   -1    0    0  505    0 -0.00000000000E+00  0.00000000000E+00  0.11514243271E+04  0.11514243271E+04  0.00000000000E+00 0. -1.
         21   -1    0    0  504  502  0.00000000000E+00 -0.00000000000E+00 -0.40584222402E+02  0.40584222402E+02  0.00000000000E+00 0.  1.
         21    1    1    2  503  501  0.10630857617E+02  0.87641069637E+02  0.99462274546E+02  0.13299141430E+03  0.00000000000E+00 0.  1.
         21    1    1    2  504  503 -0.42922773986E+02  0.29040126454E+02  0.20226038134E+02  0.55630801627E+02  0.00000000000E+00 0.  1.
         21    1    1    2  505  502  0.81948086114E+01 -0.40981881991E+02  0.95829133878E+02  0.10454612589E+03  0.00000000000E+00 0. -1.
          2    1    1    2  501    0  0.24097107758E+02 -0.75699314099E+02  0.89532265819E+03  0.89884020772E+03  0.00000000000E+00 0. -1.
<scales pt_clust_3="79.59877" pt_clust_4="39.94837" pt_clust_5="41.79318" pt_clust_6="14000.00000"></scales>
<clustering>
<clus scale="   41.793">  2  5  1 -1</clus>
<clus scale="   39.948">  2  4  1 -1</clus>
<clus scale="   79.599">  2  3  1 -1</clus>
<clus scale="   41.793">  2  3  1 -1</clus>
</clustering>
</event>
<event>
 6    0  0.4017242E+002  0.1004262E+03  0.7546771E-02  0.1279402E+00
          2   -1    0    0  503    0 -0.00000000000E+00  0.00000000000E+00  0.21926393824E+04  0.21926393824E+04  0.00000000000E+00 0. -1.
         21   -1    0    0  505  502  0.00000000000E+00 -0.00000000000E+00 -0.40912186297E+03  0.40912186297E+03  0.00000000000E+00 0. -1.
         21    1    1    2  503  502 -0.50464877156E+02 -0.12212858574E+03 -0.37227365154E+03  0.39503134927E+03  0.00000000000E+00 0. -1.
         21    1    1    2  504  501  0.95607620003E+02  0.94925431954E+02  0.45164463432E+03  0.47131150033E+03  0.00000000000E+00 0. -1.
         21    1    1    2  505  504  0.60195951449E+01  0.34946910131E+02  0.53839907354E+01  0.35867944039E+02  0.00000000000E+00 0. -1.
          2    1    1    2  501    0 -0.51162337992E+02 -0.77437563496E+01  0.16987625459E+04  0.16995504517E+04  0.00000000000E+00 0. -1.
<scales pt_clust_3="100.42619" pt_clust_4="14000.00000" pt_clust_5="35.46156" pt_clust_6="51.73388"></scales>
<clustering>
<clus scale="   35.462">  2  5  1 -1</clus>
<clus scale="   51.734">  1  6  2 -1</clus>
<clus scale="  100.426">  2  3  1 -1</clus>
<clus scale="   35.462">  2  3  1 -1</clus>
</clustering>
</event>
<event>
 6    0  0.4017242E+002  0.1246843E+03  0.7546771E-02  0.1235564E+00
          1   -1    0    0  504    0 -0.00000000000E+00  0.00000000000E+00  0.34657349614E+03  0.34657349614E+03  0.00000000000E+00 0.  1.
         21   -1    0    0  503  502  0.00000000000E+00 -0.00000000000E+00 -0.13735495251E+03  0.13735495251E+03  0.00000000000E+00 0.  1.
         21    1    1    2  503  501 -0.38190248426E+02  0.39733047161E+02  0.30893353482E+01  0.55197410305E+02  0.00000000000E+00 0.  1.
         21    1    1    2  504  505  0.11301719061E+03 -0.86465388852E+01  0.10075126587E+03  0.15165244997E+03  0.00000000000E+00 0.  1.
         21    1    1    2  505  502 -0.10933179864E+03 -0.11272255989E+02 -0.47038679836E+02  0.11955393490E+03  0.00000000000E+00 0.  1.
          1    1    1    2  501    0  0.34504856455E+02 -0.19814252287E+02  0.15241662226E+03  0.15752465348E+03  0.00000000000E+00 0.  1.
<scales pt_clust_3="49.33026" pt_clust_4="14000.00000" pt_clust_5="124.68428" pt_clust_6="39.78932"></scales>
<clustering>
<clus scale="   39.789">  1  6  2 -1</clus>
<clus scale="   49.330">  2  3  1 -1</clus>
<clus scale="  124.684">  2  5  1 -1</clus>
<clus scale="   49.330">  2  3  1 -1</clus>
</clustering>
</event>
<event>
 6    0  0.4017242E+002  0.1394369E+03  0.7546771E-02  0.1214089E+00
         21   -1    0    0  505  502  0.00000000000E+00  0.00000000000E+00  0.24993662773E+03  0.24993662773E+03  0.00000000000E+00 0. -1.
          1   -1    0    0  503    0 -0.00000000000E+00 -0.00000000000E+00 -0.30377988234E+04  0.30377988234E+04  0.00000000000E+00 0.  1.
         21    1    1    2  503  502 -0.57746974477E+01  0.10429032343E+03  0.51102942958E+02  0.11628125159E+03  0.00000000000E+00 0. -1.
         21    1    1    2  504  501  0.88342215138E+01  0.45493627830E+02 -0.21404689794E+02  0.51047765750E+02  0.00000000000E+00 0.  1.
         21    1    1    2  505  504 -0.41161328045E+02 -0.14883049324E+02  0.14656869218E+03  0.15296451096E+03  0.00000000000E+00 0. -1.
          1    1    1    2  501    0  0.38101803979E+02 -0.13490090194E+03 -0.29641291411E+04  0.29674419229E+04  0.00000000000E+00 0.  1.
<scales pt_clust_3="139.43693" pt_clust_4="43.37834" pt_clust_5="43.76940" pt_clust_6="14000.00000"></scales>
<clustering>
<clus scale="   43.769">  1  5  2 -1</clus>
<clus scale="   43.378">  1  4  2 -1</clus>
<clus scale="  139.437">  1  3  2 -1</clus>
<clus scale="   43.769">  1  3  2 -1</clus>
</clustering>
</event>
<event>
 6    0  0.4017242E+002  0.1326255E+03  0.7546771E-02  0.1223611E+00
         21   -1    0    0  504  502  0.00000000000E+00  0.00000000000E+00  0.28594106720E+03  0.28594106720E+03  0.00000000000E+00 0. -1.
          2   -1    0    0  503    0 -0.00000000000E+00 -0.00000000000E+00 -0.14765444659E+04  0.14765444659E+04  0.00000000000E+00 0.  1.
         21    1    1    2  503  502 -0.24320356881E+02 -0.48457104219E+02  0.21347706368E+03  0.22025446063E+03  0.00000000000E+00 0. -1.
         21    1    1    2  504  505  0.25521325015E+02 -0.58762572456E+02  0.20414719896E+02  0.67239413595E+02  0.00000000000E+00 0. -1.
         21    1    1    2  505  501  0.40543878090E+02 -0.11377613923E+02  0.27683777878E+01  0.42200948624E+02  0.00000000000E+00 0. -1.
          2    1    1    2  501    0 -0.41744846225E+02  0.11859729060E+03 -0.14272635600E+04  0.14327907102E+04  0.00000000000E+00 0.  1.
<scales pt_clust_3="54.21781" pt_clust_4="37.64030" pt_clust_5="37.64030" pt_clust_6="124.23384"></scales>
<clustering>
<clus scale="   37.640">  4  5 -1 -1</clus>
<clus scale="   54.218">  1  3  2 -1</clus>
<clus scale="  124.234">  2  6  1 -1</clus>
<clus scale="   54.218">  1  3  2 -1</clus>
</clustering>
</event>
<event>
 6    0  0.4017242E+002  0.1397070E+03  0.7546771E-02  0.1213724E+00
         21   -1    0    0  505  502  0.00000000000E+00  0.00000000000E+00  0.17065076578E+03  0.17065076578E+03  0.00000000000E+00 0.  1.
          1   -1    0    0  504    0 -0.00000000000E+00 -0.00000000000E+00 -0.36232916540E+04  0.36232916540E+04  0.00000000000E+00 0.  1.
         21    1    1    2  503  501  0.42951264017E+02  0.10374295027E+03  0.36115592474E+02  0.11794806836E+03  0.00000000000E+00 0.  1.
         21    1    1    2  504  502  0.65480588683E+01 -0.71764466722E+02 -0.14108137791E+03  0.15842023530E+03  0.00000000000E+00 0. -1.
         21    1    1    2  505  503  0.47053857274E+02  0.43715136125E+02  0.71550233545E+02  0.96148398485E+02  0.00000000000E+00 0.  1.
          1    1    1    2  501    0 -0.96553180159E+02 -0.75693619672E+02 -0.34192253364E+04  0.34214257177E+04  0.00000000000E+00 0.  1.
<scales pt_clust_3="50.17131" pt_clust_4="72.06258" pt_clust_5="50.17131" pt_clust_6="122.95317"></scales>
<clustering>
<clus scale="   50.171">  3  5 -1 -1</clus>
<clus scale="   72.063">  1  4  2 -1</clus>
<clus scale="  122.953">  2  6  1 -1</clus>
<clus scale="   72.063">  1  3  2 -1</clus>
</clustering>
</event>
<event>
 6    0  0.4017242E+002  0.1693552E+03  0.7546771E-02  0.1178522E+00
          1   -1    0    0  505    0 -0.00000000000E+00  0.00000000000E+00  0.26333535838E+03  0.26333535838E+03  0.00000000000E+00 0.  1.
         21   -1    0    0  504  502  0.00000000000E+00 -0.00000000000E+00 -0.68743189918E+03  0.68743189918E+03  0.00000000000E+00 0.  1.
         21    1    1    2  503  502  0.16969822708E+03  0.59787102521E+02 -0.47806064336E+03  0.51079738119E+03  0.00000000000E+00 0.  1.
         21    1    1    2  504  501 -0.47625102393E+02 -0.91350060792E+02 -0.19128143596E+02  0.10478010242E+03  0.00000000000E+00 0.  1.
         21    1    1    2  505  503 -0.15101755653E+03  0.15644731866E+02 -0.84784006734E+02  0.17389476074E+03  0.00000000000E+00 0.  1.
          1    1    1    2  501    0  0.28944431846E+02  0.15918226406E+02  0.15787625288E+03  0.16129501322E+03  0.00000000000E+00 0.  1.
<scales pt_clust_3="169.35515" pt_clust_4="91.98047" pt_clust_5="14000.00000" pt_clust_6="33.03286"></scales>
<clustering>
<clus scale="   33.033">  1  6  2 -1</clus>
<clus scale="   91.980">  1  4  2 -1</clus>
<clus scale="  169.355">  2  3  1 -1</clus>
<clus scale="  169.355">  2  3  1 -1</clus>
</clustering>
</event>
<event>
 6    0  0.4017242E+002  0.1679602E+03  0.7546771E-02  0.1179992E+00
          2   -1    0    0  503    0 -0.00000000000E+00  0.00000000000E+00  0.18445820508E+04  0.18445820508E+04  0.00000000000E+00 0.  1.
         21   -1    0    0  501  502  0.00000000000E+00 -0.00000000000E+00 -0.19722133383E+03  0.19722133383E+03  0.00000000000E+00 0.  1.
         21    1    1    2  503  504  0.67088105101E+02  0.93351337734E+01  0.27771650793E+02  0.73206715241E+02  0.00000000000E+00 0.  1.
         21    1    1    2  504  505  0.77119217502E+02  0.71060346603E+02  0.28392414200E+02  0.10864196128E+03  0.00000000000E+00 0.  1.
         21    1    1    2  505  502 -0.16095697183E+03 -0.15731459468E+02 -0.84813312313E+02  0.18261413840E+03  0.00000000000E+00 0.  1.
          2    1    1    2  501    0  0.16749649227E+02 -0.64664020909E+02  0.16760099643E+04  0.16773405697E+04  0.00000000000E+00 0.  1.
<scales pt_clust_3="41.41408" pt_clust_4="41.41408" pt_clust_5="159.86019" pt_clust_6="66.79810"></scales>
<clustering>
<clus scale="   41.414">  3  4 -1 -1</clus>
<clus scale="   66.798">  1  6  2 -1</clus>
<clus scale="  159.860">  2  5  1 -1</clus>
<clus scale="  159.860">  2  3  1 -1</clus>
</clustering>
</event>
<event>
 6    0  0.4017242E+002  0.9708919E+02  0.7546771E-02  0.1286539E+00
          1   -1    0    0  504    0 -0.00000000000E+00  0.00000000000E+00  0.14043572257E+03  0.14043572257E+03  0.00000000000E+00 0. -1.
         21   -1    0    0  505  502  0.00000000000E+00 -0.00000000000E+00 -0.56155417859E+03  0.56155417859E+03  0.00000000000E+00 0.  1.
         21    1    1    2  503  501  0.13463261266E+02 -0.33741871392E+02 -0.13481454178E+02  0.38749488974E+02  0.00000000000E+00 0. -1.
         21    1    1    2  504  502 -0.77853743668E+02  0.44452841229E+02  0.16104753887E+02  0.91085803472E+02  0.00000000000E+00 0. -1.
         21    1    1    2  505  503  0.91513808703E+02 -0.34652489591E+02 -0.48837652564E+03  0.49808353015E+03  0.00000000000E+00 0.  1.
          1    1    1    2  501    0 -0.27123326302E+02  0.23941519755E+02  0.64634769911E+02  0.74071078562E+02  0.00000000000E+00 0. -1.
<scales pt_clust_3="30.72704" pt_clust_4="97.08919" pt_clust_5="14000.00000" pt_clust_6="36.17832"></scales>
<clustering>
<clus scale="   36.178">  1  6  2 -1</clus>
<clus scale="   30.727">  1  3  2 -1</clus>
<clus scale="   97.089">  1  4  2 -1</clus>
<clus scale="   97.089">  2  3  1 -1</clus>
</clustering>
</event>
<event>
 6    0  0.4017242E+002  0.1355771E+03  0.7546771E-02  0.1219407E+00
         21   -1    0    0  504  502  0.00000000000E+00  0.00000000000E+00  0.16147429552E+03  0.16147429552E+03  0.00000000000E+00 0.  1.
          2   -1    0    0  505    0 -0.00000000000E+00 -0.00000000000E+00 -0.11688145266E+04  0.11688145266E+04  0.00000000000E+00 0.  1.
         21    1    1    2  503  502 -0.12720745006E+03  0.42058981385E+02  0.84348158493E+02  0.15832026121E+03  0.00000000000E+00 0.  1.
         21    1    1    2  504  501  0.12546402444E+03 -0.99221642581E+02 -0.34639827216E+03  0.38154674516E+03  0.00000000000E+00 0.  1.
         21    1    1    2  505  503 -0.18742719575E+02  0.94099394780E+02 -0.83232491620E+02  0.12701824001E+03  0.00000000000E+00 0.  1.
          2    1    1    2  501    0  0.20486145199E+02 -0.36936733583E+02 -0.66205762580E+03  0.66340357575E+03  0.00000000000E+00 0.  1.
<scales pt_clust_3="135.57712" pt_clust_4="14000.00000" pt_clust_5="87.63258" pt_clust_6="42.23748"></scales>
<clustering>
<clus scale="   42.237">  2  6  1 -1</clus>
<clus scale="   87.633">  2  5  1 -1</clus>
<clus scale="  135.577">  1  3  2 -1</clus>
<clus scale="  135.577">  1  3  2 -1</clus>
</clustering>
</event>
<event>
 6    0  0.8599665E+002  0.1066153E+03  0.7546771E-02  0.1266969E+00
          2   -1    0    0  504    0 -0.00000000000E+00  0.00000000000E+00  0.15846941256E+04  0.15846941256E+04  0.00000000000E+00 0.  1.
         21   -1    0    0  503  502  0.00000000000E+00 -0.00000000000E+00 -0.15586834497E+03  0.15586834497E+03  0.00000000000E+00 0.  1.
         21    1    1    2  503  505 -0.20285125273E+02 -0.25470285649E+02  0.46149817556E+02  0.56480327715E+02  0.00000000000E+00 0.  1.
         21    1    1    2  504  502  0.72616058886E+02 -0.78788336991E+02 -0.12148284892E+03  0.16198387770E+03  0.00000000000E+00 0.  1.
         21    1    1    2  505  501  0.21796779752E+02  0.27639748420E+02  0.36992043256E+02  0.51063358336E+02  0.00000000000E+00 0.  1.
          2    1    1    2  501    0 -0.74127713365E+02  0.76618874219E+02  0.14671667688E+04  0.14710349069E+04  0.00000000000E+00 0.  1.
<scales pt_clust_3="32.56105" pt_clust_4="106.61533" pt_clust_5="33.68011" pt_clust_6="14000.00000"></scales>
<clustering>
<clus scale="   32.561">  2  3  1 -1</clus>
<clus scale="   33.680">  2  5  1 -1</clus>
<clus scale="  106.615">  2  4  1 -1</clus>
<clus scale="   32.561">  2  3  1 -1</clus>
</clustering>
</event>
<event>
 6    0  0.4017242E+002  0.1521315E+03  0.7546771E-02  0.1197878E+00
         21   -1    0    0  503  502  0.00000000000E+00  0.00000000000E+00  0.28581937169E+03  0.28581937169E+03  0.00000000000E+00 0. -1.
          1   -1    0    0  504    0 -0.00000000000E+00 -0.00000000000E+00 -0.95543573825E+03  0.95543573825E+03  0.00000000000E+00 0. -1.
         21    1    1    2  503  505 -0.53179228618E+02 -0.10194801637E+03  0.19589634202E+03  0.22714930159E+03  0.00000000000E+00 0. -1.
         21    1    1    2  504  502 -0.11813264078E+02  0.37496687183E+02  0.22617427058E+00  0.39314194799E+02  0.00000000000E+00 0.  1.
         21    1    1    2  505  501 -0.33436586420E+02 -0.38066428317E+02  0.35852099194E+02  0.62067957054E+02  0.00000000000E+00 0. -1.
          1    1    1    2  501    0  0.98429079117E+02  0.10251775750E+03 -0.90159098204E+03  0.91272365649E+03  0.00000000000E+00 0. -1.
<scales pt_clust_3="35.33116" pt_clust_4="39.31354" pt_clust_5="35.33116" pt_clust_6="142.51684"></scales>
<clustering>
<clus scale="   35.331">  3  5 -1 -1</clus>
<clus scale="   39.314">  1  4  2 -1</clus>
<clus scale="  142.517">  2  6  1 -1</clus>
<clus scale="   39.314">  1  3  2 -1</clus>
</clustering>
</event>
<event>
 6    0  0.4017242E+002  0.1166861E+03  0.7546771E-02  0.1248666E+00
          2   -1    0    0  505    0 -0.00000000000E+00  0.00000000000E+00  0.52701708689E+04  0.52701708689E+04  0.00000000000E+00 0.  1.
         21   -1    0    0  503  502  0.00000000000E+00 -0.00000000000E+00 -0.67636188395E+01  0.67636188395E+01  0.00000000000E+00 0.  1.
         21    1    1    2  503  504  0.36754001055E+02  0.19929796828E+02  0.47605595542E+03  0.47788840338E+03  0.00000000000E+00 0.  1.
         21    1    1    2  504  501  0.10634584892E+03 -0.67819275510E+02  0.98820807760E+03  0.99622492357E+03  0.00000000000E+00 0.  1.
         21    1    1    2  505  502 -0.36564105877E+02  0.50617121810E+01  0.38951499342E+03  0.39126012430E+03  0.00000000000E+00 0.  1.
          2    1    1    2  501    0 -0.10653574410E+03  0.42827766501E+02  0.34096282236E+04  0.34115610365E+04  0.00000000000E+00 0.  1.
<scales pt_clust_3="37.34126" pt_clust_4="14000.00000" pt_clust_5="36.91280" pt_clust_6="116.68606"></scales>
<clustering>
<clus scale="   36.913">  2  5  1 -1</clus>
<clus scale="   37.341">  2  3  1 -1</clus>
<clus scale="  116.686">  1  6  2 -1</clus>
<clus scale="   36.913">  2  3  1 -1</clus>
</clustering>
</event>
<event>
 6    0  0.4017242E+002  0.2231005E+03  0.7546771E-02  0.1131592E+00
         21   -1    0    0  505  502  0.00000000000E+00  0.00000000000E+00  0.36466028363E+03  0.36466028363E+03  0.00000000000E+00 0. -1.
          1   -1    0    0  504    0 -0.00000000000E+00 -0.00000000000E+00 -0.15350107395E+04  0.15350107395E+04  0.00000000000E+00 0. -1.
         21    1    1    2  503  502 -0.12464677450E+03 -0.11680619497E+03  0.25028384351E+03  0.30302228944E+03  0.00000000000E+00 0. -1.
         21    1    1    2  504  503  0.16946327351E+03  0.18544211813E+02 -0.25378782178E+03  0.30572855174E+03  0.00000000000E+00 0. -1.
         21    1    1    2  505  501 -0.97091210337E+02 -0.17462095214E+02  0.17154344485E+02  0.10012941340E+03  0.00000000000E+00 0. -1.
          1    1    1    2  501    0  0.52274711321E+02  0.11572407837E+03 -0.11840008221E+04  0.11907907686E+04  0.00000000000E+00 0. -1.
<scales pt_clust_3="223.10054" pt_clust_4="14000.00000" pt_clust_5="98.64901" pt_clust_6="126.36635"></scales>
<clustering>
<clus scale="   98.649">  1  5  2 -1</clus>
<clus scale="  126.366">  2  6  1 -1</clus>
<clus scale="  223.101">  1  3  2 -1</clus>
<clus scale="   98.649">  1  3  2 -1</clus>
</clustering>
</event>
<event>
 6    0  0.4017242E+002  0.1116772E+03  0.7546771E-02  0.1257495E+00
          2   -1    0    0  503    0 -0.00000000000E+00  0.00000000000E+00  0.21520642085E+04  0.21520642085E+04  0.00000000000E+00 0. -1.
         21   -1    0    0  505  502  0.00000000000E+00 -0.00000000000E+00 -0.12273080749E+03  0.12273080749E+03  0.00000000000E+00 0. -1.
         21    1    1    2  503  502  0.45993854599E+02  0.82147766809E+02  0.16139677972E+03  0.18684916579E+03  0.00000000000E+00 0. -1.
         21    1    1    2  504  501  0.50568207188E+02 -0.10929895275E+03  0.20913971562E+03  0.24133550360E+03  0.00000000000E+00 0.  1.
         21    1    1    2  505  504  0.22636363650E+02  0.33642501903E+02 -0.87394513159E+02  0.96343260397E+02  0.00000000000E+00 0. -1.
          2    1    1    2  501    0 -0.11919842544E+03 -0.64913159653E+01  0.17461914188E+04  0.17502670862E+04  0.00000000000E+00 0. -1.
<scales pt_clust_3="110.82036" pt_clust_4="111.67721" pt_clust_5="40.54902" pt_clust_6="14000.00000"></scales>
<clustering>
<clus scale="   40.549">  2  5  1 -1</clus>
<clus scale="  110.820">  2  3  1 -1</clus>
<clus scale="  111.677">  2  4  1 -1</clus>
<clus scale="   40.549">  2  3  1 -1</clus>
</clustering>
</event>
<event>
 6    0  0.4017242E+002  0.1272442E+03  0.7546771E-02  0.1231603E+00
         21   -1    0    0  504  502  0.00000000000E+00  0.00000000000E+00  0.39656971324E+03  0.39656971324E+03  0.00000000000E+00 0. -1.
          1   -1    0    0  503    0 -0.00000000000E+00 -0.00000000000E+00 -0.12793677431E+04  0.12793677431E+04  0.00000000000E+00 0. -1.
         21    1    1    2  503  502  0.14461418157E+03  0.41657812830E+02 -0.17899094120E+02  0.15155531152E+03  0.00000000000E+00 0. -1.
         21    1    1    2  504  505 -0.27490013046E+02 -0.25951796305E+02  0.32532819742E+03  0.32751737753E+03  0.00000000000E+00 0. -1.
         21    1    1    2  505  501 -0.68243622685E+02  0.10128606637E+02 -0.56463230304E+03  0.56883162566E+03  0.00000000000E+00 0.  1.
          1    1    1    2  501    0 -0.48880545835E+02 -0.25834623162E+02 -0.62559483013E+03  0.62803314164E+03  0.00000000000E+00 0. -1.
<scales pt_clust_3="119.62937" pt_clust_4="37.80472" pt_clust_5="38.83726" pt_clust_6="38.83726"></scales>
<clustering>
<clus scale="   37.805">  1  4  2 -1</clus>
<clus scale="   38.837">  5  6 -1 -1</clus>
<clus scale="  119.629">  1  3  2 -1</clus>
<clus scale="   37.805">  1  3  2 -1</clus>
</clustering>
</event>
<event>
 6    0  0.4017242E+002  0.3108735E+03  0.7546771E-02  0.1079928E+00
          1   -1    0    0  503    0 -0.00000000000E+00  0.00000000000E+00  0.81671140876E+03  0.81671140876E+03  0.00000000000E+00 0.  1.
         21   -1    0    0  504  502  0.00000000000E+00 -0.00000000000E+00 -0.22093396408E+03  0.22093396408E+03  0.00000000000E+00 0. -1.
         21    1    1    2  503  505  0.93966602309E+02  0.22007703407E+03  0.11895068402E+03  0.26723190024E+03  0.00000000000E+00 0. -1.
         21    1    1    2  504  501 -0.98087957856E+02 -0.24937668685E+03  0.38664954244E+03  0.47043368086E+03  0.00000000000E+00 0.  1.
         21    1    1    2  505  502  0.68718126826E+02  0.83848062444E+02 -0.62732860023E+02  0.12525210680E+03  0.00000000000E+00 0. -1.
          1    1    1    2  501    0 -0.64596771279E+02 -0.54548409665E+02  0.15291007825E+03  0.17472768494E+03  0.00000000000E+00 0.  1.
<scales pt_clust_3="300.61687" pt_clust_4="44.48369" pt_clust_5="108.40977" pt_clust_6="44.48369"></scales>
<clustering>
<clus scale="   44.484">  4  6 -1 -1</clus>
<clus scale="  108.410">  2  5  1 -1</clus>
<clus scale="  300.617">  2  3  1 -1</clus>
<clus scale="  108.410">  2  3  1 -1</clus>
</clustering>
</event>
<event>
 6    0  0.4017242E+002  0.1282625E+03  0.7546771E-02  0.1230057E+00
         21   -1    0    0  503  502  0.00000000000E+00  0.00000000000E+00  0.16958090205E+03  0.16958090205E+03  0.00000000000E+00 0. -1.
          1   -1    0    0  505    0 -0.00000000000E+00 -0.00000000000E+00 -0.96833093584E+03  0.96833093584E+03  0.00000000000E+00 0.  1.
         21    1    1    2  503  504  0.34945772539E+02 -0.14218796559E+03  0.74284194622E+02  0.16418515812E+03  0.00000000000E+00 0. -1.
         21    1    1    2  504  501 -0.44397909022E+02  0.74518590800E+02 -0.23927394779E+03  0.25451172231E+03  0.00000000000E+00 0.  1.
         21    1    1    2  505  502  0.24492373793E+02  0.20662621944E+02  0.35680422817E+02  0.47957407061E+02  0.00000000000E+00 0. -1.
          1    1    1    2  501    0 -0.15040237310E+02  0.47006752844E+02 -0.66944070344E+03  0.67125755040E+03  0.00000000000E+00 0.  1.
<scales pt_clust_3="128.26255" pt_clust_4="14000.00000" pt_clust_5="32.04404" pt_clust_6="49.44157"></scales>
<clustering>
<clus scale="   32.044">  1  5  2 -1</clus>
<clus scale="   49.442">  2  6  1 -1</clus>
<clus scale="  128.263">  1  3  2 -1</clus>
<clus scale="   32.044">  1  3  2 -1</clus>
</clustering>
</event>
<event>
 6    0  0.4017242E+002  0.3358521E+03  0.7546771E-02  0.1068576E+00
         21   -1    0    0  501  502  0.00000000000E+00  0.00000000000E+00  0.31251803694E+03  0.31251803694E+03  0.00000000000E+00 0. -1.
          2   -1    0    0  503    0 -0.00000000000E+00 -0.00000000000E+00 -0.96158326867E+03  0.96158326867E+03  0.00000000000E+00 0.  1.
         21    1    1    2  503  504  0.14930827312E+03 -0.28055344352E+03 -0.60002119330E+03  0.67899088912E+03  0.00000000000E+00 0.  1.
         21    1    1    2  504  505 -0.52893067688E+02  0.21979298586E+03  0.11448832583E+03  0.25340522882E+03  0.00000000000E+00 0. -1.
         21    1    1    2  505  502 -0.59461740002E+02  0.95417809127E+02  0.49418627302E+02  0.12281065730E+03  0.00000000000E+00 0. -1.
          2    1    1    2  501    0 -0.36953465432E+02 -0.34657351461E+02 -0.21295099157E+03  0.21889453037E+03  0.00000000000E+00 0.  1.
<scales pt_clust_3="331.82099" pt_clust_4="36.58586" pt_clust_5="36.58586" pt_clust_6="50.66252"></scales>
<clustering>
<clus scale="   36.586">  4  5 -1 -1</clus>
<clus scale="   50.663">  2  6  1 -1</clus>
<clus scale="  331.821">  2  3  1 -1</clus>
<clus scale="  335.852">  1  3  2 -1</clus>
</clustering>
</event>
<event>
 6    0  0.4017242E+002  0.1491060E+03  0.7546771E-02  0.1201576E+00
          2   -1    0    0  505    0 -0.00000000000E+00  0.00000000000E+00  0.30618267030E+04  0.30618267030E+04  0.00000000000E+00 0. -1.
         21   -1    0    0  503  502  0.00000000000E+00 -0.00000000000E+00 -0.15835869913E+02  0.15835869913E+02  0.00000000000E+00 0. -1.
         21    1    1    2  503  501 -0.46430364117E+02  0.11076601515E+02  0.15076262678E+03  0.15813867157E+03  0.00000000000E+00 0. -1.
         21    1    1    2  504  502  0.80037187378E+02  0.63212820843E+02  0.50398083949E+03  0.51419694539E+03  0.00000000000E+00 0. -1.
         21    1    1    2  505  504  0.38276434029E+02  0.46654122131E+02  0.18490570831E+03  0.19450401919E+03  0.00000000000E+00 0. -1.
          2    1    1    2  501    0 -0.71883257290E+02 -0.12094354449E+03  0.22063416585E+04  0.22108229368E+04  0.00000000000E+00 0. -1.
<scales pt_clust_3="47.73332" pt_clust_4="30.99401" pt_clust_5="30.99401" pt_clust_6="143.55864"></scales>
<clustering>
<clus scale="   30.994">  4  5 -1 -1</clus>
<clus scale="   47.733">  2  3  1 -1</clus>
<clus scale="  143.559">  1  6  2 -1</clus>
<clus scale="   47.733">  2  3  1 -1</clus>
</clustering>
</event>
<event>
 6    0  0.4017242E+002  0.1042673E+03  0.7546771E-02  0.1271570E+00
          2   -1    0    0  505    0 -0.00000000000E+00  0.00000000000E+00  0.19378625932E+04  0.19378625932E+04  0.00000000000E+00 0.  1.
         21   -1    0    0  503  502  0.00000000000E+00 -0.00000000000E+00 -0.45212282506E+02  0.45212282506E+02  0.00000000000E+00 0. -1.
         21    1    1    2  503  501  0.17800557785E+02 -0.27768260356E+02 -0.27560195655E+02  0.42982560710E+02  0.00000000000E+00 0. -1.
         21    1    1    2  504  502  0.28279366970E+02 -0.73466601076E+02  0.27125346828E+03  0.28244558436E+03  0.00000000000E+00 0.  1.
         21    1    1    2  505  504 -0.15263418809E+02 -0.30559342482E+02  0.33461013628E+03  0.33634920643E+03  0.00000000000E+00 0. -1.
          2    1    1    2  501    0 -0.30816505946E+02  0.13179420391E+03  0.13143469018E+04  0.13212975242E+04  0.00000000000E+00 0.  1.
<scales pt_clust_3="32.98388" pt_clust_4="104.26726" pt_clust_5="35.72240" pt_clust_6="14000.00000"></scales>
<clustering>
<clus scale="   32.984">  2  3  1 -1</clus>
<clus scale="   35.722">  1  5  2 -1</clus>
<clus scale="  104.267">  2  4  1 -1</clus>
<clus scale="   32.984">  2  3  1 -1</clus>
</clustering>
</event>
<event>
 6    0  0.4017242E+002  0.1766442E+03  0.7546771E-02  0.1171091E+00
         21   -1    0    0  501  502  0.00000000000E+00  0.00000000000E+00  0.60275030563E+02  0.60275030563E+02  0.00000000000E+00 0.  1.
          2   -1    0    0  505    0 -0.00000000000E+00 -0.00000000000E+00 -0.14937843348E+04  0.14937843348E+04  0.00000000000E+00 0.  1.
         21    1    1    2  503  504 -0.65980494209E+02  0.23216500273E+02 -0.23658409093E+03  0.24670724266E+03  0.00000000000E+00 0.  1.
         21    1    1    2  504  502 -0.63515794122E+02 -0.52845433930E+01  0.12701501960E+02  0.64988542482E+02  0.00000000000E+00 0.  1.
         21    1    1    2  505  503 -0.51053646512E+02  0.62115518782E+02 -0.24954154587E+03  0.26217512394E+03  0.00000000000E+00 0.  1.
          2    1    1    2  501    0  0.18054993484E+03 -0.80047475662E+02 -0.96008516936E+03  0.98018845625E+03  0.00000000000E+00 0.  1.
<scales pt_clust_3="38.05355" pt_clust_4="63.73525" pt_clust_5="38.05355" pt_clust_6="171.86794"></scales>
<clustering>
<clus scale="   38.054">  3  5 -1 -1</clus>
<clus scale="   63.735">  1  4  2 -1</clus>
<clus scale="  171.868">  2  6  1 -1</clus>
<clus scale="   63.735">  1  3  2 -1</clus>
</clustering>
</event>
<event>
 6    0  0.4017242E+002  0.1307490E+03  0.7546771E-02  0.1226349E+00
          2   -1    0    0  505    0 -0.00000000000E+00  0.00000000000E+00  0.12668497718E+04  0.12668497718E+04  0.00000000000E+00 0.  1.
         21   -1    0    0  504  502  0.00000000000E+00 -0.00000000000E+00 -0.38399457657E+03  0.38399457657E+03  0.00000000000E+00 0.  1.
         21    1    1    2  503  501 -0.16438574842E+02 -0.47209764940E+02  0.57747145501E+03  0.57963114996E+03  0.00000000000E+00 0. -1.
         21    1    1    2  504  503 -0.62921241117E+01  0.53309690637E+02 -0.36837958031E+03  0.37227010239E+03  0.00000000000E+00 0.  1.
         21    1    1    2  505  502  0.59273475665E+02  0.71349571493E+02  0.25095200180E+03  0.26754628287E+03  0.00000000000E+00 0.  1.
          2    1    1    2  501    0 -0.36542776712E+02 -0.77449497190E+02  0.42281131877E+03  0.43139681319E+03  0.00000000000E+00 0.  1.
<scales pt_clust_3="43.65638" pt_clust_4="53.67973" pt_clust_5="117.60244" pt_clust_6="43.65638"></scales>
<clustering>
<clus scale="   43.656">  3  6 -1 -1</clus>
<clus scale="   53.680">  2  4  1 -1</clus>
<clus scale="  117.602">  2  5  1 -1</clus>
<clus scale="   53.680">  2  3  1 -1</clus>
</clustering>
</event>
<event>
 6    0  0.4017242E+002  0.3446066E+03  0.7546771E-02  0.1064851E+00
          2   -1    0    0  502    0 -0.00000000000E+00  0.00000000000E+00  0.22373170068E+04  0.22373170068E+04  0.00000000000E+00 0.  1.
         21   -1    0    0  503  502  0.00000000000E+00 -0.00000000000E+00 -0.15828978880E+04  0.15828978880E+04  0.00000000000E+00 0.  1.
         21    1    1    2  503  505 -0.43546135519E+02  0.69276630298E+02 -0.34698659955E+03  0.35650416223E+03  0.00000000000E+00 0. -1.
         21    1    1    2  504  501  0.23000299121E+03 -0.22903384172E+03 -0.50243564293E+03  0.59816339900E+03  0.00000000000E+00 0.  1.
         21    1    1    2  505  504 -0.17808545688E+03  0.19193720419E+03 -0.65554803935E+03  0.70590194234E+03  0.00000000000E+00 0.  1.
          2    1    1    2  501    0 -0.83713988153E+01 -0.32179992764E+02  0.21593894007E+04  0.21596453913E+04  0.00000000000E+00 0.  1.
<scales pt_clust_3="44.39842" pt_clust_4="335.37431" pt_clust_5="44.39842" pt_clust_6="33.25105"></scales>
<clustering>
<clus scale="   33.251">  1  6  2 -1</clus>
<clus scale="   44.398">  3  5 -1 -1</clus>
<clus scale="  335.374">  1  4  2 -1</clus>
<clus scale="  344.607">  2  3  1 -1</clus>
</clustering>
</event>
<event>
 6    0  0.4017242E+002  0.8999690E+02  0.7546771E-02  0.1302859E+00
          4   -1    0    0  505    0 -0.00000000000E+00  0.00000000000E+00  0.23910715732E+03  0.23910715732E+03  0.00000000000E+00 0.  1.
         21   -1    0    0  501  502  0.00000000000E+00 -0.00000000000E+00 -0.11720149315E+03  0.11720149315E+03  0.00000000000E+00 0.  1.
         21    1    1    2  503  504 -0.51715809928E+02 -0.59832613189E+02  0.95542770035E+01  0.79660220980E+02  0.00000000000E+00 0.  1.
         21    1    1    2  504  502  0.71344216353E+02  0.69290352266E+02 -0.26973635921E+02  0.10304720840E+03  0.00000000000E+00 0.  1.
         21    1    1    2  505  503 -0.51402201051E+02 -0.30408464328E+01  0.30048594216E+02  0.59618378326E+02  0.00000000000E+00 0.  1.
          4    1    1    2  501    0  0.31773794627E+02 -0.64168926446E+01  0.10927642887E+03  0.11398284276E+03  0.00000000000E+00 0.  1.
<scales pt_clust_3="14000.00000" pt_clust_4="89.99690" pt_clust_5="40.57478" pt_clust_6="32.41528"></scales>
<clustering>
<clus scale="   32.415">  1  6  2 -1</clus>
<clus scale="   40.575">  1  5  2 -1</clus>
<clus scale="   89.997">  2  4  1 -1</clus>
<clus scale="   89.997">  2  3  1 -1</clus>
</clustering>
</event>
<event>
 6    0  0.4017242E+002  0.9201893E+02  0.7546771E-02  0.1298035E+00
          2   -1    0    0  503    0 -0.00000000000E+00  0.00000000000E+00  0.10655918163E+03  0.10655918163E+03  0.00000000000E+00 0.  1.
         21   -1    0    0  505  502  0.00000000000E+00 -0.00000000000E+00 -0.25870977443E+04  0.25870977443E+04  0.00000000000E+00 0.  1.
         21    1    1    2  503  504 -0.54120302800E+02  0.16088476581E+02 -0.56652955896E+03  0.56933609356E+03  0.00000000000E+00 0. -1.
         21    1    1    2  504  502 -0.30603218479E+02 -0.20729636804E+02 -0.16567403624E+04  0.16571526493E+04  0.00000000000E+00 0.  1.
         21    1    1    2  505  501  0.27907053073E+02 -0.71882288121E+02 -0.33526133753E+03  0.34401458021E+03  0.00000000000E+00 0. -1.
          2    1    1    2  501    0  0.56816468206E+02  0.76523448344E+02  0.77992696264E+02  0.12315360277E+03  0.00000000000E+00 0.  1.
<scales pt_clust_3="72.88687" pt_clust_4="36.96315" pt_clust_5="14000.00000" pt_clust_6="92.01893"></scales>
<clustering>
<clus scale="   36.963">  2  4  1 -1</clus>
<clus scale="   72.887">  2  3  1 -1</clus>
<clus scale="   92.019">  1  6  2 -1</clus>
<clus scale="   36.963">  2  3  1 -1</clus>
</clustering>
</event>
<event>
 6    0  0.4017242E+002  0.1307287E+03  0.7546771E-02  0.1226379E+00
         21   -1    0    0  503  502  0.00000000000E+00  0.00000000000E+00  0.53845581895E+02  0.53845581895E+02  0.00000000000E+00 0. -1.
          2   -1    0    0  504    0 -0.00000000000E+00 -0.00000000000E+00 -0.15706335789E+04  0.15706335789E+04  0.00000000000E+00 0.  1.
         21    1    1    2  503  505  0.28015859700E+02  0.32210048208E+02 -0.11222010791E+03  0.12006551637E+03  0.00000000000E+00 0.  1.
         21    1    1    2  504  502 -0.96026971864E+02 -0.75303712198E+02 -0.30474607552E+02  0.12577968875E+03  0.00000000000E+00 0. -1.
         21    1    1    2  505  501  0.52104451920E+02  0.56928583093E+01 -0.36733546441E+03  0.37105609543E+03  0.00000000000E+00 0.  1.
          2    1    1    2  501    0  0.15906660244E+02  0.37400805680E+02 -0.10067578172E+04  0.10075778603E+04  0.00000000000E+00 0.  1.
<scales pt_clust_3="49.62349" pt_clust_4="117.12807" pt_clust_5="49.62349" pt_clust_6="40.64286"></scales>
<clustering>
<clus scale="   40.643">  2  6  1 -1</clus>
<clus scale="   49.623">  3  5 -1 -1</clus>
<clus scale="  117.128">  1  4  2 -1</clus>
<clus scale="  117.128">  1  3  2 -1</clus>
</clustering>
</event>
<event>
 6    0  0.4017242E+002  0.8787134E+02  0.7546771E-02  0.1308090E+00
         21   -1    0    0  503  502  0.00000000000E+00  0.00000000000E+00  0.99149023715E+03  0.99149023715E+03  0.00000000000E+00 0. -1.
          1   -1    0    0  505    0 -0.00000000000E+00 -0.00000000000E+00 -0.20317834666E+04  0.20317834666E+04  0.00000000000E+00 0.  1.
         21    1    1    2  503  504 -0.86730158262E+02 -0.78965563865E+02  0.94969119070E+03  0.95690701655E+03  0.00000000000E+00 0. -1.
         21    1    1    2  504  501  0.27835836998E+02  0.63086363273E+02 -0.61097911854E+02  0.92128594287E+02  0.00000000000E+00 0.  1.
         21    1    1    2  505  502  0.14829762093E+01  0.37169598753E+02  0.66026543831E+01  0.37780594685E+02  0.00000000000E+00 0. -1.
          1    1    1    2  501    0  0.57411345055E+02 -0.21290398162E+02 -0.19354891627E+04  0.19364574983E+04  0.00000000000E+00 0.  1.
<scales pt_clust_3="87.87134" pt_clust_4="14000.00000" pt_clust_5="37.19917" pt_clust_6="61.22613"></scales>
<clustering>
<clus scale="   37.199">  1  5  2 -1</clus>
<clus scale="   61.226">  2  6  1 -1</clus>
<clus scale="   87.871">  1  3  2 -1</clus>
<clus scale="   37.199">  1  3  2 -1</clus>
</clustering>
</event>
<event>
 6    0  0.4017242E+002  0.9433599E+02  0.7546771E-02  0.1292679E+00
          1   -1    0    0  503    0 -0.00000000000E+00  0.00000000000E+00  0.12153122977E+04  0.12153122977E+04  0.00000000000E+00 0. -1.
         21   -1    0    0  505  502  0.00000000000E+00 -0.00000000000E+00 -0.41735423288E+03  0.41735423288E+03  0.00000000000E+00 0.  1.
         21    1    1    2  503  502  0.40322591404E+02 -0.51622962782E+02  0.63262232707E+02  0.91065645284E+02  0.00000000000E+00 0.  1.
         21    1    1    2  504  501 -0.47683220651E+02 -0.68829345649E+02 -0.38684390392E+02  0.92236925437E+02  0.00000000000E+00 0.  1.
         21    1    1    2  505  504 -0.53382360107E+02  0.50037518393E+02 -0.33205680179E+03  0.34002227755E+03  0.00000000000E+00 0.  1.
          1    1    1    2  501    0  0.60742989354E+02  0.70414790038E+02  0.11054370243E+04  0.11093416823E+04  0.00000000000E+00 0. -1.
<scales pt_clust_3="65.50452" pt_clust_4="94.33599" pt_clust_5="72.94066" pt_clust_6="14000.00000"></scales>
<clustering>
<clus scale="   65.505">  1  3  2 -1</clus>
<clus scale="   72.941">  2  5  1 -1</clus>
<clus scale="   94.336">  2  4  1 -1</clus>
<clus scale="   72.941">  2  3  1 -1</clus>
</clustering>
</event>
<event>
 6    0  0.4017242E+002  0.1841351E+03  0.7546771E-02  0.1163860E+00
         -3   -1    0    0    0  501 -0.00000000000E+00  0.00000000000E+00  0.52870893276E+03  0.52870893276E+03  0.00000000000E+00 0.  1.
         21   -1    0    0  501  502  0.00000000000E+00 -0.00000000000E+00 -0.44614287955E+03  0.44614287955E+03  0.00000000000E+00 0. -1.
         21    1    1    2  503  505  0.82438406029E+02 -0.38689471478E+02  0.27680873859E+02  0.95179812825E+02  0.00000000000E+00 0. -1.
         21    1    1    2  504  503  0.58421942166E+02 -0.53335676002E+02  0.58688446998E+02  0.98499499858E+02  0.00000000000E+00 0.  1.
         21    1    1    2  505  502 -0.18553933207E+03 -0.13543712984E+02 -0.36095491827E+03  0.40607478244E+03  0.00000000000E+00 0. -1.
         -3    1    1    2    0  504  0.44678983879E+02  0.10556886046E+03  0.35715165062E+03  0.37509771719E+03  0.00000000000E+00 0.  1.
<scales pt_clust_3="38.89747" pt_clust_4="38.89747" pt_clust_5="179.34315" pt_clust_6="114.63418"></scales>
<clustering>
<clus scale="   38.897">  3  4 -1 -1</clus>
<clus scale="  114.634">  1  6  2 -1</clus>
<clus scale="  179.343">  2  5  1 -1</clus>
<clus scale="  179.343">  2  3  1 -1</clus>
</clustering>
</event>
<event>
 6    0  0.4017242E+002  0.1083878E+03  0.7546771E-02  0.1263585E+00
          3   -1    0    0  503    0 -0.00000000000E+00  0.00000000000E+00  0.12346947399E+03  0.12346947399E+03  0.00000000000E+00 0.  1.
         21   -1    0    0  504  502  0.00000000000E+00 -0.00000000000E+00 -0.43424824827E+03  0.43424824827E+03  0.00000000000E+00 0. -1.
         21    1    1    2  503  502 -0.11409400348E+03 -0.37443476710E+01 -0.48331603902E+02  0.12396534075E+03  0.00000000000E+00 0.  1.
         21    1    1    2  504  505  0.56071559198E+02 -0.19950381298E+02 -0.26997451141E+03  0.27645664086E+03  0.00000000000E+00 0. -1.
         21    1    1    2  505  501  0.36363075251E+02 -0.88207557928E+01 -0.64950993196E+02  0.74958058217E+02  0.00000000000E+00 0. -1.
          3    1    1    2  501    0  0.21659369036E+02  0.32515484762E+02  0.72478334224E+02  0.82337682432E+02  0.00000000000E+00 0.  1.
<scales pt_clust_3="99.00836" pt_clust_4="34.97143" pt_clust_5="34.97143" pt_clust_6="39.06898"></scales>
<clustering>
<clus scale="   34.971">  4  5 -1 -1</clus>
<clus scale="   39.069">  1  6  2 -1</clus>
<clus scale="   99.008">  1  3  2 -1</clus>
<clus scale="  108.388">  2  3  1 -1</clus>
</clustering>
</event>
<event>
 6    0  0.4017242E+002  0.2995157E+03  0.7546771E-02  0.1085483E+00
         21   -1    0    0  504  502  0.00000000000E+00  0.00000000000E+00  0.66009365220E+02  0.66009365220E+02  0.00000000000E+00 0.  1.
         -4   -1    0    0    0  501 -0.00000000000E+00 -0.00000000000E+00 -0.20357098269E+04  0.20357098269E+04  0.00000000000E+00 0.  1.
         21    1    1    2  503  501  0.11167864517E+03 -0.21975427948E+03 -0.92316134031E+03  0.95550558521E+03  0.00000000000E+00 0.  1.
         21    1    1    2  504  503  0.60986139619E+02 -0.32891159987E+02 -0.27650089355E+03  0.28505066526E+03  0.00000000000E+00 0. -1.
         21    1    1    2  505  502 -0.61416316913E+02  0.47691014045E+01 -0.22167146109E+02  0.65468241751E+02  0.00000000000E+00 0.  1.
         -4    1    1    2    0  505 -0.11124846788E+03  0.24787633806E+03 -0.74787108169E+03  0.79569469987E+03  0.00000000000E+00 0.  1.
<scales pt_clust_3="41.56935" pt_clust_4="41.56935" pt_clust_5="61.60120" pt_clust_6="289.07126"></scales>
<clustering>
<clus scale="   41.569">  3  4 -1 -1</clus>
<clus scale="   61.601">  1  5  2 -1</clus>
<clus scale="  289.071">  1  6  2 -1</clus>
<clus scale="   61.601">  1  3  2 -1</clus>
</clustering>
</event>
<event>
 6    0  0.4017242E+002  0.8329721E+02  0.7546771E-02  0.1319947E+00
          2   -1    0    0  504    0 -0.00000000000E+00  0.00000000000E+00  0.11575147394E+04  0.11575147394E+04  0.00000000000E+00 0.  1.
         21   -1    0    0  505  502  0.00000000000E+00 -0.00000000000E+00 -0.10165209817E+04  0.10165209817E+04  0.00000000000E+00 0.  1.
         21    1    1    2  503  501 -0.10720038525E+03 -0.45186466977E+02  0.12776272615E+03  0.17279193728E+03  0.00000000000E+00 0. -1.
         21    1    1    2  504  502  0.44521018071E+02 -0.12171044645E+02 -0.43860152208E+03  0.44102329933E+03  0.00000000000E+00 0.  1.
         21    1    1    2  505  503  0.23854924458E+02  0.59994438381E+02 -0.55193529129E+03  0.55569861960E+03  0.00000000000E+00 0.  1.
          2    1    1    2  501    0  0.38824442721E+02 -0.26369267593E+01  0.10037678449E+04  0.10045218649E+04  0.00000000000E+00 0.  1.
<scales pt_clust_3="83.29721" pt_clust_4="46.45590" pt_clust_5="14000.00000" pt_clust_6="38.91389"></scales>
<clustering>
<clus scale="   38.914">  1  6  2 -1</clus>
<clus scale="   46.456">  2  4  1 -1</clus>
<clus scale="   83.297">  1  3  2 -1</clus>
<clus scale="   46.456">  2  3  1 -1</clus>
</clustering>
</event>
<event>
 6    0  0.4017242E+002  0.1290895E+03  0.7546771E-02  0.1228813E+00
          4   -1    0    0  503    0 -0.00000000000E+00  0.00000000000E+00  0.17808998587E+04  0.17808998587E+04  0.00000000000E+00 0.  1.
         21   -1    0    0  504  502  0.00000000000E+00 -0.00000000000E+00 -0.11163101344E+03  0.11163101344E+03  0.00000000000E+00 0. -1.
         21    1    1    2  503  502 -0.14665001315E+03  0.48519480478E+02  0.50007640024E+03  0.52338969460E+03  0.00000000000E+00 0.  1.
         21    1    1    2  504  505 -0.20018113877E+02 -0.49116447873E+02 -0.71821189517E+02  0.89282885250E+02  0.00000000000E+00 0. -1.
         21    1    1    2  505  501  0.12962626856E+03  0.14393098637E+02  0.20423458247E+03  0.24232601071E+03  0.00000000000E+00 0.  1.
          4    1    1    2  501    0  0.37041858464E+02 -0.13796131241E+02  0.10367790521E+04  0.10375322816E+04  0.00000000000E+00 0.  1.
<scales pt_clust_3="129.08952" pt_clust_4="53.02703" pt_clust_5="14000.00000" pt_clust_6="39.52762"></scales>
<clustering>
<clus scale="   39.528">  1  6  2 -1</clus>
<clus scale="   53.027">  2  4  1 -1</clus>
<clus scale="  129.090">  1  3  2 -1</clus>
<clus scale="   53.027">  2  3  1 -1</clus>
</clustering>
</event>
<event>
 6    0  0.4017242E+002  0.4689015E+03  0.7546771E-02  0.1022231E+00
         21   -1    0    0  504  502  0.00000000000E+00  0.00000000000E+00  0.17057135425E+04  0.17057135425E+04  0.00000000000E+00 0.  1.
          2   -1    0    0  505    0 -0.00000000000E+00 -0.00000000000E+00 -0.47017643357E+03  0.47017643357E+03  0.00000000000E+00 0.  1.
         21    1    1    2  503  501 -0.28410244717E+02 -0.27901480495E+02  0.56269976111E+02  0.68934351598E+02  0.00000000000E+00 0.  1.
         21    1    1    2  504  503 -0.50966432969E+03  0.61610303754E+00  0.10992004233E+04  0.12116103660E+04  0.00000000000E+00 0.  1.
         21    1    1    2  505  502  0.34826986512E+03  0.95702656858E+02  0.38615692600E+03  0.52874196824E+03  0.00000000000E+00 0. -1.
          2    1    1    2  501    0  0.18980470929E+03 -0.68417279401E+02 -0.30609021645E+03  0.36660329021E+03  0.00000000000E+00 0.  1.
<scales pt_clust_3="33.55858" pt_clust_4="33.55858" pt_clust_5="453.27085" pt_clust_6="201.75914"></scales>
<clustering>
<clus scale="   33.559">  3  4 -1 -1</clus>
<clus scale="  201.759">  2  6  1 -1</clus>
<clus scale="  453.271">  2  5  1 -1</clus>
<clus scale="  468.902">  1  3  2 -1</clus>
</clustering>
</event>
<event>
 6    0  0.4017242E+002  0.1218891E+03  0.7546771E-02  0.1240013E+00
          2   -1    0    0  505    0 -0.00000000000E+00  0.00000000000E+00  0.17673763603E+04  0.17673763603E+04  0.00000000000E+00 0. -1.
         21   -1    0    0  503  502  0.00000000000E+00 -0.00000000000E+00 -0.30534032525E+02  0.30534032525E+02  0.00000000000E+00 0. -1.
         21    1    1    2  503  504 -0.82647623757E+02  0.95820405337E+02  0.42714901854E+03  0.44549799532E+03  0.00000000000E+00 0. -1.
         21    1    1    2  504  501  0.11858195162E+02  0.41669361780E+02  0.16857961578E+03  0.17405757484E+03  0.00000000000E+00 0.  1.
         21    1    1    2  505  502  0.67798067135E+02 -0.59033727772E+02  0.10072453404E+03  0.13500737269E+03  0.00000000000E+00 0. -1.
          2    1    1    2  501    0  0.29913614597E+01 -0.78456039345E+02  0.10403891594E+04  0.10433474500E+04  0.00000000000E+00 0. -1.
<scales pt_clust_3="41.54786" pt_clust_4="41.54786" pt_clust_5="99.07085" pt_clust_6="78.51305"></scales>
<clustering>
<clus scale="   41.548">  3  4 -1 -1</clus>
<clus scale="   78.513">  1  6  2 -1</clus>
<clus scale="   99.071">  2  5  1 -1</clus>
<clus scale="   99.071">  2  3  1 -1</clus>
</clustering>
</event>
<event>
 6    0  0.4017242E+002  0.1190967E+03  0.7546771E-02  0.1244595E+00
         21   -1    0    0  505  502  0.00000000000E+00  0.00000000000E+00  0.41850119937E+03  0.41850119937E+03  0.00000000000E+00 0. -1.
          1   -1    0    0  503    0 -0.00000000000E+00 -0.00000000000E+00 -0.19001364008E+03  0.19001364008E+03  0.00000000000E+00 0. -1.
         21    1    1    2  503  504  0.43318420556E+02 -0.95947002190E+02  0.10739730000E+03  0.15038780813E+03  0.00000000000E+00 0. -1.
         21    1    1    2  504  502  0.14891547476E+02 -0.51251669293E+02  0.15828088757E+03  0.16703691557E+03  0.00000000000E+00 0. -1.
         21    1    1    2  505  501 -0.21026389774E+02  0.13495535022E+03  0.86286263160E+02  0.16155610428E+03  0.00000000000E+00 0. -1.
          1    1    1    2  501    0 -0.37183578258E+02  0.12243321262E+02 -0.12347689144E+03  0.12953401147E+03  0.00000000000E+00 0. -1.
<scales pt_clust_3="14000.00000" pt_clust_4="51.89333" pt_clust_5="119.09668" pt_clust_6="39.14738"></scales>
<clustering>
<clus scale="   39.147">  2  6  1 -1</clus>
<clus scale="   51.893">  1  4  2 -1</clus>
<clus scale="  119.097">  1  5  2 -1</clus>
<clus scale="   51.893">  1  3  2 -1</clus>
</clustering>
</event>
<event>
 6    0  0.4017242E+002  0.9371746E+02  0.7546771E-02  0.1294091E+00
          1   -1    0    0  503    0 -0.00000000000E+00  0.00000000000E+00  0.12711565800E+04  0.12711565800E+04  0.00000000000E+00 0.  1.
         21   -1    0    0  504  502  0.00000000000E+00 -0.00000000000E+00 -0.13834677482E+04  0.13834677482E+04  0.00000000000E+00 0.  1.
         21    1    1    2  503  502 -0.69965285626E+01 -0.35446145966E+02  0.86933143507E+02  0.94142190944E+02  0.00000000000E+00 0. -1.
         21    1    1    2  504  505  0.36505369381E+01 -0.93960666887E+02 -0.13687248081E+04  0.13719509954E+04  0.00000000000E+00 0.  1.
         21    1    1    2  505  501  0.22405005255E+02  0.66401675831E+02  0.13634465587E+03  0.15330046314E+03  0.00000000000E+00 0. -1.
          1    1    1    2  501    0 -0.19059013630E+02  0.63005137022E+02  0.10331358406E+04  0.10352306788E+04  0.00000000000E+00 0.  1.
<scales pt_clust_3="36.13005" pt_clust_4="14000.00000" pt_clust_5="93.71746" pt_clust_6="40.68876"></scales>
<clustering>
<clus scale="   36.130">  1  3  2 -1</clus>
<clus scale="   40.689">  1  6  2 -1</clus>
<clus scale="   93.717">  1  5  2 -1</clus>
<clus scale="   93.717">  2  3  1 -1</clus>
</clustering>
</event>
<event>
 6    0  0.4017242E+002  0.2521525E+03  0.7546771E-02  0.1111952E+00
          2   -1    0    0  505    0 -0.00000000000E+00  0.00000000000E+00  0.27992011985E+04  0.27992011985E+04  0.00000000000E+00 0. -1.
         21   -1    0    0  503  502  0.00000000000E+00 -0.00000000000E+00 -0.13486511642E+03  0.13486511642E+03  0.00000000000E+00 0. -1.
         21    1    1    2  503  501  0.33225779943E+02 -0.24553472573E+02 -0.78526357658E+02  0.88731134982E+02  0.00000000000E+00 0. -1.
         21    1    1    2  504  502  0.10792331055E+03 -0.18573194965E+03  0.32597203854E+03  0.39038643418E+03  0.00000000000E+00 0. -1.
         21    1    1    2  505  504 -0.33017948004E+02 -0.95289564792E+02  0.42112284574E+03  0.43302971867E+03  0.00000000000E+00 0. -1.
          2    1    1    2  501    0 -0.10813114249E+03  0.30557498701E+03  0.19957675555E+04  0.20219190271E+04  0.00000000000E+00 0. -1.
<scales pt_clust_3="41.31374" pt_clust_4="14000.00000" pt_clust_5="102.38217" pt_clust_6="252.15248"></scales>
<clustering>
<clus scale="   41.314">  2  3  1 -1</clus>
<clus scale="  102.382">  1  5  2 -1</clus>
<clus scale="  252.152">  1  6  2 -1</clus>
<clus scale="   41.314">  2  3  1 -1</clus>
</clustering>
</event>
<event>
 6    0  0.4017242E+002  0.1346896E+03  0.7546771E-02  0.1220659E+00
         21   -1    0    0  505  502  0.00000000000E+00  0.00000000000E+00  0.22482092156E+03  0.22482092156E+03  0.00000000000E+00 0.  1.
          2   -1    0    0  504    0 -0.00000000000E+00 -0.00000000000E+00 -0.15021648619E+04  0.15021648619E+04  0.00000000000E+00 0.  1.
         21    1    1    2  503  502  0.54570160177E+02  0.63811450476E+02  0.29098761378E+02  0.88862486502E+02  0.00000000000E+00 0.  1.
         21    1    1    2  504  503  0.71312030410E+02  0.19506143868E+01  0.18335359917E+02  0.73657287494E+02  0.00000000000E+00 0.  1.
         21    1    1    2  505  501 -0.91067015204E+02 -0.60211389354E+02  0.94716849352E+02  0.14453336714E+03  0.00000000000E+00 0.  1.
          2    1    1    2  501    0 -0.34815175384E+02 -0.55506755088E+01 -0.14194949110E+04  0.14199326423E+04  0.00000000000E+00 0.  1.
<scales pt_clust_3="56.45160" pt_clust_4="56.45160" pt_clust_5="118.95202" pt_clust_6="35.25488"></scales>
<clustering>
<clus scale="   35.255">  2  6  1 -1</clus>
<clus scale="   56.452">  3  4 -1 -1</clus>
<clus scale="  118.952">  1  5  2 -1</clus>
<clus scale="  118.952">  1  3  2 -1</clus>
</clustering>
</event>
<event>
 6    0  0.4017242E+002  0.1773758E+03  0.7546771E-02  0.1170367E+00
         21   -1    0    0  505  502  0.00000000000E+00  0.00000000000E+00  0.39609141907E+03  0.39609141907E+03  0.00000000000E+00 0.  1.
          2   -1    0    0  503    0 -0.00000000000E+00 -0.00000000000E+00 -0.12401607137E+04  0.12401607137E+04  0.00000000000E+00 0. -1.
         21    1    1    2  503  504 -0.96708830794E+02  0.40272098923E+02  0.23091256643E+01  0.10478440708E+03  0.00000000000E+00 0.  1.
         21    1    1    2  504  502 -0.20058247502E+02  0.23485982434E+02  0.50146080750E+02  0.58894431642E+02  0.00000000000E+00 0.  1.
         21    1    1    2  505  501 -0.55794500455E+02  0.94748037281E+01  0.27773641682E+03  0.28344367238E+03  0.00000000000E+00 0.  1.
          2    1    1    2  501    0  0.17256157875E+03 -0.73232885085E+02 -0.11742609179E+04  0.11891296217E+04  0.00000000000E+00 0. -1.
<scales pt_clust_3="14000.00000" pt_clust_4="30.88567" pt_clust_5="77.78682" pt_clust_6="177.37582"></scales>
<clustering>
<clus scale="   30.886">  1  4  2 -1</clus>
<clus scale="   77.787">  1  5  2 -1</clus>
<clus scale="  177.376">  2  6  1 -1</clus>
<clus scale="   30.886">  1  3  2 -1</clus>
</clustering>
</event>
<event>
 6    0  0.4017242E+002  0.2124198E+03  0.7546771E-02  0.1139664E+00
          1   -1    0    0  503    0 -0.00000000000E+00  0.00000000000E+00  0.10687902943E+04  0.10687902943E+04  0.00000000000E+00 0. -1.
         21   -1    0    0  504  502  0.00000000000E+00 -0.00000000000E+00 -0.36107912409E+03  0.36107912409E+03  0.00000000000E+00 0. -1.
         21    1    1    2  503  505  0.28938917855E+02  0.17723688978E+02  0.51458005759E+02  0.61640217994E+02  0.00000000000E+00 0.  1.
         21    1    1    2  504  501  0.11265454033E+02 -0.40777388306E+02 -0.22197499900E+03  0.22597036539E+03  0.00000000000E+00 0. -1.
         21    1    1    2  505  502  0.19496771645E+03 -0.12620537166E+02 -0.35066186770E+02  0.19849767220E+03  0.00000000000E+00 0. -1.
          1    1    1    2  501    0 -0.23517208834E+03  0.35674236493E+02  0.91329435022E+03  0.94376116280E+03  0.00000000000E+00 0. -1.
<scales pt_clust_3="33.93509" pt_clust_4="42.28646" pt_clust_5="14000.00000" pt_clust_6="212.41983"></scales>
<clustering>
<clus scale="   33.935">  1  3  2 -1</clus>
<clus scale="   42.286">  2  4  1 -1</clus>
<clus scale="  212.420">  1  6  2 -1</clus>
<clus scale="   42.286">  2  3  1 -1</clus>
</clustering>
</event>
<event>
 6    0  0.4017242E+002  0.1163941E+03  0.7546771E-02  0.1249167E+00
         21   -1    0    0  501  502  0.00000000000E+00  0.00000000000E+00  0.11705365353E+03  0.11705365353E+03  0.00000000000E+00 0.  1.
          2   -1    0    0  505    0 -0.00000000000E+00 -0.00000000000E+00 -0.29240061666E+04  0.29240061666E+04  0.00000000000E+00 0.  1.
         21    1    1    2  503  502 -0.50797349483E+01 -0.51982571791E+02  0.21450688810E+02  0.56463470736E+02  0.00000000000E+00 0.  1.
         21    1    1    2  504  503  0.96386937735E+01 -0.35378833044E+02 -0.16214316051E+02  0.40093269887E+02  0.00000000000E+00 0.  1.
         21    1    1    2  505  504 -0.66144931103E+02  0.14916007495E+03 -0.36189944861E+02  0.16713345559E+03  0.00000000000E+00 0.  1.
          2    1    1    2  501    0  0.61585972277E+02 -0.61798670114E+02 -0.27759989409E+04  0.27773696239E+04  0.00000000000E+00 0.  1.
<scales pt_clust_3="33.96266" pt_clust_4="33.96266" pt_clust_5="109.10820" pt_clust_6="87.24625"></scales>
<clustering>
<clus scale="   33.963">  3  4 -1 -1</clus>
<clus scale="   87.246">  2  6  1 -1</clus>
<clus scale="  109.108">  2  5  1 -1</clus>
<clus scale="  116.394">  1  3  2 -1</clus>
</clustering>
</event>
<event>
 6    0  0.4017242E+002  0.9701002E+02  0.7546771E-02  0.1286712E+00
          1   -1    0    0  505    0 -0.00000000000E+00  0.00000000000E+00  0.18422200759E+04  0.18422200759E+04  0.00000000000E+00 0. -1.
         21   -1    0    0  504  502  0.00000000000E+00 -0.00000000000E+00 -0.21060899733E+02  0.21060899733E+02  0.00000000000E+00 0. -1.
         21    1    1    2  503  501 -0.11799506830E+02  0.82135169777E+02  0.17204520943E+03  0.19101038863E+03  0.00000000000E+00 0. -1.
         21    1    1    2  504  503 -0.40806083916E+02  0.11405991036E+02  0.93178926769E+02  0.10235988233E+03  0.00000000000E+00 0. -1.
         21    1    1    2  505  502  0.48823574924E+02  0.60032048709E+01  0.10941056608E+03  0.11996020968E+03  0.00000000000E+00 0. -1.
          1    1    1    2  501    0  0.37820158227E+01 -0.99544365685E+02  0.14465244738E+04  0.14499504950E+04  0.00000000000E+00 0. -1.
<scales pt_clust_3="14000.00000" pt_clust_4="42.37019" pt_clust_5="37.03594" pt_clust_6="97.01002"></scales>
<clustering>
<clus scale="   42.370">  2  4  1 -1</clus>
<clus scale="   37.036">  2  5  1 -1</clus>
<clus scale="   97.010">  1  6  2 -1</clus>
<clus scale="   42.370">  2  3  1 -1</clus>
</clustering>
</event>
<event>
 6    0  0.4017242E+002  0.1354005E+03  0.7546771E-02  0.1219655E+00
          1   -1    0    0  505    0 -0.00000000000E+00  0.00000000000E+00  0.83633938398E+03  0.83633938398E+03  0.00000000000E+00 0. -1.
         21   -1    0    0  504  502  0.00000000000E+00 -0.00000000000E+00 -0.28617623917E+03  0.28617623917E+03  0.00000000000E+00 0. -1.
         21    1    1    2  503  501 -0.95100358980E+02  0.72805832703E+02 -0.34717405895E+02  0.12469990307E+03  0.00000000000E+00 0. -1.
         21    1    1    2  504  503  0.10269468805E+03 -0.10371476523E+03 -0.15451499868E+03  0.21255078521E+03  0.00000000000E+00 0. -1.
         21    1    1    2  505  502  0.78493185559E+01  0.63205886622E+02  0.22609411689E+02  0.67585363818E+02  0.00000000000E+00 0. -1.
          1    1    1    2  501    0 -0.15443647622E+02 -0.32296954098E+02  0.71678613770E+03  0.71767957104E+03  0.00000000000E+00 0. -1.
<scales pt_clust_3="14000.00000" pt_clust_4="135.40047" pt_clust_5="51.01656" pt_clust_6="35.79943"></scales>
<clustering>
<clus scale="   35.799">  1  6  2 -1</clus>
<clus scale="   51.017">  1  5  2 -1</clus>
<clus scale="  135.400">  2  4  1 -1</clus>
<clus scale="  135.400">  2  3  1 -1</clus>
</clustering>
</event>
<event>
 6    0  0.4017242E+002  0.1334780E+03  0.7546771E-02  0.1222384E+00
          1   -1    0    0  503    0 -0.00000000000E+00  0.00000000000E+00  0.40150285174E+03  0.40150285174E+03  0.00000000000E+00 0.  1.
         21   -1    0    0  504  502  0.00000000000E+00 -0.00000000000E+00 -0.15443039057E+04  0.15443039057E+04  0.00000000000E+00 0. -1.
         21    1    1    2  503  505 -0.31653251623E+02 -0.10969618206E+02 -0.19187780115E+03  0.19478026449E+03  0.00000000000E+00 0. -1.
         21    1    1    2  504  501  0.13963906419E+03 -0.58556171862E+02 -0.46528760910E+03  0.48930609305E+03  0.00000000000E+00 0.  1.
         21    1    1    2  505  502 -0.76788530327E+02  0.43840432198E+02 -0.87037989322E+03  0.87485977186E+03  0.00000000000E+00 0. -1.
          1    1    1    2  501    0 -0.31197282244E+02  0.25685357870E+02  0.38474424949E+03  0.38686062806E+03  0.00000000000E+00 0.  1.
<scales pt_clust_3="33.13705" pt_clust_4="122.13963" pt_clust_5="33.13705" pt_clust_6="40.41049"></scales>
<clustering>
<clus scale="   33.137">  3  5 -1 -1</clus>
<clus scale="   40.410">  1  6  2 -1</clus>
<clus scale="  122.140">  1  4  2 -1</clus>
<clus scale="  133.478">  2  3  1 -1</clus>
</clustering>
</event>
<event>
 6    0  0.4017242E+002  0.1981261E+03  0.7546771E-02  0.1151330E+00
         21   -1    0    0  501  502  0.00000000000E+00  0.00000000000E+00  0.59134228744E+03  0.59134228744E+03  0.00000000000E+00 0. -1.
         -1   -1    0    0    0  501 -0.00000000000E+00 -0.00000000000E+00 -0.52751572507E+03  0.52751572507E+03  0.00000000000E+00 0.  1.
         21    1    1    2  503  505 -0.28511495017E+02  0.10561092253E+03  0.27131064016E+03  0.29253381987E+03  0.00000000000E+00 0. -1.
         21    1    1    2  504  503 -0.56723055503E+02  0.62771983309E+02  0.11743144866E+03  0.14473414265E+03  0.00000000000E+00 0. -1.
         21    1    1    2  505  502 -0.69586985266E+02 -0.62795261474E+02  0.14671061949E+03  0.17409652281E+03  0.00000000000E+00 0.  1.
         -1    1    1    2    0  504  0.15482153579E+03 -0.10558764437E+03 -0.47162614595E+03  0.50749352718E+03  0.00000000000E+00 0.  1.
<scales pt_clust_3="58.76514" pt_clust_4="58.76514" pt_clust_5="93.73150" pt_clust_6="186.51765"></scales>
<clustering>
<clus scale="   58.765">  3  4 -1 -1</clus>
<clus scale="   93.731">  1  5  2 -1</clus>
<clus scale="  186.518">  2  6  1 -1</clus>
<clus scale="   93.731">  1  3  2 -1</clus>
</clustering>
</event>
<event>
 6    0  0.4017242E+002  0.7437867E+02  0.7546771E-02  0.1345806E+00
         21   -1    0    0  505  502  0.00000000000E+00  0.00000000000E+00  0.32769180806E+03  0.32769180806E+03  0.00000000000E+00 0.  1.
          1   -1    0    0  504    0 -0.00000000000E+00 -0.00000000000E+00 -0.18662073913E+03  0.18662073913E+03  0.00000000000E+00 0. -1.
         21    1    1    2  503  502  0.16025522934E+02 -0.10166230714E+03 -0.28926695551E+02  0.10690554614E+03  0.00000000000E+00 0. -1.
         21    1    1    2  504  503 -0.24900041774E+02 -0.21159466882E+02  0.78930474681E+01  0.33615997939E+02  0.00000000000E+00 0.  1.
         21    1    1    2  505  501  0.23598740400E+02  0.69122639629E+02  0.25512746754E+03  0.26537683499E+03  0.00000000000E+00 0.  1.
          1    1    1    2  501    0 -0.14724221561E+02  0.53699134396E+02 -0.93022750524E+02  0.10841416813E+03  0.00000000000E+00 0. -1.
<scales pt_clust_3="74.37867" pt_clust_4="32.67622" pt_clust_5="14000.00000" pt_clust_6="50.66502"></scales>
<clustering>
<clus scale="   32.676">  2  4  1 -1</clus>
<clus scale="   50.665">  2  6  1 -1</clus>
<clus scale="   74.379">  2  3  1 -1</clus>
<clus scale="   74.379">  1  3  2 -1</clus>
</clustering>
</event>
<event>
 6    0  0.4017242E+002  0.9909547E+02  0.7546771E-02  0.1282210E+00
         -2   -1    0    0    0  501 -0.00000000000E+00  0.00000000000E+00  0.11427080994E+03  0.11427080994E+03  0.00000000000E+00 0.  1.
         21   -1    0    0  505  502  0.00000000000E+00 -0.00000000000E+00 -0.38780262820E+03  0.38780262820E+03  0.00000000000E+00 0.  1.
         21    1    1    2  503  501 -0.67115687423E+01 -0.66095800249E+02 -0.11130141729E+02  0.67361561891E+02  0.00000000000E+00 0.  1.
         21    1    1    2  504  502  0.36041093161E+02 -0.32690829548E+01 -0.34275446466E+02  0.49844292854E+02  0.00000000000E+00 0. -1.
         21    1    1    2  505  503 -0.11159600539E+03  0.69860276765E+02 -0.26408458492E+03  0.29508438569E+03  0.00000000000E+00 0.  1.
         -2    1    1    2    0  504  0.82266480974E+02 -0.49539356083E+00  0.35958354848E+02  0.89783197704E+02  0.00000000000E+00 0.  1.
<scales pt_clust_3="66.51852" pt_clust_4="36.18905" pt_clust_5="99.09547" pt_clust_6="14000.00000"></scales>
<clustering>
<clus scale="   36.189">  2  4  1 -1</clus>
<clus scale="   66.519">  1  3  2 -1</clus>
<clus scale="   99.095">  2  5  1 -1</clus>
<clus scale="   36.189">  2  3  1 -1</clus>
</clustering>
</event>
<event>
 6    0  0.4017242E+002  0.1055470E+03  0.7546771E-02  0.1269046E+00
         21   -1    0    0  503  502  0.00000000000E+00  0.00000000000E+00  0.13492985365E+03  0.13492985365E+03  0.00000000000E+00 0.  1.
          1   -1    0    0  505    0 -0.00000000000E+00 -0.00000000000E+00 -0.29635732316E+03  0.29635732316E+03  0.00000000000E+00 0.  1.
         21    1    1    2  503  501 -0.37911906539E+02  0.49598848497E+02  0.18572949444E+02  0.65133039855E+02  0.00000000000E+00 0.  1.
         21    1    1    2  504  502  0.25785984905E+02 -0.43997583947E+02  0.23060130323E+02  0.55968509192E+02  0.00000000000E+00 0.  1.
         21    1    1    2  505  504  0.24740863725E+02 -0.94661323764E+02 -0.11445042810E+02  0.98508200468E+02  0.00000000000E+00 0.  1.
          1    1    1    2  501    0 -0.12614942091E+02  0.89060059213E+02 -0.19161550646E+03  0.21167742730E+03  0.00000000000E+00 0.  1.
<scales pt_clust_3="62.42883" pt_clust_4="31.87173" pt_clust_5="31.87173" pt_clust_6="95.87120"></scales>
<clustering>
<clus scale="   31.872">  4  5 -1 -1</clus>
<clus scale="   62.429">  1  3  2 -1</clus>
<clus scale="   95.871">  2  6  1 -1</clus>
<clus scale="   62.429">  1  3  2 -1</clus>
</clustering>
</event>
<event>
 6    0  0.4017242E+002  0.1016647E+03  0.7546771E-02  0.1276834E+00
         -4   -1    0    0    0  501 -0.00000000000E+00  0.00000000000E+00  0.30002980196E+02  0.30002980196E+02  0.00000000000E+00 0. -1.
         21   -1    0    0  503  502  0.00000000000E+00 -0.00000000000E+00 -0.12678746309E+04  0.12678746309E+04  0.00000000000E+00 0.  1.
         21    1    1    2  503  504  0.69674011424E+02 -0.35320920030E+02 -0.37992972088E+03  0.38787707856E+03  0.00000000000E+00 0.  1.
         21    1    1    2  504  501  0.37087538141E+02 -0.47157989939E+02 -0.22007954422E+03  0.22811042783E+03  0.00000000000E+00 0.  1.
         21    1    1    2  505  502 -0.35221361562E+02  0.76551262585E+02 -0.58913070131E+03  0.59512656077E+03  0.00000000000E+00 0.  1.
         -4    1    1    2    0  505 -0.71540188003E+02  0.59276473842E+01 -0.48731684303E+02  0.86763543946E+02  0.00000000000E+00 0. -1.
<scales pt_clust_3="30.71914" pt_clust_4="30.71914" pt_clust_5="95.43066" pt_clust_6="71.78534"></scales>
<clustering>
<clus scale="   30.719">  3  4 -1 -1</clus>
<clus scale="   71.785">  1  6  2 -1</clus>
<clus scale="   95.431">  2  5  1 -1</clus>
<clus scale="   95.431">  2  3  1 -1</clus>
</clustering>
</event>
<event>
 6    0  0.4017242E+002  0.9002386E+02  0.7546771E-02  0.1302794E+00
         21   -1    0    0  503  502  0.00000000000E+00  0.00000000000E+00  0.44427196430E+03  0.44427196430E+03  0.00000000000E+00 0. -1.
          1   -1    0    0  504    0 -0.00000000000E+00 -0.00000000000E+00 -0.17351995859E+04  0.17351995859E+04  0.00000000000E+00 0.  1.
         21    1    1    2  503  505  0.25933686856E+02  0.56720764539E+02  0.31252734178E+03  0.31868972466E+03  0.00000000000E+00 0. -1.
         21    1    1    2  504  502  0.15422096386E+02  0.83283334074E+02  0.41793814274E+02  0.94449339346E+02  0.00000000000E+00 0. -1.
         21    1    1    2  505  501 -0.30397121449E+02 -0.99274191894E+02  0.15564397283E+02  0.10498381128E+03  0.00000000000E+00 0. -1.
          1    1    1    2  501    0 -0.10958661793E+02 -0.40729906719E+02 -0.16608131750E+04  0.16613486750E+04  0.00000000000E+00 0.  1.
<scales pt_clust_3="60.63967" pt_clust_4="14000.00000" pt_clust_5="90.02386" pt_clust_6="42.17840"></scales>
<clustering>
<clus scale="   42.178">  2  6  1 -1</clus>
<clus scale="   60.640">  1  3  2 -1</clus>
<clus scale="   90.024">  1  5  2 -1</clus>
<clus scale="   60.640">  1  3  2 -1</clus>
</clustering>
</event>
<event>
 6    0  0.4017242E+002  0.1978024E+03  0.7546771E-02  0.1151607E+00
         21   -1    0    0  505  502  0.00000000000E+00  0.00000000000E+00  0.31308995959E+03  0.31308995959E+03  0.00000000000E+00 0.  1.
          1   -1    0    0  504    0 -0.00000000000E+00 -0.00000000000E+00 -0.27572002744E+04  0.27572002744E+04  0.00000000000E+00 0.  1.
         21    1    1    2  503  501 -0.22617295070E+03  0.17221664493E+02 -0.31314825695E+03  0.38666861805E+03  0.00000000000E+00 0.  1.
         21    1    1    2  504  502 -0.37854074131E+02  0.89982586957E+01  0.45971349862E+01  0.39179500226E+02  0.00000000000E+00 0.  1.
         21    1    1    2  505  503  0.21120169043E+03 -0.85537493086E+02  0.20261504040E+03  0.30491912265E+03  0.00000000000E+00 0.  1.
          1    1    1    2  501    0  0.52825334402E+02  0.59317569897E+02 -0.23381742332E+04  0.23395229931E+04  0.00000000000E+00 0.  1.
<scales pt_clust_3="197.80236" pt_clust_4="38.90886" pt_clust_5="14000.00000" pt_clust_6="79.38708"></scales>
<clustering>
<clus scale="   38.909">  1  4  2 -1</clus>
<clus scale="   79.387">  2  6  1 -1</clus>
<clus scale="  197.802">  2  3  1 -1</clus>
<clus scale="   38.909">  1  3  2 -1</clus>
</clustering>
</event>
<event>
 6    0  0.4017242E+002  0.1093318E+03  0.7546771E-02  0.1261812E+00
         21   -1    0    0  503  502  0.00000000000E+00  0.00000000000E+00  0.20187503649E+03  0.20187503649E+03  0.00000000000E+00 0. -1.
         -4   -1    0    0    0  501 -0.00000000000E+00 -0.00000000000E+00 -0.22796552397E+04  0.22796552397E+04  0.00000000000E+00 0. -1.
         21    1    1    2  503  501 -0.27340796519E+02  0.35327393177E+02 -0.30546073582E+02  0.54116600727E+02  0.00000000000E+00 0.  1.
         21    1    1    2  504  502  0.11707117066E+03  0.30190984337E+02  0.14727445028E+03  0.19054374364E+03  0.00000000000E+00 0. -1.
         21    1    1    2  505  504 -0.61594124792E+02 -0.45702347209E+02 -0.48845465148E+02  0.90930854031E+02  0.00000000000E+00 0. -1.
         -4    1    1    2    0  505 -0.28136249349E+02 -0.19816030305E+02 -0.21456631147E+04  0.21459390778E+04  0.00000000000E+00 0. -1.
<scales pt_clust_3="46.45184" pt_clust_4="109.33180" pt_clust_5="14000.00000" pt_clust_6="34.41400"></scales>
<clustering>
<clus scale="   34.414">  2  6  1 -1</clus>
<clus scale="   46.452">  2  3  1 -1</clus>
<clus scale="  109.332">  1  4  2 -1</clus>
<clus scale="  109.332">  1  3  2 -1</clus>
</clustering>
</event>
<event>
 6    0  0.4017242E+002  0.8630342E+02  0.7546771E-02  0.1312059E+00
          1   -1    0    0  504    0 -0.00000000000E+00  0.00000000000E+00  0.46399259770E+03  0.46399259770E+03  0.00000000000E+00 0.  1.
         21   -1    0    0  505  502  0.00000000000E+00 -0.00000000000E+00 -0.75365800920E+02  0.75365800920E+02  0.00000000000E+00 0.  1.
         21    1    1    2  503  501 -0.50439393551E+02 -0.26609407674E+02  0.56931091017E+02  0.80581276504E+02  0.00000000000E+00 0.  1.
         21    1    1    2  504  502  0.10547469860E+03  0.37046604080E+02  0.18698779888E+03  0.21785729239E+03  0.00000000000E+00 0.  1.
         21    1    1    2  505  503 -0.69915551707E+02 -0.42976943377E+02 -0.94990545997E+01  0.82616185284E+02  0.00000000000E+00 0.  1.
          1    1    1    2  501    0  0.14880246662E+02  0.32539746971E+02  0.15420696148E+03  0.15830364444E+03  0.00000000000E+00 0.  1.
<scales pt_clust_3="50.92944" pt_clust_4="14000.00000" pt_clust_5="86.30342" pt_clust_6="35.78068"></scales>
<clustering>
<clus scale="   35.781">  1  6  2 -1</clus>
<clus scale="   50.929">  1  3  2 -1</clus>
<clus scale="   86.303">  2  5  1 -1</clus>
<clus scale="   86.303">  2  3  1 -1</clus>
</clustering>
</event>
<event>
 6    0  0.4017242E+002  0.8626047E+02  0.7546771E-02  0.1312169E+00
         -2   -1    0    0    0  501 -0.00000000000E+00  0.00000000000E+00  0.64172799892E+02  0.64172799892E+02  0.00000000000E+00 0.  1.
         21   -1    0    0  504  502  0.00000000000E+00 -0.00000000000E+00 -0.48639454972E+03  0.48639454972E+03  0.00000000000E+00 0.  1.
         21    1    1    2  503  502  0.21632044513E+02 -0.75094091069E+02 -0.11737502396E+03  0.14101051065E+03  0.00000000000E+00 0.  1.
         21    1    1    2  504  501 -0.49018602823E+02 -0.75219486275E+00 -0.62270767902E+02  0.79252998397E+02  0.00000000000E+00 0. -1.
         21    1    1    2  505  503 -0.59942031136E+02  0.87975527811E+02 -0.21157151199E+03  0.23684434821E+03  0.00000000000E+00 0.  1.
         -2    1    1    2    0  505  0.87328589446E+02 -0.12129241879E+02 -0.31004445981E+02  0.93459492369E+02  0.00000000000E+00 0.  1.
<scales pt_clust_3="75.59890" pt_clust_4="49.02437" pt_clust_5="86.26047" pt_clust_6="14000.00000"></scales>
<clustering>
<clus scale="   49.024">  2  4  1 -1</clus>
<clus scale="   75.599">  2  3  1 -1</clus>
<clus scale="   86.260">  2  5  1 -1</clus>
<clus scale="   49.024">  2  3  1 -1</clus>
</clustering>
</event>
<event>
 6    0  0.4017242E+002  0.1444972E+03  0.7546771E-02  0.1207403E+00
         21   -1    0    0  504  502  0.00000000000E+00  0.00000000000E+00  0.84155390972E+02  0.84155390972E+02  0.00000000000E+00 0.  1.
          1   -1    0    0  505    0 -0.00000000000E+00 -0.00000000000E+00 -0.17581988134E+04  0.17581988134E+04  0.00000000000E+00 0. -1.
         21    1    1    2  503  501  0.40032238313E+02  0.88697863611E+02 -0.31993619159E+03  0.33440851933E+03  0.00000000000E+00 0.  1.
         21    1    1    2  504  503 -0.57335467198E+02 -0.20150098449E+03 -0.18391865930E+03  0.27877603158E+03  0.00000000000E+00 0.  1.
         21    1    1    2  505  502  0.80854763023E+01  0.55436545151E+02  0.14982447549E+01  0.56043110216E+02  0.00000000000E+00 0.  1.
          1    1    1    2  501    0  0.92177525826E+01  0.57366575724E+02 -0.11716868163E+04  0.11731265432E+04  0.00000000000E+00 0. -1.
<scales pt_clust_3="144.49722" pt_clust_4="14000.00000" pt_clust_5="56.02308" pt_clust_6="58.83050"></scales>
<clustering>
<clus scale="   56.023">  1  5  2 -1</clus>
<clus scale="   58.831">  2  6  1 -1</clus>
<clus scale="  144.497">  2  3  1 -1</clus>
<clus scale="   56.023">  1  3  2 -1</clus>
</clustering>
</event>
<event>
 6    0  0.4017242E+002  0.1152868E+03  0.7546771E-02  0.1251081E+00
          2   -1    0    0  505    0 -0.00000000000E+00  0.00000000000E+00  0.13220469967E+04  0.13220469967E+04  0.00000000000E+00 0.  1.
         21   -1    0    0  504  502  0.00000000000E+00 -0.00000000000E+00 -0.24055733142E+03  0.24055733142E+03  0.00000000000E+00 0. -1.
         21    1    1    2  503  502  0.69465252955E+02  0.37233043412E+02 -0.18037786855E+03  0.19684485351E+03  0.00000000000E+00 0. -1.
         21    1    1    2  504  501 -0.25862992447E+02 -0.35060556466E+02  0.74411099742E+00  0.43573968137E+02  0.00000000000E+00 0. -1.
         21    1    1    2  505  503  0.62535014838E+02 -0.55638403202E+02  0.35676538307E+02  0.90989424535E+02  0.00000000000E+00 0.  1.
          2    1    1    2  501    0 -0.10613727535E+03  0.53465916256E+02  0.12254468845E+04  0.12311960820E+04  0.00000000000E+00 0.  1.
<scales pt_clust_3="47.73011" pt_clust_4="43.56761" pt_clust_5="14000.00000" pt_clust_6="115.28679"></scales>
<clustering>
<clus scale="   43.568">  2  4  1 -1</clus>
<clus scale="   47.730">  2  3  1 -1</clus>
<clus scale="  115.287">  1  6  2 -1</clus>
<clus scale="   43.568">  2  3  1 -1</clus>
</clustering>
</event>
<event>
 6    0  0.4017242E+002  0.1303508E+03  0.7546771E-02  0.1226936E+00
          1   -1    0    0  504    0 -0.00000000000E+00  0.00000000000E+00  0.95561562105E+03  0.95561562105E+03  0.00000000000E+00 0. -1.
         21   -1    0    0  505  502  0.00000000000E+00 -0.00000000000E+00 -0.46610740607E+03  0.46610740607E+03  0.00000000000E+00 0. -1.
         21    1    1    2  503  501  0.31350833433E+02 -0.23408976717E+02 -0.65184992557E+02  0.76025904812E+02  0.00000000000E+00 0. -1.
         21    1    1    2  504  502 -0.57734308810E+02  0.79942238207E+02 -0.44248174494E+02  0.10808289786E+03  0.00000000000E+00 0.  1.
         21    1    1    2  505  503  0.26328178461E+02 -0.88646833652E+02 -0.31235296629E+03  0.32575421662E+03  0.00000000000E+00 0. -1.
          1    1    1    2  501    0  0.55296915939E-01  0.32113572161E+02  0.91129434833E+03  0.91186000782E+03  0.00000000000E+00 0. -1.
<scales pt_clust_3="35.56199" pt_clust_4="118.24701" pt_clust_5="35.56199" pt_clust_6="32.11362"></scales>
<clustering>
<clus scale="   32.114">  1  6  2 -1</clus>
<clus scale="   35.562">  3  5 -1 -1</clus>
<clus scale="  118.247">  1  4  2 -1</clus>
<clus scale="  130.351">  2  3  1 -1</clus>
</clustering>
</event>
<event>
 6    0  0.4017242E+002  0.1343070E+03  0.7546771E-02  0.1221201E+00
         21   -1    0    0  504  502  0.00000000000E+00  0.00000000000E+00  0.30776903046E+03  0.30776903046E+03  0.00000000000E+00 0. -1.
          2   -1    0    0  503    0 -0.00000000000E+00 -0.00000000000E+00 -0.93294828191E+03  0.93294828191E+03  0.00000000000E+00 0.  1.
         21    1    1    2  503  505 -0.29121964701E+02  0.12128679959E+03 -0.40587081794E+01  0.12480003884E+03  0.00000000000E+00 0. -1.
         21    1    1    2  504  501  0.35438403071E+02  0.47223608400E+02  0.26644210909E+02  0.64775485931E+02  0.00000000000E+00 0. -1.
         21    1    1    2  505  502  0.34595309699E+02 -0.38090821020E+02  0.19279370475E+03  0.19954237317E+03  0.00000000000E+00 0. -1.
          2    1    1    2  501    0 -0.40911748069E+02 -0.13041958697E+03 -0.84055845892E+03  0.85159941443E+03  0.00000000000E+00 0.  1.
<scales pt_clust_3="14000.00000" pt_clust_4="58.82963" pt_clust_5="51.45625" pt_clust_6="134.30698"></scales>
<clustering>
<clus scale="   51.456">  1  5  2 -1</clus>
<clus scale="   58.830">  1  4  2 -1</clus>
<clus scale="  134.307">  2  6  1 -1</clus>
<clus scale="   51.456">  1  3  2 -1</clus>
</clustering>
</event>
<event>
 6    0  0.4017242E+002  0.1100082E+03  0.7546771E-02  0.1260555E+00
         21   -1    0    0  505  502  0.00000000000E+00  0.00000000000E+00  0.55680994859E+03  0.55680994859E+03  0.00000000000E+00 0.  1.
          1   -1    0    0  503    0 -0.00000000000E+00 -0.00000000000E+00 -0.11192789977E+04  0.11192789977E+04  0.00000000000E+00 0. -1.
         21    1    1    2  503  504 -0.11418264772E+02 -0.41044243577E+02 -0.19317011230E+02  0.46777704348E+02  0.00000000000E+00 0.  1.
         21    1    1    2  504  502 -0.40883997203E+02  0.67278198161E+02 -0.12331175635E+03  0.14629985109E+03  0.00000000000E+00 0.  1.
         21    1    1    2  505  501 -0.67409869994E+02  0.86531599729E+02  0.51869986899E+03  0.53017106901E+03  0.00000000000E+00 0.  1.
          1    1    1    2  501    0  0.11971213197E+03 -0.11276555431E+03 -0.93854015050E+03  0.95284032182E+03  0.00000000000E+00 0. -1.
<scales pt_clust_3="42.60290" pt_clust_4="75.20827" pt_clust_5="14000.00000" pt_clust_6="110.00823"></scales>
<clustering>
<clus scale="   42.603">  2  3  1 -1</clus>
<clus scale="   75.208">  2  4  1 -1</clus>
<clus scale="  110.008">  2  6  1 -1</clus>
<clus scale="  110.008">  1  3  2 -1</clus>
</clustering>
</event>
<event>
 6    0  0.6876138E+002  0.1356199E+03  0.7546771E-02  0.1219347E+00
         21   -1    0    0  505  502  0.00000000000E+00  0.00000000000E+00  0.57375928235E+03  0.57375928235E+03  0.00000000000E+00 0. -1.
          2   -1    0    0  503    0 -0.00000000000E+00 -0.00000000000E+00 -0.62762645005E+03  0.62762645005E+03  0.00000000000E+00 0. -1.
         21    1    1    2  503  504  0.15763571601E+02 -0.36340467972E+02  0.13005808847E+02  0.41692575668E+02  0.00000000000E+00 0.  1.
         21    1    1    2  504  502  0.70139782250E+02 -0.14548744695E+02  0.48057295442E+01  0.71793802398E+02  0.00000000000E+00 0.  1.
         21    1    1    2  505  501 -0.13029786528E+03  0.18021676438E+02  0.49823953745E+03  0.51531053860E+03  0.00000000000E+00 0. -1.
          2    1    1    2  501    0  0.44394511425E+02  0.32867536229E+02 -0.56991824354E+03  0.57258881573E+03  0.00000000000E+00 0. -1.
<scales pt_clust_3="37.86547" pt_clust_4="37.86547" pt_clust_5="125.69786" pt_clust_6="55.23719"></scales>
<clustering>
<clus scale="   37.865">  3  4 -1 -1</clus>
<clus scale="   55.237">  2  6  1 -1</clus>
<clus scale="  125.698">  1  5  2 -1</clus>
<clus scale="  125.698">  1  3  2 -1</clus>
</clustering>
</event>
<event>
 6    0  0.4017242E+002  0.1554643E+03  0.7546771E-02  0.1193915E+00
         21   -1    0    0  505  502  0.00000000000E+00  0.00000000000E+00  0.35944626020E+03  0.35944626020E+03  0.00000000000E+00 0. -1.
         -1   -1    0    0    0  501 -0.00000000000E+00 -0.00000000000E+00 -0.75615063360E+03  0.75615063360E+03  0.00000000000E+00 0.  1.
         21    1    1    2  503  501 -0.42016738410E+02 -0.64935179044E+01 -0.54753518871E+02  0.69321857377E+02  0.00000000000E+00 0. -1.
         21    1    1    2  504  502  0.12058403004E+03  0.83465496290E+02  0.17818717665E+03  0.23077622775E+03  0.00000000000E+00 0. -1.
         21    1    1    2  505  503 -0.15865197820E+02  0.34860105028E+02  0.13891110767E+03  0.14409450808E+03  0.00000000000E+00 0. -1.
         -1    1    1    2    0  504 -0.62702093815E+02 -0.11183208341E+03 -0.65904913884E+03  0.67140430059E+03  0.00000000000E+00 0.  1.
<scales pt_clust_3="42.87935" pt_clust_4="155.46434" pt_clust_5="38.30054" pt_clust_6="14000.00000"></scales>
<clustering>
<clus scale="   38.301">  1  5  2 -1</clus>
<clus scale="   42.879">  2  3  1 -1</clus>
<clus scale="  155.464">  1  4  2 -1</clus>
<clus scale="   38.301">  1  3  2 -1</clus>
</clustering>
</event>
<event>
 6    0  0.4017242E+002  0.1320046E+03  0.7546771E-02  0.1224511E+00
          1   -1    0    0  504    0 -0.00000000000E+00  0.00000000000E+00  0.32683305959E+03  0.32683305959E+03  0.00000000000E+00 0. -1.
         21   -1    0    0  505  502  0.00000000000E+00 -0.00000000000E+00 -0.28555305487E+03  0.28555305487E+03  0.00000000000E+00 0.  1.
         21    1    1    2  503  501 -0.13173457995E+03  0.22655122127E+01 -0.16588530226E+03  0.21184207704E+03  0.00000000000E+00 0.  1.
         21    1    1    2  504  502  0.37772416610E+02  0.30274804280E+02 -0.23379728896E+02  0.53758078035E+02  0.00000000000E+00 0.  1.
         21    1    1    2  505  503 -0.37837932343E+02 -0.40806464244E+02 -0.23546311978E+02  0.60426032932E+02  0.00000000000E+00 0.  1.
          1    1    1    2  501    0  0.13180009568E+03  0.82661477511E+01  0.25409134786E+03  0.28635992645E+03  0.00000000000E+00 0. -1.
<scales pt_clust_3="14000.00000" pt_clust_4="48.40784" pt_clust_5="47.52518" pt_clust_6="132.00462"></scales>
<clustering>
<clus scale="   48.408">  2  4  1 -1</clus>
<clus scale="   47.525">  2  5  1 -1</clus>
<clus scale="  132.005">  1  6  2 -1</clus>
<clus scale="   48.408">  2  3  1 -1</clus>
</clustering>
</event>
<event>
 6    0  0.4017242E+002  0.1005654E+03  0.7546771E-02  0.1279111E+00
          2   -1    0    0  504    0 -0.00000000000E+00  0.00000000000E+00  0.25206699924E+04  0.25206699924E+04  0.00000000000E+00 0. -1.
         21   -1    0    0  505  502  0.00000000000E+00 -0.00000000000E+00 -0.36951183628E+02  0.36951183628E+02  0.00000000000E+00 0.  1.
         21    1    1    2  503  501 -0.73369550618E+02  0.89817928202E+01  0.61180424706E+03  0.61625335722E+03  0.00000000000E+00 0.  1.
         21    1    1    2  504  502  0.54680445992E+02 -0.84430203556E+02  0.86064697887E+02  0.13238407257E+03  0.00000000000E+00 0.  1.
         21    1    1    2  505  503  0.36175236158E+01  0.11511977402E+03  0.28306970144E+03  0.30560449068E+03  0.00000000000E+00 0.  1.
          2    1    1    2  501    0  0.15071581010E+02 -0.39671363288E+02  0.15027801624E+04  0.15033792555E+04  0.00000000000E+00 0. -1.
<scales pt_clust_3="65.99235" pt_clust_4="14000.00000" pt_clust_5="100.56542" pt_clust_6="42.43783"></scales>
<clustering>
<clus scale="   42.438">  1  6  2 -1</clus>
<clus scale="   65.992">  1  3  2 -1</clus>
<clus scale="  100.565">  1  5  2 -1</clus>
<clus scale="  100.565">  2  3  1 -1</clus>
</clustering>
</event>
<event>
 6    0  0.4017242E+002  0.8554376E+02  0.7546771E-02  0.1314017E+00
          1   -1    0    0  505    0 -0.00000000000E+00  0.00000000000E+00  0.21902700035E+03  0.21902700035E+03  0.00000000000E+00 0.  1.
         21   -1    0    0  504  502  0.00000000000E+00 -0.00000000000E+00 -0.31860627388E+03  0.31860627388E+03  0.00000000000E+00 0.  1.
         21    1    1    2  503  502 -0.66742546274E+02  0.68985448589E+02 -0.80868872616E+02  0.12551228688E+03  0.00000000000E+00 0.  1.
         21    1    1    2  504  501 -0.12980236316E+02 -0.53435257922E+02 -0.18104510165E+03  0.18921189750E+03  0.00000000000E+00 0.  1.
         21    1    1    2  505  503 -0.31350084795E+02  0.76928293911E+01  0.11746811272E+02  0.34351055526E+02  0.00000000000E+00 0. -1.
          1    1    1    2  501    0  0.11107286739E+03 -0.23243020059E+02  0.15058788947E+03  0.18855803431E+03  0.00000000000E+00 0.  1.
<scales pt_clust_3="85.54376" pt_clust_4="54.99176" pt_clust_5="32.28014" pt_clust_6="14000.00000"></scales>
<clustering>
<clus scale="   32.280">  1  5  2 -1</clus>
<clus scale="   54.992">  2  4  1 -1</clus>
<clus scale="   85.544">  2  3  1 -1</clus>
<clus scale="   54.992">  2  3  1 -1</clus>
</clustering>
</event>
<event>
 6    0  0.4017242E+002  0.1243928E+03  0.7546771E-02  0.1236021E+00
          2   -1    0    0  503    0 -0.00000000000E+00  0.00000000000E+00  0.12465946892E+04  0.12465946892E+04  0.00000000000E+00 0. -1.
         21   -1    0    0  504  502  0.00000000000E+00 -0.00000000000E+00 -0.81958053050E+02  0.81958053050E+02  0.00000000000E+00 0.  1.
         21    1    1    2  503  505  0.15120380398E+03 -0.13982541797E+03  0.16564601203E+03  0.26429593101E+03  0.00000000000E+00 0.  1.
         21    1    1    2  504  501 -0.11246408885E+02  0.45658125673E+02  0.84000668974E+02  0.96266601377E+02  0.00000000000E+00 0.  1.
         21    1    1    2  505  502 -0.52968599551E+02  0.14361713946E+02  0.10559111201E+02  0.55887621127E+02  0.00000000000E+00 0.  1.
          2    1    1    2  501    0 -0.86988795547E+02  0.79805578350E+02  0.90443084391E+03  0.91210258869E+03  0.00000000000E+00 0. -1.
<scales pt_clust_3="14000.00000" pt_clust_4="47.02283" pt_clust_5="62.90940" pt_clust_6="124.39282"></scales>
<clustering>
<clus scale="   47.023">  2  4  1 -1</clus>
<clus scale="   62.909">  2  5  1 -1</clus>
<clus scale="  124.393">  1  6  2 -1</clus>
<clus scale="   47.023">  2  3  1 -1</clus>
</clustering>
</event>
<event>
 6    0  0.4017242E+002  0.9774271E+02  0.7546771E-02  0.1285116E+00
         21   -1    0    0  504  502  0.00000000000E+00  0.00000000000E+00  0.12102713131E+03  0.12102713131E+03  0.00000000000E+00 0.  1.
          2   -1    0    0  505    0 -0.00000000000E+00 -0.00000000000E+00 -0.16615087531E+04  0.16615087531E+04  0.00000000000E+00 0.  1.
         21    1    1    2  503  502 -0.10027949251E+03  0.51807859402E+02 -0.10197856596E+02  0.11333149250E+03  0.00000000000E+00 0.  1.
         21    1    1    2  504  501  0.55427934503E+01 -0.33802126901E+02  0.61464491425E+02  0.70364693195E+02  0.00000000000E+00 0.  1.
         21    1    1    2  505  503  0.98104933488E+02 -0.49331153420E+02 -0.95125952307E+03  0.95757653527E+03  0.00000000000E+00 0.  1.
          2    1    1    2  501    0 -0.33682344328E+01  0.31325420919E+02 -0.64048873351E+03  0.64126316341E+03  0.00000000000E+00 0.  1.
<scales pt_clust_3="97.74271" pt_clust_4="34.11640" pt_clust_5="14000.00000" pt_clust_6="31.50598"></scales>
<clustering>
<clus scale="   31.506">  2  6  1 -1</clus>
<clus scale="   34.116">  1  4  2 -1</clus>
<clus scale="   97.743">  1  3  2 -1</clus>
<clus scale="   34.116">  1  3  2 -1</clus>
</clustering>
</event>
<event>
 6    0  0.4017242E+002  0.7265434E+02  0.7546771E-02  0.1351293E+00
         21   -1    0    0  505  502  0.00000000000E+00  0.00000000000E+00  0.23609488420E+03  0.23609488420E+03  0.00000000000E+00 0. -1.
          1   -1    0    0  503    0 -0.00000000000E+00 -0.00000000000E+00 -0.19162196573E+03  0.19162196573E+03  0.00000000000E+00 0. -1.
         21    1    1    2  503  502 -0.16841236328E+02  0.29846809947E+02  0.12991194264E+02  0.36650108233E+02  0.00000000000E+00 0. -1.
         21    1    1    2  504  501 -0.74205587243E+02  0.53693433876E+02 -0.86677207938E+02  0.12610468824E+03  0.00000000000E+00 0. -1.
         21    1    1    2  505  504  0.30284627032E+02 -0.72594275438E+02  0.16807334349E+03  0.18556868339E+03  0.00000000000E+00 0. -1.
          1    1    1    2  501    0  0.60762196539E+02 -0.10945968385E+02 -0.49914411341E+02  0.79393370074E+02  0.00000000000E+00 0. -1.
<scales pt_clust_3="34.27039" pt_clust_4="72.65434" pt_clust_5="50.29181" pt_clust_6="14000.00000"></scales>
<clustering>
<clus scale="   34.270">  1  3  2 -1</clus>
<clus scale="   50.292">  1  5  2 -1</clus>
<clus scale="   72.654">  1  4  2 -1</clus>
<clus scale="   34.270">  1  3  2 -1</clus>
</clustering>
</event>
<event>
 6    0  0.4017242E+002  0.1107525E+03  0.7546771E-02  0.1259183E+00
         21   -1    0    0  504  502  0.00000000000E+00  0.00000000000E+00  0.88954835119E+03  0.88954835119E+03  0.00000000000E+00 0.  1.
          1   -1    0    0  503    0 -0.00000000000E+00 -0.00000000000E+00 -0.31038257851E+03  0.31038257851E+03  0.00000000000E+00 0.  1.
         21    1    1    2  503  502 -0.83926112303E+02 -0.59192251715E+02  0.81068593098E+03  0.81716521811E+03  0.00000000000E+00 0.  1.
         21    1    1    2  504  505  0.14156360171E+02  0.60452983310E+02  0.41021940162E+02  0.74416162888E+02  0.00000000000E+00 0.  1.
         21    1    1    2  505  501  0.11392106965E+02  0.34710511108E+02 -0.11272702114E+02  0.38231838766E+02  0.00000000000E+00 0.  1.
          1    1    1    2  501    0  0.58377645167E+02 -0.35971242702E+02 -0.26126939634E+03  0.27011770994E+03  0.00000000000E+00 0.  1.
<scales pt_clust_3="100.84833" pt_clust_4="35.11570" pt_clust_5="35.11570" pt_clust_6="68.57025"></scales>
<clustering>
<clus scale="   35.116">  4  5 -1 -1</clus>
<clus scale="   68.570">  2  6  1 -1</clus>
<clus scale="  100.848">  1  3  2 -1</clus>
<clus scale="  100.848">  1  3  2 -1</clus>
</clustering>
</event>
<event>
 6    0  0.4017242E+002  0.1084017E+03  0.7546771E-02  0.1263559E+00
         21   -1    0    0  501  502  0.00000000000E+00  0.00000000000E+00  0.55108108766E+03  0.55108108766E+03  0.00000000000E+00 0. -1.
          1   -1    0    0  504    0 -0.00000000000E+00 -0.00000000000E+00 -0.21886858715E+03  0.21886858715E+03  0.00000000000E+00 0. -1.
         21    1    1    2  503  502  0.33464475648E+02  0.39957860490E+02  0.40725346693E+03  0.41057506996E+03  0.00000000000E+00 0. -1.
         21    1    1    2  504  505 -0.76765693254E+01 -0.55993332037E+02  0.18200864162E+02  0.59375537096E+02  0.00000000000E+00 0. -1.
         21    1    1    2  505  503  0.19864082241E+02 -0.67526041646E+02  0.77381211528E+02  0.10460497102E+03  0.00000000000E+00 0. -1.
          1    1    1    2  501    0 -0.45651988564E+02  0.83561513193E+02 -0.17062304211E+03  0.19539409675E+03  0.00000000000E+00 0. -1.
<scales pt_clust_3="52.12007" pt_clust_4="43.42120" pt_clust_5="43.42120" pt_clust_6="96.96821"></scales>
<clustering>
<clus scale="   43.421">  4  5 -1 -1</clus>
<clus scale="   52.120">  1  3  2 -1</clus>
<clus scale="   96.968">  2  6  1 -1</clus>
<clus scale="   52.120">  1  3  2 -1</clus>
</clustering>
</event>
<event>
 6    0  0.4017242E+002  0.8549313E+02  0.7546771E-02  0.1314148E+00
          2   -1    0    0  503    0 -0.00000000000E+00  0.00000000000E+00  0.57002300236E+03  0.57002300236E+03  0.00000000000E+00 0. -1.
         21   -1    0    0  504  502  0.00000000000E+00 -0.00000000000E+00 -0.18781590374E+04  0.18781590374E+04  0.00000000000E+00 0.  1.
         21    1    1    2  503  502  0.58475839348E+02 -0.10642318880E+03 -0.61913681509E+03  0.63093241690E+03  0.00000000000E+00 0.  1.
         21    1    1    2  504  505  0.40906040573E+02 -0.94875656568E+01 -0.76596052449E+03  0.76711071114E+03  0.00000000000E+00 0.  1.
         21    1    1    2  505  501 -0.28700486828E+02  0.68024981797E+02 -0.48051955784E+03  0.48615857656E+03  0.00000000000E+00 0. -1.
          2    1    1    2  501    0 -0.70681393093E+02  0.47885772658E+02  0.55748086237E+03  0.56398033518E+03  0.00000000000E+00 0. -1.
<scales pt_clust_3="14000.00000" pt_clust_4="41.99188" pt_clust_5="64.82515" pt_clust_6="85.49313"></scales>
<clustering>
<clus scale="   41.992">  2  4  1 -1</clus>
<clus scale="   64.825">  2  5  1 -1</clus>
<clus scale="   85.493">  1  6  2 -1</clus>
<clus scale="   41.992">  2  3  1 -1</clus>
</clustering>
</event>
<event>
 6    0  0.4017242E+002  0.1215896E+03  0.7546771E-02  0.1240497E+00
         21   -1    0    0  504  502  0.00000000000E+00  0.00000000000E+00  0.22791927569E+02  0.22791927569E+02  0.00000000000E+00 0.  1.
          2   -1    0    0  503    0 -0.00000000000E+00 -0.00000000000E+00 -0.12613784609E+04  0.12613784609E+04  0.00000000000E+00 0.  1.
         21    1    1    2  503  502  0.59130641738E+02  0.10323468673E+03 -0.35235749993E+03  0.37190004180E+03  0.00000000000E+00 0.  1.
         21    1    1    2  504  505 -0.68813379848E+02 -0.36794627674E+02 -0.15807926653E+03  0.17629004617E+03  0.00000000000E+00 0.  1.
         21    1    1    2  505  501 -0.72916606411E+01 -0.38115600618E+02 -0.10476243821E+03  0.11171900369E+03  0.00000000000E+00 0.  1.
          2    1    1    2  501    0  0.16974398751E+02 -0.28324458436E+02 -0.62338732867E+03  0.62426129682E+03  0.00000000000E+00 0.  1.
<scales pt_clust_3="111.01398" pt_clust_4="36.86846" pt_clust_5="36.86846" pt_clust_6="33.02128"></scales>
<clustering>
<clus scale="   33.021">  2  6  1 -1</clus>
<clus scale="   36.868">  4  5 -1 -1</clus>
<clus scale="  111.014">  2  3  1 -1</clus>
<clus scale="  121.590">  1  3  2 -1</clus>
</clustering>
</event>
<event>
 6    0  0.4017242E+002  0.1149089E+03  0.7546771E-02  0.1251740E+00
          2   -1    0    0  505    0 -0.00000000000E+00  0.00000000000E+00  0.98319592320E+03  0.98319592320E+03  0.00000000000E+00 0. -1.
         21   -1    0    0  503  502  0.00000000000E+00 -0.00000000000E+00 -0.80077329144E+03  0.80077329144E+03  0.00000000000E+00 0.  1.
         21    1    1    2  503  501  0.34098004668E+02  0.38750341000E+02  0.37311745537E+03  0.37667080900E+03  0.00000000000E+00 0. -1.
         21    1    1    2  504  502 -0.57638948972E+02 -0.87798092465E+02 -0.78927466045E+03  0.79623190285E+03  0.00000000000E+00 0.  1.
         21    1    1    2  505  504 -0.30208382620E+02  0.52939270186E+02  0.20672521815E+03  0.21552361478E+03  0.00000000000E+00 0.  1.
          2    1    1    2  501    0  0.53749326925E+02 -0.38915187211E+01  0.39185461870E+03  0.39554288801E+03  0.00000000000E+00 0. -1.
<scales pt_clust_3="45.89813" pt_clust_4="104.90298" pt_clust_5="60.95172" pt_clust_6="45.89813"></scales>
<clustering>
<clus scale="   45.898">  3  6 -1 -1</clus>
<clus scale="   60.952">  1  5  2 -1</clus>
<clus scale="  104.903">  2  4  1 -1</clus>
<clus scale="  104.903">  2  3  1 -1</clus>
</clustering>
</event>
<event>
 6    0  0.4017242E+002  0.1686115E+03  0.7546771E-02  0.1179304E+00
          2   -1    0    0  504    0 -0.00000000000E+00  0.00000000000E+00  0.10483530666E+04  0.10483530666E+04  0.00000000000E+00 0. -1.
         21   -1    0    0  505  502  0.00000000000E+00 -0.00000000000E+00 -0.10158771464E+03  0.10158771464E+03  0.00000000000E+00 0.  1.
         21    1    1    2  503  502  0.24756626961E+02  0.11000264587E+03  0.12753580306E+03  0.17023176478E+03  0.00000000000E+00 0.  1.
         21    1    1    2  504  503  0.41534056572E+02  0.84024424860E+02  0.16942390269E+03  0.19362241769E+03  0.00000000000E+00 0.  1.
         21    1    1    2  505  501  0.19715845081E+02 -0.67841712546E+02 -0.38902653193E+02  0.80651279803E+02  0.00000000000E+00 0.  1.
          2    1    1    2  501    0 -0.86006528613E+02 -0.12618535819E+03  0.68870829943E+03  0.70543531900E+03  0.00000000000E+00 0. -1.
<scales pt_clust_3="42.41156" pt_clust_4="42.41156" pt_clust_5="70.64851" pt_clust_6="162.06790"></scales>
<clustering>
<clus scale="   42.412">  3  4 -1 -1</clus>
<clus scale="   70.649">  2  5  1 -1</clus>
<clus scale="  162.068">  1  6  2 -1</clus>
<clus scale="   70.649">  2  3  1 -1</clus>
</clustering>
</event>
<event>
 6    0  0.4017242E+002  0.1151322E+03  0.7546771E-02  0.1251351E+00
          2   -1    0    0  505    0 -0.00000000000E+00  0.00000000000E+00  0.15310734717E+04  0.15310734717E+04  0.00000000000E+00 0.  1.
         21   -1    0    0  504  502  0.00000000000E+00 -0.00000000000E+00 -0.11170021924E+04  0.11170021924E+04  0.00000000000E+00 0.  1.
         21    1    1    2  503  501 -0.18620118525E+02  0.17552828401E+03  0.59100181273E+02  0.18614434917E+03  0.00000000000E+00 0.  1.
         21    1    1    2  504  503 -0.19876553742E+02  0.40008056644E+02 -0.94782779975E+03  0.94888000293E+03  0.00000000000E+00 0.  1.
         21    1    1    2  505  502 -0.26685263430E+02 -0.12245932964E+03 -0.64556830734E+02  0.14098218006E+03  0.00000000000E+00 0.  1.
          2    1    1    2  501    0  0.65181935697E+02 -0.93077011017E+02  0.13673557285E+04  0.13720691320E+04  0.00000000000E+00 0.  1.
<scales pt_clust_3="14000.00000" pt_clust_4="44.67350" pt_clust_5="105.47437" pt_clust_6="115.13217"></scales>
<clustering>
<clus scale="   44.674">  2  4  1 -1</clus>
<clus scale="  105.474">  2  5  1 -1</clus>
<clus scale="  115.132">  1  6  2 -1</clus>
<clus scale="   44.674">  2  3  1 -1</clus>
</clustering>
</event>
<event>
 6    0  0.4017242E+002  0.1801324E+03  0.7546771E-02  0.1167675E+00
          2   -1    0    0  504    0 -0.00000000000E+00  0.00000000000E+00  0.11638196066E+04  0.11638196066E+04  0.00000000000E+00 0.  1.
         21   -1    0    0  503  502  0.00000000000E+00 -0.00000000000E+00 -0.21285137728E+03  0.21285137728E+03  0.00000000000E+00 0. -1.
         21    1    1    2  503  501  0.23823142509E+02 -0.28052165940E+02  0.17344440812E+02  0.40685326101E+02  0.00000000000E+00 0. -1.
         21    1    1    2  504  505  0.36315306359E+02  0.61968736540E+02 -0.32215690179E+02  0.78719606694E+02  0.00000000000E+00 0. -1.
         21    1    1    2  505  502  0.61772923360E+02  0.90814946899E+02 -0.11699702035E+03  0.16047289930E+03  0.00000000000E+00 0. -1.
          2    1    1    2  501    0 -0.12191137223E+03 -0.12473151750E+03  0.10828364990E+04  0.10967931518E+04  0.00000000000E+00 0.  1.
<scales pt_clust_3="36.80307" pt_clust_4="36.02431" pt_clust_5="36.02431" pt_clust_6="174.53716"></scales>
<clustering>
<clus scale="   36.024">  4  5 -1 -1</clus>
<clus scale="   36.803">  2  3  1 -1</clus>
<clus scale="  174.537">  1  6  2 -1</clus>
<clus scale="   36.803">  2  3  1 -1</clus>
</clustering>
</event>
<event>
 6    0  0.4017242E+002  0.7612245E+02  0.7546771E-02  0.1340430E+00
          2   -1    0    0  503    0 -0.00000000000E+00  0.00000000000E+00  0.29176572821E+04  0.29176572821E+04  0.00000000000E+00 0.  1.
         21   -1    0    0  504  502  0.00000000000E+00 -0.00000000000E+00 -0.69404895166E+03  0.69404895166E+03  0.00000000000E+00 0. -1.
         21    1    1    2  503  505 -0.17386362493E+02 -0.13144031608E+03 -0.45813629416E+03  0.47693574653E+03  0.00000000000E+00 0. -1.
         21    1    1    2  504  501  0.41884084591E+02  0.34216996874E+01  0.72247669652E-01  0.42023681305E+02  0.00000000000E+00 0. -1.
         21    1    1    2  505  502  0.63319667676E+01  0.58462124592E+02 -0.20081901275E+03  0.20925149868E+03  0.00000000000E+00 0. -1.
          2    1    1    2  501    0 -0.30829688865E+02  0.69556491797E+02  0.28824913897E+04  0.28834953072E+04  0.00000000000E+00 0.  1.
<scales pt_clust_3="76.12245" pt_clust_4="42.02362" pt_clust_5="62.49195" pt_clust_6="14000.00000"></scales>
<clustering>
<clus scale="   42.024">  2  4  1 -1</clus>
<clus scale="   62.492">  2  5  1 -1</clus>
<clus scale="   76.122">  2  3  1 -1</clus>
<clus scale="   42.024">  2  3  1 -1</clus>
</clustering>
</event>
<event>
 6    0  0.4017242E+002  0.1782258E+03  0.7546771E-02  0.1169531E+00
         21   -1    0    0  505  502  0.00000000000E+00  0.00000000000E+00  0.24460777150E+03  0.24460777150E+03  0.00000000000E+00 0.  1.
          2   -1    0    0  503    0 -0.00000000000E+00 -0.00000000000E+00 -0.44376298975E+03  0.44376298975E+03  0.00000000000E+00 0.  1.
         21    1    1    2  503  502  0.20195530924E+02 -0.26860007108E+02  0.57705347953E+02  0.66777441052E+02  0.00000000000E+00 0.  1.
         21    1    1    2  504  501  0.11165967734E+03  0.11618819882E+03 -0.95958497271E+02  0.18755163099E+03  0.00000000000E+00 0.  1.
         21    1    1    2  505  504 -0.16089364315E+03 -0.97383213599E+02  0.70377985846E+02  0.20080666221E+03  0.00000000000E+00 0.  1.
          2    1    1    2  501    0  0.29038434893E+02  0.80550218913E+01 -0.23128005478E+03  0.23323502699E+03  0.00000000000E+00 0.  1.
<scales pt_clust_3="33.84688" pt_clust_4="178.22576" pt_clust_5="14000.00000" pt_clust_6="30.13493"></scales>
<clustering>
<clus scale="   30.135">  2  6  1 -1</clus>
<clus scale="   33.847">  1  3  2 -1</clus>
<clus scale="  178.226">  2  4  1 -1</clus>
<clus scale="   33.847">  1  3  2 -1</clus>
</clustering>
</event>
<event>
 6    0  0.4017242E+002  0.8433636E+02  0.7546771E-02  0.1317177E+00
         21   -1    0    0  504  502  0.00000000000E+00  0.00000000000E+00  0.10211682464E+04  0.10211682464E+04  0.00000000000E+00 0.  1.
          2   -1    0    0  503    0 -0.00000000000E+00 -0.00000000000E+00 -0.32025519390E+04  0.32025519390E+04  0.00000000000E+00 0. -1.
         21    1    1    2  503  505  0.13558534982E+03 -0.35268967498E+02  0.76119463085E+03  0.77397968525E+03  0.00000000000E+00 0.  1.
         21    1    1    2  504  501  0.94604788374E+01 -0.40850329756E+02 -0.16916609537E+02  0.45215282585E+02  0.00000000000E+00 0.  1.
         21    1    1    2  505  502 -0.64730829083E+02  0.50521319606E+02  0.23181256979E+03  0.24592590649E+03  0.00000000000E+00 0. -1.
          2    1    1    2  501    0 -0.80314999571E+02  0.25597977649E+02 -0.31574742837E+04  0.31585993111E+04  0.00000000000E+00 0. -1.
<scales pt_clust_3="84.33636" pt_clust_4="41.93149" pt_clust_5="74.64451" pt_clust_6="14000.00000"></scales>
<clustering>
<clus scale="   41.931">  1  4  2 -1</clus>
<clus scale="   74.645">  1  5  2 -1</clus>
<clus scale="   84.336">  1  3  2 -1</clus>
<clus scale="   41.931">  1  3  2 -1</clus>
</clustering>
</event>
<event>
 6    0  0.4017242E+002  0.9885099E+02  0.7546771E-02  0.1282731E+00
         21   -1    0    0  505  502  0.00000000000E+00  0.00000000000E+00  0.12277701303E+03  0.12277701303E+03  0.00000000000E+00 0. -1.
          1   -1    0    0  502    0 -0.00000000000E+00 -0.00000000000E+00 -0.12365577032E+04  0.12365577032E+04  0.00000000000E+00 0.  1.
         21    1    1    2  503  501  0.10001817258E+03 -0.10019986044E+02 -0.92452913856E+02  0.13657077377E+03  0.00000000000E+00 0. -1.
         21    1    1    2  504  503 -0.85445864941E+02  0.30611545887E+02  0.63256171658E+01  0.90983932700E+02  0.00000000000E+00 0. -1.
         21    1    1    2  505  504 -0.25207961957E+02 -0.52749924252E+02  0.35295367363E+02  0.68291718472E+02  0.00000000000E+00 0. -1.
          1    1    1    2  501    0  0.10635654317E+02  0.32158364410E+02 -0.10629487609E+04  0.10634882913E+04  0.00000000000E+00 0.  1.
<scales pt_clust_3="14000.00000" pt_clust_4="98.85099" pt_clust_5="55.26700" pt_clust_6="33.87149"></scales>
<clustering>
<clus scale="   33.871">  2  6  1 -1</clus>
<clus scale="   55.267">  1  5  2 -1</clus>
<clus scale="   98.851">  1  4  2 -1</clus>
<clus scale="   55.267">  1  3  2 -1</clus>
</clustering>
</event>
<event>
 6    0  0.4017242E+002  0.8129978E+02  0.7546771E-02  0.1325403E+00
         21   -1    0    0  504  502  0.00000000000E+00  0.00000000000E+00  0.23795841528E+02  0.23795841528E+02  0.00000000000E+00 0.  1.
          2   -1    0    0  503    0 -0.00000000000E+00 -0.00000000000E+00 -0.14540919038E+04  0.14540919038E+04  0.00000000000E+00 0.  1.
         21    1    1    2  503  505  0.37200918542E+01 -0.67627847234E+02 -0.14652936733E+03  0.16142558749E+03  0.00000000000E+00 0.  1.
         21    1    1    2  504  501 -0.47301954346E+02  0.38198681452E+02 -0.70112547474E+02  0.92802928095E+02  0.00000000000E+00 0.  1.
         21    1    1    2  505  502 -0.40732688039E+02  0.23065277220E+01 -0.12679027499E+03  0.13319251397E+03  0.00000000000E+00 0.  1.
          2    1    1    2  501    0  0.84314550531E+02  0.27122638060E+02 -0.10868638725E+04  0.10904667158E+04  0.00000000000E+00 0.  1.
<scales pt_clust_3="67.69518" pt_clust_4="14000.00000" pt_clust_5="40.79794" pt_clust_6="81.29978"></scales>
<clustering>
<clus scale="   40.798">  1  5  2 -1</clus>
<clus scale="   67.695">  1  3  2 -1</clus>
<clus scale="   81.300">  2  6  1 -1</clus>
<clus scale="   40.798">  1  3  2 -1</clus>
</clustering>
</event>
<event>
 6    0  0.4017242E+002  0.9127180E+02  0.7546771E-02  0.1299801E+00
         21   -1    0    0  505  502  0.00000000000E+00  0.00000000000E+00  0.22655148021E+03  0.22655148021E+03  0.00000000000E+00 0.  1.
          4   -1    0    0  503    0 -0.00000000000E+00 -0.00000000000E+00 -0.16105929634E+03  0.16105929634E+03  0.00000000000E+00 0. -1.
         21    1    1    2  503  504  0.36150251909E+02 -0.12853501201E+02 -0.47600140497E+01  0.38661491693E+02  0.00000000000E+00 0.  1.
         21    1    1    2  504  502  0.71788574273E+02 -0.24650485925E+02  0.83705148371E+02  0.11299468004E+03  0.00000000000E+00 0.  1.
         21    1    1    2  505  501 -0.14752712957E+03  0.18989971608E+02  0.51724436035E+02  0.15748107907E+03  0.00000000000E+00 0.  1.
          4    1    1    2  501    0  0.39588303390E+02  0.18514015518E+02 -0.65177386485E+02  0.78473525758E+02  0.00000000000E+00 0. -1.
<scales pt_clust_3="38.36735" pt_clust_4="91.27180" pt_clust_5="14000.00000" pt_clust_6="59.42295"></scales>
<clustering>
<clus scale="   38.367">  2  3  1 -1</clus>
<clus scale="   59.423">  2  6  1 -1</clus>
<clus scale="   91.272">  1  4  2 -1</clus>
<clus scale="   91.272">  1  3  2 -1</clus>
</clustering>
</event>
<event>
 6    0  0.4017242E+002  0.1042147E+03  0.7546771E-02  0.1271675E+00
         21   -1    0    0  505  502  0.00000000000E+00  0.00000000000E+00  0.21344425674E+03  0.21344425674E+03  0.00000000000E+00 0. -1.
          1   -1    0    0  503    0 -0.00000000000E+00 -0.00000000000E+00 -0.17652557854E+04  0.17652557854E+04  0.00000000000E+00 0.  1.
         21    1    1    2  503  504  0.11716734879E+02 -0.84303080387E+02 -0.10186171421E+02  0.85720763687E+02  0.00000000000E+00 0. -1.
         21    1    1    2  504  502 -0.51639470997E+02 -0.38091988532E+02  0.18533916176E+02  0.66791770481E+02  0.00000000000E+00 0.  1.
         21    1    1    2  505  501  0.76976649094E+02  0.13812938626E+03  0.85683732832E+02  0.17985225583E+03  0.00000000000E+00 0. -1.
          1    1    1    2  501    0 -0.37053912976E+02 -0.15734317346E+02 -0.16458430062E+04  0.16463352521E+04  0.00000000000E+00 0.  1.
<scales pt_clust_3="104.21465" pt_clust_4="72.12253" pt_clust_5="14000.00000" pt_clust_6="40.25619"></scales>
<clustering>
<clus scale="   40.256">  2  6  1 -1</clus>
<clus scale="   72.123">  1  4  2 -1</clus>
<clus scale="  104.215">  2  3  1 -1</clus>
<clus scale="   72.123">  1  3  2 -1</clus>
</clustering>
</event>
<event>
 6    0  0.4017242E+002  0.3270507E+03  0.7546771E-02  0.1072449E+00
         21   -1    0    0  505  502  0.00000000000E+00  0.00000000000E+00  0.30012895612E+03  0.30012895612E+03  0.00000000000E+00 0. -1.
          2   -1    0    0  504    0 -0.00000000000E+00 -0.00000000000E+00 -0.19189302087E+04  0.19189302087E+04  0.00000000000E+00 0.  1.
         21    1    1    2  503  501  0.18506898896E+03 -0.17415889186E+03  0.11800802482E+03  0.28019233432E+03  0.00000000000E+00 0. -1.
         21    1    1    2  504  502  0.29335035183E+02 -0.89278777336E+01 -0.36254006538E+02  0.47482673472E+02  0.00000000000E+00 0. -1.
         21    1    1    2  505  503  0.28087129188E+02 -0.61149690381E+02  0.64425332631E+02  0.93160050152E+02  0.00000000000E+00 0.  1.
          2    1    1    2  501    0 -0.24249115333E+03  0.24423645997E+03 -0.17649806035E+04  0.17982241069E+04  0.00000000000E+00 0.  1.
<scales pt_clust_3="37.43364" pt_clust_4="30.66352" pt_clust_5="37.43364" pt_clust_6="318.83815"></scales>
<clustering>
<clus scale="   30.664">  2  4  1 -1</clus>
<clus scale="   37.434">  3  5 -1 -1</clus>
<clus scale="  318.838">  2  6  1 -1</clus>
<clus scale="  327.051">  1  3  2 -1</clus>
</clustering>
</event>
<event>
 6    0  0.4017242E+002  0.5732832E+02  0.7546771E-02  0.1409398E+00
          2   -1    0    0  505    0 -0.00000000000E+00  0.00000000000E+00  0.25025009681E+04  0.25025009681E+04  0.00000000000E+00 0. -1.
         21   -1    0    0  504  502  0.00000000000E+00 -0.00000000000E+00 -0.17114962351E+02  0.17114962351E+02  0.00000000000E+00 0. -1.
         21    1    1    2  503  502 -0.36980187835E+02  0.63111647455E+02  0.38323730505E+03  0.39015566934E+03  0.00000000000E+00 0. -1.
         21    1    1    2  504  501  0.44754460498E+02 -0.12986734995E+02  0.35332582126E+02  0.58480837716E+02  0.00000000000E+00 0. -1.
         21    1    1    2  505  503 -0.59317473854E+02 -0.66302031316E+00  0.84904198432E+03  0.85111179844E+03  0.00000000000E+00 0. -1.
          2    1    1    2  501    0  0.51543201191E+02 -0.49461892146E+02  0.12177741343E+04  0.12198676250E+04  0.00000000000E+00 0. -1.
<scales pt_clust_3="57.32832" pt_clust_4="46.60061" pt_clust_5="51.05183" pt_clust_6="14000.00000"></scales>
<clustering>
<clus scale="   46.601">  2  4  1 -1</clus>
<clus scale="   51.052">  1  5  2 -1</clus>
<clus scale="   57.328">  2  3  1 -1</clus>
<clus scale="   46.601">  2  3  1 -1</clus>
</clustering>
</event>
<event>
 6    0  0.4017242E+002  0.9911175E+02  0.7546771E-02  0.1282175E+00
         -3   -1    0    0    0  501 -0.00000000000E+00  0.00000000000E+00  0.10193943221E+03  0.10193943221E+03  0.00000000000E+00 0.  1.
         21   -1    0    0  505  502  0.00000000000E+00 -0.00000000000E+00 -0.77834929465E+03  0.77834929465E+03  0.00000000000E+00 0. -1.
         21    1    1    2  503  504  0.82016669245E+00 -0.30173849460E+02 -0.27353234897E+03  0.27519280477E+03  0.00000000000E+00 0. -1.
         21    1    1    2  504  502 -0.38427962531E+02 -0.42672938210E+02 -0.26825769208E+03  0.27433533735E+03  0.00000000000E+00 0. -1.
         21    1    1    2  505  501  0.55257140926E+02  0.11414029233E+03 -0.20865609706E+03  0.24416945918E+03  0.00000000000E+00 0.  1.
         -3    1    1    2    0  503 -0.17649345088E+02 -0.41293504656E+02  0.74036275670E+02  0.86591125549E+02  0.00000000000E+00 0.  1.
<scales pt_clust_3="30.10078" pt_clust_4="30.10078" pt_clust_5="89.99672" pt_clust_6="44.90716"></scales>
<clustering>
<clus scale="   30.101">  3  4 -1 -1</clus>
<clus scale="   44.907">  1  6  2 -1</clus>
<clus scale="   89.997">  1  5  2 -1</clus>
<clus scale="   99.112">  2  3  1 -1</clus>
</clustering>
</event>
<event>
 6    0  0.4017242E+002  0.7368579E+02  0.7546771E-02  0.1347990E+00
          1   -1    0    0  504    0 -0.00000000000E+00  0.00000000000E+00  0.22659675006E+04  0.22659675006E+04  0.00000000000E+00 0.  1.
         21   -1    0    0  505  502  0.00000000000E+00 -0.00000000000E+00 -0.45368997686E+02  0.45368997686E+02  0.00000000000E+00 0.  1.
         21    1    1    2  503  502 -0.12546474680E+01 -0.51964910722E+02 -0.17348425827E+02  0.54798667550E+02  0.00000000000E+00 0.  1.
         21    1    1    2  504  503  0.22623639228E+02 -0.27182695492E+02  0.13032286237E+03  0.13503620419E+03  0.00000000000E+00 0. -1.
         21    1    1    2  505  501  0.25617267009E+02  0.11010657917E+03  0.48889207489E+03  0.50179195294E+03  0.00000000000E+00 0.  1.
          1    1    1    2  501    0 -0.46986258769E+02 -0.30958972958E+02  0.16187319915E+04  0.16197096736E+04  0.00000000000E+00 0.  1.
<scales pt_clust_3="52.21419" pt_clust_4="35.36563" pt_clust_5="73.68579" pt_clust_6="14000.00000"></scales>
<clustering>
<clus scale="   35.366">  1  4  2 -1</clus>
<clus scale="   52.214">  2  3  1 -1</clus>
<clus scale="   73.686">  2  5  1 -1</clus>
<clus scale="   52.214">  2  3  1 -1</clus>
</clustering>
</event>
<event>
 6    0  0.4017242E+002  0.8811721E+02  0.7546771E-02  0.1307476E+00
          1   -1    0    0  503    0 -0.00000000000E+00  0.00000000000E+00  0.22177443514E+04  0.22177443514E+04  0.00000000000E+00 0. -1.
         21   -1    0    0  504  502  0.00000000000E+00 -0.00000000000E+00 -0.39610073249E+02  0.39610073249E+02  0.00000000000E+00 0.  1.
         21    1    1    2  503  502  0.11421559736E+03 -0.37747802123E+02  0.14514687186E+03  0.18851449190E+03  0.00000000000E+00 0.  1.
         21    1    1    2  504  505 -0.15431623310E+02  0.41173993544E+02  0.16709570639E+02  0.47038733967E+02  0.00000000000E+00 0.  1.
         21    1    1    2  505  501 -0.54594594142E+02  0.17414752016E+02  0.33880709224E+03  0.34361910460E+03  0.00000000000E+00 0.  1.
          1    1    1    2  501    0 -0.44189379907E+02 -0.20840943437E+02  0.16774707434E+04  0.16781820942E+04  0.00000000000E+00 0. -1.
<scales pt_clust_3="88.11721" pt_clust_4="43.97082" pt_clust_5="14000.00000" pt_clust_6="48.80910"></scales>
<clustering>
<clus scale="   43.971">  2  4  1 -1</clus>
<clus scale="   48.809">  1  6  2 -1</clus>
<clus scale="   88.117">  2  3  1 -1</clus>
<clus scale="   43.971">  2  3  1 -1</clus>
</clustering>
</event>
<event>
 6    0  0.4017242E+002  0.1356759E+03  0.7546771E-02  0.1219269E+00
         21   -1    0    0  504  502  0.00000000000E+00  0.00000000000E+00  0.11914241170E+04  0.11914241170E+04  0.00000000000E+00 0. -1.
          3   -1    0    0  505    0 -0.00000000000E+00 -0.00000000000E+00 -0.44607577408E+03  0.44607577408E+03  0.00000000000E+00 0.  1.
         21    1    1    2  503  501  0.41697568601E+02  0.14271342140E+03  0.56636318288E+03  0.58555363785E+03  0.00000000000E+00 0. -1.
         21    1    1    2  504  503 -0.67381993147E+02  0.37525718124E+00  0.21126763700E+03  0.22175321477E+03  0.00000000000E+00 0. -1.
         21    1    1    2  505  502  0.66601898436E+02 -0.12544603827E+03  0.38509083709E+03  0.41044789463E+03  0.00000000000E+00 0. -1.
          3    1    1    2  501    0 -0.40917473891E+02 -0.17642640308E+02 -0.41737331409E+03  0.41974514380E+03  0.00000000000E+00 0.  1.
<scales pt_clust_3="14000.00000" pt_clust_4="75.23738" pt_clust_5="135.67591" pt_clust_6="44.55898"></scales>
<clustering>
<clus scale="   44.559">  2  6  1 -1</clus>
<clus scale="   75.237">  1  4  2 -1</clus>
<clus scale="  135.676">  2  5  1 -1</clus>
<clus scale="   75.237">  1  3  2 -1</clus>
</clustering>
</event>
<event>
 6    0  0.4017242E+002  0.1144686E+03  0.7546771E-02  0.1252512E+00
          2   -1    0    0  504    0 -0.00000000000E+00  0.00000000000E+00  0.37029097014E+04  0.37029097014E+04  0.00000000000E+00 0.  1.
         21   -1    0    0  505  502  0.00000000000E+00 -0.00000000000E+00 -0.10511979110E+03  0.10511979110E+03  0.00000000000E+00 0. -1.
         21    1    1    2  503  502 -0.18148831960E+02  0.36190993632E+02 -0.94333986745E+02  0.10265509815E+03  0.00000000000E+00 0. -1.
         21    1    1    2  504  503 -0.16842684407E+02  0.37460865490E+02  0.43544766290E+03  0.43738045177E+03  0.00000000000E+00 0.  1.
         21    1    1    2  505  501  0.12098522584E+03 -0.88424269189E+02  0.11788451145E+04  0.11883316373E+04  0.00000000000E+00 0. -1.
          2    1    1    2  501    0 -0.85993709474E+02  0.14772410066E+02  0.20778311197E+04  0.20796623053E+04  0.00000000000E+00 0.  1.
<scales pt_clust_3="40.48664" pt_clust_4="46.97399" pt_clust_5="14000.00000" pt_clust_6="114.46860"></scales>
<clustering>
<clus scale="   40.487">  2  3  1 -1</clus>
<clus scale="   46.974">  1  4  2 -1</clus>
<clus scale="  114.469">  1  6  2 -1</clus>
<clus scale="   40.487">  2  3  1 -1</clus>
</clustering>
</event>
<event>
 6    0  0.4017242E+002  0.1264168E+03  0.7546771E-02  0.1232871E+00
         21   -1    0    0  503  502  0.00000000000E+00  0.00000000000E+00  0.10858859201E+04  0.10858859201E+04  0.00000000000E+00 0.  1.
          1   -1    0    0  505    0 -0.00000000000E+00 -0.00000000000E+00 -0.85421197721E+02  0.85421197721E+02  0.00000000000E+00 0.  1.
         21    1    1    2  503  501 -0.66522144049E+02 -0.88001709120E+02  0.77040985362E+03  0.77826784529E+03  0.00000000000E+00 0.  1.
         21    1    1    2  504  502 -0.48542075640E+01 -0.65951786710E+02  0.11382389734E+03  0.13163996774E+03  0.00000000000E+00 0. -1.
         21    1    1    2  505  504  0.20091923156E+02  0.10299500006E+03  0.14882034541E+03  0.18209654204E+03  0.00000000000E+00 0. -1.
          1    1    1    2  501    0  0.51284428457E+02  0.50958495767E+02 -0.32589373947E+02  0.79302762797E+02  0.00000000000E+00 0.  1.
<scales pt_clust_3="14000.00000" pt_clust_4="66.13019" pt_clust_5="126.41685" pt_clust_6="71.09401"></scales>
<clustering>
<clus scale="   66.130">  1  4  2 -1</clus>
<clus scale="   71.094">  2  6  1 -1</clus>
<clus scale="  126.417">  2  5  1 -1</clus>
<clus scale="   66.130">  1  3  2 -1</clus>
</clustering>
</event>
<event>
 6    0  0.4017242E+002  0.1778231E+03  0.7546771E-02  0.1169927E+00
         21   -1    0    0  504  502  0.00000000000E+00  0.00000000000E+00  0.10082504808E+04  0.10082504808E+04  0.00000000000E+00 0.  1.
          2   -1    0    0  505    0 -0.00000000000E+00 -0.00000000000E+00 -0.73650141203E+03  0.73650141203E+03  0.00000000000E+00 0. -1.
         21    1    1    2  503  501 -0.10957273375E+03  0.14360442296E+03  0.75750767280E+03  0.77874661388E+03  0.00000000000E+00 0.  1.
         21    1    1    2  504  503 -0.41826859793E+02 -0.27359990073E+01  0.64680499776E+02  0.77074891774E+02  0.00000000000E+00 0. -1.
         21    1    1    2  505  502  0.18439525711E+01 -0.44463382940E+02  0.15506986844E+03  0.16132903236E+03  0.00000000000E+00 0.  1.
          2    1    1    2  501    0  0.14955564097E+03 -0.96405041014E+02 -0.70550897222E+03  0.72760135484E+03  0.00000000000E+00 0. -1.
<scales pt_clust_3="14000.00000" pt_clust_4="41.91625" pt_clust_5="45.22682" pt_clust_6="177.82312"></scales>
<clustering>
<clus scale="   41.916">  1  4  2 -1</clus>
<clus scale="   45.227">  1  5  2 -1</clus>
<clus scale="  177.823">  2  6  1 -1</clus>
<clus scale="   41.916">  1  3  2 -1</clus>
</clustering>
</event>
<event>
 6    0  0.4017242E+002  0.1507031E+03  0.7546771E-02  0.1199612E+00
          4   -1    0    0  505    0 -0.00000000000E+00  0.00000000000E+00  0.15243254960E+03  0.15243254960E+03  0.00000000000E+00 0.  1.
         21   -1    0    0  504  502  0.00000000000E+00 -0.00000000000E+00 -0.86052940369E+03  0.86052940369E+03  0.00000000000E+00 0.  1.
         21    1    1    2  503  501  0.49438058104E+02 -0.10166388004E+03 -0.16166332433E+03  0.19726808289E+03  0.00000000000E+00 0.  1.
         21    1    1    2  504  503  0.74455906802E+02 -0.10112831580E+02 -0.57513922603E+03  0.58002679312E+03  0.00000000000E+00 0.  1.
         21    1    1    2  505  502 -0.25582485440E+02 -0.42613049271E+02 -0.34836445763E+01  0.49824404754E+02  0.00000000000E+00 0. -1.
          4    1    1    2  501    0 -0.98311479465E+02  0.15438976089E+03  0.32189340849E+02  0.18584267252E+03  0.00000000000E+00 0.  1.
<scales pt_clust_3="14000.00000" pt_clust_4="74.77371" pt_clust_5="49.70247" pt_clust_6="150.70305"></scales>
<clustering>
<clus scale="   49.702">  1  5  2 -1</clus>
<clus scale="   74.774">  2  4  1 -1</clus>
<clus scale="  150.703">  1  6  2 -1</clus>
<clus scale="   74.774">  2  3  1 -1</clus>
</clustering>
</event>
<event>
 6    0  0.4017242E+002  0.1069423E+03  0.7546771E-02  0.1266339E+00
          2   -1    0    0  503    0 -0.00000000000E+00  0.00000000000E+00  0.19406297819E+04  0.19406297819E+04  0.00000000000E+00 0.  1.
         21   -1    0    0  505  502  0.00000000000E+00 -0.00000000000E+00 -0.71062254789E+02  0.71062254789E+02  0.00000000000E+00 0. -1.
         21    1    1    2  503  504  0.97500153991E+02 -0.58702778851E+02  0.23888278493E+02  0.11628820285E+03  0.00000000000E+00 0. -1.
         21    1    1    2  504  502  0.75778155557E+01 -0.46077471345E+02  0.64516195847E+02  0.79642301453E+02  0.00000000000E+00 0.  1.
         21    1    1    2  505  501 -0.47302305857E+02  0.78459893143E+02  0.10897763491E+03  0.14237130287E+03  0.00000000000E+00 0.  1.
          2    1    1    2  501    0 -0.57775663690E+02  0.26320357053E+02  0.16721854179E+04  0.16733902295E+04  0.00000000000E+00 0.  1.
<scales pt_clust_3="106.94231" pt_clust_4="46.69643" pt_clust_5="14000.00000" pt_clust_6="63.24292"></scales>
<clustering>
<clus scale="   46.696">  2  4  1 -1</clus>
<clus scale="   63.243">  1  6  2 -1</clus>
<clus scale="  106.942">  2  3  1 -1</clus>
<clus scale="   46.696">  2  3  1 -1</clus>
</clustering>
</event>
<event>
 6    0  0.4017242E+002  0.2201494E+03  0.7546771E-02  0.1133772E+00
         21   -1    0    0  501  502  0.00000000000E+00  0.00000000000E+00  0.26148993389E+03  0.26148993389E+03  0.00000000000E+00 0.  1.
          2   -1    0    0  504    0 -0.00000000000E+00 -0.00000000000E+00 -0.96932939229E+03  0.96932939229E+03  0.00000000000E+00 0. -1.
         21    1    1    2  503  502  0.91895951426E+01  0.40802592357E+02  0.20899415725E+03  0.21313811946E+03  0.00000000000E+00 0.  1.
         21    1    1    2  504  505  0.99284172855E+02 -0.14587114608E+03 -0.56211673032E+03  0.58916123154E+03  0.00000000000E+00 0.  1.
         21    1    1    2  505  503  0.18750494102E+02 -0.41982413483E+02 -0.67871325132E+02  0.81979392814E+02  0.00000000000E+00 0.  1.
          2    1    1    2  501    0 -0.12722426210E+03  0.14705096721E+03 -0.28684556019E+03  0.34654058237E+03  0.00000000000E+00 0. -1.
<scales pt_clust_3="41.82464" pt_clust_4="33.56540" pt_clust_5="33.56540" pt_clust_6="210.10019"></scales>
<clustering>
<clus scale="   33.565">  4  5 -1 -1</clus>
<clus scale="   41.825">  1  3  2 -1</clus>
<clus scale="  210.100">  1  6  2 -1</clus>
<clus scale="   41.825">  1  3  2 -1</clus>
</clustering>
</event>
<event>
 6    0  0.4017242E+002  0.1124801E+03  0.7546771E-02  0.1256045E+00
         21   -1    0    0  504  502  0.00000000000E+00  0.00000000000E+00  0.14940870098E+03  0.14940870098E+03  0.00000000000E+00 0.  1.
          2   -1    0    0  502    0 -0.00000000000E+00 -0.00000000000E+00 -0.13953141688E+04  0.13953141688E+04  0.00000000000E+00 0. -1.
         21    1    1    2  503  501 -0.13066763901E+02  0.52794025476E+02 -0.11710217104E+02  0.55633430861E+02  0.00000000000E+00 0.  1.
         21    1    1    2  504  505  0.65456531908E+02 -0.73000098420E+02  0.73822010779E+02  0.12273247824E+03  0.00000000000E+00 0.  1.
         21    1    1    2  505  503 -0.61411899856E+02  0.61908376257E+02 -0.37168615285E+02  0.94792270027E+02  0.00000000000E+00 0.  1.
          2    1    1    2  501    0  0.90221318496E+01 -0.41702303313E+02 -0.12708486463E+04  0.12715646907E+04  0.00000000000E+00 0. -1.
<scales pt_clust_3="30.94182" pt_clust_4="105.43593" pt_clust_5="30.94182" pt_clust_6="42.66709"></scales>
<clustering>
<clus scale="   30.942">  3  5 -1 -1</clus>
<clus scale="   42.667">  2  6  1 -1</clus>
<clus scale="  105.436">  1  4  2 -1</clus>
<clus scale="  105.436">  1  3  2 -1</clus>
</clustering>
</event>
<event>
 6    0  0.4017242E+002  0.7270154E+02  0.7546771E-02  0.1351140E+00
         21   -1    0    0  503  502  0.00000000000E+00  0.00000000000E+00  0.18046327714E+03  0.18046327714E+03  0.00000000000E+00 0. -1.
          1   -1    0    0  505    0 -0.00000000000E+00 -0.00000000000E+00 -0.18110435469E+03  0.18110435469E+03  0.00000000000E+00 0. -1.
         21    1    1    2  503  501 -0.85666406602E+02 -0.59929384729E+02 -0.81466987822E+01  0.10486483240E+03  0.00000000000E+00 0. -1.
         21    1    1    2  504  502 -0.32987300847E+02  0.27573034074E+02  0.58313854900E+01  0.43387086580E+02  0.00000000000E+00 0. -1.
         21    1    1    2  505  504  0.52529886717E+02  0.21792025239E+02  0.87561568905E+02  0.10440933728E+03  0.00000000000E+00 0. -1.
          1    1    1    2  501    0  0.66123820732E+02  0.10564325417E+02 -0.85887333170E+02  0.10890637557E+03  0.00000000000E+00 0. -1.
<scales pt_clust_3="14000.00000" pt_clust_4="42.99342" pt_clust_5="50.40953" pt_clust_6="72.70154"></scales>
<clustering>
<clus scale="   42.993">  1  4  2 -1</clus>
<clus scale="   50.410">  1  5  2 -1</clus>
<clus scale="   72.702">  2  6  1 -1</clus>
<clus scale="   42.993">  1  3  2 -1</clus>
</clustering>
</event>
<event>
 6    0  0.4017242E+002  0.8234765E+02  0.7546771E-02  0.1322518E+00
         21   -1    0    0  503  502  0.00000000000E+00  0.00000000000E+00  0.32814532625E+04  0.32814532625E+04  0.00000000000E+00 0.  1.
          1   -1    0    0  504    0 -0.00000000000E+00 -0.00000000000E+00 -0.31934056497E+03  0.31934056497E+03  0.00000000000E+00 0. -1.
         21    1    1    2  503  505  0.10057232950E+02  0.29114597102E+02  0.60458144903E+03  0.60536562193E+03  0.00000000000E+00 0.  1.
         21    1    1    2  504  502 -0.58024365008E+02 -0.12193102401E+02  0.19757024566E+04  0.19765919396E+04  0.00000000000E+00 0.  1.
         21    1    1    2  505  501  0.27915048696E+01 -0.85881693314E+02  0.69229697955E+03  0.69760917830E+03  0.00000000000E+00 0.  1.
          1    1    1    2  501    0  0.45175627189E+02  0.68960198612E+02 -0.31046818765E+03  0.32122708763E+03  0.00000000000E+00 0. -1.
<scales pt_clust_3="30.80272" pt_clust_4="51.44689" pt_clust_5="82.34765" pt_clust_6="14000.00000"></scales>
<clustering>
<clus scale="   30.803">  1  3  2 -1</clus>
<clus scale="   51.447">  1  4  2 -1</clus>
<clus scale="   82.348">  1  5  2 -1</clus>
<clus scale="   30.803">  1  3  2 -1</clus>
</clustering>
</event>
<event>
 6    0  0.4017242E+002  0.3658312E+03  0.7546771E-02  0.1056299E+00
          1   -1    0    0  503    0 -0.00000000000E+00  0.00000000000E+00  0.73856887989E+03  0.73856887989E+03  0.00000000000E+00 0.  1.
         21   -1    0    0  505  502  0.00000000000E+00 -0.00000000000E+00 -0.41138367523E+03  0.41138367523E+03  0.00000000000E+00 0. -1.
         21    1    1    2  503  502  0.77999385449E+01 -0.39844995932E+02 -0.79074698266E+02  0.88889091839E+02  0.00000000000E+00 0. -1.
         21    1    1    2  504  501  0.26444058572E+02  0.19050729651E+03  0.22384685223E+03  0.29512663639E+03  0.00000000000E+00 0.  1.
         21    1    1    2  505  504 -0.12324191330E+03 -0.29074149353E+03 -0.18273448262E+03  0.36484390689E+03  0.00000000000E+00 0. -1.
          1    1    1    2  501    0  0.88997916188E+02  0.14007919295E+03  0.36514753332E+03  0.40109292000E+03  0.00000000000E+00 0.  1.
<scales pt_clust_3="40.60127" pt_clust_4="115.19784" pt_clust_5="344.44075" pt_clust_6="115.19784"></scales>
<clustering>
<clus scale="   40.601">  2  3  1 -1</clus>
<clus scale="  115.198">  4  6 -1 -1</clus>
<clus scale="  344.441">  2  5  1 -1</clus>
<clus scale="   40.601">  2  3  1 -1</clus>
</clustering>
</event>
<event>
 6    0  0.4017242E+002  0.9493607E+02  0.7546771E-02  0.1291320E+00
         21   -1    0    0  504  502  0.00000000000E+00  0.00000000000E+00  0.97707069461E+03  0.97707069461E+03  0.00000000000E+00 0.  1.
          2   -1    0    0  503    0 -0.00000000000E+00 -0.00000000000E+00 -0.19892386980E+04  0.19892386980E+04  0.00000000000E+00 0.  1.
         21    1    1    2  503  502  0.64771106951E+02  0.35818478580E+02  0.12260675979E+03  0.14321549235E+03  0.00000000000E+00 0. -1.
         21    1    1    2  504  505 -0.56817333973E+02 -0.73866682869E+02  0.38696165639E+03  0.39802489846E+03  0.00000000000E+00 0.  1.
         21    1    1    2  505  501 -0.42973762247E+02 -0.32127304629E+02  0.44929017331E+03  0.45248267124E+03  0.00000000000E+00 0.  1.
          2    1    1    2  501    0  0.35019989269E+02  0.70175508918E+02 -0.19710265929E+04  0.19725863306E+04  0.00000000000E+00 0.  1.
<scales pt_clust_3="74.01527" pt_clust_4="40.52965" pt_clust_5="40.52965" pt_clust_6="78.48466"></scales>
<clustering>
<clus scale="   40.530">  4  5 -1 -1</clus>
<clus scale="   74.015">  1  3  2 -1</clus>
<clus scale="   78.485">  2  6  1 -1</clus>
<clus scale="   74.015">  1  3  2 -1</clus>
</clustering>
</event>
<event>
 6    0  0.4017242E+002  0.1580319E+03  0.7546771E-02  0.1190937E+00
          2   -1    0    0  503    0 -0.00000000000E+00  0.00000000000E+00  0.10217120267E+04  0.10217120267E+04  0.00000000000E+00 0.  1.
         21   -1    0    0  501  502  0.00000000000E+00 -0.00000000000E+00 -0.41822584392E+02  0.41822584392E+02  0.00000000000E+00 0.  1.
         21    1    1    2  503  504 -0.11513630064E+00  0.65507154537E+02  0.13920949732E+03  0.15385215207E+03  0.00000000000E+00 0.  1.
         21    1    1    2  504  505 -0.54532420566E+02  0.61787002429E+02  0.19757097357E+03  0.21406940033E+03  0.00000000000E+00 0.  1.
         21    1    1    2  505  502 -0.35753366388E+02  0.62721044927E+00  0.21851650532E+01  0.35825571137E+02  0.00000000000E+00 0.  1.
          2    1    1    2  501    0  0.90400923255E+02 -0.12792136742E+03  0.64092380637E+03  0.65978748756E+03  0.00000000000E+00 0.  1.
<scales pt_clust_3="44.93449" pt_clust_4="44.93449" pt_clust_5="35.75887" pt_clust_6="149.06063"></scales>
<clustering>
<clus scale="   35.759">  2  5  1 -1</clus>
<clus scale="   44.934">  3  4 -1 -1</clus>
<clus scale="  149.061">  1  6  2 -1</clus>
<clus scale="   35.759">  2  3  1 -1</clus>
</clustering>
</event>
<event>
 6    0  0.4017242E+002  0.8155276E+02  0.7546771E-02  0.1324702E+00
         -2   -1    0    0    0  501 -0.00000000000E+00  0.00000000000E+00  0.14774848470E+03  0.14774848470E+03  0.00000000000E+00 0.  1.
         21   -1    0    0  503  502  0.00000000000E+00 -0.00000000000E+00 -0.22471071099E+03  0.22471071099E+03  0.00000000000E+00 0.  1.
         21    1    1    2  503  505  0.73243010124E+02  0.93271060387E+01 -0.10006344003E+03  0.12435523901E+03  0.00000000000E+00 0.  1.
         21    1    1    2  504  502 -0.10950641752E+03 -0.88710697488E+00 -0.26354448683E+02  0.11263658110E+03  0.00000000000E+00 0. -1.
         21    1    1    2  505  501  0.48014038373E+02 -0.39906662706E+02 -0.13715094888E+02  0.63921775922E+02  0.00000000000E+00 0. -1.
         -2    1    1    2    0  504 -0.11750630976E+02  0.31466663642E+02  0.63170757313E+02  0.71545599646E+02  0.00000000000E+00 0.  1.
<scales pt_clust_3="14000.00000" pt_clust_4="81.55276" pt_clust_5="53.58447" pt_clust_6="33.58911"></scales>
<clustering>
<clus scale="   33.589">  1  6  2 -1</clus>
<clus scale="   53.584">  1  5  2 -1</clus>
<clus scale="   81.553">  1  4  2 -1</clus>
<clus scale="   81.553">  2  3  1 -1</clus>
</clustering>
</event>
<event>
 6    0  0.4017242E+002  0.1395499E+03  0.7546771E-02  0.1213936E+00
          1   -1    0    0  504    0 -0.00000000000E+00  0.00000000000E+00  0.22975421838E+04  0.22975421838E+04  0.00000000000E+00 0.  1.
         21   -1    0    0  503  502  0.00000000000E+00 -0.00000000000E+00 -0.90342073186E+02  0.90342073186E+02  0.00000000000E+00 0.  1.
         21    1    1    2  503  505 -0.12489121756E+03 -0.27876520278E+02 -0.36454459393E+02  0.13305579362E+03  0.00000000000E+00 0.  1.
         21    1    1    2  504  502  0.25006829088E+02  0.34210251902E+02  0.10730143970E+03  0.11536586063E+03  0.00000000000E+00 0.  1.
         21    1    1    2  505  501  0.47484166490E+02  0.13705929925E+02  0.58108841492E+03  0.58318637204E+03  0.00000000000E+00 0.  1.
          1    1    1    2  501    0  0.52400221985E+02 -0.20039661549E+02  0.15552647154E+04  0.15562762307E+04  0.00000000000E+00 0.  1.
<scales pt_clust_3="127.26214" pt_clust_4="42.37550" pt_clust_5="52.33514" pt_clust_6="52.33514"></scales>
<clustering>
<clus scale="   42.375">  1  4  2 -1</clus>
<clus scale="   52.335">  5  6 -1 -1</clus>
<clus scale="  127.262">  2  3  1 -1</clus>
<clus scale="  127.262">  2  3  1 -1</clus>
</clustering>
</event>
<event>
 6    0  0.4017242E+002  0.1066751E+03  0.7546771E-02  0.1266854E+00
          2   -1    0    0  504    0 -0.00000000000E+00  0.00000000000E+00  0.18366361970E+04  0.18366361970E+04  0.00000000000E+00 0.  1.
         21   -1    0    0  505  502  0.00000000000E+00 -0.00000000000E+00 -0.85122581678E+02  0.85122581678E+02  0.00000000000E+00 0.  1.
         21    1    1    2  503  502  0.25285312325E+02  0.16189535933E+02  0.35844490506E+02  0.46757626038E+02  0.00000000000E+00 0.  1.
         21    1    1    2  504  503  0.20511296559E+02 -0.28631484944E+02  0.12819256655E+02  0.37480775843E+02  0.00000000000E+00 0.  1.
         21    1    1    2  505  501 -0.18973695032E+02  0.11566979835E+03 -0.13382526946E+02  0.11797709685E+03  0.00000000000E+00 0.  1.
          2    1    1    2  501    0 -0.26822913852E+02 -0.10322784934E+03  0.17162323951E+04  0.17195432799E+04  0.00000000000E+00 0.  1.
<scales pt_clust_3="30.02413" pt_clust_4="35.76492" pt_clust_5="106.67507" pt_clust_6="14000.00000"></scales>
<clustering>
<clus scale="   30.024">  2  3  1 -1</clus>
<clus scale="   35.765">  2  4  1 -1</clus>
<clus scale="  106.675">  2  5  1 -1</clus>
<clus scale="   30.024">  2  3  1 -1</clus>
</clustering>
</event>
<event>
 6    0  0.4017242E+002  0.6538961E+02  0.7546771E-02  0.1376512E+00
          2   -1    0    0  505    0 -0.00000000000E+00  0.00000000000E+00  0.26543481237E+04  0.26543481237E+04  0.00000000000E+00 0.  1.
         21   -1    0    0  504  502  0.00000000000E+00 -0.00000000000E+00 -0.31636106827E+02  0.31636106827E+02  0.00000000000E+00 0. -1.
         21    1    1    2  503  501  0.27783436713E+02  0.79693598251E+02  0.86613280762E+03  0.87023504262E+03  0.00000000000E+00 0.  1.
         21    1    1    2  504  503  0.10317650072E+02 -0.64121326637E+02  0.15002623788E+02  0.66656411194E+02  0.00000000000E+00 0. -1.
         21    1    1    2  505  502 -0.65730574013E+02 -0.28155881334E+02  0.35226107086E+03  0.35944557871E+03  0.00000000000E+00 0. -1.
          2    1    1    2  501    0  0.27629487228E+02  0.12583609720E+02  0.13893155146E+04  0.13896471980E+04  0.00000000000E+00 0.  1.
<scales pt_clust_3="65.38961" pt_clust_4="14000.00000" pt_clust_5="62.96816" pt_clust_6="30.36010"></scales>
<clustering>
<clus scale="   30.360">  1  6  2 -1</clus>
<clus scale="   62.968">  1  5  2 -1</clus>
<clus scale="   65.390">  1  3  2 -1</clus>
<clus scale="   65.390">  2  3  1 -1</clus>
</clustering>
</event>
<event>
 6    0  0.4017242E+002  0.8706993E+02  0.7546771E-02  0.1310107E+00
          2   -1    0    0  505    0 -0.00000000000E+00  0.00000000000E+00  0.49587396177E+03  0.49587396177E+03  0.00000000000E+00 0.  1.
         21   -1    0    0  503  502  0.00000000000E+00 -0.00000000000E+00 -0.30600171176E+03  0.30600171176E+03  0.00000000000E+00 0. -1.
         21    1    1    2  503  504 -0.87580399032E+02  0.18725465485E+01 -0.24966013259E+03  0.26458271775E+03  0.00000000000E+00 0. -1.
         21    1    1    2  504  501  0.75531786085E+02  0.10164150009E+03  0.12684560141E+03  0.17923685962E+03  0.00000000000E+00 0.  1.
         21    1    1    2  505  502  0.53615931974E+02 -0.39927579574E+02  0.25231590020E+03  0.26102144216E+03  0.00000000000E+00 0.  1.
          2    1    1    2  501    0 -0.41567319027E+02 -0.63586467062E+02  0.60370881003E+02  0.97034654003E+02  0.00000000000E+00 0.  1.
<scales pt_clust_3="87.06993" pt_clust_4="14000.00000" pt_clust_5="66.84968" pt_clust_6="80.36766"></scales>
<clustering>
<clus scale="   66.850">  1  5  2 -1</clus>
<clus scale="   80.368">  1  6  2 -1</clus>
<clus scale="   87.070">  2  3  1 -1</clus>
<clus scale="   87.070">  2  3  1 -1</clus>
</clustering>
</event>
<event>
 6    0  0.4017242E+002  0.1630788E+03  0.7546771E-02  0.1185264E+00
         21   -1    0    0  504  502  0.00000000000E+00  0.00000000000E+00  0.15432937091E+03  0.15432937091E+03  0.00000000000E+00 0.  1.
          2   -1    0    0  503    0 -0.00000000000E+00 -0.00000000000E+00 -0.89532370756E+03  0.89532370756E+03  0.00000000000E+00 0. -1.
         21    1    1    2  503  505  0.35744106609E+02 -0.10820910334E+03  0.37418480798E+02  0.11994579571E+03  0.00000000000E+00 0.  1.
         21    1    1    2  504  501 -0.43913548694E+02  0.10274503862E+03 -0.90260087942E+02  0.14363782996E+03  0.00000000000E+00 0. -1.
         21    1    1    2  505  502  0.54098802489E+02 -0.53225671401E+02  0.16351919772E+02  0.77633999041E+02  0.00000000000E+00 0.  1.
          2    1    1    2  501    0 -0.45929360404E+02  0.58689736120E+02 -0.70450464929E+03  0.70843545376E+03  0.00000000000E+00 0. -1.
<scales pt_clust_3="36.61913" pt_clust_4="156.78363" pt_clust_5="36.61913" pt_clust_6="74.52510"></scales>
<clustering>
<clus scale="   36.619">  3  5 -1 -1</clus>
<clus scale="   74.525">  2  6  1 -1</clus>
<clus scale="  156.784">  2  4  1 -1</clus>
<clus scale="  163.079">  1  3  2 -1</clus>
</clustering>
</event>
<event>
 6    0  0.4017242E+002  0.7924459E+02  0.7546771E-02  0.1331209E+00
         21   -1    0    0  505  502  0.00000000000E+00  0.00000000000E+00  0.63304599879E+02  0.63304599879E+02  0.00000000000E+00 0.  1.
          1   -1    0    0  503    0 -0.00000000000E+00 -0.00000000000E+00 -0.11357174189E+04  0.11357174189E+04  0.00000000000E+00 0. -1.
         21    1    1    2  503  504 -0.58831432472E+02  0.58716582170E+02 -0.10251802416E+03  0.13197999752E+03  0.00000000000E+00 0.  1.
         21    1    1    2  504  502 -0.51047211372E+02  0.16275897725E+02  0.13702646027E+02  0.55303572613E+02  0.00000000000E+00 0.  1.
         21    1    1    2  505  501  0.89131845720E+02 -0.20200823953E+02 -0.14701386945E+03  0.17310585496E+03  0.00000000000E+00 0.  1.
          1    1    1    2  501    0  0.20746798123E+02 -0.54791655942E+02 -0.83658357147E+03  0.83863259371E+03  0.00000000000E+00 0. -1.
<scales pt_clust_3="79.24459" pt_clust_4="53.57912" pt_clust_5="14000.00000" pt_clust_6="57.42298"></scales>
<clustering>
<clus scale="   53.579">  1  4  2 -1</clus>
<clus scale="   57.423">  2  6  1 -1</clus>
<clus scale="   79.245">  2  3  1 -1</clus>
<clus scale="   53.579">  1  3  2 -1</clus>
</clustering>
</event>
<event>
 6    0  0.4017242E+002  0.4254996E+03  0.7546771E-02  0.1035291E+00
         21   -1    0    0  501  502  0.00000000000E+00  0.00000000000E+00  0.12282646636E+04  0.12282646636E+04  0.00000000000E+00 0. -1.
          2   -1    0    0  503    0 -0.00000000000E+00 -0.00000000000E+00 -0.39025124400E+04  0.39025124400E+04  0.00000000000E+00 0.  1.
         21    1    1    2  503  505 -0.23665450054E+03  0.35453780374E+02  0.12528847275E+03  0.27011020819E+03  0.00000000000E+00 0. -1.
         21    1    1    2  504  502 -0.34564957082E+02 -0.29198710761E+01  0.91055115612E+03  0.91121164929E+03  0.00000000000E+00 0. -1.
         21    1    1    2  505  504 -0.13489907251E+03  0.74616419548E+02  0.52987817892E+02  0.16301251079E+03  0.00000000000E+00 0. -1.
          2    1    1    2  501    0  0.40611853012E+03 -0.10715032885E+03 -0.37630752231E+04  0.37864427354E+04  0.00000000000E+00 0.  1.
<scales pt_clust_3="59.65002" pt_clust_4="34.68807" pt_clust_5="59.65002" pt_clust_6="418.81333"></scales>
<clustering>
<clus scale="   34.688">  1  4  2 -1</clus>
<clus scale="   59.650">  3  5 -1 -1</clus>
<clus scale="  418.813">  2  6  1 -1</clus>
<clus scale="   34.688">  1  3  2 -1</clus>
</clustering>
</event>
<event>
 6    0  0.4017242E+002  0.2795056E+03  0.7546771E-02  0.1095959E+00
          2   -1    0    0  503    0 -0.00000000000E+00  0.00000000000E+00  0.48660673086E+04  0.48660673086E+04  0.00000000000E+00 0. -1.
         21   -1    0    0  505  502  0.00000000000E+00 -0.00000000000E+00 -0.36104034253E+03  0.36104034253E+03  0.00000000000E+00 0.  1.
         21    1    1    2  503  502 -0.24245775293E+03  0.12542221624E+03 -0.28167489630E+03  0.39224640404E+03  0.00000000000E+00 0.  1.
         21    1    1    2  504  501  0.12878954332E+03 -0.91309150268E+02  0.31393136723E+03  0.35139295770E+03  0.00000000000E+00 0.  1.
         21    1    1    2  505  504  0.65104449675E+02  0.55497099262E+01  0.20340091740E+03  0.21363829677E+03  0.00000000000E+00 0.  1.
          2    1    1    2  501    0  0.48563759936E+02 -0.39662775897E+02  0.42693695777E+04  0.42698299926E+04  0.00000000000E+00 0. -1.
<scales pt_clust_3="267.29261" pt_clust_4="52.57288" pt_clust_5="52.57288" pt_clust_6="62.70227"></scales>
<clustering>
<clus scale="   52.573">  4  5 -1 -1</clus>
<clus scale="   62.702">  1  6  2 -1</clus>
<clus scale="  267.293">  2  3  1 -1</clus>
<clus scale="  267.293">  2  3  1 -1</clus>
</clustering>
</event>
<event>
 6    0  0.4017242E+002  0.7988919E+02  0.7546771E-02  0.1329366E+00
         21   -1    0    0  505  502  0.00000000000E+00  0.00000000000E+00  0.11149143111E+03  0.11149143111E+03  0.00000000000E+00 0. -1.
          4   -1    0    0  503    0 -0.00000000000E+00 -0.00000000000E+00 -0.22252551891E+03  0.22252551891E+03  0.00000000000E+00 0. -1.
         21    1    1    2  503  504 -0.58496842954E+02 -0.37163270220E+02 -0.58202865250E+02  0.90501728229E+02  0.00000000000E+00 0. -1.
         21    1    1    2  504  502 -0.54498787468E+02  0.60246755416E+01  0.12874215793E+02  0.56321931636E+02  0.00000000000E+00 0. -1.
         21    1    1    2  505  501  0.44322381798E+02 -0.33502910975E+02  0.20694609612E+02  0.59288999309E+02  0.00000000000E+00 0. -1.
          4    1    1    2  501    0  0.68673248625E+02  0.64641505654E+02 -0.86400047960E+02  0.12790429085E+03  0.00000000000E+00 0. -1.
<scales pt_clust_3="79.88919" pt_clust_4="54.83078" pt_clust_5="34.31617" pt_clust_6="14000.00000"></scales>
<clustering>
<clus scale="   54.831">  1  4  2 -1</clus>
<clus scale="   34.316">  1  5  2 -1</clus>
<clus scale="   79.889">  2  3  1 -1</clus>
<clus scale="   54.831">  1  3  2 -1</clus>
</clustering>
</event>
<event>
 6    0  0.4017242E+002  0.9528516E+02  0.7546771E-02  0.1290535E+00
         21   -1    0    0  501  502  0.00000000000E+00  0.00000000000E+00  0.15284743093E+03  0.15284743093E+03  0.00000000000E+00 0.  1.
          1   -1    0    0  503    0 -0.00000000000E+00 -0.00000000000E+00 -0.89224666839E+03  0.89224666839E+03  0.00000000000E+00 0.  1.
         21    1    1    2  503  504  0.38595847922E+02 -0.63574623961E+02 -0.68362674964E+02  0.10101894682E+03  0.00000000000E+00 0.  1.
         21    1    1    2  504  505 -0.63327397210E+02  0.80187290142E+02  0.14510749065E+02  0.10320330700E+03  0.00000000000E+00 0.  1.
         21    1    1    2  505  502  0.21479808767E+02  0.29805446357E+02  0.72563717938E+02  0.81334125545E+02  0.00000000000E+00 0.  1.
          1    1    1    2  501    0  0.32517405203E+01 -0.46418112538E+02 -0.75811102949E+03  0.75953771995E+03  0.00000000000E+00 0.  1.
<scales pt_clust_3="14000.00000" pt_clust_4="95.28516" pt_clust_5="36.73890" pt_clust_6="46.26706"></scales>
<clustering>
<clus scale="   36.739">  1  5  2 -1</clus>
<clus scale="   46.267">  2  6  1 -1</clus>
<clus scale="   95.285">  1  4  2 -1</clus>
<clus scale="   36.739">  1  3  2 -1</clus>
</clustering>
</event>
<event>
 6    0  0.4017242E+002  0.6919313E+02  0.7546771E-02  0.1362859E+00
         21   -1    0    0  504  502  0.00000000000E+00  0.00000000000E+00  0.15198213542E+03  0.15198213542E+03  0.00000000000E+00 0.  1.
          2   -1    0    0  505    0 -0.00000000000E+00 -0.00000000000E+00 -0.49469694330E+03  0.49469694330E+03  0.00000000000E+00 0. -1.
         21    1    1    2  503  502 -0.56394414100E+02 -0.27580862622E+02  0.49837877092E+02  0.80155149041E+02  0.00000000000E+00 0.  1.
         21    1    1    2  504  501  0.42674812558E+02  0.25533495138E+02  0.34638596114E+02  0.60604713856E+02  0.00000000000E+00 0. -1.
         21    1    1    2  505  503  0.16434489556E+02 -0.67191777641E+02  0.39117087828E+01  0.69282962517E+02  0.00000000000E+00 0.  1.
          2    1    1    2  501    0 -0.27148880143E+01  0.69239145124E+02 -0.43110298986E+03  0.43663625331E+03  0.00000000000E+00 0. -1.
<scales pt_clust_3="32.02174" pt_clust_4="49.73026" pt_clust_5="14000.00000" pt_clust_6="69.19313"></scales>
<clustering>
<clus scale="   49.730">  1  4  2 -1</clus>
<clus scale="   32.022">  1  3  2 -1</clus>
<clus scale="   69.193">  2  6  1 -1</clus>
<clus scale="   49.730">  1  3  2 -1</clus>
</clustering>
</event>
<event>
 6    0  0.4017242E+002  0.7942217E+02  0.7546771E-02  0.1330699E+00
         21   -1    0    0  504  502  0.00000000000E+00  0.00000000000E+00  0.58081845229E+03  0.58081845229E+03  0.00000000000E+00 0. -1.
          2   -1    0    0  505    0 -0.00000000000E+00 -0.00000000000E+00 -0.20937415726E+04  0.20937415726E+04  0.00000000000E+00 0.  1.
         21    1    1    2  503  502  0.46005348372E+02 -0.60176230593E+02 -0.14566608076E+03  0.16418367121E+03  0.00000000000E+00 0. -1.
         21    1    1    2  504  501  0.52068341629E+02  0.26474891871E+02  0.56578863945E+03  0.56879593584E+03  0.00000000000E+00 0. -1.
         21    1    1    2  505  503 -0.16447106379E+02  0.29949639551E+02 -0.15276254034E+04  0.15280074808E+04  0.00000000000E+00 0.  1.
          2    1    1    2  501    0 -0.81626583622E+02  0.37516991703E+01 -0.40542027563E+03  0.41357293709E+03  0.00000000000E+00 0.  1.
<scales pt_clust_3="79.42217" pt_clust_4="58.40979" pt_clust_5="34.16853" pt_clust_6="14000.00000"></scales>
<clustering>
<clus scale="   34.169">  2  5  1 -1</clus>
<clus scale="   58.410">  1  4  2 -1</clus>
<clus scale="   79.422">  1  3  2 -1</clus>
<clus scale="   58.410">  1  3  2 -1</clus>
</clustering>
</event>
<event>
 6    0  0.4017242E+002  0.8473260E+02  0.7546771E-02  0.1316133E+00
         21   -1    0    0  505  502  0.00000000000E+00  0.00000000000E+00  0.18125695071E+03  0.18125695071E+03  0.00000000000E+00 0. -1.
          1   -1    0    0  502    0 -0.00000000000E+00 -0.00000000000E+00 -0.16525735022E+04  0.16525735022E+04  0.00000000000E+00 0.  1.
         21    1    1    2  503  504 -0.20210623339E+02 -0.72494977752E+02  0.61235187889E+02  0.97024426465E+02  0.00000000000E+00 0. -1.
         21    1    1    2  504  501  0.87240672299E+01  0.84851949543E+02 -0.87795182240E+02  0.12240897318E+03  0.00000000000E+00 0. -1.
         21    1    1    2  505  503 -0.57567069103E+02  0.11847590292E+02  0.73651001012E+02  0.94227399364E+02  0.00000000000E+00 0. -1.
          1    1    1    2  501    0  0.69053625213E+02 -0.24204562083E+02 -0.15184075582E+04  0.15201696539E+04  0.00000000000E+00 0.  1.
<scales pt_clust_3="84.73260" pt_clust_4="14000.00000" pt_clust_5="58.77357" pt_clust_6="72.64556"></scales>
<clustering>
<clus scale="   58.774">  1  5  2 -1</clus>
<clus scale="   72.646">  2  6  1 -1</clus>
<clus scale="   84.733">  1  3  2 -1</clus>
<clus scale="   58.774">  1  3  2 -1</clus>
</clustering>
</event>
<event>
 6    0  0.4017242E+002  0.2126099E+03  0.7546771E-02  0.1139516E+00
         21   -1    0    0  503  502  0.00000000000E+00  0.00000000000E+00  0.11167036429E+04  0.11167036429E+04  0.00000000000E+00 0.  1.
         -1   -1    0    0    0  501 -0.00000000000E+00 -0.00000000000E+00 -0.87819451388E+02  0.87819451388E+02  0.00000000000E+00 0.  1.
         21    1    1    2  503  504  0.11110946416E+03 -0.16078067580E+02  0.31859286169E+03  0.33779465479E+03  0.00000000000E+00 0.  1.
         21    1    1    2  504  501  0.12820550163E+03 -0.66970185164E+02  0.32023691401E+03  0.35138773092E+03  0.00000000000E+00 0.  1.
         21    1    1    2  505  502 -0.47640382738E+02  0.46318079205E+02  0.28709769089E+03  0.29468636657E+03  0.00000000000E+00 0.  1.
         -1    1    1    2    0  505 -0.19167458305E+03  0.36730173539E+02  0.10295672491E+03  0.22065434199E+03  0.00000000000E+00 0.  1.
<scales pt_clust_3="45.77997" pt_clust_4="45.77997" pt_clust_5="66.44524" pt_clust_6="206.16199"></scales>
<clustering>
<clus scale="   45.780">  3  4 -1 -1</clus>
<clus scale="   66.445">  1  5  2 -1</clus>
<clus scale="  206.162">  2  6  1 -1</clus>
<clus scale="   66.445">  1  3  2 -1</clus>
</clustering>
</event>
<event>
 6    0  0.4017242E+002  0.1130256E+03  0.7546771E-02  0.1255067E+00
         21   -1    0    0  505  502  0.00000000000E+00  0.00000000000E+00  0.23289873548E+02  0.23289873548E+02  0.00000000000E+00 0. -1.
          2   -1    0    0  502    0 -0.00000000000E+00 -0.00000000000E+00 -0.17458709761E+04  0.17458709761E+04  0.00000000000E+00 0. -1.
         21    1    1    2  503  504 -0.15395189973E+02 -0.52955394901E+02 -0.11779597755E+03  0.13006605264E+03  0.00000000000E+00 0. -1.
         21    1    1    2  504  501  0.40717008122E+02 -0.83235745736E+02 -0.28427567728E+03  0.29899619531E+03  0.00000000000E+00 0. -1.
         21    1    1    2  505  503 -0.54999837496E+01  0.45831331403E+02 -0.57639367851E+02  0.73844820304E+02  0.00000000000E+00 0. -1.
          2    1    1    2  501    0 -0.19821834399E+02  0.90359809235E+02 -0.12628700798E+04  0.12662537814E+04  0.00000000000E+00 0. -1.
<scales pt_clust_3="43.93674" pt_clust_4="43.93674" pt_clust_5="46.16016" pt_clust_6="97.62796"></scales>
<clustering>
<clus scale="   43.937">  3  4 -1 -1</clus>
<clus scale="   46.160">  1  5  2 -1</clus>
<clus scale="   97.628">  2  6  1 -1</clus>
<clus scale="   46.160">  1  3  2 -1</clus>
</clustering>
</event>
<event>
 6    0  0.4017242E+002  0.1163771E+03  0.7546771E-02  0.1249196E+00
          1   -1    0    0  504    0 -0.00000000000E+00  0.00000000000E+00  0.20871698621E+04  0.20871698621E+04  0.00000000000E+00 0.  1.
         21   -1    0    0  501  502  0.00000000000E+00 -0.00000000000E+00 -0.11938354552E+03  0.11938354552E+03  0.00000000000E+00 0.  1.
         21    1    1    2  503  505  0.28788682185E+02  0.47799068292E+02  0.24995550458E+03  0.25610797220E+03  0.00000000000E+00 0.  1.
         21    1    1    2  504  503 -0.39659925130E+01  0.49127179829E+02  0.39138311326E+03  0.39447427069E+03  0.00000000000E+00 0. -1.
         21    1    1    2  505  502  0.54124907091E+02 -0.11915888746E+02 -0.10558520867E+03  0.11924651048E+03  0.00000000000E+00 0.  1.
          1    1    1    2  501    0 -0.78947596764E+02 -0.85010359374E+02  0.14320329074E+04  0.14367246543E+04  0.00000000000E+00 0.  1.
<scales pt_clust_3="41.30120" pt_clust_4="41.30120" pt_clust_5="55.42106" pt_clust_6="107.76113"></scales>
<clustering>
<clus scale="   41.301">  3  4 -1 -1</clus>
<clus scale="   55.421">  2  5  1 -1</clus>
<clus scale="  107.761">  1  6  2 -1</clus>
<clus scale="   55.421">  2  3  1 -1</clus>
</clustering>
</event>
<event>
 6    0  0.4017242E+002  0.1959214E+03  0.7546771E-02  0.1153226E+00
         -2   -1    0    0    0  501 -0.00000000000E+00  0.00000000000E+00  0.22031870082E+03  0.22031870082E+03  0.00000000000E+00 0.  1.
         21   -1    0    0  504  502  0.00000000000E+00 -0.00000000000E+00 -0.63952689491E+03  0.63952689491E+03  0.00000000000E+00 0.  1.
         21    1    1    2  503  501  0.85174035810E+02  0.13811707841E+02 -0.14765750581E+03  0.17102081357E+03  0.00000000000E+00 0.  1.
         21    1    1    2  504  503  0.10119012571E+03  0.87923177491E+02 -0.39265703128E+03  0.41490899110E+03  0.00000000000E+00 0.  1.
         21    1    1    2  505  502 -0.25827240479E+02 -0.27857663047E+02 -0.24273696954E+02  0.45081128036E+02  0.00000000000E+00 0.  1.
         -2    1    1    2    0  505 -0.16053692104E+03 -0.73877222285E+02  0.14538003995E+03  0.22883466304E+03  0.00000000000E+00 0.  1.
<scales pt_clust_3="67.41536" pt_clust_4="67.41536" pt_clust_5="37.98810" pt_clust_6="179.14479"></scales>
<clustering>
<clus scale="   37.988">  2  5  1 -1</clus>
<clus scale="   67.415">  3  4 -1 -1</clus>
<clus scale="  179.145">  1  6  2 -1</clus>
<clus scale="   37.988">  2  3  1 -1</clus>
</clustering>
</event>
<event>
 6    0  0.4017242E+002  0.1201827E+03  0.7546771E-02  0.1242796E+00
         21   -1    0    0  504  502  0.00000000000E+00  0.00000000000E+00  0.41828260829E+03  0.41828260829E+03  0.00000000000E+00 0.  1.
         -1   -1    0    0    0  501 -0.00000000000E+00 -0.00000000000E+00 -0.39968915104E+03  0.39968915104E+03  0.00000000000E+00 0.  1.
         21    1    1    2  503  505 -0.23193439264E+02  0.74669776037E+02 -0.59927461320E+01  0.78418263718E+02  0.00000000000E+00 0.  1.
         21    1    1    2  504  501 -0.20974429075E+02  0.45962057968E+02  0.62447828540E+02  0.80325392853E+02  0.00000000000E+00 0.  1.
         21    1    1    2  505  502 -0.51758482735E+02 -0.20081409733E+02  0.29413037020E+03  0.29932403550E+03  0.00000000000E+00 0.  1.
         -1    1    1    2    0  503  0.95926351074E+02 -0.10055042427E+03 -0.33199199536E+03  0.35990406726E+03  0.00000000000E+00 0.  1.
<scales pt_clust_3="120.18270" pt_clust_4="50.52165" pt_clust_5="72.30460" pt_clust_6="14000.00000"></scales>
<clustering>
<clus scale="   50.522">  1  4  2 -1</clus>
<clus scale="   72.305">  1  5  2 -1</clus>
<clus scale="  120.183">  1  3  2 -1</clus>
<clus scale="   50.522">  1  3  2 -1</clus>
</clustering>
</event>
<event>
 6    0  0.4017242E+002  0.8282143E+02  0.7546771E-02  0.1321230E+00
         21   -1    0    0  503  502  0.00000000000E+00  0.00000000000E+00  0.45425465714E+03  0.45425465714E+03  0.00000000000E+00 0.  1.
          2   -1    0    0  504    0 -0.00000000000E+00 -0.00000000000E+00 -0.38556643974E+03  0.38556643974E+03  0.00000000000E+00 0.  1.
         21    1    1    2  503  501  0.90652841528E+02 -0.44295994457E+02  0.40411254819E+03  0.41651773600E+03  0.00000000000E+00 0.  1.
         21    1    1    2  504  505 -0.96144566831E+02  0.60482249400E+02 -0.16571950305E+03  0.20091001447E+03  0.00000000000E+00 0.  1.
         21    1    1    2  505  502 -0.33782161517E+02 -0.10978831059E+02  0.11165543281E+02  0.37234910029E+02  0.00000000000E+00 0.  1.
          2    1    1    2  501    0  0.39273886819E+02 -0.52074238841E+01 -0.18087037102E+03  0.18515843638E+03  0.00000000000E+00 0.  1.
<scales pt_clust_3="82.82143" pt_clust_4="14000.00000" pt_clust_5="35.52139" pt_clust_6="39.45792"></scales>
<clustering>
<clus scale="   35.521">  1  5  2 -1</clus>
<clus scale="   39.458">  2  6  1 -1</clus>
<clus scale="   82.821">  1  3  2 -1</clus>
<clus scale="   35.521">  1  3  2 -1</clus>
</clustering>
</event>
<event>
 6    0  0.4017242E+002  0.1287542E+03  0.7546771E-02  0.1229316E+00
          2   -1    0    0  503    0 -0.00000000000E+00  0.00000000000E+00  0.26925837947E+04  0.26925837947E+04  0.00000000000E+00 0.  1.
         21   -1    0    0  505  502  0.00000000000E+00 -0.00000000000E+00 -0.33489930190E+02  0.33489930190E+02  0.00000000000E+00 0. -1.
         21    1    1    2  503  502 -0.52189433386E+02  0.43622139107E+02  0.27126046867E+02  0.73228753889E+02  0.00000000000E+00 0. -1.
         21    1    1    2  504  501 -0.23033901192E+02  0.51668765521E+02  0.21627622602E+03  0.22355229338E+03  0.00000000000E+00 0. -1.
         21    1    1    2  505  504  0.17199782945E+02  0.25761267015E+02  0.44025192111E+02  0.53830223407E+02  0.00000000000E+00 0.  1.
          2    1    1    2  501    0  0.58023551633E+02 -0.12105217164E+03  0.23716663995E+04  0.23754624542E+04  0.00000000000E+00 0.  1.
<scales pt_clust_3="128.75416" pt_clust_4="58.76823" pt_clust_5="30.97540" pt_clust_6="14000.00000"></scales>
<clustering>
<clus scale="   30.975">  2  5  1 -1</clus>
<clus scale="   58.768">  2  4  1 -1</clus>
<clus scale="  128.754">  2  3  1 -1</clus>
<clus scale="   30.975">  2  3  1 -1</clus>
</clustering>
</event>
<event>
 6    0  0.4017242E+002  0.1071646E+03  0.7546771E-02  0.1265913E+00
         21   -1    0    0  504  502  0.00000000000E+00  0.00000000000E+00  0.11490992842E+03  0.11490992842E+03  0.00000000000E+00 0. -1.
          2   -1    0    0  503    0 -0.00000000000E+00 -0.00000000000E+00 -0.12409686519E+04  0.12409686519E+04  0.00000000000E+00 0. -1.
         21    1    1    2  503  502 -0.11877210986E+03 -0.56838330615E+02  0.41387187091E+02  0.13802285739E+03  0.00000000000E+00 0. -1.
         21    1    1    2  504  505 -0.26555260498E+02 -0.35101384940E+02 -0.44581344307E+02  0.62648107274E+02  0.00000000000E+00 0.  1.
         21    1    1    2  505  501  0.78773385219E+02  0.84143845394E+01 -0.10387745008E+03  0.13063909339E+03  0.00000000000E+00 0. -1.
          2    1    1    2  501    0  0.66553985140E+02  0.83525331015E+02 -0.10189871162E+04  0.10245685223E+04  0.00000000000E+00 0. -1.
<scales pt_clust_3="14000.00000" pt_clust_4="44.01465" pt_clust_5="75.52215" pt_clust_6="107.16458"></scales>
<clustering>
<clus scale="   44.015">  1  4  2 -1</clus>
<clus scale="   75.522">  1  5  2 -1</clus>
<clus scale="  107.165">  2  6  1 -1</clus>
<clus scale="   44.015">  1  3  2 -1</clus>
</clustering>
</event>
<event>
 6    0  0.4017242E+002  0.1377014E+03  0.7546771E-02  0.1216456E+00
          2   -1    0    0  505    0 -0.00000000000E+00  0.00000000000E+00  0.31715289413E+03  0.31715289413E+03  0.00000000000E+00 0.  1.
         21   -1    0    0  503  502  0.00000000000E+00 -0.00000000000E+00 -0.40143176103E+03  0.40143176103E+03  0.00000000000E+00 0.  1.
         21    1    1    2  503  504  0.59614524388E+02 -0.43840233843E+02 -0.37425164268E+02  0.82924667873E+02  0.00000000000E+00 0. -1.
         21    1    1    2  504  501  0.37125204043E+02 -0.11848057398E+03  0.78622397823E+02  0.14696056826E+03  0.00000000000E+00 0. -1.
         21    1    1    2  505  502  0.40897732665E+01  0.42496052107E+02 -0.27134602421E+03  0.27468401035E+03  0.00000000000E+00 0.  1.
          2    1    1    2  501    0 -0.10082950170E+03  0.11982475571E+03  0.14586992375E+03  0.21401540867E+03  0.00000000000E+00 0.  1.
<scales pt_clust_3="66.01938" pt_clust_4="14000.00000" pt_clust_5="42.69240" pt_clust_6="137.70136"></scales>
<clustering>
<clus scale="   42.692">  2  5  1 -1</clus>
<clus scale="   66.019">  2  3  1 -1</clus>
<clus scale="  137.701">  1  6  2 -1</clus>
<clus scale="   42.692">  2  3  1 -1</clus>
</clustering>
</event>
<event>
 6    0  0.4017242E+002  0.2112891E+03  0.7546771E-02  0.1140549E+00
         21   -1    0    0  503  502  0.00000000000E+00  0.00000000000E+00  0.41488476800E+03  0.41488476800E+03  0.00000000000E+00 0.  1.
          1   -1    0    0  505    0 -0.00000000000E+00 -0.00000000000E+00 -0.95348252347E+03  0.95348252347E+03  0.00000000000E+00 0. -1.
         21    1    1    2  503  501  0.87785718672E+02  0.18444952137E+03 -0.17321392593E+02  0.20500729006E+03  0.00000000000E+00 0.  1.
         21    1    1    2  504  502  0.60703962798E+01 -0.64102319040E+02  0.80147590357E+02  0.10280852716E+03  0.00000000000E+00 0. -1.
         21    1    1    2  505  504  0.11349755223E+03 -0.44786301228E+02  0.19725525714E+03  0.23194211263E+03  0.00000000000E+00 0.  1.
          1    1    1    2  501    0 -0.20735366718E+03 -0.75560901104E+02 -0.79867921038E+03  0.82860936162E+03  0.00000000000E+00 0. -1.
<scales pt_clust_3="14000.00000" pt_clust_4="64.38911" pt_clust_5="146.41506" pt_clust_6="211.28913"></scales>
<clustering>
<clus scale="   64.389">  1  4  2 -1</clus>
<clus scale="  146.415">  1  5  2 -1</clus>
<clus scale="  211.289">  2  6  1 -1</clus>
<clus scale="   64.389">  1  3  2 -1</clus>
</clustering>
</event>
<event>
 6    0  0.4017242E+002  0.1622159E+03  0.7546771E-02  0.1186217E+00
          2   -1    0    0  505    0 -0.00000000000E+00  0.00000000000E+00  0.35934599565E+03  0.35934599565E+03  0.00000000000E+00 0.  1.
         21   -1    0    0  504  502  0.00000000000E+00 -0.00000000000E+00 -0.27192970523E+03  0.27192970523E+03  0.00000000000E+00 0. -1.
         21    1    1    2  503  502 -0.52825378616E+02  0.79074904593E+02 -0.11385989081E+03  0.14834903403E+03  0.00000000000E+00 0. -1.
         21    1    1    2  504  501  0.78068827557E+02 -0.28646661843E+01 -0.67932384205E+02  0.10352660031E+03  0.00000000000E+00 0. -1.
         21    1    1    2  505  503 -0.22313904145E+02  0.65053602555E+02 -0.70205177417E+01  0.69131535445E+02  0.00000000000E+00 0. -1.
          2    1    1    2  501    0 -0.29295447961E+01 -0.14126384096E+03  0.27622908317E+03  0.31026853109E+03  0.00000000000E+00 0.  1.
<scales pt_clust_3="67.32131" pt_clust_4="78.12137" pt_clust_5="67.32131" pt_clust_6="141.58818"></scales>
<clustering>
<clus scale="   67.321">  3  5 -1 -1</clus>
<clus scale="   78.121">  2  4  1 -1</clus>
<clus scale="  141.588">  1  6  2 -1</clus>
<clus scale="   78.121">  2  3  1 -1</clus>
</clustering>
</event>
<event>
 6    0  0.4017242E+002  0.8583702E+02  0.7546771E-02  0.1313258E+00
         21   -1    0    0  504  502  0.00000000000E+00  0.00000000000E+00  0.55789522093E+02  0.55789522093E+02  0.00000000000E+00 0.  1.
          2   -1    0    0  505    0 -0.00000000000E+00 -0.00000000000E+00 -0.16695416420E+04  0.16695416420E+04  0.00000000000E+00 0. -1.
         21    1    1    2  503  501 -0.19961871484E+02  0.42530424738E+02 -0.25217083463E+03  0.25651012296E+03  0.00000000000E+00 0. -1.
         21    1    1    2  504  503  0.10920092634E+02  0.75060127603E+02 -0.20959567633E+02  0.78692913622E+02  0.00000000000E+00 0.  1.
         21    1    1    2  505  502  0.51505859985E+02 -0.12807650045E+03 -0.17135289174E+03  0.22004148947E+03  0.00000000000E+00 0.  1.
          2    1    1    2  501    0 -0.42464081136E+02  0.10485948113E+02 -0.11692688259E+04  0.11700866380E+04  0.00000000000E+00 0. -1.
<scales pt_clust_3="63.39618" pt_clust_4="14000.00000" pt_clust_5="85.83702" pt_clust_6="43.73961"></scales>
<clustering>
<clus scale="   43.740">  2  6  1 -1</clus>
<clus scale="   63.396">  2  3  1 -1</clus>
<clus scale="   85.837">  2  5  1 -1</clus>
<clus scale="   85.837">  1  3  2 -1</clus>
</clustering>
</event>
<event>
 6    0  0.4017242E+002  0.1558202E+03  0.7546771E-02  0.1193498E+00
          1   -1    0    0  503    0 -0.00000000000E+00  0.00000000000E+00  0.13510879717E+04  0.13510879717E+04  0.00000000000E+00 0.  1.
         21   -1    0    0  505  502  0.00000000000E+00 -0.00000000000E+00 -0.37994933261E+03  0.37994933261E+03  0.00000000000E+00 0. -1.
         21    1    1    2  503  504  0.92464400721E+02  0.23489043890E+02  0.13048956598E+03  0.16164444752E+03  0.00000000000E+00 0. -1.
         21    1    1    2  504  502 -0.10704317176E+03 -0.17440436183E+03 -0.22456412082E+03  0.30381600749E+03  0.00000000000E+00 0. -1.
         21    1    1    2  505  501  0.10749012377E+02  0.11899604976E+03 -0.64247368651E+02  0.13565885708E+03  0.00000000000E+00 0. -1.
          1    1    1    2  501    0  0.38297586601E+01  0.31919268181E+02  0.11294605626E+04  0.11299179923E+04  0.00000000000E+00 0.  1.
<scales pt_clust_3="104.91805" pt_clust_4="155.82018" pt_clust_5="14000.00000" pt_clust_6="32.14820"></scales>
<clustering>
<clus scale="   32.148">  1  6  2 -1</clus>
<clus scale="  104.918">  1  3  2 -1</clus>
<clus scale="  155.820">  1  4  2 -1</clus>
<clus scale="  155.820">  2  3  1 -1</clus>
</clustering>
</event>
<event>
 6    0  0.4017242E+002  0.8004509E+02  0.7546771E-02  0.1328924E+00
         21   -1    0    0  503  502  0.00000000000E+00  0.00000000000E+00  0.36304743713E+03  0.36304743713E+03  0.00000000000E+00 0.  1.
          1   -1    0    0  504    0 -0.00000000000E+00 -0.00000000000E+00 -0.17911970372E+03  0.17911970372E+03  0.00000000000E+00 0.  1.
         21    1    1    2  503  501  0.43325816566E+02  0.13389366242E+01  0.62167091939E+02  0.75786980759E+02  0.00000000000E+00 0.  1.
         21    1    1    2  504  505 -0.77994887992E+02 -0.30734849941E+02  0.55123111118E+02  0.10033140552E+03  0.00000000000E+00 0.  1.
         21    1    1    2  505  502  0.92365227201E+01 -0.50305975518E+02  0.20119997354E+03  0.20759921454E+03  0.00000000000E+00 0.  1.
          1    1    1    2  501    0  0.25432548706E+02  0.79701888835E+02 -0.13456244319E+03  0.15844954003E+03  0.00000000000E+00 0.  1.
<scales pt_clust_3="43.34650" pt_clust_4="80.04509" pt_clust_5="63.13814" pt_clust_6="14000.00000"></scales>
<clustering>
<clus scale="   43.347">  1  3  2 -1</clus>
<clus scale="   63.138">  1  5  2 -1</clus>
<clus scale="   80.045">  1  4  2 -1</clus>
<clus scale="   43.347">  1  3  2 -1</clus>
</clustering>
</event>
<event>
 6    0  0.4017242E+002  0.6478656E+02  0.7546771E-02  0.1378776E+00
         21   -1    0    0  504  502  0.00000000000E+00  0.00000000000E+00  0.21099197279E+04  0.21099197279E+04  0.00000000000E+00 0.  1.
         -2   -1    0    0    0  501 -0.00000000000E+00 -0.00000000000E+00 -0.23443897897E+02  0.23443897897E+02  0.00000000000E+00 0.  1.
         21    1    1    2  503  505 -0.89735252812E+02 -0.20357837869E+02  0.81921773262E+03  0.82436918344E+03  0.00000000000E+00 0.  1.
         21    1    1    2  504  501  0.62968930061E+02 -0.18284479430E+02  0.28388971304E+03  0.29136365166E+03  0.00000000000E+00 0.  1.
         21    1    1    2  505  502  0.47366555185E+02 -0.24002311290E+02  0.93335859397E+03  0.93486788716E+03  0.00000000000E+00 0.  1.
         -2    1    1    2    0  503 -0.20600232433E+02  0.62644628589E+02  0.50009790340E+02  0.82762903509E+02  0.00000000000E+00 0.  1.
<scales pt_clust_3="64.78656" pt_clust_4="14000.00000" pt_clust_5="53.10086" pt_clust_6="63.85714"></scales>
<clustering>
<clus scale="   53.101">  1  5  2 -1</clus>
<clus scale="   63.857">  2  6  1 -1</clus>
<clus scale="   64.787">  1  3  2 -1</clus>
<clus scale="   53.101">  1  3  2 -1</clus>
</clustering>
</event>
<event>
 6    0  0.4017242E+002  0.3328624E+03  0.7546771E-02  0.1069877E+00
         21   -1    0    0  503  502  0.00000000000E+00  0.00000000000E+00  0.38442789443E+03  0.38442789443E+03  0.00000000000E+00 0.  1.
          2   -1    0    0  504    0 -0.00000000000E+00 -0.00000000000E+00 -0.13677692276E+04  0.13677692276E+04  0.00000000000E+00 0.  1.
         21    1    1    2  503  505  0.26906506034E+03  0.24685403958E+03 -0.81559520813E+03  0.89360420046E+03  0.00000000000E+00 0.  1.
         21    1    1    2  504  502 -0.24688386832E+03 -0.19574566563E+03  0.24781369167E+03  0.40084864454E+03  0.00000000000E+00 0.  1.
         21    1    1    2  505  501  0.53226818778E+02  0.34049909513E+02 -0.24290281097E+03  0.25098658560E+03  0.00000000000E+00 0.  1.
          2    1    1    2  501    0 -0.75408010796E+02 -0.85158283457E+02 -0.17265700574E+03  0.20675769143E+03  0.00000000000E+00 0.  1.
<scales pt_clust_3="34.53150" pt_clust_4="322.34521" pt_clust_5="34.53150" pt_clust_6="113.74665"></scales>
<clustering>
<clus scale="   34.532">  3  5 -1 -1</clus>
<clus scale="  113.747">  2  6  1 -1</clus>
<clus scale="  322.345">  1  4  2 -1</clus>
<clus scale="  322.345">  1  3  2 -1</clus>
</clustering>
</event>
<event>
 6    0  0.4017242E+002  0.1030695E+03  0.7546771E-02  0.1273970E+00
         21   -1    0    0  504  502  0.00000000000E+00  0.00000000000E+00  0.10426637574E+03  0.10426637574E+03  0.00000000000E+00 0. -1.
         -2   -1    0    0    0  501 -0.00000000000E+00 -0.00000000000E+00 -0.15500436209E+04  0.15500436209E+04  0.00000000000E+00 0. -1.
         21    1    1    2  503  505 -0.92013828392E+02  0.28855489203E+02 -0.51890542433E+03  0.52778975290E+03  0.00000000000E+00 0. -1.
         21    1    1    2  504  501  0.65920997291E+02  0.11112474449E+02  0.74494177875E+02  0.10009219505E+03  0.00000000000E+00 0. -1.
         21    1    1    2  505  502  0.62996502008E+02 -0.62126598785E+02 -0.15128682631E+03  0.17525974254E+03  0.00000000000E+00 0.  1.
         -2    1    1    2    0  503 -0.36903670907E+02  0.22158635133E+02 -0.85007917239E+03  0.85116830614E+03  0.00000000000E+00 0. -1.
<scales pt_clust_3="103.06950" pt_clust_4="66.25453" pt_clust_5="14000.00000" pt_clust_6="43.04516"></scales>
<clustering>
<clus scale="   43.045">  2  6  1 -1</clus>
<clus scale="   66.255">  1  4  2 -1</clus>
<clus scale="  103.069">  2  3  1 -1</clus>
<clus scale="   66.255">  1  3  2 -1</clus>
</clustering>
</event>
<event>
 6    0  0.4017242E+002  0.7699722E+02  0.7546771E-02  0.1337796E+00
          2   -1    0    0  504    0 -0.00000000000E+00  0.00000000000E+00  0.95345843625E+03  0.95345843625E+03  0.00000000000E+00 0. -1.
         21   -1    0    0  503  502  0.00000000000E+00 -0.00000000000E+00 -0.57610146815E+02  0.57610146815E+02  0.00000000000E+00 0. -1.
         21    1    1    2  503  505 -0.24666706932E+02 -0.75375467051E+02 -0.10966859441E+02  0.80063596409E+02  0.00000000000E+00 0. -1.
         21    1    1    2  504  502 -0.53128870395E+02  0.36282568321E+00  0.11460152534E+03  0.12631832061E+03  0.00000000000E+00 0. -1.
         21    1    1    2  505  501  0.73136168807E+02  0.33373449629E+02  0.29648587693E+03  0.30719140865E+03  0.00000000000E+00 0. -1.
          2    1    1    2  501    0  0.46594085203E+01  0.41639191739E+02  0.49572774661E+03  0.49749525740E+03  0.00000000000E+00 0. -1.
<scales pt_clust_3="14000.00000" pt_clust_4="53.12517" pt_clust_5="76.99722" pt_clust_6="41.89907"></scales>
<clustering>
<clus scale="   41.899">  1  6  2 -1</clus>
<clus scale="   53.125">  1  4  2 -1</clus>
<clus scale="   76.997">  1  5  2 -1</clus>
<clus scale="   76.997">  2  3  1 -1</clus>
</clustering>
</event>
<event>
 6    0  0.4017242E+002  0.5899905E+02  0.7546771E-02  0.1402081E+00
         21   -1    0    0  505  502  0.00000000000E+00  0.00000000000E+00  0.23027589227E+03  0.23027589227E+03  0.00000000000E+00 0. -1.
          2   -1    0    0  504    0 -0.00000000000E+00 -0.00000000000E+00 -0.49430052615E+03  0.49430052615E+03  0.00000000000E+00 0. -1.
         21    1    1    2  503  502  0.43717300010E+00 -0.39282434919E+02  0.19583806849E+02  0.43895629670E+02  0.00000000000E+00 0. -1.
         21    1    1    2  504  503  0.46084695770E+02  0.40803981416E+02  0.48013866884E+01  0.61739917378E+02  0.00000000000E+00 0. -1.
         21    1    1    2  505  501 -0.78025889460E+02  0.48028288519E+02  0.15045934028E+03  0.17616120175E+03  0.00000000000E+00 0. -1.
          2    1    1    2  501    0  0.31504020690E+02 -0.49549835016E+02 -0.43886916770E+03  0.44277966962E+03  0.00000000000E+00 0. -1.
<scales pt_clust_3="39.28487" pt_clust_4="57.45987" pt_clust_5="14000.00000" pt_clust_6="58.99905"></scales>
<clustering>
<clus scale="   39.285">  1  3  2 -1</clus>
<clus scale="   57.460">  1  4  2 -1</clus>
<clus scale="   58.999">  2  6  1 -1</clus>
<clus scale="   39.285">  1  3  2 -1</clus>
</clustering>
</event>
<event>
 6    0  0.4017242E+002  0.1119123E+03  0.7546771E-02  0.1257069E+00
          2   -1    0    0  504    0 -0.00000000000E+00  0.00000000000E+00  0.15551663405E+04  0.15551663405E+04  0.00000000000E+00 0.  1.
         21   -1    0    0  503  502  0.00000000000E+00 -0.00000000000E+00 -0.39202822939E+02  0.39202822939E+02  0.00000000000E+00 0.  1.
         21    1    1    2  503  505  0.77721017868E+02  0.41888557125E+02  0.75273161792E+02  0.11602265607E+03  0.00000000000E+00 0.  1.
         21    1    1    2  504  502 -0.32449345304E+02 -0.65452692164E+02  0.13468576732E+03  0.15322294489E+03  0.00000000000E+00 0.  1.
         21    1    1    2  505  501  0.15755402752E+02  0.48836263766E+02  0.67164766953E+02  0.84524075235E+02  0.00000000000E+00 0.  1.
          2    1    1    2  501    0 -0.61027075317E+02 -0.25272128727E+02  0.12388398215E+04  0.12405994872E+04  0.00000000000E+00 0.  1.
<scales pt_clust_3="41.48846" pt_clust_4="97.78943" pt_clust_5="41.48846" pt_clust_6="66.05289"></scales>
<clustering>
<clus scale="   41.488">  3  5 -1 -1</clus>
<clus scale="   66.053">  1  6  2 -1</clus>
<clus scale="   97.789">  2  4  1 -1</clus>
<clus scale="   97.789">  2  3  1 -1</clus>
</clustering>
</event>
<event>
 6    0  0.4017242E+002  0.1099557E+03  0.7546771E-02  0.1260652E+00
         21   -1    0    0  505  502  0.00000000000E+00  0.00000000000E+00  0.20894280474E+02  0.20894280474E+02  0.00000000000E+00 0. -1.
          3   -1    0    0  502    0 -0.00000000000E+00 -0.00000000000E+00 -0.40082694114E+04  0.40082694114E+04  0.00000000000E+00 0.  1.
         21    1    1    2  503  504  0.10217482441E+02  0.58596317524E+02 -0.30603777535E+03  0.31176440675E+03  0.00000000000E+00 0. -1.
         21    1    1    2  504  501 -0.27695693932E+02  0.38714421287E+02 -0.30303761231E+03  0.30675340642E+03  0.00000000000E+00 0. -1.
         21    1    1    2  505  503 -0.38524891163E+02 -0.11001255451E+02 -0.10692280754E+02  0.41467092114E+02  0.00000000000E+00 0. -1.
          3    1    1    2  501    0  0.56003102654E+02 -0.86309483360E+02 -0.33676074625E+04  0.33691787866E+04  0.00000000000E+00 0.  1.
<scales pt_clust_3="38.12847" pt_clust_4="38.12847" pt_clust_5="40.06488" pt_clust_6="101.35906"></scales>
<clustering>
<clus scale="   38.128">  3  4 -1 -1</clus>
<clus scale="   40.065">  1  5  2 -1</clus>
<clus scale="  101.359">  2  6  1 -1</clus>
<clus scale="   40.065">  1  3  2 -1</clus>
</clustering>
</event>
<event>
 6    0  0.4860571E+002  0.1158525E+03  0.7546771E-02  0.1250100E+00
          2   -1    0    0  503    0 -0.00000000000E+00  0.00000000000E+00  0.26897139330E+04  0.26897139330E+04  0.00000000000E+00 0.  1.
         21   -1    0    0  505  502  0.00000000000E+00 -0.00000000000E+00 -0.45672909612E+03  0.45672909612E+03  0.00000000000E+00 0.  1.
         21    1    1    2  503  502 -0.35098440691E+02 -0.72611718110E+02  0.72256735219E+02  0.10828387659E+03  0.00000000000E+00 0. -1.
         21    1    1    2  504  501  0.69007405612E+01  0.11349334547E+03 -0.38351148566E+03  0.40001177398E+03  0.00000000000E+00 0.  1.
         21    1    1    2  505  504  0.38723695278E+02  0.14712727512E+01 -0.38742507725E+02  0.54796634243E+02  0.00000000000E+00 0.  1.
          2    1    1    2  501    0 -0.10525995148E+02 -0.42352900110E+02  0.25829820950E+04  0.25833507443E+04  0.00000000000E+00 0.  1.
<scales pt_clust_3="14000.00000" pt_clust_4="115.85254" pt_clust_5="38.75164" pt_clust_6="43.63648"></scales>
<clustering>
<clus scale="   38.752">  2  5  1 -1</clus>
<clus scale="   43.636">  1  6  2 -1</clus>
<clus scale="  115.853">  2  4  1 -1</clus>
<clus scale="   38.752">  2  3  1 -1</clus>
</clustering>
</event>
<event>
 6    0  0.4017242E+002  0.1467607E+03  0.7546771E-02  0.1204511E+00
          2   -1    0    0  505    0 -0.00000000000E+00  0.00000000000E+00  0.34917601535E+03  0.34917601535E+03  0.00000000000E+00 0.  1.
         21   -1    0    0  501  502  0.00000000000E+00 -0.00000000000E+00 -0.19229123467E+03  0.19229123467E+03  0.00000000000E+00 0.  1.
         21    1    1    2  503  504  0.24981698635E+02  0.29005992941E+02  0.77189165844E+01  0.39051434883E+02  0.00000000000E+00 0.  1.
         21    1    1    2  504  502 -0.12006996219E+03  0.42523413242E+02 -0.99359802183E+02  0.16154691821E+03  0.00000000000E+00 0.  1.
         21    1    1    2  505  503  0.12872163472E+03 -0.11921189610E+02  0.64382434051E+02  0.14441769913E+03  0.00000000000E+00 0.  1.
          2    1    1    2  501    0 -0.33633371161E+02 -0.59608216572E+02  0.18414323223E+03  0.19645119780E+03  0.00000000000E+00 0.  1.
<scales pt_clust_3="36.68930" pt_clust_4="130.35714" pt_clust_5="36.68930" pt_clust_6="68.44226"></scales>
<clustering>
<clus scale="   36.689">  3  5 -1 -1</clus>
<clus scale="   68.442">  1  6  2 -1</clus>
<clus scale="  130.357">  2  4  1 -1</clus>
<clus scale="  130.357">  2  3  1 -1</clus>
</clustering>
</event>
<event>
 6    0  0.4017242E+002  0.1850352E+03  0.7546771E-02  0.1163017E+00
          2   -1    0    0  503    0 -0.00000000000E+00  0.00000000000E+00  0.44064955300E+03  0.44064955300E+03  0.00000000000E+00 0. -1.
         21   -1    0    0  504  502  0.00000000000E+00 -0.00000000000E+00 -0.15221663755E+04  0.15221663755E+04  0.00000000000E+00 0. -1.
         21    1    1    2  503  502 -0.17077215926E+03 -0.53727983994E+02  0.29435253425E+03  0.34451885443E+03  0.00000000000E+00 0. -1.
         21    1    1    2  504  505  0.93843926343E+02 -0.11055053920E+03 -0.14111125032E+04  0.14185438312E+04  0.00000000000E+00 0. -1.
         21    1    1    2  505  501  0.47698030900E+02  0.12058653218E+03  0.58510363037E+02  0.14226621692E+03  0.00000000000E+00 0. -1.
          2    1    1    2  501    0  0.29230202022E+02  0.43691991019E+02 -0.23267216588E+02  0.57487025990E+02  0.00000000000E+00 0. -1.
<scales pt_clust_3="168.77245" pt_clust_4="145.01070" pt_clust_5="48.29582" pt_clust_6="48.29582"></scales>
<clustering>
<clus scale="   48.296">  5  6 -1 -1</clus>
<clus scale="  145.011">  2  4  1 -1</clus>
<clus scale="  168.772">  1  3  2 -1</clus>
<clus scale="  145.011">  2  3  1 -1</clus>
</clustering>
</event>
<event>
 6    0  0.4017242E+002  0.1019360E+03  0.7546771E-02  0.1276277E+00
         21   -1    0    0  503  502  0.00000000000E+00  0.00000000000E+00  0.81775232038E+03  0.81775232038E+03  0.00000000000E+00 0.  1.
          1   -1    0    0  505    0 -0.00000000000E+00 -0.00000000000E+00 -0.69038721567E+03  0.69038721567E+03  0.00000000000E+00 0.  1.
         21    1    1    2  503  504 -0.51907593141E+02 -0.55366855503E+00  0.76804165450E+03  0.76979392555E+03  0.00000000000E+00 0.  1.
         21    1    1    2  504  501 -0.19525624789E+02 -0.56694074082E+02 -0.68871284318E+02  0.91316602340E+02  0.00000000000E+00 0.  1.
         21    1    1    2  505  502  0.16267465401E+03  0.41605218608E+02 -0.18733932363E+03  0.25157515667E+03  0.00000000000E+00 0.  1.
          1    1    1    2  501    0 -0.91241436080E+02  0.15642524029E+02 -0.38446594184E+03  0.39545385148E+03  0.00000000000E+00 0.  1.
<scales pt_clust_3="51.91055" pt_clust_4="64.94650" pt_clust_5="101.93598" pt_clust_6="14000.00000"></scales>
<clustering>
<clus scale="   51.911">  1  3  2 -1</clus>
<clus scale="   64.946">  1  4  2 -1</clus>
<clus scale="  101.936">  1  5  2 -1</clus>
<clus scale="   51.911">  1  3  2 -1</clus>
</clustering>
</event>
<event>
 6    0  0.4017242E+002  0.9953314E+02  0.7546771E-02  0.1281281E+00
          1   -1    0    0  505    0 -0.00000000000E+00  0.00000000000E+00  0.11323297258E+04  0.11323297258E+04  0.00000000000E+00 0. -1.
         21   -1    0    0  504  502  0.00000000000E+00 -0.00000000000E+00 -0.12683832252E+03  0.12683832252E+03  0.00000000000E+00 0. -1.
         21    1    1    2  503  501 -0.98284104408E+00  0.84905617664E+02  0.79463093968E+02  0.11629408063E+03  0.00000000000E+00 0. -1.
         21    1    1    2  504  503  0.37930069313E+01 -0.84510580553E+02 -0.78427023727E+02  0.11535693814E+03  0.00000000000E+00 0. -1.
         21    1    1    2  505  502  0.24494165729E+02 -0.31009893350E+02  0.24062651843E+02  0.46266498183E+02  0.00000000000E+00 0.  1.
          1    1    1    2  501    0 -0.27304331616E+02  0.30614856239E+02  0.98039268120E+03  0.98125053137E+03  0.00000000000E+00 0. -1.
<scales pt_clust_3="14000.00000" pt_clust_4="99.53314" pt_clust_5="39.51680" pt_clust_6="40.87571"></scales>
<clustering>
<clus scale="   39.517">  2  5  1 -1</clus>
<clus scale="   40.876">  1  6  2 -1</clus>
<clus scale="   99.533">  2  4  1 -1</clus>
<clus scale="   39.517">  2  3  1 -1</clus>
</clustering>
</event>
<event>
 6    0  0.4017242E+002  0.1050384E+03  0.7546771E-02  0.1270044E+00
         21   -1    0    0  503  502  0.00000000000E+00  0.00000000000E+00  0.42960390038E+03  0.42960390038E+03  0.00000000000E+00 0. -1.
         -2   -1    0    0    0  501 -0.00000000000E+00 -0.00000000000E+00 -0.25765513400E+03  0.25765513400E+03  0.00000000000E+00 0.  1.
         21    1    1    2  503  504 -0.13655006550E+02  0.35791190506E+02  0.81221740285E+02  0.89802225009E+02  0.00000000000E+00 0. -1.
         21    1    1    2  504  501 -0.83393676826E+02 -0.11179700203E+02 -0.29852764132E+01  0.84192653518E+02  0.00000000000E+00 0. -1.
         21    1    1    2  505  502  0.12008623832E+03 -0.33320668891E+01  0.29030820853E+03  0.31418253173E+03  0.00000000000E+00 0. -1.
         -2    1    1    2    0  505 -0.23037554948E+02 -0.21279423414E+02 -0.19659590603E+03  0.19908162413E+03  0.00000000000E+00 0.  1.
<scales pt_clust_3="37.52868" pt_clust_4="105.03843" pt_clust_5="14000.00000" pt_clust_6="31.36149"></scales>
<clustering>
<clus scale="   31.361">  2  6  1 -1</clus>
<clus scale="   37.529">  1  3  2 -1</clus>
<clus scale="  105.038">  2  4  1 -1</clus>
<clus scale="   37.529">  1  3  2 -1</clus>
</clustering>
</event>
<event>
 6    0  0.4017242E+002  0.1283936E+03  0.7546771E-02  0.1229859E+00
         21   -1    0    0  504  502  0.00000000000E+00  0.00000000000E+00  0.35701388091E+03  0.35701388091E+03  0.00000000000E+00 0.  1.
          1   -1    0    0  505    0 -0.00000000000E+00 -0.00000000000E+00 -0.74834374915E+03  0.74834374915E+03  0.00000000000E+00 0.  1.
         21    1    1    2  503  501 -0.37893962285E+02  0.13611899283E+03  0.16795008050E+03  0.21948020897E+03  0.00000000000E+00 0.  1.
         21    1    1    2  504  503 -0.27529234865E+02 -0.26539722139E+02  0.14929731632E+03  0.15411652827E+03  0.00000000000E+00 0.  1.
         21    1    1    2  505  502  0.33315685105E+02  0.25326759936E+02 -0.21696914128E+03  0.22096829617E+03  0.00000000000E+00 0.  1.
          1    1    1    2  501    0  0.32107512044E+02 -0.13490603063E+03 -0.49160812379E+03  0.51079259667E+03  0.00000000000E+00 0.  1.
<scales pt_clust_3="128.39356" pt_clust_4="38.23893" pt_clust_5="41.47964" pt_clust_6="14000.00000"></scales>
<clustering>
<clus scale="   38.239">  1  4  2 -1</clus>
<clus scale="   41.480">  2  5  1 -1</clus>
<clus scale="  128.394">  1  3  2 -1</clus>
<clus scale="   38.239">  1  3  2 -1</clus>
</clustering>
</event>
<event>
 6    0  0.4017242E+002  0.1596761E+03  0.7546771E-02  0.1189063E+00
          2   -1    0    0  505    0 -0.00000000000E+00  0.00000000000E+00  0.81530910863E+03  0.81530910863E+03  0.00000000000E+00 0.  1.
         21   -1    0    0  504  502  0.00000000000E+00 -0.00000000000E+00 -0.13940983417E+03  0.13940983417E+03  0.00000000000E+00 0.  1.
         21    1    1    2  503  502  0.91694300676E+02 -0.29925535877E+02  0.18684945593E+03  0.21027625081E+03  0.00000000000E+00 0.  1.
         21    1    1    2  504  501 -0.66227755740E+02  0.61326838814E+02 -0.89634878403E+02  0.12720655728E+03  0.00000000000E+00 0.  1.
         21    1    1    2  505  503  0.62678120012E+02 -0.85277123305E+02  0.36255649535E+03  0.37768763126E+03  0.00000000000E+00 0.  1.
          2    1    1    2  501    0 -0.88144664948E+02  0.53875820368E+02  0.21612820159E+03  0.23954850344E+03  0.00000000000E+00 0.  1.
<scales pt_clust_3="78.44567" pt_clust_4="90.26127" pt_clust_5="78.44567" pt_clust_6="136.90991"></scales>
<clustering>
<clus scale="   78.446">  3  5 -1 -1</clus>
<clus scale="   90.261">  2  4  1 -1</clus>
<clus scale="  136.910">  1  6  2 -1</clus>
<clus scale="   90.261">  2  3  1 -1</clus>
</clustering>
</event>
<event>
 6    0  0.4017242E+002  0.8178601E+02  0.7546771E-02  0.1324058E+00
          2   -1    0    0  505    0 -0.00000000000E+00  0.00000000000E+00  0.91267646114E+03  0.91267646114E+03  0.00000000000E+00 0.  1.
         21   -1    0    0  504  502  0.00000000000E+00 -0.00000000000E+00 -0.10939868208E+03  0.10939868208E+03  0.00000000000E+00 0. -1.
         21    1    1    2  503  502  0.79299756525E+02 -0.80645291149E+02  0.61451875547E+02  0.12871848110E+03  0.00000000000E+00 0.  1.
         21    1    1    2  504  501 -0.71333536957E+02  0.27398072771E+02 -0.45983048701E+02  0.89182782275E+02  0.00000000000E+00 0. -1.
         21    1    1    2  505  503  0.52868691742E+02  0.36500727858E+01  0.11293291084E+03  0.12474880340E+03  0.00000000000E+00 0.  1.
          2    1    1    2  501    0 -0.60834911310E+02  0.49597145592E+02  0.67487604136E+03  0.67942507644E+03  0.00000000000E+00 0.  1.
<scales pt_clust_3="14000.00000" pt_clust_4="81.78601" pt_clust_5="52.99454" pt_clust_6="55.00983"></scales>
<clustering>
<clus scale="   52.995">  1  5  2 -1</clus>
<clus scale="   55.010">  1  6  2 -1</clus>
<clus scale="   81.786">  2  4  1 -1</clus>
<clus scale="   81.786">  2  3  1 -1</clus>
</clustering>
</event>
<event>
 6    0  0.4017242E+002  0.8193401E+02  0.7546771E-02  0.1323651E+00
         21   -1    0    0  501  502  0.00000000000E+00  0.00000000000E+00  0.36111189280E+02  0.36111189280E+02  0.00000000000E+00 0.  1.
          1   -1    0    0  504    0 -0.00000000000E+00 -0.00000000000E+00 -0.21092358074E+04  0.21092358074E+04  0.00000000000E+00 0.  1.
         21    1    1    2  503  505 -0.55797772098E+02  0.31342358104E+02 -0.32103006472E+03  0.32734696766E+03  0.00000000000E+00 0. -1.
         21    1    1    2  504  503 -0.72932541685E+02  0.20668441818E+02 -0.11182010825E+04  0.11207675946E+04  0.00000000000E+00 0.  1.
         21    1    1    2  505  502  0.28449024355E+02 -0.36396453863E+02  0.84144676431E+01  0.46955852737E+02  0.00000000000E+00 0.  1.
          1    1    1    2  501    0  0.10028128943E+03 -0.15614346058E+02 -0.64230793849E+03  0.65027658167E+03  0.00000000000E+00 0.  1.
<scales pt_clust_3="48.48018" pt_clust_4="14000.00000" pt_clust_5="46.19577" pt_clust_6="81.93401"></scales>
<clustering>
<clus scale="   46.196">  1  5  2 -1</clus>
<clus scale="   48.480">  1  3  2 -1</clus>
<clus scale="   81.934">  1  6  2 -1</clus>
<clus scale="   46.196">  1  3  2 -1</clus>
</clustering>
</event>
<event>
 6    0  0.4017242E+002  0.8733528E+02  0.7546771E-02  0.1309436E+00
         21   -1    0    0  505  502  0.00000000000E+00  0.00000000000E+00  0.83118013596E+01  0.83118013596E+01  0.00000000000E+00 0.  1.
          2   -1    0    0  503    0 -0.00000000000E+00 -0.00000000000E+00 -0.32629204774E+04  0.32629204774E+04  0.00000000000E+00 0. -1.
         21    1    1    2  503  504 -0.59211309861E+02 -0.35735993132E+02 -0.62305221785E+03  0.62687886117E+03  0.00000000000E+00 0.  1.
         21    1    1    2  504  502 -0.63250334224E+02  0.54012915085E+02 -0.55795825856E+03  0.56412358404E+03  0.00000000000E+00 0.  1.
         21    1    1    2  505  501  0.22807994517E+02 -0.48609652597E+02 -0.43096766581E+03  0.43429970287E+03  0.00000000000E+00 0.  1.
          2    1    1    2  501    0  0.99653649568E+02  0.30332730643E+02 -0.16426305339E+04  0.16459301307E+04  0.00000000000E+00 0. -1.
<scales pt_clust_3="87.33528" pt_clust_4="61.35366" pt_clust_5="53.69453" pt_clust_6="14000.00000"></scales>
<clustering>
<clus scale="   53.695">  1  5  2 -1</clus>
<clus scale="   61.354">  1  4  2 -1</clus>
<clus scale="   87.335">  1  3  2 -1</clus>
<clus scale="   53.695">  1  3  2 -1</clus>
</clustering>
</event>
<event>
 6    0  0.4017242E+002  0.4117419E+03  0.7546771E-02  0.1039788E+00
         21   -1    0    0  505  502  0.00000000000E+00  0.00000000000E+00  0.66754200757E+03  0.66754200757E+03  0.00000000000E+00 0.  1.
         -3   -1    0    0    0  501 -0.00000000000E+00 -0.00000000000E+00 -0.16244817476E+04  0.16244817476E+04  0.00000000000E+00 0. -1.
         21    1    1    2  503  504  0.21386424965E+03 -0.13493185047E+03  0.15959006644E+03  0.29902092043E+03  0.00000000000E+00 0. -1.
         21    1    1    2  504  502  0.24636007462E+03 -0.21942285996E+03  0.15710393193E+03  0.36540569682E+03  0.00000000000E+00 0. -1.
         21    1    1    2  505  501 -0.18181229036E+03  0.70887836541E+02  0.84415271244E+02  0.21261874874E+03  0.00000000000E+00 0.  1.
         -3    1    1    2    0  503 -0.27841203390E+03  0.28346687390E+03 -0.13580490096E+04  0.14149783891E+04  0.00000000000E+00 0. -1.
<scales pt_clust_3="53.92621" pt_clust_4="53.92621" pt_clust_5="195.14301" pt_clust_6="407.10864"></scales>
<clustering>
<clus scale="   53.926">  3  4 -1 -1</clus>
<clus scale="  195.143">  1  5  2 -1</clus>
<clus scale="  407.109">  2  6  1 -1</clus>
<clus scale="  195.143">  1  3  2 -1</clus>
</clustering>
</event>
<event>
 6    0  0.4017242E+002  0.1586994E+03  0.7546771E-02  0.1190173E+00
         21   -1    0    0  501  502  0.00000000000E+00  0.00000000000E+00  0.86952317068E+03  0.86952317068E+03  0.00000000000E+00 0. -1.
          2   -1    0    0  505    0 -0.00000000000E+00 -0.00000000000E+00 -0.39097006788E+04  0.39097006788E+04  0.00000000000E+00 0. -1.
         21    1    1    2  503  502  0.69851462396E+02  0.27323185736E+02  0.83339010822E+03  0.83675854089E+03  0.00000000000E+00 0. -1.
         21    1    1    2  504  503 -0.21522041880E+03 -0.10131081344E+03 -0.53293093520E+03  0.58360867993E+03  0.00000000000E+00 0.  1.
         21    1    1    2  505  504  0.81739598859E+02  0.73214044829E+02 -0.33436138038E+03  0.35190792982E+03  0.00000000000E+00 0. -1.
          2    1    1    2  501    0  0.63629357548E+02  0.77358287688E+00 -0.30062753007E+04  0.30069486988E+04  0.00000000000E+00 0. -1.
<scales pt_clust_3="75.11627" pt_clust_4="14000.00000" pt_clust_5="158.69937" pt_clust_6="63.63406"></scales>
<clustering>
<clus scale="   63.634">  2  6  1 -1</clus>
<clus scale="   75.116">  1  3  2 -1</clus>
<clus scale="  158.699">  2  5  1 -1</clus>
<clus scale="   75.116">  1  3  2 -1</clus>
</clustering>
</event>
<event>
 6    0  0.4017242E+002  0.1158329E+03  0.7546771E-02  0.1250134E+00
          2   -1    0    0  505    0 -0.00000000000E+00  0.00000000000E+00  0.77266026503E+03  0.77266026503E+03  0.00000000000E+00 0.  1.
         21   -1    0    0  503  502  0.00000000000E+00 -0.00000000000E+00 -0.39340648233E+03  0.39340648233E+03  0.00000000000E+00 0.  1.
         21    1    1    2  503  504  0.12909934216E+03 -0.41253540242E+02 -0.22836436188E+03  0.26555371680E+03  0.00000000000E+00 0.  1.
         21    1    1    2  504  501 -0.10323430122E+03 -0.11002874904E+02 -0.56768515416E+02  0.11832602650E+03  0.00000000000E+00 0.  1.
         21    1    1    2  505  502 -0.22611824413E+02 -0.24144359369E+02 -0.52054751034E+02  0.61676103945E+02  0.00000000000E+00 0.  1.
          2    1    1    2  501    0 -0.32532165308E+01  0.76400774515E+02  0.71644141103E+03  0.72051090012E+03  0.00000000000E+00 0.  1.
<scales pt_clust_3="115.83289" pt_clust_4="14000.00000" pt_clust_5="33.07937" pt_clust_6="76.33011"></scales>
<clustering>
<clus scale="   33.079">  2  5  1 -1</clus>
<clus scale="   76.330">  1  6  2 -1</clus>
<clus scale="  115.833">  2  3  1 -1</clus>
<clus scale="   33.079">  2  3  1 -1</clus>
</clustering>
</event>
<event>
 6    0  0.4017242E+002  0.3019995E+03  0.7546771E-02  0.1084245E+00
         21   -1    0    0  503  502  0.00000000000E+00  0.00000000000E+00  0.28188573813E+03  0.28188573813E+03  0.00000000000E+00 0.  1.
          2   -1    0    0  505    0 -0.00000000000E+00 -0.00000000000E+00 -0.18494579812E+04  0.18494579812E+04  0.00000000000E+00 0.  1.
         21    1    1    2  503  504 -0.90422301668E+02 -0.24773043406E+03 -0.17243602495E+03  0.31508846900E+03  0.00000000000E+00 0.  1.
         21    1    1    2  504  501 -0.28151076006E+02 -0.27423742625E+02 -0.76183122016E+02  0.85722883876E+02  0.00000000000E+00 0.  1.
         21    1    1    2  505  502 -0.17238770165E+02  0.25162760289E+02  0.19129972971E+03  0.19371609713E+03  0.00000000000E+00 0.  1.
          2    1    1    2  501    0  0.13581214784E+03  0.24999141639E+03 -0.15102528258E+04  0.15368162693E+04  0.00000000000E+00 0.  1.
<scales pt_clust_3="37.61300" pt_clust_4="37.61300" pt_clust_5="30.50147" pt_clust_6="286.59191"></scales>
<clustering>
<clus scale="   30.501">  1  5  2 -1</clus>
<clus scale="   37.613">  3  4 -1 -1</clus>
<clus scale="  286.592">  2  6  1 -1</clus>
<clus scale="   30.501">  1  3  2 -1</clus>
</clustering>
</event>
<event>
 6    0  0.4017242E+002  0.3483178E+03  0.7546771E-02  0.1063308E+00
          1   -1    0    0  504    0 -0.00000000000E+00  0.00000000000E+00  0.68796801974E+03  0.68796801974E+03  0.00000000000E+00 0.  1.
         21   -1    0    0  501  502  0.00000000000E+00 -0.00000000000E+00 -0.19415254375E+03  0.19415254375E+03  0.00000000000E+00 0.  1.
         21    1    1    2  503  505 -0.23179484685E+03  0.10949852200E+03  0.16336076497E+03  0.30398275753E+03  0.00000000000E+00 0.  1.
         21    1    1    2  504  503  0.39514692648E+01 -0.34912000247E+02  0.27844472385E+02  0.44830531036E+02  0.00000000000E+00 0.  1.
         21    1    1    2  505  502 -0.88258405305E+02  0.27512235972E+02  0.14476346400E+02  0.93573681344E+02  0.00000000000E+00 0.  1.
          1    1    1    2  501    0  0.31610178289E+03 -0.10209875772E+03  0.28813389223E+03  0.43973359358E+03  0.00000000000E+00 0.  1.
<scales pt_clust_3="43.66426" pt_clust_4="35.13491" pt_clust_5="43.66426" pt_clust_6="340.74366"></scales>
<clustering>
<clus scale="   35.135">  1  4  2 -1</clus>
<clus scale="   43.664">  3  5 -1 -1</clus>
<clus scale="  340.744">  1  6  2 -1</clus>
<clus scale="  348.318">  2  3  1 -1</clus>
</clustering>
</event>
<event>
 6    0  0.4017242E+002  0.2750333E+03  0.7546771E-02  0.1098433E+00
         21   -1    0    0  501  502  0.00000000000E+00  0.00000000000E+00  0.13484296922E+04  0.13484296922E+04  0.00000000000E+00 0.  1.
          2   -1    0    0  504    0 -0.00000000000E+00 -0.00000000000E+00 -0.29134379168E+04  0.29134379168E+04  0.00000000000E+00 0.  1.
         21    1    1    2  503  505  0.13173283907E+03 -0.25653576601E+03  0.45436469846E+03  0.53815557169E+03  0.00000000000E+00 0.  1.
         21    1    1    2  504  503  0.25443846199E+02 -0.38028830213E+02 -0.47995639717E+02  0.66311105168E+02  0.00000000000E+00 0. -1.
         21    1    1    2  505  502  0.34943374811E+02  0.39003951733E+02  0.83310681036E+03  0.83475104382E+03  0.00000000000E+00 0. -1.
          2    1    1    2  501    0 -0.19212006008E+03  0.25556064449E+03 -0.28044840937E+04  0.28226498883E+04  0.00000000000E+00 0.  1.
<scales pt_clust_3="275.03332" pt_clust_4="45.75567" pt_clust_5="52.36417" pt_clust_6="14000.00000"></scales>
<clustering>
<clus scale="   45.756">  2  4  1 -1</clus>
<clus scale="   52.364">  1  5  2 -1</clus>
<clus scale="  275.033">  1  3  2 -1</clus>
<clus scale="   52.364">  1  3  2 -1</clus>
</clustering>
</event>
<event>
 6    0  0.4017242E+002  0.1514554E+03  0.7546771E-02  0.1198696E+00
          2   -1    0    0  504    0 -0.00000000000E+00  0.00000000000E+00  0.13401041034E+04  0.13401041034E+04  0.00000000000E+00 0.  1.
         21   -1    0    0  505  502  0.00000000000E+00 -0.00000000000E+00 -0.66824988791E+03  0.66824988791E+03  0.00000000000E+00 0.  1.
         21    1    1    2  503  502  0.54074292865E+02 -0.15704914883E+02 -0.50767942587E+03  0.51079259289E+03  0.00000000000E+00 0.  1.
         21    1    1    2  504  503  0.69077700272E+02 -0.59510143192E+02 -0.67086465999E+02  0.11319796702E+03  0.00000000000E+00 0.  1.
         21    1    1    2  505  501 -0.36977097353E+02 -0.53257444119E+02 -0.47913967029E+02  0.80618914153E+02  0.00000000000E+00 0.  1.
          2    1    1    2  501    0 -0.86174895785E+02  0.12847250219E+03  0.12945340744E+04  0.13037445173E+04  0.00000000000E+00 0.  1.
<scales pt_clust_3="56.30873" pt_clust_4="14000.00000" pt_clust_5="61.49319" pt_clust_6="151.45539"></scales>
<clustering>
<clus scale="   56.309">  2  3  1 -1</clus>
<clus scale="   61.493">  2  5  1 -1</clus>
<clus scale="  151.455">  1  6  2 -1</clus>
<clus scale="   56.309">  2  3  1 -1</clus>
</clustering>
</event>
<event>
 6    0  0.4017242E+002  0.1030529E+03  0.7546771E-02  0.1274004E+00
         21   -1    0    0  501  502  0.00000000000E+00  0.00000000000E+00  0.82241386630E+02  0.82241386630E+02  0.00000000000E+00 0. -1.
          2   -1    0    0  504    0 -0.00000000000E+00 -0.00000000000E+00 -0.55055799349E+03  0.55055799349E+03  0.00000000000E+00 0.  1.
         21    1    1    2  503  505 -0.30284517006E+02  0.18992400745E+02 -0.33072569196E+02  0.48699672376E+02  0.00000000000E+00 0.  1.
         21    1    1    2  504  503 -0.54858676938E+01  0.57667100743E+02 -0.68704294698E+02  0.89865840910E+02  0.00000000000E+00 0.  1.
         21    1    1    2  505  502 -0.66851193284E+02 -0.46050356551E+02  0.27649809472E+02  0.85756803496E+02  0.00000000000E+00 0. -1.
          2    1    1    2  501    0  0.10262157798E+03 -0.30609144937E+02 -0.39418955244E+03  0.40847706334E+03  0.00000000000E+00 0.  1.
<scales pt_clust_3="32.25265" pt_clust_4="32.25265" pt_clust_5="81.17707" pt_clust_6="94.52110"></scales>
<clustering>
<clus scale="   32.253">  3  4 -1 -1</clus>
<clus scale="   81.177">  1  5  2 -1</clus>
<clus scale="   94.521">  2  6  1 -1</clus>
<clus scale="   81.177">  1  3  2 -1</clus>
</clustering>
</event>
<event>
 6    0  0.4017242E+002  0.9158847E+02  0.7546771E-02  0.1299050E+00
         -4   -1    0    0    0  501 -0.00000000000E+00  0.00000000000E+00  0.14581617847E+03  0.14581617847E+03  0.00000000000E+00 0. -1.
         21   -1    0    0  503  502  0.00000000000E+00 -0.00000000000E+00 -0.51938864959E+03  0.51938864959E+03  0.00000000000E+00 0. -1.
         21    1    1    2  503  504  0.17836787949E+02  0.54348143223E+02 -0.31048182296E+03  0.31570687998E+03  0.00000000000E+00 0. -1.
         21    1    1    2  504  501 -0.51494403614E+02 -0.29981709658E+02 -0.99592024421E+01  0.60413262044E+02  0.00000000000E+00 0. -1.
         21    1    1    2  505  502  0.28651193999E+02  0.70158982744E+02 -0.14090659904E+03  0.15999326057E+03  0.00000000000E+00 0. -1.
         -4    1    1    2    0  505  0.50064216664E+01 -0.94525416309E+02  0.87775153323E+02  0.12909142546E+03  0.00000000000E+00 0. -1.
<scales pt_clust_3="57.20028" pt_clust_4="52.69335" pt_clust_5="14000.00000" pt_clust_6="91.58847"></scales>
<clustering>
<clus scale="   57.200">  2  3  1 -1</clus>
<clus scale="   52.693">  2  4  1 -1</clus>
<clus scale="   91.588">  1  6  2 -1</clus>
<clus scale="   57.200">  2  3  1 -1</clus>
</clustering>
</event>
<event>
 6    0  0.4017242E+002  0.9378751E+02  0.7546771E-02  0.1293931E+00
          2   -1    0    0  505    0 -0.00000000000E+00  0.00000000000E+00  0.15720925782E+04  0.15720925782E+04  0.00000000000E+00 0. -1.
         21   -1    0    0  503  502  0.00000000000E+00 -0.00000000000E+00 -0.31709180960E+02  0.31709180960E+02  0.00000000000E+00 0. -1.
         21    1    1    2  503  501  0.19701210657E+02  0.30043059605E+02  0.97614814320E-01  0.35926768021E+02  0.00000000000E+00 0. -1.
         21    1    1    2  504  502  0.32788787991E+02  0.54294381627E+01  0.30990712911E+02  0.45442355830E+02  0.00000000000E+00 0. -1.
         21    1    1    2  505  504  0.27125431071E+02  0.54497395248E+02  0.24528487308E+03  0.25272598612E+03  0.00000000000E+00 0. -1.
          2    1    1    2  501    0 -0.79615429718E+02 -0.89969893016E+02  0.12640101965E+04  0.12697066492E+04  0.00000000000E+00 0. -1.
<scales pt_clust_3="55.37278" pt_clust_4="33.23527" pt_clust_5="93.78751" pt_clust_6="14000.00000"></scales>
<clustering>
<clus scale="   33.235">  2  4  1 -1</clus>
<clus scale="   55.373">  2  3  1 -1</clus>
<clus scale="   93.788">  2  5  1 -1</clus>
<clus scale="   33.235">  2  3  1 -1</clus>
</clustering>
</event>
<event>
 6    0  0.4017242E+002  0.8101365E+02  0.7546771E-02  0.1326199E+00
          1   -1    0    0  503    0 -0.00000000000E+00  0.00000000000E+00  0.30825660551E+03  0.30825660551E+03  0.00000000000E+00 0.  1.
         21   -1    0    0  505  502  0.00000000000E+00 -0.00000000000E+00 -0.82783328522E+02  0.82783328522E+02  0.00000000000E+00 0.  1.
         21    1    1    2  503  504  0.72664136040E+02  0.25446746490E+01  0.55464758926E+02  0.91448846457E+02  0.00000000000E+00 0.  1.
         21    1    1    2  504  502 -0.11484217483E+02 -0.95054219395E+02  0.86903720913E+02  0.12930370677E+03  0.00000000000E+00 0.  1.
         21    1    1    2  505  501 -0.32664268994E+02  0.72183950998E+02 -0.94313805650E+00  0.79236145540E+02  0.00000000000E+00 0.  1.
          1    1    1    2  501    0 -0.28515649564E+02  0.20325593748E+02  0.84047935209E+02  0.91051235270E+02  0.00000000000E+00 0.  1.
<scales pt_clust_3="63.85568" pt_clust_4="81.01365" pt_clust_5="14000.00000" pt_clust_6="35.01817"></scales>
<clustering>
<clus scale="   35.018">  1  6  2 -1</clus>
<clus scale="   63.856">  1  3  2 -1</clus>
<clus scale="   81.014">  1  4  2 -1</clus>
<clus scale="   81.014">  2  3  1 -1</clus>
</clustering>
</event>
<event>
 6    0  0.4017242E+002  0.1052336E+03  0.7546771E-02  0.1269660E+00
         21   -1    0    0  503  502  0.00000000000E+00  0.00000000000E+00  0.62614752330E+03  0.62614752330E+03  0.00000000000E+00 0.  1.
         -4   -1    0    0    0  501 -0.00000000000E+00 -0.00000000000E+00 -0.52027887584E+02  0.52027887584E+02  0.00000000000E+00 0.  1.
         21    1    1    2  503  505 -0.52758600323E+02 -0.29305494824E+02  0.23734072433E+03  0.24489365316E+03  0.00000000000E+00 0.  1.
         21    1    1    2  504  502  0.72146009317E+02  0.27039011936E+01  0.17672099510E+03  0.19089962769E+03  0.00000000000E+00 0.  1.
         21    1    1    2  505  501 -0.54572649195E+02 -0.51545323971E+02  0.13262529236E+03  0.15239607159E+03  0.00000000000E+00 0.  1.
         -4    1    1    2    0  504  0.35185240201E+02  0.78146917602E+02  0.27432623932E+02  0.89986058445E+02  0.00000000000E+00 0.  1.
<scales pt_clust_3="48.34727" pt_clust_4="72.19666" pt_clust_5="48.34727" pt_clust_6="90.36975"></scales>
<clustering>
<clus scale="   48.347">  3  5 -1 -1</clus>
<clus scale="   72.197">  1  4  2 -1</clus>
<clus scale="   90.370">  2  6  1 -1</clus>
<clus scale="   72.197">  1  3  2 -1</clus>
</clustering>
</event>
<event>
 6    0  0.4017242E+002  0.2769340E+03  0.7546771E-02  0.1097375E+00
          1   -1    0    0  505    0 -0.00000000000E+00  0.00000000000E+00  0.39127213162E+03  0.39127213162E+03  0.00000000000E+00 0.  1.
         21   -1    0    0  503  502  0.00000000000E+00 -0.00000000000E+00 -0.60114932753E+03  0.60114932753E+03  0.00000000000E+00 0.  1.
         21    1    1    2  503  501 -0.24244962071E+01  0.39990192060E+02 -0.94083547116E+02  0.10225853256E+03  0.00000000000E+00 0.  1.
         21    1    1    2  504  502  0.12685390599E+03  0.38296521746E+02 -0.15387630147E+03  0.20306760745E+03  0.00000000000E+00 0.  1.
         21    1    1    2  505  504  0.11827167255E+03  0.43635139836E+02 -0.25687130802E+03  0.28613822331E+03  0.00000000000E+00 0.  1.
          1    1    1    2  501    0 -0.24270108233E+03 -0.12192185364E+03  0.29495396071E+03  0.40095709583E+03  0.00000000000E+00 0.  1.
<scales pt_clust_3="40.06362" pt_clust_4="61.13644" pt_clust_5="61.13644" pt_clust_6="269.96858"></scales>
<clustering>
<clus scale="   40.064">  2  3  1 -1</clus>
<clus scale="   61.136">  4  5 -1 -1</clus>
<clus scale="  269.969">  1  6  2 -1</clus>
<clus scale="   40.064">  2  3  1 -1</clus>
</clustering>
</event>
<event>
 6    0  0.4017242E+002  0.8925239E+02  0.7546771E-02  0.1304672E+00
         21   -1    0    0  503  502  0.00000000000E+00  0.00000000000E+00  0.33957429743E+03  0.33957429743E+03  0.00000000000E+00 0.  1.
         -3   -1    0    0    0  501 -0.00000000000E+00 -0.00000000000E+00 -0.36503799482E+03  0.36503799482E+03  0.00000000000E+00 0.  1.
         21    1    1    2  503  505  0.28477897991E+02  0.14218536280E+02  0.11656442289E+03  0.12083220651E+03  0.00000000000E+00 0.  1.
         21    1    1    2  504  502 -0.32422338162E+02 -0.86865713342E+02  0.88097583552E+02  0.12789857073E+03  0.00000000000E+00 0.  1.
         21    1    1    2  505  501 -0.29201032246E+02  0.95257396930E+02  0.89390698915E+02  0.13385577689E+03  0.00000000000E+00 0.  1.
         -3    1    1    2    0  504  0.33145472417E+02 -0.22610219867E+02 -0.31951640275E+03  0.32202573812E+03  0.00000000000E+00 0.  1.
<scales pt_clust_3="31.83013" pt_clust_4="89.25239" pt_clust_5="14000.00000" pt_clust_6="40.21130"></scales>
<clustering>
<clus scale="   31.830">  1  3  2 -1</clus>
<clus scale="   40.211">  2  6  1 -1</clus>
<clus scale="   89.252">  1  4  2 -1</clus>
<clus scale="   31.830">  1  3  2 -1</clus>
</clustering>
</event>
<event>
 6    0  0.4017242E+002  0.9611353E+02  0.7546771E-02  0.1288688E+00
         21   -1    0    0  504  502  0.00000000000E+00  0.00000000000E+00  0.41220085733E+03  0.41220085733E+03  0.00000000000E+00 0.  1.
         -2   -1    0    0    0  501 -0.00000000000E+00 -0.00000000000E+00 -0.25271715066E+03  0.25271715066E+03  0.00000000000E+00 0. -1.
         21    1    1    2  503  502 -0.58338345376E+02  0.85771069908E+02  0.19988212776E+03  0.22519525743E+03  0.00000000000E+00 0.  1.
         21    1    1    2  504  501  0.24099907056E+01 -0.72025195456E+02  0.10344917006E+03  0.12607603905E+03  0.00000000000E+00 0.  1.
         21    1    1    2  505  503  0.77353377811E+02 -0.43012562057E+02  0.59785937753E+02  0.10680816404E+03  0.00000000000E+00 0.  1.
         -2    1    1    2    0  505 -0.21425023141E+02  0.29266687606E+02 -0.20363352890E+03  0.20683854746E+03  0.00000000000E+00 0. -1.
<scales pt_clust_3="96.11353" pt_clust_4="65.10756" pt_clust_5="14000.00000" pt_clust_6="36.27080"></scales>
<clustering>
<clus scale="   36.271">  2  6  1 -1</clus>
<clus scale="   65.108">  2  4  1 -1</clus>
<clus scale="   96.114">  1  3  2 -1</clus>
<clus scale="   96.114">  1  3  2 -1</clus>
</clustering>
</event>
<event>
 6    0  0.4017242E+002  0.1442940E+03  0.7546771E-02  0.1207665E+00
          2   -1    0    0  505    0 -0.00000000000E+00  0.00000000000E+00  0.23368497663E+04  0.23368497663E+04  0.00000000000E+00 0. -1.
         21   -1    0    0  503  502  0.00000000000E+00 -0.00000000000E+00 -0.73338092029E+02  0.73338092029E+02  0.00000000000E+00 0. -1.
         21    1    1    2  503  504  0.44552511223E+01 -0.33878256215E+02  0.78236039958E+02  0.85372498236E+02  0.00000000000E+00 0.  1.
         21    1    1    2  504  501  0.13852750389E+03  0.13472812171E+02  0.13298458454E+03  0.19250009280E+03  0.00000000000E+00 0. -1.
         21    1    1    2  505  502 -0.22446798100E+02 -0.64673155042E+02 -0.60212113951E+01  0.68722126821E+02  0.00000000000E+00 0. -1.
          2    1    1    2  501    0 -0.12053595691E+03  0.85078599086E+02  0.20583122612E+04  0.20635931405E+04  0.00000000000E+00 0. -1.
<scales pt_clust_3="34.16995" pt_clust_4="144.29395" pt_clust_5="85.21463" pt_clust_6="14000.00000"></scales>
<clustering>
<clus scale="   34.170">  2  3  1 -1</clus>
<clus scale="   85.215">  2  5  1 -1</clus>
<clus scale="  144.294">  2  4  1 -1</clus>
<clus scale="   34.170">  2  3  1 -1</clus>
</clustering>
</event>
<event>
 6    0  0.4017242E+002  0.1914357E+03  0.7546771E-02  0.1157173E+00
         21   -1    0    0  504  502  0.00000000000E+00  0.00000000000E+00  0.17865938053E+02  0.17865938053E+02  0.00000000000E+00 0. -1.
          2   -1    0    0  505    0 -0.00000000000E+00 -0.00000000000E+00 -0.21738755415E+04  0.21738755415E+04  0.00000000000E+00 0. -1.
         21    1    1    2  503  502  0.27284239364E+01  0.68902737760E+02 -0.20869151341E+03  0.21978894271E+03  0.00000000000E+00 0. -1.
         21    1    1    2  504  501  0.78470576458E+01 -0.92500533102E+02 -0.65026576426E+03  0.65685880454E+03  0.00000000000E+00 0. -1.
         21    1    1    2  505  503  0.52373619648E+02  0.99110372277E+02 -0.52691263895E+03  0.53870473454E+03  0.00000000000E+00 0. -1.
          2    1    1    2  501    0 -0.62949101230E+02 -0.75512576935E+02 -0.77013968685E+03  0.77638899778E+03  0.00000000000E+00 0. -1.
<scales pt_clust_3="42.48748" pt_clust_4="71.29588" pt_clust_5="184.93023" pt_clust_6="71.29588"></scales>
<clustering>
<clus scale="   42.487">  3  5 -1 -1</clus>
<clus scale="   71.296">  4  6 -1 -1</clus>
<clus scale="  184.930">  1  3  2 -1</clus>
<clus scale="  184.930">  1  3  2 -1</clus>
</clustering>
</event>
<event>
 6    0  0.4017242E+002  0.1009906E+03  0.7546771E-02  0.1278227E+00
          2   -1    0    0  505    0 -0.00000000000E+00  0.00000000000E+00  0.31493049156E+04  0.31493049156E+04  0.00000000000E+00 0.  1.
         21   -1    0    0  504  502  0.00000000000E+00 -0.00000000000E+00 -0.19212047858E+03  0.19212047858E+03  0.00000000000E+00 0.  1.
         21    1    1    2  503  502  0.96885771874E+02  0.28540042838E+02 -0.13857747763E+03  0.17147916534E+03  0.00000000000E+00 0.  1.
         21    1    1    2  504  501 -0.81546833748E+02 -0.76675962132E+02  0.18361594621E+03  0.21504396055E+03  0.00000000000E+00 0.  1.
         21    1    1    2  505  503  0.31596336235E+02  0.63341117194E+02  0.38012451483E+02  0.80345330036E+02  0.00000000000E+00 0.  1.
          2    1    1    2  501    0 -0.46935274361E+02 -0.15205197900E+02  0.28741335170E+04  0.28745569383E+04  0.00000000000E+00 0.  1.
<scales pt_clust_3="100.99057" pt_clust_4="14000.00000" pt_clust_5="63.79848" pt_clust_6="49.33678"></scales>
<clustering>
<clus scale="   49.337">  1  6  2 -1</clus>
<clus scale="   63.798">  1  5  2 -1</clus>
<clus scale="  100.991">  2  3  1 -1</clus>
<clus scale="  100.991">  2  3  1 -1</clus>
</clustering>
</event>
<event>
 6    0  0.4017242E+002  0.7556481E+02  0.7546771E-02  0.1342131E+00
         21   -1    0    0  501  502  0.00000000000E+00  0.00000000000E+00  0.38447704409E+03  0.38447704409E+03  0.00000000000E+00 0.  1.
          2   -1    0    0  505    0 -0.00000000000E+00 -0.00000000000E+00 -0.81892920179E+02  0.81892920179E+02  0.00000000000E+00 0.  1.
         21    1    1    2  503  504  0.38945942596E+02  0.96944622629E+02  0.21157191759E+03  0.23596127355E+03  0.00000000000E+00 0.  1.
         21    1    1    2  504  502  0.33233819415E+02 -0.52390854094E+02  0.78896874297E+02  0.10036934352E+03  0.00000000000E+00 0.  1.
         21    1    1    2  505  503  0.31050394110E+01 -0.53486350456E+02  0.27046610001E+01  0.53644628305E+02  0.00000000000E+00 0.  1.
          2    1    1    2  501    0 -0.75284801422E+02  0.89325819212E+01  0.94106710196E+01  0.76394718888E+02  0.00000000000E+00 0.  1.
<scales pt_clust_3="75.56481" pt_clust_4="71.12595" pt_clust_5="53.57640" pt_clust_6="14000.00000"></scales>
<clustering>
<clus scale="   53.576">  2  5  1 -1</clus>
<clus scale="   71.126">  1  4  2 -1</clus>
<clus scale="   75.565">  1  3  2 -1</clus>
<clus scale="   71.126">  1  3  2 -1</clus>
</clustering>
</event>
<event>
 6    0  0.4017242E+002  0.9022017E+02  0.7546771E-02  0.1302319E+00
          1   -1    0    0  504    0 -0.00000000000E+00  0.00000000000E+00  0.53628959798E+03  0.53628959798E+03  0.00000000000E+00 0. -1.
         21   -1    0    0  503  502  0.00000000000E+00 -0.00000000000E+00 -0.10809700550E+04  0.10809700550E+04  0.00000000000E+00 0.  1.
         21    1    1    2  503  505  0.24477775984E+02  0.18328580429E+02 -0.58833047583E+03  0.58912464485E+03  0.00000000000E+00 0.  1.
         21    1    1    2  504  502 -0.52593713027E+01 -0.11405400273E+03 -0.20734789084E+03  0.23670471977E+03  0.00000000000E+00 0.  1.
         21    1    1    2  505  501  0.26827213074E+02  0.66382738913E+02 -0.26400475549E+03  0.27354136489E+03  0.00000000000E+00 0.  1.
          1    1    1    2  501    0 -0.46045617755E+02  0.29342683388E+02  0.51500266512E+03  0.51788892348E+03  0.00000000000E+00 0. -1.
<scales pt_clust_3="30.57938" pt_clust_4="14000.00000" pt_clust_5="90.22017" pt_clust_6="54.56872"></scales>
<clustering>
<clus scale="   30.579">  2  3  1 -1</clus>
<clus scale="   54.569">  1  6  2 -1</clus>
<clus scale="   90.220">  2  5  1 -1</clus>
<clus scale="   30.579">  2  3  1 -1</clus>
</clustering>
</event>
<event>
 6    0  0.4017242E+002  0.9424923E+02  0.7546771E-02  0.1292876E+00
          2   -1    0    0  504    0 -0.00000000000E+00  0.00000000000E+00  0.90328707998E+03  0.90328707998E+03  0.00000000000E+00 0. -1.
         21   -1    0    0  501  502  0.00000000000E+00 -0.00000000000E+00 -0.50804926079E+02  0.50804926079E+02  0.00000000000E+00 0. -1.
         21    1    1    2  503  505 -0.47870840169E+02  0.12152523541E+02  0.22161594814E+02  0.54133515050E+02  0.00000000000E+00 0. -1.
         21    1    1    2  504  503  0.80916303748E+02 -0.62693849742E+02  0.85511467587E+02  0.13337982642E+03  0.00000000000E+00 0. -1.
         21    1    1    2  505  502 -0.17118086853E+02 -0.44655824012E+02  0.69248420444E+02  0.84157680871E+02  0.00000000000E+00 0. -1.
          2    1    1    2  501    0 -0.15927376726E+02  0.95197150212E+02  0.67556067105E+03  0.68242098371E+03  0.00000000000E+00 0. -1.
<scales pt_clust_3="54.35488" pt_clust_4="14000.00000" pt_clust_5="47.82438" pt_clust_6="94.24923"></scales>
<clustering>
<clus scale="   47.824">  2  5  1 -1</clus>
<clus scale="   54.355">  2  3  1 -1</clus>
<clus scale="   94.249">  1  6  2 -1</clus>
<clus scale="   47.824">  2  3  1 -1</clus>
</clustering>
</event>
<event>
 6    0  0.4017242E+002  0.1641867E+03  0.7546771E-02  0.1184049E+00
          2   -1    0    0  504    0 -0.00000000000E+00  0.00000000000E+00  0.25062965874E+03  0.25062965874E+03  0.00000000000E+00 0. -1.
         21   -1    0    0  501  502  0.00000000000E+00 -0.00000000000E+00 -0.11845982136E+04  0.11845982136E+04  0.00000000000E+00 0.  1.
         21    1    1    2  503  502 -0.35206030575E+02  0.74721415287E+02 -0.45756157589E+03  0.46495736388E+03  0.00000000000E+00 0.  1.
         21    1    1    2  504  505 -0.19270403375E+02 -0.15756389029E+03 -0.54871208415E+03  0.57121158887E+03  0.00000000000E+00 0.  1.
         21    1    1    2  505  503 -0.84208471684E+02 -0.10970717865E+02 -0.11812921221E+03  0.14548516808E+03  0.00000000000E+00 0.  1.
          2    1    1    2  501    0  0.13868490563E+03  0.93813192863E+02  0.19043431740E+03  0.25357375150E+03  0.00000000000E+00 0. -1.
<scales pt_clust_3="82.59997" pt_clust_4="164.18671" pt_clust_5="90.66233" pt_clust_6="14000.00000"></scales>
<clustering>
<clus scale="   82.600">  2  3  1 -1</clus>
<clus scale="   90.662">  2  5  1 -1</clus>
<clus scale="  164.187">  2  4  1 -1</clus>
<clus scale="   82.600">  2  3  1 -1</clus>
</clustering>
</event>
<event>
 6    0  0.4017242E+002  0.7552314E+02  0.7546771E-02  0.1342259E+00
          2   -1    0    0  505    0 -0.00000000000E+00  0.00000000000E+00  0.21621803100E+04  0.21621803100E+04  0.00000000000E+00 0. -1.
         21   -1    0    0  503  502  0.00000000000E+00 -0.00000000000E+00 -0.12375394757E+03  0.12375394757E+03  0.00000000000E+00 0.  1.
         21    1    1    2  503  501 -0.36999433304E+02 -0.34287056431E+01  0.12385859292E+03  0.12931227756E+03  0.00000000000E+00 0.  1.
         21    1    1    2  504  502  0.90488515512E+00  0.34651738386E+02 -0.10353668087E+03  0.10918519166E+03  0.00000000000E+00 0.  1.
         21    1    1    2  505  504  0.53949332866E+02 -0.10252386762E+03  0.22727158793E+03  0.25509615565E+03  0.00000000000E+00 0.  1.
          2    1    1    2  501    0 -0.17854784716E+02  0.71300834874E+02  0.17908328625E+04  0.17923406327E+04  0.00000000000E+00 0. -1.
<scales pt_clust_3="36.91200" pt_clust_4="34.66355" pt_clust_5="75.52314" pt_clust_6="14000.00000"></scales>
<clustering>
<clus scale="   34.664">  2  4  1 -1</clus>
<clus scale="   36.912">  2  3  1 -1</clus>
<clus scale="   75.523">  2  5  1 -1</clus>
<clus scale="   34.664">  2  3  1 -1</clus>
</clustering>
</event>
<event>
 6    0  0.4017242E+002  0.9979628E+02  0.7546771E-02  0.1280725E+00
          2   -1    0    0  504    0 -0.00000000000E+00  0.00000000000E+00  0.65292195306E+03  0.65292195306E+03  0.00000000000E+00 0.  1.
         21   -1    0    0  503  502  0.00000000000E+00 -0.00000000000E+00 -0.98257962990E+03  0.98257962990E+03  0.00000000000E+00 0.  1.
         21    1    1    2  503  505  0.24064646743E+02  0.53780792659E+02 -0.52946812372E+03  0.53273630899E+03  0.00000000000E+00 0.  1.
         21    1    1    2  504  502 -0.45149869658E+01 -0.37069222073E+02 -0.77876119586E+02  0.86366673747E+02  0.00000000000E+00 0. -1.
         21    1    1    2  505  501  0.38255376277E+02  0.56527101048E+02 -0.36279344517E+03  0.36915832759E+03  0.00000000000E+00 0.  1.
          2    1    1    2  501    0 -0.57805036054E+02 -0.73238671634E+02  0.64048001163E+03  0.64724027263E+03  0.00000000000E+00 0.  1.
<scales pt_clust_3="32.60599" pt_clust_4="37.34317" pt_clust_5="32.60599" pt_clust_6="93.42209"></scales>
<clustering>
<clus scale="   32.606">  3  5 -1 -1</clus>
<clus scale="   37.343">  2  4  1 -1</clus>
<clus scale="   93.422">  1  6  2 -1</clus>
<clus scale="   37.343">  2  3  1 -1</clus>
</clustering>
</event>
<event>
 6    0  0.4017242E+002  0.1876577E+03  0.7546771E-02  0.1160591E+00
         21   -1    0    0  503  502  0.00000000000E+00  0.00000000000E+00  0.55778346889E+03  0.55778346889E+03  0.00000000000E+00 0.  1.
          2   -1    0    0  504    0 -0.00000000000E+00 -0.00000000000E+00 -0.61977842992E+03  0.61977842992E+03  0.00000000000E+00 0.  1.
         21    1    1    2  503  505 -0.32431603643E+02  0.88196277760E+02  0.16570710151E+03  0.19049733808E+03  0.00000000000E+00 0.  1.
         21    1    1    2  504  502 -0.17156437640E+03 -0.16366608838E+03  0.75811413878E+02  0.24893431706E+03  0.00000000000E+00 0.  1.
         21    1    1    2  505  501  0.17347258520E+03 -0.10882519665E+03  0.14589851293E+03  0.25143992785E+03  0.00000000000E+00 0.  1.
          2    1    1    2  501    0  0.30523394839E+02  0.18429500727E+03 -0.44941198934E+03  0.48669031581E+03  0.00000000000E+00 0.  1.
<scales pt_clust_3="93.97017" pt_clust_4="14000.00000" pt_clust_5="168.58647" pt_clust_6="187.65768"></scales>
<clustering>
<clus scale="   93.970">  1  3  2 -1</clus>
<clus scale="  168.586">  1  5  2 -1</clus>
<clus scale="  187.658">  2  6  1 -1</clus>
<clus scale="   93.970">  1  3  2 -1</clus>
</clustering>
</event>
<event>
 6    0  0.4017242E+002  0.1298857E+03  0.7546771E-02  0.1227625E+00
         21   -1    0    0  503  502  0.00000000000E+00  0.00000000000E+00  0.97060244831E+03  0.97060244831E+03  0.00000000000E+00 0. -1.
          2   -1    0    0  504    0 -0.00000000000E+00 -0.00000000000E+00 -0.19652078223E+04  0.19652078223E+04  0.00000000000E+00 0. -1.
         21    1    1    2  503  505  0.12762472564E+02  0.22532416136E+03  0.76676941773E+03  0.79929293652E+03  0.00000000000E+00 0. -1.
         21    1    1    2  504  502 -0.38462710360E+02 -0.92837483680E+02  0.13607297340E+03  0.16915682828E+03  0.00000000000E+00 0.  1.
         21    1    1    2  505  501  0.20306688017E+02 -0.96846306137E+02 -0.35596373637E+02  0.10516021304E+03  0.00000000000E+00 0. -1.
          2    1    1    2  501    0  0.53935497795E+01 -0.35640371543E+02 -0.18618513915E+04  0.18622002928E+04  0.00000000000E+00 0. -1.
<scales pt_clust_3="14000.00000" pt_clust_4="105.47969" pt_clust_5="129.88567" pt_clust_6="36.04617"></scales>
<clustering>
<clus scale="   36.046">  2  6  1 -1</clus>
<clus scale="  105.480">  1  4  2 -1</clus>
<clus scale="  129.886">  2  5  1 -1</clus>
<clus scale="  105.480">  1  3  2 -1</clus>
</clustering>
</event>
<event>
 6    0  0.4017242E+002  0.2077088E+03  0.7546771E-02  0.1143393E+00
         21   -1    0    0  503  502  0.00000000000E+00  0.00000000000E+00  0.81520588263E+02  0.81520588263E+02  0.00000000000E+00 0. -1.
          2   -1    0    0  504    0 -0.00000000000E+00 -0.00000000000E+00 -0.38994847316E+04  0.38994847316E+04  0.00000000000E+00 0.  1.
         21    1    1    2  503  505  0.36000508483E+02  0.23170813919E+02  0.50459918927E+02  0.66174969942E+02  0.00000000000E+00 0. -1.
         21    1    1    2  504  502  0.14571707875E+02  0.38546244545E+02 -0.61059343704E+03  0.61198242866E+03  0.00000000000E+00 0.  1.
         21    1    1    2  505  501  0.17605019103E+03 -0.44600514169E+02 -0.44194210842E+03  0.47780299583E+03  0.00000000000E+00 0. -1.
          2    1    1    2  501    0 -0.22662240739E+03 -0.17116544296E+02 -0.28158885168E+04  0.28250449255E+04  0.00000000000E+00 0.  1.
<scales pt_clust_3="42.89182" pt_clust_4="41.20859" pt_clust_5="207.70878" pt_clust_6="14000.00000"></scales>
<clustering>
<clus scale="   41.209">  2  4  1 -1</clus>
<clus scale="   42.892">  1  3  2 -1</clus>
<clus scale="  207.709">  1  5  2 -1</clus>
<clus scale="   42.892">  1  3  2 -1</clus>
</clustering>
</event>
<event>
 6    0  0.4017242E+002  0.1138942E+03  0.7546771E-02  0.1253524E+00
         21   -1    0    0  504  502  0.00000000000E+00  0.00000000000E+00  0.18883788613E+04  0.18883788613E+04  0.00000000000E+00 0. -1.
          2   -1    0    0  503    0 -0.00000000000E+00 -0.00000000000E+00 -0.27659487147E+03  0.27659487147E+03  0.00000000000E+00 0.  1.
         21    1    1    2  503  505  0.59034921992E+02 -0.53787796216E+02  0.15084603837E+04  0.15105730629E+04  0.00000000000E+00 0. -1.
         21    1    1    2  504  501 -0.23824776045E+02  0.10638148245E+03  0.57513730010E+02  0.12325773364E+03  0.00000000000E+00 0.  1.
         21    1    1    2  505  502  0.19062210956E+02 -0.35311963357E+02  0.28370268142E+03  0.28652663766E+03  0.00000000000E+00 0.  1.
          2    1    1    2  501    0 -0.54272356904E+02 -0.17281722879E+02 -0.23789280537E+03  0.24461629855E+03  0.00000000000E+00 0.  1.
<scales pt_clust_3="113.89422" pt_clust_4="14000.00000" pt_clust_5="40.12858" pt_clust_6="56.94185"></scales>
<clustering>
<clus scale="   40.129">  1  5  2 -1</clus>
<clus scale="   56.942">  2  6  1 -1</clus>
<clus scale="  113.894">  1  3  2 -1</clus>
<clus scale="   40.129">  1  3  2 -1</clus>
</clustering>
</event>
<event>
 6    0  0.4017242E+002  0.6478920E+02  0.7546771E-02  0.1378766E+00
         21   -1    0    0  503  502  0.00000000000E+00  0.00000000000E+00  0.25850159275E+02  0.25850159275E+02  0.00000000000E+00 0.  1.
          2   -1    0    0  505    0 -0.00000000000E+00 -0.00000000000E+00 -0.10644698705E+04  0.10644698705E+04  0.00000000000E+00 0.  1.
         21    1    1    2  503  501 -0.52474398899E+02  0.38462044061E+02 -0.13910198803E+03  0.15356514724E+03  0.00000000000E+00 0.  1.
         21    1    1    2  504  502  0.28401472312E+02 -0.62371354767E+02 -0.11506955551E+03  0.13393219229E+03  0.00000000000E+00 0.  1.
         21    1    1    2  505  504  0.67286957419E+02 -0.11849091184E+01 -0.12924094832E+03  0.14571259853E+03  0.00000000000E+00 0.  1.
          2    1    1    2  501    0 -0.43214030833E+02  0.25094219824E+02 -0.65520721938E+03  0.65711009174E+03  0.00000000000E+00 0.  1.
<scales pt_clust_3="14000.00000" pt_clust_4="64.78920" pt_clust_5="53.23492" pt_clust_6="49.97172"></scales>
<clustering>
<clus scale="   49.972">  2  6  1 -1</clus>
<clus scale="   53.235">  2  5  1 -1</clus>
<clus scale="   64.789">  1  4  2 -1</clus>
<clus scale="   64.789">  1  3  2 -1</clus>
</clustering>
</event>
<event>
 6    0  0.4017242E+002  0.1138112E+03  0.7546771E-02  0.1253671E+00
         21   -1    0    0  504  502  0.00000000000E+00  0.00000000000E+00  0.55958470513E+02  0.55958470513E+02  0.00000000000E+00 0.  1.
          2   -1    0    0  503    0 -0.00000000000E+00 -0.00000000000E+00 -0.12080366927E+04  0.12080366927E+04  0.00000000000E+00 0.  1.
         21    1    1    2  503  502  0.50617253521E+01  0.78147155046E+02 -0.33571540905E+03  0.34472805917E+03  0.00000000000E+00 0.  1.
         21    1    1    2  504  505  0.98113216011E+02  0.44082055826E+02 -0.36996113927E+02  0.11374595926E+03  0.00000000000E+00 0.  1.
         21    1    1    2  505  501 -0.12999081203E+03 -0.10687327593E+03 -0.58538931962E+03  0.60909782781E+03  0.00000000000E+00 0.  1.
          2    1    1    2  501    0  0.26815870671E+02 -0.15355934947E+02 -0.19397737959E+03  0.19642331697E+03  0.00000000000E+00 0.  1.
<scales pt_clust_3="74.33260" pt_clust_4="14000.00000" pt_clust_5="113.81115" pt_clust_6="30.90139"></scales>
<clustering>
<clus scale="   30.901">  2  6  1 -1</clus>
<clus scale="   74.333">  2  3  1 -1</clus>
<clus scale="  113.811">  2  5  1 -1</clus>
<clus scale="  113.811">  1  3  2 -1</clus>
</clustering>
</event>
<event>
 6    0  0.4017242E+002  0.1073966E+03  0.7546771E-02  0.1265468E+00
         21   -1    0    0  504  502  0.00000000000E+00  0.00000000000E+00  0.54168235907E+03  0.54168235907E+03  0.00000000000E+00 0.  1.
          2   -1    0    0  503    0 -0.00000000000E+00 -0.00000000000E+00 -0.13394486747E+03  0.13394486747E+03  0.00000000000E+00 0.  1.
         21    1    1    2  503  505  0.38955904196E+02 -0.14843280880E+01 -0.27233512614E+02  0.47554494119E+02  0.00000000000E+00 0.  1.
         21    1    1    2  504  501 -0.50811866045E+02  0.73659358093E+02  0.14450956582E+03  0.16997223708E+03  0.00000000000E+00 0.  1.
         21    1    1    2  505  502  0.45085555861E+01  0.33956541663E+02  0.33931099600E+03  0.34103566647E+03  0.00000000000E+00 0.  1.
          2    1    1    2  501    0  0.73474062634E+01 -0.10613157167E+03 -0.48849557601E+02  0.11706482888E+03  0.00000000000E+00 0.  1.
<scales pt_clust_3="39.18390" pt_clust_4="14000.00000" pt_clust_5="34.25454" pt_clust_6="107.39665"></scales>
<clustering>
<clus scale="   34.255">  1  5  2 -1</clus>
<clus scale="   39.184">  2  3  1 -1</clus>
<clus scale="  107.397">  2  6  1 -1</clus>
<clus scale="   34.255">  1  3  2 -1</clus>
</clustering>
</event>
<event>
 6    0  0.4017242E+002  0.1176902E+03  0.7546771E-02  0.1246957E+00
         21   -1    0    0  501  502  0.00000000000E+00  0.00000000000E+00  0.79034825748E+02  0.79034825748E+02  0.00000000000E+00 0.  1.
          1   -1    0    0  503    0 -0.00000000000E+00 -0.00000000000E+00 -0.83249891572E+03  0.83249891572E+03  0.00000000000E+00 0.  1.
         21    1    1    2  503  504  0.77872002824E+02  0.53963993871E+01 -0.30081091323E+03  0.31077383330E+03  0.00000000000E+00 0. -1.
         21    1    1    2  504  505  0.61016889032E+02  0.42176737525E+02 -0.26184260228E+03  0.27214607531E+03  0.00000000000E+00 0.  1.
         21    1    1    2  505  502 -0.73992363495E+02  0.88393668940E+01  0.38381584063E+02  0.83822134653E+02  0.00000000000E+00 0.  1.
          1    1    1    2  501    0 -0.64896528362E+02 -0.56412503806E+02 -0.22919215853E+03  0.24479169820E+03  0.00000000000E+00 0.  1.
<scales pt_clust_3="39.75623" pt_clust_4="39.75623" pt_clust_5="74.51848" pt_clust_6="110.39781"></scales>
<clustering>
<clus scale="   39.756">  3  4 -1 -1</clus>
<clus scale="   74.518">  1  5  2 -1</clus>
<clus scale="  110.398">  2  6  1 -1</clus>
<clus scale="   74.518">  1  3  2 -1</clus>
</clustering>
</event>
<event>
 6    0  0.4017242E+002  0.8268782E+02  0.7546771E-02  0.1321592E+00
         21   -1    0    0  505  502  0.00000000000E+00  0.00000000000E+00  0.82668713893E+02  0.82668713893E+02  0.00000000000E+00 0.  1.
          2   -1    0    0  503    0 -0.00000000000E+00 -0.00000000000E+00 -0.16437409810E+04  0.16437409810E+04  0.00000000000E+00 0.  1.
         21    1    1    2  503  502 -0.57380703152E+02 -0.75117161814E+01 -0.96933982024E+02  0.11289449874E+03  0.00000000000E+00 0.  1.
         21    1    1    2  504  501 -0.74403857315E+01 -0.76786768077E+02 -0.48792290938E+01  0.77300543130E+02  0.00000000000E+00 0.  1.
         21    1    1    2  505  504  0.69892462368E+02  0.15563240701E+01  0.45523356259E+01  0.70057848955E+02  0.00000000000E+00 0.  1.
          2    1    1    2  501    0 -0.50713734845E+01  0.82742160189E+02 -0.14638113916E+04  0.14661568041E+04  0.00000000000E+00 0.  1.
<scales pt_clust_3="57.87029" pt_clust_4="14000.00000" pt_clust_5="41.29059" pt_clust_6="82.68782"></scales>
<clustering>
<clus scale="   57.870">  1  3  2 -1</clus>
<clus scale="   41.291">  1  5  2 -1</clus>
<clus scale="   82.688">  2  6  1 -1</clus>
<clus scale="   57.870">  1  3  2 -1</clus>
</clustering>
</event>
<event>
 6    0  0.4017242E+002  0.1304925E+03  0.7546771E-02  0.1226727E+00
         21   -1    0    0  504  502  0.00000000000E+00  0.00000000000E+00  0.25811234444E+03  0.25811234444E+03  0.00000000000E+00 0.  1.
          1   -1    0    0  503    0 -0.00000000000E+00 -0.00000000000E+00 -0.76819452831E+03  0.76819452831E+03  0.00000000000E+00 0.  1.
         21    1    1    2  503  505 -0.58587196343E+02 -0.81235706693E+02  0.14862271227E+03  0.17922167899E+03  0.00000000000E+00 0.  1.
         21    1    1    2  504  501 -0.20026969473E+02  0.11937055811E+03 -0.58420068833E+02  0.13439982921E+03  0.00000000000E+00 0.  1.
         21    1    1    2  505  502 -0.85612347720E+01 -0.77685307641E+02  0.23488847772E+02  0.81608992971E+02  0.00000000000E+00 0.  1.
          1    1    1    2  501    0  0.87175400588E+02  0.39550456225E+02 -0.62377367507E+03  0.63107637158E+03  0.00000000000E+00 0.  1.
<scales pt_clust_3="130.49253" pt_clust_4="14000.00000" pt_clust_5="78.15563" pt_clust_6="95.02658"></scales>
<clustering>
<clus scale="   78.156">  1  5  2 -1</clus>
<clus scale="   95.027">  2  6  1 -1</clus>
<clus scale="  130.493">  1  3  2 -1</clus>
<clus scale="   78.156">  1  3  2 -1</clus>
</clustering>
</event>
<event>
 6    0  0.4017242E+002  0.8329314E+02  0.7546771E-02  0.1319957E+00
         21   -1    0    0  501  502  0.00000000000E+00  0.00000000000E+00  0.34193964136E+02  0.34193964136E+02  0.00000000000E+00 0.  1.
          2   -1    0    0  505    0 -0.00000000000E+00 -0.00000000000E+00 -0.29530149804E+04  0.29530149804E+04  0.00000000000E+00 0.  1.
         21    1    1    2  503  504  0.19684295833E+02  0.64172969095E+02 -0.20255132187E+03  0.21338387816E+03  0.00000000000E+00 0.  1.
         21    1    1    2  504  502  0.21833071986E+02 -0.42213555750E+02  0.16143849221E+00  0.47525712870E+02  0.00000000000E+00 0.  1.
         21    1    1    2  505  503 -0.31255041245E+02  0.64779135164E+02 -0.30806455065E+03  0.31634946076E+03  0.00000000000E+00 0.  1.
          2    1    1    2  501    0 -0.10262326575E+02 -0.86738548509E+02 -0.24083665822E+04  0.24099498927E+04  0.00000000000E+00 0.  1.
<scales pt_clust_3="52.33323" pt_clust_4="47.52544" pt_clust_5="14000.00000" pt_clust_6="83.29314"></scales>
<clustering>
<clus scale="   47.525">  1  4  2 -1</clus>
<clus scale="   52.333">  1  3  2 -1</clus>
<clus scale="   83.293">  2  6  1 -1</clus>
<clus scale="   47.525">  1  3  2 -1</clus>
</clustering>
</event>
<event>
 6    0  0.4017242E+002  0.1029383E+03  0.7546771E-02  0.1274236E+00
          2   -1    0    0  503    0 -0.00000000000E+00  0.00000000000E+00  0.18881230059E+03  0.18881230059E+03  0.00000000000E+00 0.  1.
         21   -1    0    0  505  502  0.00000000000E+00 -0.00000000000E+00 -0.40826827215E+03  0.40826827215E+03  0.00000000000E+00 0.  1.
         21    1    1    2  503  502 -0.43270828380E+01 -0.76745373624E+02  0.21727814433E+02  0.79879120793E+02  0.00000000000E+00 0.  1.
         21    1    1    2  504  501  0.90912900899E+02  0.37710631239E+02 -0.60916513130E+02  0.11575002734E+03  0.00000000000E+00 0.  1.
         21    1    1    2  505  504  0.60318734823E+01  0.34013730950E+02 -0.27011584498E+03  0.27231578563E+03  0.00000000000E+00 0.  1.
          2    1    1    2  501    0 -0.92617691544E+02  0.50210114356E+01  0.89848572113E+02  0.12913563897E+03  0.00000000000E+00 0.  1.
<scales pt_clust_3="69.59612" pt_clust_4="14000.00000" pt_clust_5="34.54443" pt_clust_6="102.93825"></scales>
<clustering>
<clus scale="   34.544">  2  5  1 -1</clus>
<clus scale="   69.596">  1  3  2 -1</clus>
<clus scale="  102.938">  1  6  2 -1</clus>
<clus scale="   34.544">  2  3  1 -1</clus>
</clustering>
</event>
<event>
 6    0  0.4017242E+002  0.8579839E+02  0.7546771E-02  0.1313358E+00
         21   -1    0    0  505  502  0.00000000000E+00  0.00000000000E+00  0.18449791659E+03  0.18449791659E+03  0.00000000000E+00 0.  1.
         -2   -1    0    0    0  501 -0.00000000000E+00 -0.00000000000E+00 -0.13700309330E+04  0.13700309330E+04  0.00000000000E+00 0. -1.
         21    1    1    2  503  504 -0.69886582140E+02 -0.11403494034E+03 -0.63673135676E+02  0.14812957230E+03  0.00000000000E+00 0. -1.
         21    1    1    2  504  502 -0.46871335898E+02  0.57885355029E+02  0.96228456472E+02  0.12168628637E+03  0.00000000000E+00 0.  1.
         21    1    1    2  505  501  0.69357252831E+02 -0.13374897066E+02 -0.73078770468E+01  0.71012121914E+02  0.00000000000E+00 0. -1.
         -2    1    1    2    0  503  0.47400665207E+02  0.69524482377E+02 -0.12107804601E+04  0.12137008690E+04  0.00000000000E+00 0. -1.
<scales pt_clust_3="14000.00000" pt_clust_4="48.41024" pt_clust_5="70.63509" pt_clust_6="85.79839"></scales>
<clustering>
<clus scale="   70.635">  1  5  2 -1</clus>
<clus scale="   48.410">  1  4  2 -1</clus>
<clus scale="   85.798">  2  6  1 -1</clus>
<clus scale="   70.635">  1  3  2 -1</clus>
</clustering>
</event>
<event>
 6    0  0.4017242E+002  0.9190563E+02  0.7546771E-02  0.1298301E+00
         21   -1    0    0  505  502  0.00000000000E+00  0.00000000000E+00  0.13742560320E+03  0.13742560320E+03  0.00000000000E+00 0.  1.
          2   -1    0    0  503    0 -0.00000000000E+00 -0.00000000000E+00 -0.18153403795E+04  0.18153403795E+04  0.00000000000E+00 0.  1.
         21    1    1    2  503  504 -0.12934847207E+03  0.59092246600E+02 -0.36827077824E+03  0.39477371612E+03  0.00000000000E+00 0.  1.
         21    1    1    2  504  502 -0.10492280932E+02 -0.77891802641E+02 -0.33548047556E+02  0.85455791920E+02  0.00000000000E+00 0.  1.
         21    1    1    2  505  501  0.75129986487E+02  0.19637664649E+02  0.81979813731E+02  0.11291962895E+03  0.00000000000E+00 0.  1.
          2    1    1    2  501    0  0.64710766519E+02 -0.83810860782E+00 -0.13580757642E+04  0.13596168457E+04  0.00000000000E+00 0.  1.
<scales pt_clust_3="91.90563" pt_clust_4="78.02818" pt_clust_5="14000.00000" pt_clust_6="64.71619"></scales>
<clustering>
<clus scale="   64.716">  2  6  1 -1</clus>
<clus scale="   78.028">  1  4  2 -1</clus>
<clus scale="   91.906">  2  3  1 -1</clus>
<clus scale="   78.028">  1  3  2 -1</clus>
</clustering>
</event>
<event>
 6    0  0.4017242E+002  0.1279309E+03  0.7546771E-02  0.1230559E+00
          2   -1    0    0  505    0 -0.00000000000E+00  0.00000000000E+00  0.97439571875E+03  0.97439571875E+03  0.00000000000E+00 0. -1.
         21   -1    0    0  503  502  0.00000000000E+00 -0.00000000000E+00 -0.49114905782E+02  0.49114905782E+02  0.00000000000E+00 0. -1.
         21    1    1    2  503  504 -0.11186566063E+02  0.60454584003E+02  0.11661704361E+03  0.13183106936E+03  0.00000000000E+00 0. -1.
         21    1    1    2  504  501  0.13321713127E+02  0.50950326990E+02  0.59672274312E+02  0.79587588119E+02  0.00000000000E+00 0. -1.
         21    1    1    2  505  502 -0.12801797424E+03 -0.63413823225E+02  0.19366411688E+03  0.24065681971E+03  0.00000000000E+00 0. -1.
          2    1    1    2  501    0  0.12588282718E+03 -0.47991087768E+02  0.55532737817E+03  0.57143514735E+03  0.00000000000E+00 0. -1.
<scales pt_clust_3="116.70443" pt_clust_4="32.11832" pt_clust_5="127.93088" pt_clust_6="14000.00000"></scales>
<clustering>
<clus scale="   32.118">  3  4 -1 -1</clus>
<clus scale="  116.704">  2  3  1 -1</clus>
<clus scale="  127.931">  2  5  1 -1</clus>
<clus scale="  116.704">  2  3  1 -1</clus>
</clustering>
</event>
<event>
 6    0  0.4017242E+002  0.1160039E+03  0.7546771E-02  0.1249839E+00
         21   -1    0    0  504  502  0.00000000000E+00  0.00000000000E+00  0.16558813778E+04  0.16558813778E+04  0.00000000000E+00 0.  1.
          2   -1    0    0  505    0 -0.00000000000E+00 -0.00000000000E+00 -0.52982193082E+03  0.52982193082E+03  0.00000000000E+00 0. -1.
         21    1    1    2  503  501 -0.67798952384E+02 -0.34702159480E+02  0.88680835475E+03  0.89007302839E+03  0.00000000000E+00 0.  1.
         21    1    1    2  504  503 -0.52620765151E+02  0.31853672154E+02  0.47106490823E+03  0.47506394214E+03  0.00000000000E+00 0.  1.
         21    1    1    2  505  502  0.15005320656E+03  0.59948711867E+02  0.26999322091E+03  0.31465243077E+03  0.00000000000E+00 0.  1.
          2    1    1    2  501    0 -0.29633489027E+02 -0.57100224541E+02 -0.50180703691E+03  0.50591390731E+03  0.00000000000E+00 0. -1.
<scales pt_clust_3="116.00388" pt_clust_4="61.51099" pt_clust_5="14000.00000" pt_clust_6="64.32488"></scales>
<clustering>
<clus scale="   61.511">  1  4  2 -1</clus>
<clus scale="   64.325">  2  6  1 -1</clus>
<clus scale="  116.004">  1  3  2 -1</clus>
<clus scale="   61.511">  1  3  2 -1</clus>
</clustering>
</event>
<event>
 6    0  0.4017242E+002  0.3057968E+03  0.7546771E-02  0.1082378E+00
         21   -1    0    0  503  502  0.00000000000E+00  0.00000000000E+00  0.55739017048E+03  0.55739017048E+03  0.00000000000E+00 0.  1.
          2   -1    0    0  505    0 -0.00000000000E+00 -0.00000000000E+00 -0.13085101738E+04  0.13085101738E+04  0.00000000000E+00 0. -1.
         21    1    1    2  503  501 -0.22002635041E+01  0.35148618860E+02  0.39340488664E+01  0.35436468612E+02  0.00000000000E+00 0.  1.
         21    1    1    2  504  502  0.16246269628E+01 -0.96538083759E+02  0.68650316992E+02  0.11846985714E+03  0.00000000000E+00 0.  1.
         21    1    1    2  505  504  0.28299836904E+03 -0.58475708421E+02  0.37569430634E+03  0.47397647322E+03  0.00000000000E+00 0.  1.
          2    1    1    2  501    0 -0.28242273250E+03  0.11986517332E+03 -0.11993986755E+04  0.12380175452E+04  0.00000000000E+00 0. -1.
<scales pt_clust_3="35.21742" pt_clust_4="90.43079" pt_clust_5="14000.00000" pt_clust_6="305.79682"></scales>
<clustering>
<clus scale="   35.217">  1  3  2 -1</clus>
<clus scale="   90.431">  1  4  2 -1</clus>
<clus scale="  305.797">  2  6  1 -1</clus>
<clus scale="   35.217">  1  3  2 -1</clus>
</clustering>
</event>
<event>
 6    0  0.4017242E+002  0.7813256E+02  0.7546771E-02  0.1334436E+00
          1   -1    0    0  505    0 -0.00000000000E+00  0.00000000000E+00  0.10540629065E+04  0.10540629065E+04  0.00000000000E+00 0.  1.
         21   -1    0    0  503  502  0.00000000000E+00 -0.00000000000E+00 -0.13448946061E+03  0.13448946061E+03  0.00000000000E+00 0.  1.
         21    1    1    2  503  504 -0.95701200615E+02  0.88078596030E+02 -0.52128806361E+01  0.13016809518E+03  0.00000000000E+00 0.  1.
         21    1    1    2  504  501  0.14723188769E+02 -0.48184077795E+02  0.83977079169E+02  0.97931749021E+02  0.00000000000E+00 0.  1.
         21    1    1    2  505  502  0.34028088135E+02 -0.30074266503E+02 -0.50463990791E+02  0.67889518001E+02  0.00000000000E+00 0.  1.
          1    1    1    2  501    0  0.46949923711E+02 -0.98202517323E+01  0.89127323820E+03  0.89256300496E+03  0.00000000000E+00 0.  1.
<scales pt_clust_3="78.13256" pt_clust_4="14000.00000" pt_clust_5="45.41335" pt_clust_6="48.30426"></scales>
<clustering>
<clus scale="   45.413">  2  5  1 -1</clus>
<clus scale="   48.304">  1  6  2 -1</clus>
<clus scale="   78.133">  2  3  1 -1</clus>
<clus scale="   45.413">  2  3  1 -1</clus>
</clustering>
</event>
<event>
 6    0  0.4017242E+002  0.6531429E+02  0.7546771E-02  0.1376793E+00
         21   -1    0    0  503  502  0.00000000000E+00  0.00000000000E+00  0.10831649234E+02  0.10831649234E+02  0.00000000000E+00 0.  1.
          2   -1    0    0  504    0 -0.00000000000E+00 -0.00000000000E+00 -0.26376290644E+04  0.26376290644E+04  0.00000000000E+00 0.  1.
         21    1    1    2  503  505 -0.24390066208E+02 -0.65203117209E+02 -0.26732322569E+03  0.27623907909E+03  0.00000000000E+00 0.  1.
         21    1    1    2  504  502 -0.27872060712E+02  0.65423133992E+02 -0.34139523348E+03  0.34872301856E+03  0.00000000000E+00 0.  1.
         21    1    1    2  505  501  0.76129217568E+02 -0.23570180287E+02 -0.63032931298E+03  0.63534734907E+03  0.00000000000E+00 0.  1.
          2    1    1    2  501    0 -0.23867090648E+02  0.23350163505E+02 -0.13877496430E+04  0.13881512669E+04  0.00000000000E+00 0.  1.
<scales pt_clust_3="14000.00000" pt_clust_4="65.31429" pt_clust_5="65.11108" pt_clust_6="33.38964"></scales>
<clustering>
<clus scale="   33.390">  2  6  1 -1</clus>
<clus scale="   65.111">  2  5  1 -1</clus>
<clus scale="   65.314">  2  4  1 -1</clus>
<clus scale="   65.314">  1  3  2 -1</clus>
</clustering>
</event>
<event>
 6    0  0.4017242E+002  0.1062798E+03  0.7546771E-02  0.1267618E+00
          2   -1    0    0  505    0 -0.00000000000E+00  0.00000000000E+00  0.13299842461E+03  0.13299842461E+03  0.00000000000E+00 0.  1.
         21   -1    0    0  501  502  0.00000000000E+00 -0.00000000000E+00 -0.54245520461E+03  0.54245520461E+03  0.00000000000E+00 0.  1.
         21    1    1    2  503  504 -0.33343261086E+02  0.33996749842E+02 -0.21806634212E+02  0.52374434176E+02  0.00000000000E+00 0. -1.
         21    1    1    2  504  502  0.73732127506E+02 -0.52892676683E+02 -0.45470946462E+03  0.46367527332E+03  0.00000000000E+00 0.  1.
         21    1    1    2  505  503 -0.76795048962E+02  0.50981043774E+02  0.25830463125E+02  0.95727525794E+02  0.00000000000E+00 0.  1.
          2    1    1    2  501    0  0.36406182541E+02 -0.32085116933E+02  0.41228855709E+02  0.63676395932E+02  0.00000000000E+00 0.  1.
<scales pt_clust_3="36.41117" pt_clust_4="93.42944" pt_clust_5="36.41117" pt_clust_6="48.52695"></scales>
<clustering>
<clus scale="   36.411">  3  5 -1 -1</clus>
<clus scale="   48.527">  1  6  2 -1</clus>
<clus scale="   93.429">  2  4  1 -1</clus>
<clus scale="   93.429">  2  3  1 -1</clus>
</clustering>
</event>
<event>
 6    0  0.4017242E+002  0.1135954E+03  0.7546771E-02  0.1254053E+00
         21   -1    0    0  503  502  0.00000000000E+00  0.00000000000E+00  0.15559529548E+04  0.15559529548E+04  0.00000000000E+00 0. -1.
          1   -1    0    0  505    0 -0.00000000000E+00 -0.00000000000E+00 -0.16655518944E+04  0.16655518944E+04  0.00000000000E+00 0.  1.
         21    1    1    2  503  504  0.73671001547E+02 -0.10370843329E+01  0.13406303000E+04  0.13426533779E+04  0.00000000000E+00 0. -1.
         21    1    1    2  504  501  0.51545507259E+02  0.33578010773E+02  0.16808648724E+03  0.17899019336E+03  0.00000000000E+00 0.  1.
         21    1    1    2  505  502 -0.30177504359E+02  0.30758238903E+02  0.26828140490E+02  0.50759237109E+02  0.00000000000E+00 0. -1.
          1    1    1    2  501    0 -0.95039004448E+02 -0.63299165343E+02 -0.16451438674E+04  0.16491020408E+04  0.00000000000E+00 0.  1.
<scales pt_clust_3="53.77780" pt_clust_4="113.59536" pt_clust_5="43.09003" pt_clust_6="14000.00000"></scales>
<clustering>
<clus scale="   43.090">  1  5  2 -1</clus>
<clus scale="   53.778">  1  3  2 -1</clus>
<clus scale="  113.595">  1  4  2 -1</clus>
<clus scale="   43.090">  1  3  2 -1</clus>
</clustering>
</event>
<event>
 6    0  0.4017242E+002  0.1511937E+03  0.7546771E-02  0.1199014E+00
         21   -1    0    0  503  502  0.00000000000E+00  0.00000000000E+00  0.33522419294E+04  0.33522419294E+04  0.00000000000E+00 0.  1.
         -1   -1    0    0    0  501 -0.00000000000E+00 -0.00000000000E+00 -0.69649723586E+03  0.69649723586E+03  0.00000000000E+00 0.  1.
         21    1    1    2  503  501  0.96896134399E+02 -0.81420761196E+02  0.10116032091E+03  0.16202349132E+03  0.00000000000E+00 0.  1.
         21    1    1    2  504  505 -0.60438809075E+02  0.26266305828E+02  0.92164744325E+03  0.92400042106E+03  0.00000000000E+00 0.  1.
         21    1    1    2  505  502 -0.63099342401E+02  0.41234821441E+02  0.22968677698E+04  0.22981043035E+04  0.00000000000E+00 0.  1.
         -1    1    1    2    0  504  0.26642017077E+02  0.13919633928E+02 -0.66393084041E+03  0.66461094946E+03  0.00000000000E+00 0.  1.
<scales pt_clust_3="139.85326" pt_clust_4="53.53763" pt_clust_5="53.53763" pt_clust_6="30.05916"></scales>
<clustering>
<clus scale="   30.059">  2  6  1 -1</clus>
<clus scale="   53.538">  4  5 -1 -1</clus>
<clus scale="  139.853">  2  3  1 -1</clus>
<clus scale="  151.194">  1  3  2 -1</clus>
</clustering>
</event>
<event>
 6    0  0.4017242E+002  0.1478219E+03  0.7546771E-02  0.1203175E+00
         -3   -1    0    0    0  501 -0.00000000000E+00  0.00000000000E+00  0.18631512100E+03  0.18631512100E+03  0.00000000000E+00 0. -1.
         21   -1    0    0  504  502  0.00000000000E+00 -0.00000000000E+00 -0.14650039311E+04  0.14650039311E+04  0.00000000000E+00 0. -1.
         21    1    1    2  503  505  0.17196869568E+03  0.17143051090E+02 -0.29708389518E+03  0.34369456974E+03  0.00000000000E+00 0. -1.
         21    1    1    2  504  501  0.27443351488E+02 -0.19492307693E+02  0.11512491198E+01  0.33681047707E+02  0.00000000000E+00 0.  1.
         21    1    1    2  505  502 -0.37145068990E+02  0.23704958416E+02 -0.10817635624E+04  0.10826606514E+04  0.00000000000E+00 0. -1.
         -3    1    1    2    0  503 -0.16226697817E+03 -0.21355701812E+02  0.99007398402E+02  0.19128278319E+03  0.00000000000E+00 0. -1.
<scales pt_clust_3="14000.00000" pt_clust_4="33.66137" pt_clust_5="43.97523" pt_clust_6="147.82185"></scales>
<clustering>
<clus scale="   33.661">  1  4  2 -1</clus>
<clus scale="   43.975">  2  5  1 -1</clus>
<clus scale="  147.822">  1  6  2 -1</clus>
<clus scale="   43.975">  2  3  1 -1</clus>
</clustering>
</event>
<event>
 6    0  0.4017242E+002  0.7287781E+02  0.7546771E-02  0.1350572E+00
         -1   -1    0    0    0  501 -0.00000000000E+00  0.00000000000E+00  0.26662712417E+03  0.26662712417E+03  0.00000000000E+00 0. -1.
         21   -1    0    0  504  502  0.00000000000E+00 -0.00000000000E+00 -0.28940905295E+03  0.28940905295E+03  0.00000000000E+00 0. -1.
         21    1    1    2  503  502  0.51523732204E+02  0.57379200557E+02 -0.18990940476E+03  0.20496987499E+03  0.00000000000E+00 0.  1.
         21    1    1    2  504  501 -0.85506564593E+02  0.88191009625E+01 -0.43507237501E+02  0.96343286457E+02  0.00000000000E+00 0. -1.
         21    1    1    2  505  503  0.56122659792E+02 -0.38791304301E+02  0.37122294274E+02  0.77669704284E+02  0.00000000000E+00 0. -1.
         -1    1    1    2    0  505 -0.22139827402E+02 -0.27406997219E+02  0.17351241921E+03  0.17705331139E+03  0.00000000000E+00 0. -1.
<scales pt_clust_3="14000.00000" pt_clust_4="72.87781" pt_clust_5="70.13682" pt_clust_6="35.23231"></scales>
<clustering>
<clus scale="   35.232">  1  6  2 -1</clus>
<clus scale="   70.137">  1  5  2 -1</clus>
<clus scale="   72.878">  1  4  2 -1</clus>
<clus scale="   72.878">  2  3  1 -1</clus>
</clustering>
</event>
<event>
 6    0  0.4017242E+002  0.1248911E+03  0.7546771E-02  0.1235240E+00
         21   -1    0    0  501  502  0.00000000000E+00  0.00000000000E+00  0.50735978547E+03  0.50735978547E+03  0.00000000000E+00 0.  1.
          1   -1    0    0  505    0 -0.00000000000E+00 -0.00000000000E+00 -0.11172188647E+04  0.11172188647E+04  0.00000000000E+00 0.  1.
         21    1    1    2  503  504  0.73214931365E+02  0.10305825374E+03 -0.12248057665E+03  0.17601966224E+03  0.00000000000E+00 0.  1.
         21    1    1    2  504  502 -0.10244066728E+03 -0.71960571484E+02  0.46357686646E+03  0.48018322053E+03  0.00000000000E+00 0.  1.
         21    1    1    2  505  503  0.85378587980E+02 -0.65228086258E+02 -0.42675455817E+03  0.44007233433E+03  0.00000000000E+00 0.  1.
          1    1    1    2  501    0 -0.56152852069E+02  0.34130404001E+02 -0.52420081088E+03  0.52830343308E+03  0.00000000000E+00 0.  1.
<scales pt_clust_3="14000.00000" pt_clust_4="124.89107" pt_clust_5="59.74195" pt_clust_6="65.71170"></scales>
<clustering>
<clus scale="   65.712">  2  6  1 -1</clus>
<clus scale="   59.742">  2  5  1 -1</clus>
<clus scale="  124.891">  1  4  2 -1</clus>
<clus scale="  124.891">  1  3  2 -1</clus>
</clustering>
</event>
<event>
 6    0  0.4017242E+002  0.1142625E+03  0.7546771E-02  0.1252874E+00
          1   -1    0    0  504    0 -0.00000000000E+00  0.00000000000E+00  0.16673142088E+03  0.16673142088E+03  0.00000000000E+00 0.  1.
         21   -1    0    0  505  502  0.00000000000E+00 -0.00000000000E+00 -0.12692852713E+04  0.12692852713E+04  0.00000000000E+00 0. -1.
         21    1    1    2  503  501  0.39604350517E+02 -0.66212095805E+02 -0.22604196812E+03  0.23884622158E+03  0.00000000000E+00 0.  1.
         21    1    1    2  504  502 -0.45106548759E+02 -0.15934796633E+02 -0.90042902499E+03  0.90169892289E+03  0.00000000000E+00 0. -1.
         21    1    1    2  505  503  0.46836627206E+02 -0.13152106165E+02 -0.11333919625E+03  0.12333864338E+03  0.00000000000E+00 0.  1.
          1    1    1    2  501    0 -0.41334428964E+02  0.95298998603E+02  0.13725633898E+03  0.17213290430E+03  0.00000000000E+00 0.  1.
<scales pt_clust_3="37.47784" pt_clust_4="47.83846" pt_clust_5="37.47784" pt_clust_6="104.05925"></scales>
<clustering>
<clus scale="   37.478">  3  5 -1 -1</clus>
<clus scale="   47.838">  2  4  1 -1</clus>
<clus scale="  104.059">  1  6  2 -1</clus>
<clus scale="   47.838">  2  3  1 -1</clus>
</clustering>
</event>
<event>
 6    0  0.4017242E+002  0.1351246E+03  0.7546771E-02  0.1220044E+00
         21   -1    0    0  504  502  0.00000000000E+00  0.00000000000E+00  0.10405237116E+03  0.10405237116E+03  0.00000000000E+00 0. -1.
          2   -1    0    0  503    0 -0.00000000000E+00 -0.00000000000E+00 -0.94562152979E+03  0.94562152979E+03  0.00000000000E+00 0. -1.
         21    1    1    2  503  502  0.13738561294E+03 -0.96779123456E+02 -0.45834325289E+02  0.17418895130E+03  0.00000000000E+00 0. -1.
         21    1    1    2  504  505 -0.62213929915E+02  0.66105111315E+02 -0.13912400023E+03  0.16612027648E+03  0.00000000000E+00 0. -1.
         21    1    1    2  505  501 -0.88518667744E+02 -0.26127278052E+02 -0.60390326278E+02  0.11029587801E+03  0.00000000000E+00 0. -1.
          2    1    1    2  501    0  0.13346984720E+02  0.56801290193E+02 -0.59622050684E+03  0.59906879517E+03  0.00000000000E+00 0. -1.
<scales pt_clust_3="135.12463" pt_clust_4="14000.00000" pt_clust_5="86.11334" pt_clust_6="58.34834"></scales>
<clustering>
<clus scale="   58.348">  2  6  1 -1</clus>
<clus scale="   86.113">  2  5  1 -1</clus>
<clus scale="  135.125">  1  3  2 -1</clus>
<clus scale="  135.125">  1  3  2 -1</clus>
</clustering>
</event>
<event>
 6    0  0.4017242E+002  0.9247082E+02  0.7546771E-02  0.1296976E+00
          2   -1    0    0  504    0 -0.00000000000E+00  0.00000000000E+00  0.26401177424E+04  0.26401177424E+04  0.00000000000E+00 0.  1.
         21   -1    0    0  503  502  0.00000000000E+00 -0.00000000000E+00 -0.78161890127E+02  0.78161890127E+02  0.00000000000E+00 0. -1.
         21    1    1    2  503  501 -0.35663207885E+02 -0.21427114062E+02  0.90400076210E+02  0.99514618989E+02  0.00000000000E+00 0. -1.
         21    1    1    2  504  505  0.87091946271E+02  0.42505718706E+02  0.20216428729E+04  0.20239643398E+04  0.00000000000E+00 0.  1.
         21    1    1    2  505  502  0.35567060148E+02 -0.25996350499E+02 -0.61703892219E+02  0.75816860406E+02  0.00000000000E+00 0. -1.
          2    1    1    2  501    0 -0.86995798534E+02  0.49177458549E+01  0.51161679541E+03  0.51898381337E+03  0.00000000000E+00 0.  1.
<scales pt_clust_3="41.60512" pt_clust_4="14000.00000" pt_clust_5="46.06828" pt_clust_6="92.47082"></scales>
<clustering>
<clus scale="   41.605">  2  3  1 -1</clus>
<clus scale="   46.068">  2  5  1 -1</clus>
<clus scale="   92.471">  2  6  1 -1</clus>
<clus scale="   41.605">  2  3  1 -1</clus>
</clustering>
</event>
<event>
 6    0  0.4017242E+002  0.1358773E+03  0.7546771E-02  0.1218987E+00
         21   -1    0    0  501  502  0.00000000000E+00  0.00000000000E+00  0.14963936903E+03  0.14963936903E+03  0.00000000000E+00 0.  1.
          2   -1    0    0  503    0 -0.00000000000E+00 -0.00000000000E+00 -0.27887505964E+03  0.27887505964E+03  0.00000000000E+00 0. -1.
         21    1    1    2  503  504  0.83172909726E+02 -0.73992580566E+01 -0.34562790681E+02  0.90371834284E+02  0.00000000000E+00 0.  1.
         21    1    1    2  504  505  0.32801912745E+02  0.19839090768E+02  0.11895872072E+02  0.40138096300E+02  0.00000000000E+00 0.  1.
         21    1    1    2  505  502  0.83379580929E+01 -0.55150827305E+02  0.62552203626E+02  0.83808791162E+02  0.00000000000E+00 0.  1.
          2    1    1    2  501    0 -0.12431278056E+03  0.42710994594E+02 -0.16912097562E+03  0.21419570693E+03  0.00000000000E+00 0. -1.
<scales pt_clust_3="36.57675" pt_clust_4="36.57675" pt_clust_5="55.77755" pt_clust_6="124.69359"></scales>
<clustering>
<clus scale="   36.577">  3  4 -1 -1</clus>
<clus scale="   55.778">  1  5  2 -1</clus>
<clus scale="  124.694">  2  6  1 -1</clus>
<clus scale="   55.778">  1  3  2 -1</clus>
</clustering>
</event>
<event>
 6    0  0.4017242E+002  0.1908896E+03  0.7546771E-02  0.1157661E+00
         21   -1    0    0  504  502  0.00000000000E+00  0.00000000000E+00  0.86987318635E+03  0.86987318635E+03  0.00000000000E+00 0. -1.
         -1   -1    0    0    0  501 -0.00000000000E+00 -0.00000000000E+00 -0.36138896407E+03  0.36138896407E+03  0.00000000000E+00 0. -1.
         21    1    1    2  503  501 -0.47260101650E+02 -0.44889134384E+02  0.70290756814E+02  0.95861056156E+02  0.00000000000E+00 0. -1.
         21    1    1    2  504  503  0.32303930001E+02  0.14178766037E+02  0.35288853235E+02  0.49898742093E+02  0.00000000000E+00 0.  1.
         21    1    1    2  505  502  0.78943008100E+02  0.20921134852E+03  0.69899848581E+03  0.73389390926E+03  0.00000000000E+00 0. -1.
         -1    1    1    2    0  505 -0.63986836451E+02 -0.17850098017E+03 -0.29609387358E+03  0.35160844292E+03  0.00000000000E+00 0. -1.
<scales pt_clust_3="61.85993" pt_clust_4="35.27862" pt_clust_5="190.88963" pt_clust_6="14000.00000"></scales>
<clustering>
<clus scale="   35.279">  1  4  2 -1</clus>
<clus scale="   61.860">  1  3  2 -1</clus>
<clus scale="  190.890">  1  5  2 -1</clus>
<clus scale="   35.279">  1  3  2 -1</clus>
</clustering>
</event>
<event>
 6    0  0.4017242E+002  0.1018105E+03  0.7546771E-02  0.1276534E+00
         -1   -1    0    0    0  501 -0.00000000000E+00  0.00000000000E+00  0.85874848180E+03  0.85874848180E+03  0.00000000000E+00 0.  1.
         21   -1    0    0  503  502  0.00000000000E+00 -0.00000000000E+00 -0.64473193046E+03  0.64473193046E+03  0.00000000000E+00 0.  1.
         21    1    1    2  503  501 -0.37333610439E+02  0.71501754500E+01 -0.95435785528E+02  0.10272737044E+03  0.00000000000E+00 0.  1.
         21    1    1    2  504  502 -0.26359865264E+02  0.11087500376E+03 -0.41024373027E+03  0.42577931746E+03  0.00000000000E+00 0.  1.
         21    1    1    2  505  504  0.48029926971E+02 -0.64666444400E+02 -0.11391054266E+03  0.13951428115E+03  0.00000000000E+00 0. -1.
         -1    1    1    2    0  505  0.15663548732E+02 -0.53358734809E+02  0.83360660980E+03  0.83545944321E+03  0.00000000000E+00 0.  1.
<scales pt_clust_3="38.01215" pt_clust_4="14000.00000" pt_clust_5="101.81048" pt_clust_6="55.58079"></scales>
<clustering>
<clus scale="   38.012">  2  3  1 -1</clus>
<clus scale="   55.581">  1  6  2 -1</clus>
<clus scale="  101.810">  1  5  2 -1</clus>
<clus scale="   38.012">  2  3  1 -1</clus>
</clustering>
</event>
<event>
 6    0  0.4017242E+002  0.2373655E+03  0.7546771E-02  0.1121560E+00
          2   -1    0    0  503    0 -0.00000000000E+00  0.00000000000E+00  0.29227470060E+03  0.29227470060E+03  0.00000000000E+00 0.  1.
         21   -1    0    0  504  502  0.00000000000E+00 -0.00000000000E+00 -0.84711954789E+03  0.84711954789E+03  0.00000000000E+00 0.  1.
         21    1    1    2  503  505  0.17166301269E+03  0.30490331898E+02  0.93879608084E+02  0.19801825946E+03  0.00000000000E+00 0.  1.
         21    1    1    2  504  501 -0.19418267944E+03  0.75766391534E+02 -0.70559573962E+03  0.73573963251E+03  0.00000000000E+00 0.  1.
         21    1    1    2  505  502  0.94108908906E+02 -0.63107768103E+02  0.41358047974E+02  0.12062157876E+03  0.00000000000E+00 0. -1.
          2    1    1    2  501    0 -0.71589242153E+02 -0.43148955329E+02  0.15513236279E+02  0.85014777761E+02  0.00000000000E+00 0.  1.
<scales pt_clust_3="96.89617" pt_clust_4="211.65740" pt_clust_5="96.89617" pt_clust_6="83.58739"></scales>
<clustering>
<clus scale="   83.587">  1  6  2 -1</clus>
<clus scale="   96.896">  3  5 -1 -1</clus>
<clus scale="  211.657">  2  4  1 -1</clus>
<clus scale="  211.657">  2  3  1 -1</clus>
</clustering>
</event>
<event>
 6    0  0.4017242E+002  0.9194137E+02  0.7546771E-02  0.1298217E+00
         21   -1    0    0  504  502  0.00000000000E+00  0.00000000000E+00  0.23345624957E+03  0.23345624957E+03  0.00000000000E+00 0. -1.
          1   -1    0    0  503    0 -0.00000000000E+00 -0.00000000000E+00 -0.24312364298E+04  0.24312364298E+04  0.00000000000E+00 0. -1.
         21    1    1    2  503  505 -0.11321504969E+03 -0.13577636095E+02 -0.84294876189E+01  0.11433746517E+03  0.00000000000E+00 0. -1.
         21    1    1    2  504  501 -0.26136492357E+02 -0.31996131718E+02 -0.55146265730E+02  0.68905582514E+02  0.00000000000E+00 0. -1.
         21    1    1    2  505  502  0.90947899701E+02  0.11422824321E+02  0.16111568539E+03  0.18536522180E+03  0.00000000000E+00 0. -1.
          1    1    1    2  501    0  0.48403642350E+02  0.34150943492E+02 -0.22953201122E+04  0.22960844098E+04  0.00000000000E+00 0. -1.
<scales pt_clust_3="91.94137" pt_clust_4="41.31427" pt_clust_5="14000.00000" pt_clust_6="59.17137"></scales>
<clustering>
<clus scale="   41.314">  1  4  2 -1</clus>
<clus scale="   59.171">  2  6  1 -1</clus>
<clus scale="   91.941">  2  3  1 -1</clus>
<clus scale="   41.314">  1  3  2 -1</clus>
</clustering>
</event>
<event>
 6    0  0.4017242E+002  0.1183995E+03  0.7546771E-02  0.1245761E+00
          1   -1    0    0  504    0 -0.00000000000E+00  0.00000000000E+00  0.90004028716E+03  0.90004028716E+03  0.00000000000E+00 0.  1.
         21   -1    0    0  505  502  0.00000000000E+00 -0.00000000000E+00 -0.91438052252E+02  0.91438052252E+02  0.00000000000E+00 0.  1.
         21    1    1    2  503  502  0.49147482078E+01  0.32872381241E+02 -0.23922984710E+02  0.40951891236E+02  0.00000000000E+00 0.  1.
         21    1    1    2  504  503  0.56314580310E+02 -0.14954117981E+02  0.43467544752E+02  0.72693775846E+02  0.00000000000E+00 0.  1.
         21    1    1    2  505  501  0.66771815963E+01 -0.11730856286E+03  0.47774380695E+02  0.12683956451E+03  0.00000000000E+00 0.  1.
          1    1    1    2  501    0 -0.67906510114E+02  0.99390299602E+02  0.74128329417E+03  0.75099310782E+03  0.00000000000E+00 0.  1.
<scales pt_clust_3="33.23775" pt_clust_4="57.93378" pt_clust_5="118.39954" pt_clust_6="14000.00000"></scales>
<clustering>
<clus scale="   33.238">  2  3  1 -1</clus>
<clus scale="   57.934">  2  4  1 -1</clus>
<clus scale="  118.400">  2  5  1 -1</clus>
<clus scale="   33.238">  2  3  1 -1</clus>
</clustering>
</event>
<event>
 6    0  0.4017242E+002  0.1621276E+03  0.7546771E-02  0.1186315E+00
         21   -1    0    0  505  502  0.00000000000E+00  0.00000000000E+00  0.21340760972E+03  0.21340760972E+03  0.00000000000E+00 0.  1.
          2   -1    0    0  504    0 -0.00000000000E+00 -0.00000000000E+00 -0.28051163760E+04  0.28051163760E+04  0.00000000000E+00 0. -1.
         21    1    1    2  503  502  0.94836797367E+02  0.10423829527E+03 -0.27975625368E+03  0.31324623191E+03  0.00000000000E+00 0.  1.
         21    1    1    2  504  503  0.33481976205E+02  0.12965181961E+02 -0.15435450088E+03  0.15847539436E+03  0.00000000000E+00 0. -1.
         21    1    1    2  505  501 -0.41854655199E+02  0.18783335440E+01  0.19001615341E+03  0.19458026328E+03  0.00000000000E+00 0.  1.
          2    1    1    2  501    0 -0.86464118373E+02 -0.11908181078E+03 -0.23476141651E+04  0.23522220962E+04  0.00000000000E+00 0. -1.
<scales pt_clust_3="31.38752" pt_clust_4="31.38752" pt_clust_5="41.89678" pt_clust_6="149.72834"></scales>
<clustering>
<clus scale="   31.388">  3  4 -1 -1</clus>
<clus scale="   41.897">  1  5  2 -1</clus>
<clus scale="  149.728">  2  6  1 -1</clus>
<clus scale="   41.897">  1  3  2 -1</clus>
</clustering>
</event>
<event>
 6    0  0.4017242E+002  0.1173366E+03  0.7546771E-02  0.1247557E+00
         -1   -1    0    0    0  501 -0.00000000000E+00  0.00000000000E+00  0.35773244717E+03  0.35773244717E+03  0.00000000000E+00 0. -1.
         21   -1    0    0  504  502  0.00000000000E+00 -0.00000000000E+00 -0.18491493933E+03  0.18491493933E+03  0.00000000000E+00 0. -1.
         21    1    1    2  503  505  0.72109643818E+01  0.41513694698E+02  0.49487528357E+02  0.64995386895E+02  0.00000000000E+00 0. -1.
         21    1    1    2  504  501  0.97868609772E+02 -0.25929036432E+02  0.67756675086E+02  0.12182588694E+03  0.00000000000E+00 0. -1.
         21    1    1    2  505  502 -0.49027356555E+02 -0.80677082529E+02 -0.12453990556E+03  0.15627751410E+03  0.00000000000E+00 0. -1.
         -1    1    1    2    0  503 -0.56052217598E+02  0.65092424264E+02  0.18011320995E+03  0.19954859857E+03  0.00000000000E+00 0. -1.
<scales pt_clust_3="41.53293" pt_clust_4="101.24821" pt_clust_5="94.40590" pt_clust_6="41.53293"></scales>
<clustering>
<clus scale="   41.533">  3  6 -1 -1</clus>
<clus scale="   94.406">  2  5  1 -1</clus>
<clus scale="  101.248">  2  4  1 -1</clus>
<clus scale="   94.406">  2  3  1 -1</clus>
</clustering>
</event>
<event>
 6    0  0.4017242E+002  0.3047367E+03  0.7546771E-02  0.1082896E+00
         21   -1    0    0  501  502  0.00000000000E+00  0.00000000000E+00  0.38240505830E+03  0.38240505830E+03  0.00000000000E+00 0.  1.
          1   -1    0    0  504    0 -0.00000000000E+00 -0.00000000000E+00 -0.19980045647E+04  0.19980045647E+04  0.00000000000E+00 0. -1.
         21    1    1    2  503  502  0.54677176083E+02  0.16987372100E+03  0.74504010125E+02  0.19338438974E+03  0.00000000000E+00 0.  1.
         21    1    1    2  504  505 -0.42572468603E+02 -0.21431491248E+03 -0.25964896559E+02  0.22003970698E+03  0.00000000000E+00 0.  1.
         21    1    1    2  505  503 -0.74550594017E+02 -0.23909408708E+03  0.26274233362E+02  0.25182158145E+03  0.00000000000E+00 0.  1.
          1    1    1    2  501    0  0.62445886537E+02  0.28353527856E+03 -0.16904128533E+04  0.17151639448E+04  0.00000000000E+00 0. -1.
<scales pt_clust_3="178.45637" pt_clust_4="54.10598" pt_clust_5="54.10598" pt_clust_6="299.18053"></scales>
<clustering>
<clus scale="   54.106">  4  5 -1 -1</clus>
<clus scale="  178.456">  1  3  2 -1</clus>
<clus scale="  299.181">  2  6  1 -1</clus>
<clus scale="  178.456">  1  3  2 -1</clus>
</clustering>
</event>
<event>
 6    0  0.4017242E+002  0.1515473E+03  0.7546771E-02  0.1198584E+00
         21   -1    0    0  505  502  0.00000000000E+00  0.00000000000E+00  0.61714475930E+02  0.61714475930E+02  0.00000000000E+00 0.  1.
          1   -1    0    0  504    0 -0.00000000000E+00 -0.00000000000E+00 -0.15858369805E+04  0.15858369805E+04  0.00000000000E+00 0.  1.
         21    1    1    2  503  501 -0.26245261586E+02  0.10982303798E+03 -0.20542045797E+03  0.23440878393E+03  0.00000000000E+00 0.  1.
         21    1    1    2  504  502  0.30776187205E+02  0.22934959479E+02 -0.74696138892E+02  0.83980350265E+02  0.00000000000E+00 0.  1.
         21    1    1    2  505  503  0.76251865414E+02 -0.17969019255E+03 -0.19468439806E+03  0.27568991118E+03  0.00000000000E+00 0.  1.
          1    1    1    2  501    0 -0.80782791033E+02  0.46932195091E+02 -0.10493215096E+04  0.10534724110E+04  0.00000000000E+00 0.  1.
<scales pt_clust_3="14000.00000" pt_clust_4="38.38211" pt_clust_5="151.54732" pt_clust_6="92.88651"></scales>
<clustering>
<clus scale="   38.382">  1  4  2 -1</clus>
<clus scale="   92.887">  2  6  1 -1</clus>
<clus scale="  151.547">  1  5  2 -1</clus>
<clus scale="   38.382">  1  3  2 -1</clus>
</clustering>
</event>
<event>
 6    0  0.4017242E+002  0.1176781E+03  0.7546771E-02  0.1246977E+00
         21   -1    0    0  504  502  0.00000000000E+00  0.00000000000E+00  0.41725632296E+02  0.41725632296E+02  0.00000000000E+00 0. -1.
         -2   -1    0    0    0  501 -0.00000000000E+00 -0.00000000000E+00 -0.22988448448E+04  0.22988448448E+04  0.00000000000E+00 0. -1.
         21    1    1    2  503  501 -0.30176892662E+02 -0.29977611733E+02 -0.11380500334E+03  0.12149436547E+03  0.00000000000E+00 0.  1.
         21    1    1    2  504  503 -0.37700780087E+02 -0.12840759086E+03 -0.14668526932E+03  0.19856088851E+03  0.00000000000E+00 0. -1.
         21    1    1    2  505  502  0.19449225860E+02  0.80437819045E+02 -0.14764853152E+03  0.16925898493E+03  0.00000000000E+00 0.  1.
         -2    1    1    2    0  505  0.48428446889E+02  0.77947383546E+02 -0.18489804083E+04  0.18512562382E+04  0.00000000000E+00 0. -1.
<scales pt_clust_3="39.41149" pt_clust_4="39.41149" pt_clust_5="82.75576" pt_clust_6="94.66358"></scales>
<clustering>
<clus scale="   39.411">  3  4 -1 -1</clus>
<clus scale="   82.756">  1  5  2 -1</clus>
<clus scale="   94.664">  2  6  1 -1</clus>
<clus scale="   82.756">  1  3  2 -1</clus>
</clustering>
</event>
<event>
 6    0  0.4017242E+002  0.9088186E+02  0.7546771E-02  0.1300730E+00
          2   -1    0    0  504    0 -0.00000000000E+00  0.00000000000E+00  0.72371679827E+03  0.72371679827E+03  0.00000000000E+00 0. -1.
         21   -1    0    0  503  502  0.00000000000E+00 -0.00000000000E+00 -0.24858915352E+03  0.24858915352E+03  0.00000000000E+00 0. -1.
         21    1    1    2  503  501 -0.13806456087E+02  0.40857931356E+02  0.14693257896E+02  0.45561832842E+02  0.00000000000E+00 0. -1.
         21    1    1    2  504  505 -0.71094130135E+02 -0.13184695607E+03 -0.10695133010E+03  0.18405592132E+03  0.00000000000E+00 0. -1.
         21    1    1    2  505  502  0.38594656087E+01  0.51395562458E+02 -0.76650269351E+02  0.92367002262E+02  0.00000000000E+00 0. -1.
          2    1    1    2  501    0  0.81041120613E+02  0.39593462254E+02  0.64403598631E+03  0.65032119537E+03  0.00000000000E+00 0. -1.
<scales pt_clust_3="43.12759" pt_clust_4="90.88186" pt_clust_5="66.21471" pt_clust_6="14000.00000"></scales>
<clustering>
<clus scale="   43.128">  2  3  1 -1</clus>
<clus scale="   66.215">  2  5  1 -1</clus>
<clus scale="   90.882">  2  4  1 -1</clus>
<clus scale="   43.128">  2  3  1 -1</clus>
</clustering>
</event>
<event>
 6    0  0.4017242E+002  0.1390838E+03  0.7546771E-02  0.1214567E+00
          3   -1    0    0  502    0 -0.00000000000E+00  0.00000000000E+00  0.15818700207E+03  0.15818700207E+03  0.00000000000E+00 0. -1.
         21   -1    0    0  504  502  0.00000000000E+00 -0.00000000000E+00 -0.27645961167E+03  0.27645961167E+03  0.00000000000E+00 0. -1.
         21    1    1    2  503  501  0.31313826096E+02  0.41470319415E+02 -0.73030625048E+02  0.89631552994E+02  0.00000000000E+00 0. -1.
         21    1    1    2  504  505  0.35311799995E+02 -0.20583469529E+02 -0.92850695822E+02  0.10144877600E+03  0.00000000000E+00 0. -1.
         21    1    1    2  505  503  0.64450267718E+02  0.84244667172E+01 -0.46192924236E+02  0.79740798202E+02  0.00000000000E+00 0. -1.
          3    1    1    2  501    0 -0.13107589381E+03 -0.29311316603E+02  0.93801635508E+02  0.16382548655E+03  0.00000000000E+00 0. -1.
<scales pt_clust_3="45.75356" pt_clust_4="40.87300" pt_clust_5="45.75356" pt_clust_6="128.57613"></scales>
<clustering>
<clus scale="   40.873">  2  4  1 -1</clus>
<clus scale="   45.754">  3  5 -1 -1</clus>
<clus scale="  128.576">  1  6  2 -1</clus>
<clus scale="   40.873">  2  3  1 -1</clus>
</clustering>
</event>
<event>
 6    0  0.4017242E+002  0.1655375E+03  0.7546771E-02  0.1182583E+00
         21   -1    0    0  505  502  0.00000000000E+00  0.00000000000E+00  0.45992177689E+02  0.45992177689E+02  0.00000000000E+00 0.  1.
          2   -1    0    0  504    0 -0.00000000000E+00 -0.00000000000E+00 -0.29300082736E+04  0.29300082736E+04  0.00000000000E+00 0.  1.
         21    1    1    2  503  502 -0.67102341888E+02 -0.87151631753E+02 -0.16113305071E+03  0.19509482626E+03  0.00000000000E+00 0.  1.
         21    1    1    2  504  503  0.22133870353E+03 -0.47317408131E+02 -0.60951959269E+03  0.65018758268E+03  0.00000000000E+00 0.  1.
         21    1    1    2  505  501 -0.11197723190E+03  0.41333087031E+02 -0.49740083291E+03  0.51152215311E+03  0.00000000000E+00 0.  1.
          2    1    1    2  501    0 -0.42259129744E+02  0.93135952853E+02 -0.16159626196E+04  0.16191958893E+04  0.00000000000E+00 0.  1.
<scales pt_clust_3="104.19843" pt_clust_4="165.53745" pt_clust_5="14000.00000" pt_clust_6="102.27482"></scales>
<clustering>
<clus scale="  102.275">  2  6  1 -1</clus>
<clus scale="  104.198">  1  3  2 -1</clus>
<clus scale="  165.537">  1  4  2 -1</clus>
<clus scale="  104.198">  1  3  2 -1</clus>
</clustering>
</event>
<event>
 6    0  0.4017242E+002  0.9867997E+02  0.7546771E-02  0.1283097E+00
         21   -1    0    0  505  502  0.00000000000E+00  0.00000000000E+00  0.29990295642E+03  0.29990295642E+03  0.00000000000E+00 0.  1.
         -3   -1    0    0    0  501 -0.00000000000E+00 -0.00000000000E+00 -0.37847064972E+03  0.37847064972E+03  0.00000000000E+00 0. -1.
         21    1    1    2  503  502 -0.66017074098E+02  0.77814071861E+01 -0.11919936423E+03  0.13648184056E+03  0.00000000000E+00 0. -1.
         21    1    1    2  504  501  0.11263401032E+03 -0.18478990200E+02  0.46496117946E+02  0.12324683502E+03  0.00000000000E+00 0. -1.
         21    1    1    2  505  504 -0.18547234429E+02 -0.38280488820E+02  0.20036412275E+03  0.20482963021E+03  0.00000000000E+00 0.  1.
         -3    1    1    2    0  503 -0.28069701791E+02  0.48978071834E+02 -0.20622856976E+03  0.21381530035E+03  0.00000000000E+00 0. -1.
<scales pt_clust_3="98.67997" pt_clust_4="14000.00000" pt_clust_5="42.53699" pt_clust_6="55.53304"></scales>
<clustering>
<clus scale="   42.537">  1  5  2 -1</clus>
<clus scale="   55.533">  2  6  1 -1</clus>
<clus scale="   98.680">  2  3  1 -1</clus>
<clus scale="   42.537">  1  3  2 -1</clus>
</clustering>
</event>
<event>
 6    0  0.4017242E+002  0.1499857E+03  0.7546771E-02  0.1200491E+00
         21   -1    0    0  503  502  0.00000000000E+00  0.00000000000E+00  0.85870869779E+03  0.85870869779E+03  0.00000000000E+00 0.  1.
          2   -1    0    0  504    0 -0.00000000000E+00 -0.00000000000E+00 -0.26802042352E+04  0.26802042352E+04  0.00000000000E+00 0.  1.
         21    1    1    2  503  505 -0.45360245665E+02 -0.93992146036E+01  0.70312748153E+02  0.84200829419E+02  0.00000000000E+00 0.  1.
         21    1    1    2  504  502 -0.66098768090E+01 -0.53241044335E+02  0.34097169140E+03  0.34516661717E+03  0.00000000000E+00 0.  1.
         21    1    1    2  505  501 -0.98266580858E+02  0.62541543142E+02  0.42848913890E+03  0.44403908351E+03  0.00000000000E+00 0.  1.
          2    1    1    2  501    0  0.15023670333E+03  0.98715796986E-01 -0.26612691158E+04  0.26655064029E+04  0.00000000000E+00 0.  1.
<scales pt_clust_3="46.32383" pt_clust_4="63.20230" pt_clust_5="14000.00000" pt_clust_6="149.98568"></scales>
<clustering>
<clus scale="   46.324">  1  3  2 -1</clus>
<clus scale="   63.202">  1  4  2 -1</clus>
<clus scale="  149.986">  2  6  1 -1</clus>
<clus scale="   46.324">  1  3  2 -1</clus>
</clustering>
</event>
<event>
 6    0  0.4017242E+002  0.2145226E+03  0.7546771E-02  0.1138034E+00
         21   -1    0    0  501  502  0.00000000000E+00  0.00000000000E+00  0.35340152389E+03  0.35340152389E+03  0.00000000000E+00 0. -1.
          2   -1    0    0  504    0 -0.00000000000E+00 -0.00000000000E+00 -0.55521142769E+03  0.55521142769E+03  0.00000000000E+00 0. -1.
         21    1    1    2  503  502  0.18905301891E+01  0.62060490528E+02  0.73867041743E+02  0.96495691328E+02  0.00000000000E+00 0. -1.
         21    1    1    2  504  505 -0.10132309523E+03 -0.99781826449E+02 -0.10777551254E+03  0.17843302278E+03  0.00000000000E+00 0. -1.
         21    1    1    2  505  503  0.10977878015E+03  0.13188821101E+03  0.19434221956E+03  0.25925813213E+03  0.00000000000E+00 0. -1.
          2    1    1    2  501    0 -0.10346215113E+02 -0.94166875091E+02 -0.36224365256E+03  0.37442610533E+03  0.00000000000E+00 0. -1.
<scales pt_clust_3="40.52337" pt_clust_4="203.67006" pt_clust_5="40.52337" pt_clust_6="94.73354"></scales>
<clustering>
<clus scale="   40.523">  3  5 -1 -1</clus>
<clus scale="   94.734">  2  6  1 -1</clus>
<clus scale="  203.670">  2  4  1 -1</clus>
<clus scale="  214.523">  1  3  2 -1</clus>
</clustering>
</event>
<event>
 6    0  0.4017242E+002  0.1325734E+03  0.7546771E-02  0.1223686E+00
         21   -1    0    0  501  502  0.00000000000E+00  0.00000000000E+00  0.18192784431E+04  0.18192784431E+04  0.00000000000E+00 0.  1.
          3   -1    0    0  504    0 -0.00000000000E+00 -0.00000000000E+00 -0.24080979978E+02  0.24080979978E+02  0.00000000000E+00 0.  1.
         21    1    1    2  503  505 -0.15237923844E+02 -0.56049850975E+02  0.20332680483E+03  0.21146056294E+03  0.00000000000E+00 0.  1.
         21    1    1    2  504  503  0.32279099109E+02 -0.71745189576E+02  0.27824240567E+03  0.28915073713E+03  0.00000000000E+00 0.  1.
         21    1    1    2  505  502 -0.62579023073E+02  0.84426021928E+01  0.10270267379E+04  0.10289661471E+04  0.00000000000E+00 0.  1.
          3    1    1    2  501    0  0.45537847807E+02  0.11935243836E+03  0.28660151478E+03  0.31378197590E+03  0.00000000000E+00 0.  1.
<scales pt_clust_3="39.19523" pt_clust_4="39.19523" pt_clust_5="63.14596" pt_clust_6="124.47860"></scales>
<clustering>
<clus scale="   39.195">  3  4 -1 -1</clus>
<clus scale="   63.146">  1  5  2 -1</clus>
<clus scale="  124.479">  2  6  1 -1</clus>
<clus scale="   63.146">  1  3  2 -1</clus>
</clustering>
</event>
<event>
 6    0  0.4017242E+002  0.1045081E+03  0.7546771E-02  0.1271092E+00
          1   -1    0    0  504    0 -0.00000000000E+00  0.00000000000E+00  0.11561433192E+03  0.11561433192E+03  0.00000000000E+00 0. -1.
         21   -1    0    0  503  502  0.00000000000E+00 -0.00000000000E+00 -0.44424182503E+03  0.44424182503E+03  0.00000000000E+00 0.  1.
         21    1    1    2  503  501  0.39735530667E+02  0.79357093408E+01 -0.17442164557E+03  0.17906646342E+03  0.00000000000E+00 0.  1.
         21    1    1    2  504  505  0.11500366814E+03  0.16856477816E+02  0.21235160688E+01  0.11625185526E+03  0.00000000000E+00 0. -1.
         21    1    1    2  505  502 -0.67548192603E+02  0.16356589622E+02 -0.15302478308E+03  0.16806808318E+03  0.00000000000E+00 0. -1.
          1    1    1    2  501    0 -0.87191006209E+02 -0.41148776779E+02 -0.33045805322E+01  0.96469755087E+02  0.00000000000E+00 0. -1.
<scales pt_clust_3="40.52022" pt_clust_4="104.50814" pt_clust_5="48.53556" pt_clust_6="14000.00000"></scales>
<clustering>
<clus scale="   40.520">  2  3  1 -1</clus>
<clus scale="   48.536">  2  5  1 -1</clus>
<clus scale="  104.508">  2  4  1 -1</clus>
<clus scale="   40.520">  2  3  1 -1</clus>
</clustering>
</event>
<event>
 6    0  0.4017242E+002  0.7052335E+02  0.7546771E-02  0.1358322E+00
          1   -1    0    0  505    0 -0.00000000000E+00  0.00000000000E+00  0.18879183545E+04  0.18879183545E+04  0.00000000000E+00 0.  1.
         21   -1    0    0  504  502  0.00000000000E+00 -0.00000000000E+00 -0.55027599217E+02  0.55027599217E+02  0.00000000000E+00 0.  1.
         21    1    1    2  503  502 -0.45313128185E+02 -0.32997396774E+02 -0.28638381752E+02  0.62946522454E+02  0.00000000000E+00 0.  1.
         21    1    1    2  504  501  0.37876248428E+02 -0.45872668807E+02  0.16254919551E+03  0.17309290251E+03  0.00000000000E+00 0. -1.
         21    1    1    2  505  503 -0.16710255610E+02 -0.25245685123E+02  0.10314058072E+03  0.10749212367E+03  0.00000000000E+00 0. -1.
          1    1    1    2  501    0  0.24147135367E+02  0.10411575070E+03  0.15958393608E+04  0.15994144050E+04  0.00000000000E+00 0.  1.
<scales pt_clust_3="56.32760" pt_clust_4="70.52335" pt_clust_5="30.27503" pt_clust_6="14000.00000"></scales>
<clustering>
<clus scale="   30.275">  1  5  2 -1</clus>
<clus scale="   56.328">  2  3  1 -1</clus>
<clus scale="   70.523">  2  4  1 -1</clus>
<clus scale="   56.328">  2  3  1 -1</clus>
</clustering>
</event>
<event>
 6    0  0.4017242E+002  0.1012976E+03  0.7546771E-02  0.1277591E+00
         21   -1    0    0  504  502  0.00000000000E+00  0.00000000000E+00  0.70065432470E+02  0.70065432470E+02  0.00000000000E+00 0.  1.
          1   -1    0    0  505    0 -0.00000000000E+00 -0.00000000000E+00 -0.13140817727E+04  0.13140817727E+04  0.00000000000E+00 0. -1.
         21    1    1    2  503  502 -0.33418948440E+02 -0.97090196922E+02  0.19241178456E+02  0.10446796352E+03  0.00000000000E+00 0.  1.
         21    1    1    2  504  501  0.17061263880E+02  0.76284040656E+02 -0.72477452768E+03  0.72897767974E+03  0.00000000000E+00 0. -1.
         21    1    1    2  505  503  0.56206414023E+02  0.19265648414E+02 -0.17034464933E+03  0.18040960546E+03  0.00000000000E+00 0. -1.
          1    1    1    2  501    0 -0.39848729463E+02  0.15405078517E+01 -0.36813834171E+03  0.37029195649E+03  0.00000000000E+00 0. -1.
<scales pt_clust_3="14000.00000" pt_clust_4="101.29756" pt_clust_5="52.58030" pt_clust_6="39.87850"></scales>
<clustering>
<clus scale="   39.878">  2  6  1 -1</clus>
<clus scale="   52.580">  2  5  1 -1</clus>
<clus scale="  101.298">  2  4  1 -1</clus>
<clus scale="  101.298">  1  3  2 -1</clus>
</clustering>
</event>
<event>
 6    0  0.5143263E+002  0.1051912E+03  0.7546771E-02  0.1269743E+00
          1   -1    0    0  503    0 -0.00000000000E+00  0.00000000000E+00  0.25241152328E+04  0.25241152328E+04  0.00000000000E+00 0.  1.
         21   -1    0    0  505  502  0.00000000000E+00 -0.00000000000E+00 -0.21220204776E+03  0.21220204776E+03  0.00000000000E+00 0.  1.
         21    1    1    2  503  502  0.33626891777E+02 -0.28823952573E+02  0.26716022988E+02  0.51723630739E+02  0.00000000000E+00 0. -1.
         21    1    1    2  504  501 -0.36051577322E+02 -0.45558534921E+02 -0.39791938349E+02  0.70417999753E+02  0.00000000000E+00 0.  1.
         21    1    1    2  505  504 -0.33313182331E+02 -0.25657451204E+02 -0.14036807701E+03  0.14653078162E+03  0.00000000000E+00 0.  1.
          1    1    1    2  501    0  0.35737867876E+02  0.10003993870E+03  0.24653571774E+04  0.24676448685E+04  0.00000000000E+00 0.  1.
<scales pt_clust_3="43.37748" pt_clust_4="105.19125" pt_clust_5="42.04846" pt_clust_6="14000.00000"></scales>
<clustering>
<clus scale="   42.048">  2  5  1 -1</clus>
<clus scale="   43.377">  2  3  1 -1</clus>
<clus scale="  105.191">  2  4  1 -1</clus>
<clus scale="   42.048">  2  3  1 -1</clus>
</clustering>
</event>
<event>
 6    0  0.4017242E+002  0.8677419E+02  0.7546771E-02  0.1310857E+00
          2   -1    0    0  503    0 -0.00000000000E+00  0.00000000000E+00  0.25181031383E+04  0.25181031383E+04  0.00000000000E+00 0.  1.
         21   -1    0    0  505  502  0.00000000000E+00 -0.00000000000E+00 -0.35791694485E+03  0.35791694485E+03  0.00000000000E+00 0. -1.
         21    1    1    2  503  502  0.19883505285E+02 -0.11623621516E+03 -0.31367595080E+03  0.33511015145E+03  0.00000000000E+00 0. -1.
         21    1    1    2  504  501  0.15168129906E+02  0.45665663546E+02 -0.22304444672E+01  0.48170529107E+02  0.00000000000E+00 0.  1.
         21    1    1    2  505  504 -0.32802512618E+02 -0.16103370097E+02  0.36643744889E+02  0.51750240598E+02  0.00000000000E+00 0. -1.
          2    1    1    2  501    0 -0.22491225729E+01  0.86673921711E+02  0.24394488438E+04  0.24409891619E+04  0.00000000000E+00 0.  1.
<scales pt_clust_3="14000.00000" pt_clust_4="46.31385" pt_clust_5="36.54208" pt_clust_6="86.77419"></scales>
<clustering>
<clus scale="   36.542">  2  5  1 -1</clus>
<clus scale="   46.314">  2  4  1 -1</clus>
<clus scale="   86.774">  1  6  2 -1</clus>
<clus scale="   36.542">  2  3  1 -1</clus>
</clustering>
</event>
<event>
 6    0  0.4017242E+002  0.1204218E+03  0.7546771E-02  0.1242403E+00
         21   -1    0    0  505  502  0.00000000000E+00  0.00000000000E+00  0.14950126403E+03  0.14950126403E+03  0.00000000000E+00 0.  1.
          1   -1    0    0  504    0 -0.00000000000E+00 -0.00000000000E+00 -0.52930246456E+03  0.52930246456E+03  0.00000000000E+00 0.  1.
         21    1    1    2  503  502 -0.55987973271E+02  0.12712326854E+03  0.63510002017E+02  0.15273669799E+03  0.00000000000E+00 0.  1.
         21    1    1    2  504  503 -0.28643037726E+01  0.40011900660E+02 -0.34340051088E+02  0.52805260527E+02  0.00000000000E+00 0. -1.
         21    1    1    2  505  501  0.14221985371E+02 -0.89524375655E+02 -0.50468762923E+02  0.10374957704E+03  0.00000000000E+00 0.  1.
          1    1    1    2  501    0  0.44630291673E+02 -0.77610793549E+02 -0.35850238854E+03  0.36951219303E+03  0.00000000000E+00 0.  1.
<scales pt_clust_3="14000.00000" pt_clust_4="40.11429" pt_clust_5="120.42184" pt_clust_6="63.82072"></scales>
<clustering>
<clus scale="   40.114">  2  4  1 -1</clus>
<clus scale="   63.821">  2  6  1 -1</clus>
<clus scale="  120.422">  2  5  1 -1</clus>
<clus scale="  120.422">  1  3  2 -1</clus>
</clustering>
</event>
<event>
 6    0  0.4017242E+002  0.1221240E+03  0.7546771E-02  0.1239634E+00
          2   -1    0    0  503    0 -0.00000000000E+00  0.00000000000E+00  0.10207321207E+04  0.10207321207E+04  0.00000000000E+00 0. -1.
         21   -1    0    0  505  502  0.00000000000E+00 -0.00000000000E+00 -0.13001221576E+04  0.13001221576E+04  0.00000000000E+00 0. -1.
         21    1    1    2  503  504 -0.38711147793E+02  0.11899554176E+02  0.10177918529E+02  0.41758141466E+02  0.00000000000E+00 0.  1.
         21    1    1    2  504  502 -0.11097884094E+02  0.45534697033E+02 -0.20242974548E+02  0.51052420939E+02  0.00000000000E+00 0.  1.
         21    1    1    2  505  501 -0.72023525385E+02  0.44008243926E+02 -0.12408253755E+04  0.12436927781E+04  0.00000000000E+00 0. -1.
          2    1    1    2  501    0  0.12183255727E+03 -0.10144249513E+03  0.97150039465E+03  0.98435093774E+03  0.00000000000E+00 0. -1.
<scales pt_clust_3="40.49879" pt_clust_4="47.19166" pt_clust_5="14000.00000" pt_clust_6="122.12395"></scales>
<clustering>
<clus scale="   40.499">  1  3  2 -1</clus>
<clus scale="   47.192">  2  4  1 -1</clus>
<clus scale="  122.124">  1  6  2 -1</clus>
<clus scale="   47.192">  2  3  1 -1</clus>
</clustering>
</event>
<event>
 6    0  0.4017242E+002  0.8974300E+02  0.7546771E-02  0.1303475E+00
          2   -1    0    0  503    0 -0.00000000000E+00  0.00000000000E+00  0.15924355157E+04  0.15924355157E+04  0.00000000000E+00 0.  1.
         21   -1    0    0  505  502  0.00000000000E+00 -0.00000000000E+00 -0.89400600599E+03  0.89400600599E+03  0.00000000000E+00 0.  1.
         21    1    1    2  503  502  0.71792634624E+01  0.53978381932E+02 -0.13878151813E+03  0.14908225017E+03  0.00000000000E+00 0.  1.
         21    1    1    2  504  501  0.46252779256E+01 -0.10347694029E+03 -0.99471495663E+02  0.14360866553E+03  0.00000000000E+00 0.  1.
         21    1    1    2  505  504 -0.30962385003E+02  0.82804827195E+02 -0.62518805364E+03  0.63140748420E+03  0.00000000000E+00 0.  1.
          2    1    1    2  501    0  0.19157843615E+02 -0.33306268841E+02  0.15618705771E+04  0.15623431218E+04  0.00000000000E+00 0.  1.
<scales pt_clust_3="49.43572" pt_clust_4="89.74300" pt_clust_5="14000.00000" pt_clust_6="38.42305"></scales>
<clustering>
<clus scale="   38.423">  1  6  2 -1</clus>
<clus scale="   49.436">  1  3  2 -1</clus>
<clus scale="   89.743">  1  4  2 -1</clus>
<clus scale="   89.743">  2  3  1 -1</clus>
</clustering>
</event>
<event>
 6    0  0.4017242E+002  0.2640776E+03  0.7546771E-02  0.1104718E+00
         21   -1    0    0  504  502  0.00000000000E+00  0.00000000000E+00  0.22949068571E+04  0.22949068571E+04  0.00000000000E+00 0.  1.
          2   -1    0    0  503    0 -0.00000000000E+00 -0.00000000000E+00 -0.21124169710E+03  0.21124169710E+03  0.00000000000E+00 0. -1.
         21    1    1    2  503  505 -0.54106714260E+02 -0.70525201128E+02  0.45332191585E+03  0.46195465136E+03  0.00000000000E+00 0.  1.
         21    1    1    2  504  501  0.25557185934E+03  0.63432910779E+02  0.31117325963E+03  0.40763894191E+03  0.00000000000E+00 0.  1.
         21    1    1    2  505  502 -0.14997034657E+03 -0.74114513125E+02  0.14580610578E+04  0.14676260131E+04  0.00000000000E+00 0.  1.
          2    1    1    2  501    0 -0.51494798515E+02  0.81206803474E+02 -0.13889107326E+03  0.16892894789E+03  0.00000000000E+00 0. -1.
<scales pt_clust_3="62.40326" pt_clust_4="249.81674" pt_clust_5="62.40326" pt_clust_6="96.15747"></scales>
<clustering>
<clus scale="   62.403">  3  5 -1 -1</clus>
<clus scale="   96.157">  2  6  1 -1</clus>
<clus scale="  249.817">  2  4  1 -1</clus>
<clus scale="  264.078">  1  3  2 -1</clus>
</clustering>
</event>
<event>
 6    0  0.4017242E+002  0.7675665E+02  0.7546771E-02  0.1338516E+00
         21   -1    0    0  504  502  0.00000000000E+00  0.00000000000E+00  0.14106555920E+03  0.14106555920E+03  0.00000000000E+00 0. -1.
          2   -1    0    0  503    0 -0.00000000000E+00 -0.00000000000E+00 -0.27001059753E+03  0.27001059753E+03  0.00000000000E+00 0. -1.
         21    1    1    2  503  505 -0.37538135853E+02 -0.40328144349E+02  0.81761444753E+01  0.55698475817E+02  0.00000000000E+00 0. -1.
         21    1    1    2  504  501  0.85115308253E+02 -0.42026928701E+02 -0.39806658727E+02  0.10293419507E+03  0.00000000000E+00 0. -1.
         21    1    1    2  505  502 -0.32876289755E+02  0.36641002837E+01  0.64176236358E+02  0.72200175706E+02  0.00000000000E+00 0. -1.
          2    1    1    2  501    0 -0.14700882646E+02  0.78690972766E+02 -0.16149076043E+03  0.18024331014E+03  0.00000000000E+00 0. -1.
<scales pt_clust_3="64.79023" pt_clust_4="14000.00000" pt_clust_5="33.07984" pt_clust_6="76.75665"></scales>
<clustering>
<clus scale="   33.080">  1  5  2 -1</clus>
<clus scale="   64.790">  1  3  2 -1</clus>
<clus scale="   76.757">  2  6  1 -1</clus>
<clus scale="   33.080">  1  3  2 -1</clus>
</clustering>
</event>
<event>
 6    0  0.4017242E+002  0.1109031E+03  0.7546771E-02  0.1258907E+00
         21   -1    0    0  503  502  0.00000000000E+00  0.00000000000E+00  0.11867865181E+03  0.11867865181E+03  0.00000000000E+00 0. -1.
          2   -1    0    0  504    0 -0.00000000000E+00 -0.00000000000E+00 -0.19770522785E+04  0.19770522785E+04  0.00000000000E+00 0. -1.
         21    1    1    2  503  505 -0.11308049436E+03  0.36375523642E+02  0.53582798686E+02  0.13031305859E+03  0.00000000000E+00 0. -1.
         21    1    1    2  504  502  0.27533249146E+02 -0.25446622752E+02 -0.81585319011E+02  0.89787386064E+02  0.00000000000E+00 0. -1.
         21    1    1    2  505  501  0.97318217037E+02  0.37056081688E+02 -0.99416641147E+02  0.14397102866E+03  0.00000000000E+00 0. -1.
          2    1    1    2  501    0 -0.11770971825E+02 -0.47984982578E+02 -0.17309544653E+04  0.17316594570E+04  0.00000000000E+00 0. -1.
<scales pt_clust_3="110.90306" pt_clust_4="37.49147" pt_clust_5="14000.00000" pt_clust_6="72.53276"></scales>
<clustering>
<clus scale="   37.491">  2  4  1 -1</clus>
<clus scale="   72.533">  2  6  1 -1</clus>
<clus scale="  110.903">  1  3  2 -1</clus>
<clus scale="  110.903">  1  3  2 -1</clus>
</clustering>
</event>
<event>
 6    0  0.4017242E+002  0.2832747E+03  0.7546771E-02  0.1093914E+00
          2   -1    0    0  503    0 -0.00000000000E+00  0.00000000000E+00  0.23069222102E+04  0.23069222102E+04  0.00000000000E+00 0.  1.
         21   -1    0    0  504  502  0.00000000000E+00 -0.00000000000E+00 -0.10567840851E+03  0.10567840851E+03  0.00000000000E+00 0.  1.
         21    1    1    2  503  505 -0.32010089598E+01 -0.66742476989E+02  0.20282107566E+03  0.21354435939E+03  0.00000000000E+00 0. -1.
         21    1    1    2  504  501  0.14631284011E+03  0.20735252945E+03  0.17224664753E+03  0.30671065556E+03  0.00000000000E+00 0.  1.
         21    1    1    2  505  502 -0.14735428197E+03 -0.26561951129E+03  0.75380985318E+03  0.81270923702E+03  0.00000000000E+00 0.  1.
          2    1    1    2  501    0  0.42424508214E+01  0.12500945883E+03  0.10723662253E+04  0.10796363667E+04  0.00000000000E+00 0.  1.
<scales pt_clust_3="32.90592" pt_clust_4="274.44896" pt_clust_5="32.90592" pt_clust_6="125.08143"></scales>
<clustering>
<clus scale="   32.906">  3  5 -1 -1</clus>
<clus scale="  125.081">  1  6  2 -1</clus>
<clus scale="  274.449">  2  4  1 -1</clus>
<clus scale="  274.449">  2  3  1 -1</clus>
</clustering>
</event>
<event>
 6    0  0.4017242E+002  0.8933618E+02  0.7546771E-02  0.1304467E+00
         21   -1    0    0  503  502  0.00000000000E+00  0.00000000000E+00  0.37654318631E+02  0.37654318631E+02  0.00000000000E+00 0. -1.
         -2   -1    0    0    0  501 -0.00000000000E+00 -0.00000000000E+00 -0.12608666598E+04  0.12608666598E+04  0.00000000000E+00 0.  1.
         21    1    1    2  503  501 -0.34037954265E+02  0.39496002619E+02 -0.32273070128E+02  0.61319390154E+02  0.00000000000E+00 0. -1.
         21    1    1    2  504  505  0.23220905097E+02 -0.39463665685E+02 -0.73312600694E+02  0.86436848412E+02  0.00000000000E+00 0. -1.
         21    1    1    2  505  502  0.79832133295E+02 -0.24035358267E+02 -0.98607034560E+02  0.12912867698E+03  0.00000000000E+00 0. -1.
         -2    1    1    2    0  504 -0.69015084127E+02  0.24003021333E+02 -0.10190196358E+04  0.10216360629E+04  0.00000000000E+00 0.  1.
<scales pt_clust_3="52.13940" pt_clust_4="35.23146" pt_clust_5="35.23146" pt_clust_6="75.63645"></scales>
<clustering>
<clus scale="   35.231">  4  5 -1 -1</clus>
<clus scale="   52.139">  1  3  2 -1</clus>
<clus scale="   75.636">  2  6  1 -1</clus>
<clus scale="   52.139">  1  3  2 -1</clus>
</clustering>
</event>
<event>
 6    0  0.4017242E+002  0.1232575E+03  0.7546771E-02  0.1237818E+00
         21   -1    0    0  504  502  0.00000000000E+00  0.00000000000E+00  0.43734966052E+03  0.43734966052E+03  0.00000000000E+00 0.  1.
         -2   -1    0    0    0  501 -0.00000000000E+00 -0.00000000000E+00 -0.17825435322E+03  0.17825435322E+03  0.00000000000E+00 0. -1.
         21    1    1    2  503  502 -0.88753878047E+02 -0.95232659240E+02  0.37986228376E+03  0.40154933057E+03  0.00000000000E+00 0.  1.
         21    1    1    2  504  505  0.90791834010E+01  0.40593474426E+02  0.91680835230E+01  0.42594782459E+02  0.00000000000E+00 0.  1.
         21    1    1    2  505  501  0.68318809404E+01  0.31525026559E+02 -0.58736292080E+02  0.67010849151E+02  0.00000000000E+00 0. -1.
         -2    1    1    2    0  503  0.72842813706E+02  0.23114158255E+02 -0.71198767904E+02  0.10444905156E+03  0.00000000000E+00 0. -1.
<scales pt_clust_3="14000.00000" pt_clust_4="46.26885" pt_clust_5="32.25681" pt_clust_6="123.25746"></scales>
<clustering>
<clus scale="   32.257">  2  5  1 -1</clus>
<clus scale="   46.269">  2  4  1 -1</clus>
<clus scale="  123.257">  2  6  1 -1</clus>
<clus scale="  123.257">  1  3  2 -1</clus>
</clustering>
</event>
<event>
 6    0  0.4017242E+002  0.8594863E+02  0.7546771E-02  0.1312970E+00
          1   -1    0    0  504    0 -0.00000000000E+00  0.00000000000E+00  0.10545227350E+04  0.10545227350E+04  0.00000000000E+00 0.  1.
         21   -1    0    0  503  502  0.00000000000E+00 -0.00000000000E+00 -0.52530441205E+03  0.52530441205E+03  0.00000000000E+00 0.  1.
         21    1    1    2  503  501 -0.36130647789E+02  0.48002152869E+01 -0.48317367026E+03  0.48454644918E+03  0.00000000000E+00 0.  1.
         21    1    1    2  504  505 -0.47828706332E+02 -0.36950691693E+02  0.30172099402E+02  0.67552160205E+02  0.00000000000E+00 0.  1.
         21    1    1    2  505  502  0.52054126637E+02 -0.51827692567E+02  0.44853640917E+02  0.86067362689E+02  0.00000000000E+00 0.  1.
          1    1    1    2  501    0  0.31905227485E+02  0.83978168973E+02  0.93736625292E+03  0.94166117501E+03  0.00000000000E+00 0.  1.
<scales pt_clust_3="36.44812" pt_clust_4="85.94863" pt_clust_5="60.05405" pt_clust_6="14000.00000"></scales>
<clustering>
<clus scale="   36.448">  2  3  1 -1</clus>
<clus scale="   60.054">  2  5  1 -1</clus>
<clus scale="   85.949">  2  4  1 -1</clus>
<clus scale="   36.448">  2  3  1 -1</clus>
</clustering>
</event>
<event>
 6    0  0.4017242E+002  0.8753722E+02  0.7546771E-02  0.1308928E+00
          2   -1    0    0  505    0 -0.00000000000E+00  0.00000000000E+00  0.21925069514E+04  0.21925069514E+04  0.00000000000E+00 0. -1.
         21   -1    0    0  503  502  0.00000000000E+00 -0.00000000000E+00 -0.59559144822E+03  0.59559144822E+03  0.00000000000E+00 0. -1.
         21    1    1    2  503  504 -0.25787647134E+02  0.18347196527E+02 -0.57845256400E+03  0.57931769450E+03  0.00000000000E+00 0. -1.
         21    1    1    2  504  501  0.28679148767E+02  0.30751095612E+02  0.21699124076E+02  0.47317813147E+02  0.00000000000E+00 0. -1.
         21    1    1    2  505  502  0.39980404384E+02 -0.10485275765E+03  0.14223432992E+04  0.14267631178E+04  0.00000000000E+00 0. -1.
          2    1    1    2  501    0 -0.42871906017E+02  0.55754465511E+02  0.73132564392E+03  0.73469977420E+03  0.00000000000E+00 0. -1.
<scales pt_clust_3="31.64842" pt_clust_4="45.69502" pt_clust_5="14000.00000" pt_clust_6="87.53722"></scales>
<clustering>
<clus scale="   31.648">  2  3  1 -1</clus>
<clus scale="   45.695">  2  4  1 -1</clus>
<clus scale="   87.537">  1  6  2 -1</clus>
<clus scale="   31.648">  2  3  1 -1</clus>
</clustering>
</event>
<event>
 6    0  0.4017242E+002  0.1078594E+03  0.7546771E-02  0.1264586E+00
         21   -1    0    0  505  502  0.00000000000E+00  0.00000000000E+00  0.32445349205E+03  0.32445349205E+03  0.00000000000E+00 0. -1.
          1   -1    0    0  504    0 -0.00000000000E+00 -0.00000000000E+00 -0.10116268842E+04  0.10116268842E+04  0.00000000000E+00 0.  1.
         21    1    1    2  503  501  0.34325690917E+02  0.81871775231E+02  0.42581460406E+02  0.98460252929E+02  0.00000000000E+00 0. -1.
         21    1    1    2  504  502 -0.20455134024E+02  0.23245979842E+02 -0.14429759065E+02  0.34161470013E+02  0.00000000000E+00 0. -1.
         21    1    1    2  505  503  0.24229242706E+02 -0.14347609564E+03  0.22153082028E+03  0.26504405399E+03  0.00000000000E+00 0. -1.
          1    1    1    2  501    0 -0.38099799598E+02  0.38358340563E+02 -0.93685591381E+03  0.93841459935E+03  0.00000000000E+00 0.  1.
<scales pt_clust_3="14000.00000" pt_clust_4="30.96430" pt_clust_5="107.85943" pt_clust_6="54.14095"></scales>
<clustering>
<clus scale="   30.964">  1  4  2 -1</clus>
<clus scale="   54.141">  2  6  1 -1</clus>
<clus scale="  107.859">  1  5  2 -1</clus>
<clus scale="   30.964">  1  3  2 -1</clus>
</clustering>
</event>
<event>
 6    0  0.4017242E+002  0.7383680E+02  0.7546771E-02  0.1347511E+00
          2   -1    0    0  503    0 -0.00000000000E+00  0.00000000000E+00  0.27350895645E+04  0.27350895645E+04  0.00000000000E+00 0.  1.
         21   -1    0    0  505  502  0.00000000000E+00 -0.00000000000E+00 -0.10379590871E+03  0.10379590871E+03  0.00000000000E+00 0.  1.
         21    1    1    2  503  504 -0.47335993292E+02 -0.39256279499E+01  0.60166207407E+03  0.60353405719E+03  0.00000000000E+00 0. -1.
         21    1    1    2  504  502  0.24584219774E+02  0.40328411434E+02 -0.93537538701E+02  0.10478566589E+03  0.00000000000E+00 0.  1.
         21    1    1    2  505  501 -0.44826201069E+02 -0.67578647874E+02  0.58460696398E+03  0.59020467999E+03  0.00000000000E+00 0.  1.
          2    1    1    2  501    0  0.67577974588E+02  0.31175864390E+02  0.15385621564E+04  0.15403610701E+04  0.00000000000E+00 0.  1.
<scales pt_clust_3="42.58030" pt_clust_4="47.23097" pt_clust_5="14000.00000" pt_clust_6="73.83680"></scales>
<clustering>
<clus scale="   47.231">  2  4  1 -1</clus>
<clus scale="   42.580">  2  3  1 -1</clus>
<clus scale="   73.837">  1  6  2 -1</clus>
<clus scale="   47.231">  2  3  1 -1</clus>
</clustering>
</event>
<event>
 6    0  0.4017242E+002  0.1896810E+03  0.7546771E-02  0.1158749E+00
          2   -1    0    0  503    0 -0.00000000000E+00  0.00000000000E+00  0.42690427123E+04  0.42690427123E+04  0.00000000000E+00 0.  1.
         21   -1    0    0  504  502  0.00000000000E+00 -0.00000000000E+00 -0.50872036059E+02  0.50872036059E+02  0.00000000000E+00 0.  1.
         21    1    1    2  503  502  0.88087725063E+02  0.96101826658E+01  0.20434794862E+03  0.22273277043E+03  0.00000000000E+00 0.  1.
         21    1    1    2  504  505  0.12274696640E+03 -0.97345276892E+01  0.66194378248E+02  0.13979726214E+03  0.00000000000E+00 0.  1.
         21    1    1    2  505  501 -0.16771699987E+03 -0.24728142119E+02  0.15506378654E+04  0.15598776435E+04  0.00000000000E+00 0.  1.
          2    1    1    2  501    0 -0.43117691595E+02  0.24852487142E+02  0.23969904839E+04  0.23975070722E+04  0.00000000000E+00 0.  1.
<scales pt_clust_3="84.09474" pt_clust_4="14000.00000" pt_clust_5="189.68104" pt_clust_6="49.76727"></scales>
<clustering>
<clus scale="   49.767">  1  6  2 -1</clus>
<clus scale="   84.095">  2  3  1 -1</clus>
<clus scale="  189.681">  1  5  2 -1</clus>
<clus scale="   84.095">  2  3  1 -1</clus>
</clustering>
</event>
<event>
 6    0  0.4017242E+002  0.1663009E+03  0.7546771E-02  0.1181761E+00
         21   -1    0    0  505  502  0.00000000000E+00  0.00000000000E+00  0.11982529878E+04  0.11982529878E+04  0.00000000000E+00 0.  1.
          2   -1    0    0  503    0 -0.00000000000E+00 -0.00000000000E+00 -0.10525194715E+03  0.10525194715E+03  0.00000000000E+00 0. -1.
         21    1    1    2  503  504 -0.26727751399E+02 -0.60388528699E+02  0.75647367600E+02  0.10041748512E+03  0.00000000000E+00 0.  1.
         21    1    1    2  504  502 -0.13748341922E+02 -0.11224120524E+03  0.31021640044E+03  0.33018376726E+03  0.00000000000E+00 0.  1.
         21    1    1    2  505  501  0.58221916419E+02  0.13061487826E+03  0.77668206450E+03  0.78973734070E+03  0.00000000000E+00 0.  1.
          2    1    1    2  501    0 -0.17745823098E+02  0.42014855674E+02 -0.69544791911E+02  0.83166341850E+02  0.00000000000E+00 0. -1.
<scales pt_clust_3="52.74795" pt_clust_4="52.74795" pt_clust_5="150.22898" pt_clust_6="45.60880"></scales>
<clustering>
<clus scale="   45.609">  2  6  1 -1</clus>
<clus scale="   52.748">  3  4 -1 -1</clus>
<clus scale="  150.229">  1  5  2 -1</clus>
<clus scale="  150.229">  1  3  2 -1</clus>
</clustering>
</event>
<event>
 6    0  0.4017242E+002  0.1022641E+03  0.7546771E-02  0.1275606E+00
         21   -1    0    0  504  502  0.00000000000E+00  0.00000000000E+00  0.52794840065E+03  0.52794840065E+03  0.00000000000E+00 0. -1.
          2   -1    0    0  503    0 -0.00000000000E+00 -0.00000000000E+00 -0.20524459553E+04  0.20524459553E+04  0.00000000000E+00 0.  1.
         21    1    1    2  503  502 -0.37993404227E+02  0.11898551559E+03 -0.25759534881E+03  0.28628030916E+03  0.00000000000E+00 0.  1.
         21    1    1    2  504  505  0.25253306741E+02  0.18450941087E+02  0.44293865064E+03  0.44404145635E+03  0.00000000000E+00 0. -1.
         21    1    1    2  505  501 -0.20470235484E+02 -0.11470130522E+03  0.21316452412E+02  0.11844750358E+03  0.00000000000E+00 0. -1.
          2    1    1    2  501    0  0.33210332970E+02 -0.22735151452E+02 -0.17311573089E+04  0.17316250869E+04  0.00000000000E+00 0.  1.
<scales pt_clust_3="102.26408" pt_clust_4="31.27566" pt_clust_5="14000.00000" pt_clust_6="40.27583"></scales>
<clustering>
<clus scale="   31.276">  1  4  2 -1</clus>
<clus scale="   40.276">  2  6  1 -1</clus>
<clus scale="  102.264">  2  3  1 -1</clus>
<clus scale="   31.276">  1  3  2 -1</clus>
</clustering>
</event>
<event>
 6    0  0.4017242E+002  0.1682185E+03  0.7546771E-02  0.1179718E+00
         -2   -1    0    0    0  501 -0.00000000000E+00  0.00000000000E+00  0.63543674700E+03  0.63543674700E+03  0.00000000000E+00 0. -1.
         21   -1    0    0  503  502  0.00000000000E+00 -0.00000000000E+00 -0.88740382265E+03  0.88740382265E+03  0.00000000000E+00 0.  1.
         21    1    1    2  503  501 -0.69359799283E+02  0.10040501870E+03 -0.51929426446E+03  0.53344023342E+03  0.00000000000E+00 0.  1.
         21    1    1    2  504  502  0.29214690030E+02  0.24314194506E+02 -0.28616360174E+03  0.28867678315E+03  0.00000000000E+00 0.  1.
         21    1    1    2  505  504  0.16256319793E+02  0.43106161026E+02 -0.53444286312E+02  0.70559909234E+02  0.00000000000E+00 0.  1.
         -2    1    1    2    0  505  0.23888789459E+02 -0.16782537423E+03  0.60693507686E+03  0.63016364384E+03  0.00000000000E+00 0. -1.
<scales pt_clust_3="168.21852" pt_clust_4="38.00892" pt_clust_5="49.52386" pt_clust_6="14000.00000"></scales>
<clustering>
<clus scale="   38.009">  2  4  1 -1</clus>
<clus scale="   49.524">  2  5  1 -1</clus>
<clus scale="  168.219">  2  3  1 -1</clus>
<clus scale="   38.009">  2  3  1 -1</clus>
</clustering>
</event>
<event>
 6    0  0.4017242E+002  0.9582496E+02  0.7546771E-02  0.1289329E+00
         21   -1    0    0  504  502  0.00000000000E+00  0.00000000000E+00  0.72580911452E+02  0.72580911452E+02  0.00000000000E+00 0. -1.
          1   -1    0    0  505    0 -0.00000000000E+00 -0.00000000000E+00 -0.58350259914E+03  0.58350259914E+03  0.00000000000E+00 0. -1.
         21    1    1    2  503  502  0.13393545832E+02 -0.11174344129E+03 -0.18224761053E+03  0.21419658094E+03  0.00000000000E+00 0. -1.
         21    1    1    2  504  501  0.64286824036E+02  0.75205300788E+02 -0.12182190832E+01  0.98945020435E+02  0.00000000000E+00 0. -1.
         21    1    1    2  505  503 -0.36636080710E+02  0.28606988945E+02 -0.84727834803E+02  0.96640406749E+02  0.00000000000E+00 0. -1.
          1    1    1    2  501    0 -0.41044289157E+02  0.79311515577E+01 -0.24272802327E+03  0.24630150247E+03  0.00000000000E+00 0. -1.
<scales pt_clust_3="95.82496" pt_clust_4="14000.00000" pt_clust_5="56.67043" pt_clust_6="41.80355"></scales>
<clustering>
<clus scale="   41.804">  2  6  1 -1</clus>
<clus scale="   56.670">  2  5  1 -1</clus>
<clus scale="   95.825">  2  3  1 -1</clus>
<clus scale="   95.825">  1  3  2 -1</clus>
</clustering>
</event>
<event>
 6    0  0.4017242E+002  0.1350668E+03  0.7546771E-02  0.1220125E+00
          2   -1    0    0  502    0 -0.00000000000E+00  0.00000000000E+00  0.94017009224E+03  0.94017009224E+03  0.00000000000E+00 0. -1.
         21   -1    0    0  504  502  0.00000000000E+00 -0.00000000000E+00 -0.19912983289E+02  0.19912983289E+02  0.00000000000E+00 0. -1.
         21    1    1    2  503  501 -0.29850508529E+01  0.59841120001E+02  0.18748099431E+03  0.19682223807E+03  0.00000000000E+00 0. -1.
         21    1    1    2  504  505  0.51659124255E+02 -0.51781617838E+02  0.16897018459E+03  0.18412203655E+03  0.00000000000E+00 0. -1.
         21    1    1    2  505  503  0.15135798440E+01 -0.54957006633E+02  0.15186111299E+03  0.16150653591E+03  0.00000000000E+00 0. -1.
          2    1    1    2  501    0 -0.50187653246E+02  0.46897504470E+02  0.41194481706E+03  0.41763226499E+03  0.00000000000E+00 0. -1.
<scales pt_clust_3="59.23488" pt_clust_4="128.55500" pt_clust_5="41.63201" pt_clust_6="59.23488"></scales>
<clustering>
<clus scale="   41.632">  4  5 -1 -1</clus>
<clus scale="   59.235">  3  6 -1 -1</clus>
<clus scale="  128.555">  2  4  1 -1</clus>
<clus scale="  128.555">  2  3  1 -1</clus>
</clustering>
</event>
<event>
 6    0  0.4017242E+002  0.8552004E+02  0.7546771E-02  0.1314078E+00
          1   -1    0    0  503    0 -0.00000000000E+00  0.00000000000E+00  0.13050485201E+04  0.13050485201E+04  0.00000000000E+00 0. -1.
         21   -1    0    0  504  502  0.00000000000E+00 -0.00000000000E+00 -0.29176490957E+03  0.29176490957E+03  0.00000000000E+00 0. -1.
         21    1    1    2  503  505 -0.50140870008E+01 -0.38964189606E+02  0.33635593545E+02  0.51717524044E+02  0.00000000000E+00 0. -1.
         21    1    1    2  504  501  0.83943489439E+02  0.17687985209E+02  0.21144637357E+03  0.22818620277E+03  0.00000000000E+00 0. -1.
         21    1    1    2  505  502  0.26136883179E+01 -0.49191116761E+02 -0.26932892666E+03  0.27379676417E+03  0.00000000000E+00 0. -1.
          1    1    1    2  501    0 -0.81543090756E+02  0.70467321157E+02  0.10375305701E+04  0.10431129387E+04  0.00000000000E+00 0. -1.
<scales pt_clust_3="39.28548" pt_clust_4="85.52004" pt_clust_5="49.32889" pt_clust_6="14000.00000"></scales>
<clustering>
<clus scale="   39.285">  1  3  2 -1</clus>
<clus scale="   49.329">  2  5  1 -1</clus>
<clus scale="   85.520">  2  4  1 -1</clus>
<clus scale="   49.329">  2  3  1 -1</clus>
</clustering>
</event>
<event>
 6    0  0.4017242E+002  0.2160120E+03  0.7546771E-02  0.1136892E+00
          3   -1    0    0  503    0 -0.00000000000E+00  0.00000000000E+00  0.15413809512E+03  0.15413809512E+03  0.00000000000E+00 0. -1.
         21   -1    0    0  505  502  0.00000000000E+00 -0.00000000000E+00 -0.58657157483E+03  0.58657157483E+03  0.00000000000E+00 0. -1.
         21    1    1    2  503  502  0.59705117025E+02  0.42917214134E+02 -0.27603617843E+02  0.78540104316E+02  0.00000000000E+00 0.  1.
         21    1    1    2  504  501  0.56163052138E+02 -0.11970760446E+02 -0.20309499859E+02  0.60910289079E+02  0.00000000000E+00 0.  1.
         21    1    1    2  505  504 -0.21644315151E+03  0.21508577238E+02 -0.42774473959E+03  0.47987062733E+03  0.00000000000E+00 0. -1.
          3    1    1    2  501    0  0.10057498235E+03 -0.52455030926E+02  0.43224377576E+02  0.12138864922E+03  0.00000000000E+00 0. -1.
<scales pt_clust_3="73.52951" pt_clust_4="44.94534" pt_clust_5="206.56925" pt_clust_6="44.94534"></scales>
<clustering>
<clus scale="   44.945">  4  6 -1 -1</clus>
<clus scale="   73.530">  1  3  2 -1</clus>
<clus scale="  206.569">  2  5  1 -1</clus>
<clus scale="  206.569">  2  3  1 -1</clus>
</clustering>
</event>
<event>
 6    0  0.4017242E+002  0.9758564E+02  0.7546771E-02  0.1285457E+00
         21   -1    0    0  504  502  0.00000000000E+00  0.00000000000E+00  0.24346613375E+02  0.24346613375E+02  0.00000000000E+00 0.  1.
          2   -1    0    0  502    0 -0.00000000000E+00 -0.00000000000E+00 -0.19480372979E+04  0.19480372979E+04  0.00000000000E+00 0.  1.
         21    1    1    2  503  505 -0.55200675568E+02  0.83804459074E+02 -0.46374519178E+03  0.47447856099E+03  0.00000000000E+00 0.  1.
         21    1    1    2  504  503  0.95936060245E+02 -0.33825429753E+02 -0.13068626145E+03  0.16561034474E+03  0.00000000000E+00 0.  1.
         21    1    1    2  505  501 -0.19149219979E+02 -0.26777965234E+02 -0.20808572247E+03  0.21067372866E+03  0.00000000000E+00 0.  1.
          2    1    1    2  501    0 -0.21586164698E+02 -0.23201064087E+02 -0.11211735089E+04  0.11216212769E+04  0.00000000000E+00 0.  1.
<scales pt_clust_3="14000.00000" pt_clust_4="97.58564" pt_clust_5="40.89385" pt_clust_6="31.68993"></scales>
<clustering>
<clus scale="   31.690">  2  6  1 -1</clus>
<clus scale="   40.894">  2  5  1 -1</clus>
<clus scale="   97.586">  1  4  2 -1</clus>
<clus scale="   97.586">  1  3  2 -1</clus>
</clustering>
</event>
<event>
 6    0  0.4017242E+002  0.1556384E+03  0.7546771E-02  0.1193711E+00
         21   -1    0    0  505  502  0.00000000000E+00  0.00000000000E+00  0.67608901213E+02  0.67608901213E+02  0.00000000000E+00 0. -1.
          2   -1    0    0  503    0 -0.00000000000E+00 -0.00000000000E+00 -0.19677728888E+04  0.19677728888E+04  0.00000000000E+00 0.  1.
         21    1    1    2  503  504  0.73269855236E+02  0.47596435587E+02 -0.14954120391E+03  0.17319487300E+03  0.00000000000E+00 0. -1.
         21    1    1    2  504  502 -0.54550898353E+00  0.11157147787E+03 -0.21221017735E+03  0.23975331411E+03  0.00000000000E+00 0. -1.
         21    1    1    2  505  501  0.93796843911E+01 -0.11542939003E+03 -0.42088966841E+02  0.12322095476E+03  0.00000000000E+00 0. -1.
          2    1    1    2  501    0 -0.82104030644E+02 -0.43738523428E+02 -0.14963236395E+04  0.14992126481E+04  0.00000000000E+00 0.  1.
<scales pt_clust_3="84.13270" pt_clust_4="84.13270" pt_clust_5="123.22514" pt_clust_6="93.02758"></scales>
<clustering>
<clus scale="   84.133">  3  4 -1 -1</clus>
<clus scale="   93.028">  2  6  1 -1</clus>
<clus scale="  123.225">  1  5  2 -1</clus>
<clus scale="  123.225">  1  3  2 -1</clus>
</clustering>
</event>
<event>
 6    0  0.4017242E+002  0.1608480E+03  0.7546771E-02  0.1187743E+00
         21   -1    0    0  503  502  0.00000000000E+00  0.00000000000E+00  0.70286216049E+03  0.70286216049E+03  0.00000000000E+00 0. -1.
          2   -1    0    0  504    0 -0.00000000000E+00 -0.00000000000E+00 -0.35675907314E+04  0.35675907314E+04  0.00000000000E+00 0.  1.
         21    1    1    2  503  501 -0.13515096867E+03 -0.60838266883E+02  0.27648686841E+03  0.31370697705E+03  0.00000000000E+00 0. -1.
         21    1    1    2  504  505 -0.76588480049E+02  0.29393116124E+02 -0.12415596312E+03  0.14881012643E+03  0.00000000000E+00 0.  1.
         21    1    1    2  505  502 -0.25153526060E+02  0.42418873390E+02  0.38976245548E+03  0.39286999427E+03  0.00000000000E+00 0. -1.
          2    1    1    2  501    0  0.23689297477E+03 -0.10973722631E+02 -0.34068219317E+04  0.34150657941E+04  0.00000000000E+00 0.  1.
<scales pt_clust_3="160.84804" pt_clust_4="83.57438" pt_clust_5="49.31593" pt_clust_6="14000.00000"></scales>
<clustering>
<clus scale="   49.316">  1  5  2 -1</clus>
<clus scale="   83.574">  2  4  1 -1</clus>
<clus scale="  160.848">  1  3  2 -1</clus>
<clus scale="   49.316">  1  3  2 -1</clus>
</clustering>
</event>
<event>
 6    0  0.4017242E+002  0.2484812E+03  0.7546771E-02  0.1114268E+00
         21   -1    0    0  503  502  0.00000000000E+00  0.00000000000E+00  0.45013891785E+03  0.45013891785E+03  0.00000000000E+00 0.  1.
          1   -1    0    0  502    0 -0.00000000000E+00 -0.00000000000E+00 -0.36695849265E+03  0.36695849265E+03  0.00000000000E+00 0.  1.
         21    1    1    2  503  505 -0.37747102534E+02 -0.44479448697E+02  0.60819861380E+02  0.84275267098E+02  0.00000000000E+00 0.  1.
         21    1    1    2  504  501  0.14287169472E+02 -0.57515654128E+02  0.68785025677E+02  0.90794016536E+02  0.00000000000E+00 0.  1.
         21    1    1    2  505  504 -0.54085018942E+02 -0.11141105119E+03  0.24385061225E+03  0.27349722613E+03  0.00000000000E+00 0.  1.
          1    1    1    2  501    0  0.77544952005E+02  0.21340615402E+03 -0.29027507411E+03  0.36853090075E+03  0.00000000000E+00 0.  1.
<scales pt_clust_3="33.91672" pt_clust_4="48.27775" pt_clust_5="48.27775" pt_clust_6="227.05816"></scales>
<clustering>
<clus scale="   33.917">  3  5 -1 -1</clus>
<clus scale="   48.278">  3  4 -1 -1</clus>
<clus scale="  227.058">  2  6  1 -1</clus>
<clus scale="  248.481">  1  3  2 -1</clus>
</clustering>
</event>
<event>
 6    0  0.4017242E+002  0.1218670E+03  0.7546771E-02  0.1240048E+00
          1   -1    0    0  505    0 -0.00000000000E+00  0.00000000000E+00  0.34181015895E+03  0.34181015895E+03  0.00000000000E+00 0. -1.
         21   -1    0    0  504  502  0.00000000000E+00 -0.00000000000E+00 -0.21588941528E+04  0.21588941528E+04  0.00000000000E+00 0. -1.
         21    1    1    2  503  501 -0.64728870037E+02 -0.82471378303E+02 -0.20397023523E+03  0.22933645963E+03  0.00000000000E+00 0. -1.
         21    1    1    2  504  503  0.40690326998E+02  0.11881086048E+03 -0.18513556457E+04  0.18556102635E+04  0.00000000000E+00 0. -1.
         21    1    1    2  505  502  0.53867534686E+02 -0.31592737909E+02 -0.76961431762E+02  0.99110414996E+02  0.00000000000E+00 0. -1.
          1    1    1    2  501    0 -0.29828991647E+02 -0.47467442703E+01  0.31520331885E+03  0.31664717358E+03  0.00000000000E+00 0. -1.
<scales pt_clust_3="121.86705" pt_clust_4="14000.00000" pt_clust_5="53.10571" pt_clust_6="30.20431"></scales>
<clustering>
<clus scale="   30.204">  1  6  2 -1</clus>
<clus scale="   53.106">  1  5  2 -1</clus>
<clus scale="  121.867">  1  3  2 -1</clus>
<clus scale="  121.867">  2  3  1 -1</clus>
</clustering>
</event>
<event>
 6    0  0.4017242E+002  0.1423213E+03  0.7546771E-02  0.1210239E+00
         21   -1    0    0  503  502  0.00000000000E+00  0.00000000000E+00  0.58775208555E+02  0.58775208555E+02  0.00000000000E+00 0.  1.
          1   -1    0    0  504    0 -0.00000000000E+00 -0.00000000000E+00 -0.33728826107E+04  0.33728826107E+04  0.00000000000E+00 0. -1.
         21    1    1    2  503  505 -0.68036118137E+02  0.29503577679E+02 -0.81231444778E+02  0.10999055454E+03  0.00000000000E+00 0. -1.
         21    1    1    2  504  502  0.64440733643E+02  0.33440818284E+02 -0.13128987190E+03  0.15002642082E+03  0.00000000000E+00 0. -1.
         21    1    1    2  505  501 -0.36697489971E+02 -0.19641647126E+03 -0.26630130687E+03  0.33293020588E+03  0.00000000000E+00 0.  1.
          1    1    1    2  501    0  0.40292874465E+02  0.13347207529E+03 -0.28352847786E+04  0.28387106381E+04  0.00000000000E+00 0. -1.
<scales pt_clust_3="62.99295" pt_clust_4="72.60094" pt_clust_5="14000.00000" pt_clust_6="142.32126"></scales>
<clustering>
<clus scale="   72.601">  1  4  2 -1</clus>
<clus scale="   62.993">  1  3  2 -1</clus>
<clus scale="  142.321">  2  6  1 -1</clus>
<clus scale="   72.601">  1  3  2 -1</clus>
</clustering>
</event>
<event>
 6    0  0.4017242E+002  0.8439446E+02  0.7546771E-02  0.1317024E+00
          1   -1    0    0  504    0 -0.00000000000E+00  0.00000000000E+00  0.23248311623E+04  0.23248311623E+04  0.00000000000E+00 0. -1.
         21   -1    0    0  503  502  0.00000000000E+00 -0.00000000000E+00 -0.69989920583E+03  0.69989920583E+03  0.00000000000E+00 0.  1.
         21    1    1    2  503  505 -0.42566304499E+02  0.56009798410E+02 -0.36762581920E+03  0.37429631409E+03  0.00000000000E+00 0.  1.
         21    1    1    2  504  502 -0.10031854031E+03 -0.46108944295E+02 -0.88960078213E+02  0.14178765740E+03  0.00000000000E+00 0.  1.
         21    1    1    2  505  501  0.99675554850E+02 -0.30907795456E+02 -0.20054779657E+03  0.22607504675E+03  0.00000000000E+00 0.  1.
          1    1    1    2  501    0  0.43209289960E+02  0.21006941341E+02  0.22820656505E+04  0.22825713499E+04  0.00000000000E+00 0. -1.
<scales pt_clust_3="69.70810" pt_clust_4="84.39446" pt_clust_5="14000.00000" pt_clust_6="48.04513"></scales>
<clustering>
<clus scale="   48.045">  1  6  2 -1</clus>
<clus scale="   69.708">  2  3  1 -1</clus>
<clus scale="   84.394">  1  4  2 -1</clus>
<clus scale="   69.708">  2  3  1 -1</clus>
</clustering>
</event>
<event>
 6    0  0.4017242E+002  0.1673014E+03  0.7546771E-02  0.1180692E+00
         21   -1    0    0  505  502  0.00000000000E+00  0.00000000000E+00  0.19586957940E+03  0.19586957940E+03  0.00000000000E+00 0.  1.
          2   -1    0    0  503    0 -0.00000000000E+00 -0.00000000000E+00 -0.74406207196E+03  0.74406207196E+03  0.00000000000E+00 0. -1.
         21    1    1    2  503  502  0.53520233417E+02  0.21106418349E+02  0.10926884385E+03  0.12348917571E+03  0.00000000000E+00 0.  1.
         21    1    1    2  504  501 -0.11498964044E+03  0.52930582809E+02 -0.69691481400E+02  0.14450317154E+03  0.00000000000E+00 0.  1.
         21    1    1    2  505  504 -0.62402063595E+02  0.22721678957E+02 -0.30704393113E+01  0.66480973467E+02  0.00000000000E+00 0.  1.
          2    1    1    2  501    0  0.12387147062E+03 -0.96758680115E+02 -0.58469941570E+03  0.60545833063E+03  0.00000000000E+00 0. -1.
<scales pt_clust_3="57.53170" pt_clust_4="32.62541" pt_clust_5="32.62541" pt_clust_6="161.12360"></scales>
<clustering>
<clus scale="   32.625">  4  5 -1 -1</clus>
<clus scale="   57.532">  1  3  2 -1</clus>
<clus scale="  161.124">  2  6  1 -1</clus>
<clus scale="   57.532">  1  3  2 -1</clus>
</clustering>
</event>
<event>
 6    0  0.4017242E+002  0.1349369E+03  0.7546771E-02  0.1220309E+00
          1   -1    0    0  504    0 -0.00000000000E+00  0.00000000000E+00  0.16160909954E+03  0.16160909954E+03  0.00000000000E+00 0. -1.
         21   -1    0    0  501  502  0.00000000000E+00 -0.00000000000E+00 -0.65595304043E+03  0.65595304043E+03  0.00000000000E+00 0. -1.
         21    1    1    2  503  502 -0.33835625120E+02 -0.12630253415E+03 -0.54918928294E+03  0.56454056378E+03  0.00000000000E+00 0. -1.
         21    1    1    2  504  505  0.44276968578E+02  0.67194338698E+02 -0.73373860037E+01  0.80804494509E+02  0.00000000000E+00 0. -1.
         21    1    1    2  505  503  0.40855089638E+02  0.32101647361E+02 -0.32435919770E+02  0.61251473484E+02  0.00000000000E+00 0. -1.
          1    1    1    2  501    0 -0.51296433095E+02  0.27006548087E+02  0.94618647819E+02  0.11096560820E+03  0.00000000000E+00 0. -1.
<scales pt_clust_3="129.29480" pt_clust_4="31.02567" pt_clust_5="31.02567" pt_clust_6="57.97135"></scales>
<clustering>
<clus scale="   31.026">  4  5 -1 -1</clus>
<clus scale="   57.971">  1  6  2 -1</clus>
<clus scale="  129.295">  2  3  1 -1</clus>
<clus scale="  129.295">  2  3  1 -1</clus>
</clustering>
</event>
<event>
 6    0  0.4017242E+002  0.9416138E+02  0.7546771E-02  0.1293076E+00
         21   -1    0    0  504  502  0.00000000000E+00  0.00000000000E+00  0.39093354325E+03  0.39093354325E+03  0.00000000000E+00 0. -1.
          2   -1    0    0  505    0 -0.00000000000E+00 -0.00000000000E+00 -0.10969362211E+04  0.10969362211E+04  0.00000000000E+00 0.  1.
         21    1    1    2  503  502 -0.33607047263E+02 -0.20473175097E+02  0.14959682184E+03  0.15468611324E+03  0.00000000000E+00 0. -1.
         21    1    1    2  504  501  0.38215153303E+02  0.14598576263E+02 -0.93237697733E+01  0.41957705534E+02  0.00000000000E+00 0. -1.
         21    1    1    2  505  503  0.89293018437E+02 -0.17363255664E+01  0.21133302990E+03  0.22942952621E+03  0.00000000000E+00 0. -1.
          2    1    1    2  501    0 -0.93901124477E+02  0.76109243999E+01 -0.10576087598E+04  0.10617964194E+04  0.00000000000E+00 0.  1.
<scales pt_clust_3="39.35206" pt_clust_4="38.26729" pt_clust_5="14000.00000" pt_clust_6="94.16138"></scales>
<clustering>
<clus scale="   39.352">  1  3  2 -1</clus>
<clus scale="   38.267">  1  4  2 -1</clus>
<clus scale="   94.161">  2  6  1 -1</clus>
<clus scale="   39.352">  1  3  2 -1</clus>
</clustering>
</event>
<event>
 6    0  0.4017242E+002  0.1177002E+03  0.7546771E-02  0.1246940E+00
         -1   -1    0    0    0  501 -0.00000000000E+00  0.00000000000E+00  0.66063202921E+03  0.66063202921E+03  0.00000000000E+00 0.  1.
         21   -1    0    0  505  502  0.00000000000E+00 -0.00000000000E+00 -0.12404449159E+03  0.12404449159E+03  0.00000000000E+00 0.  1.
         21    1    1    2  503  502  0.40339895700E+02 -0.12474236437E+03  0.32933906805E+03  0.35447452151E+03  0.00000000000E+00 0.  1.
         21    1    1    2  504  501 -0.27455912432E+02  0.10069216328E+03  0.19731511972E+03  0.22321737241E+03  0.00000000000E+00 0.  1.
         21    1    1    2  505  504 -0.45473354634E+02  0.10802344779E+02 -0.89796478401E+02  0.10123203133E+03  0.00000000000E+00 0.  1.
         -1    1    1    2    0  503  0.32589371365E+02  0.13247856306E+02  0.99729828246E+02  0.10575259555E+03  0.00000000000E+00 0.  1.
<scales pt_clust_3="117.70023" pt_clust_4="14000.00000" pt_clust_5="46.44570" pt_clust_6="35.17915"></scales>
<clustering>
<clus scale="   35.179">  1  6  2 -1</clus>
<clus scale="   46.446">  2  5  1 -1</clus>
<clus scale="  117.700">  1  3  2 -1</clus>
<clus scale="   46.446">  2  3  1 -1</clus>
</clustering>
</event>
<event>
 6    0  0.4017242E+002  0.7564179E+02  0.7546771E-02  0.1341895E+00
          1   -1    0    0  504    0 -0.00000000000E+00  0.00000000000E+00  0.29115179736E+03  0.29115179736E+03  0.00000000000E+00 0.  1.
         21   -1    0    0  503  502  0.00000000000E+00 -0.00000000000E+00 -0.26586858261E+03  0.26586858261E+03  0.00000000000E+00 0.  1.
         21    1    1    2  503  501  0.42143011687E+02  0.53922708751E+02 -0.19084994361E+01  0.68464109745E+02  0.00000000000E+00 0.  1.
         21    1    1    2  504  505 -0.54014894702E+02  0.23017840877E+02  0.37292103873E+01  0.58833127220E+02  0.00000000000E+00 0. -1.
         21    1    1    2  505  502  0.54518793710E+02 -0.60313958882E+02 -0.19249905040E+03  0.20896400864E+03  0.00000000000E+00 0.  1.
          1    1    1    2  501    0 -0.42646910695E+02 -0.16626590746E+02  0.21596155420E+03  0.22075913436E+03  0.00000000000E+00 0.  1.
<scales pt_clust_3="51.56107" pt_clust_4="14000.00000" pt_clust_5="75.64179" pt_clust_6="45.77338"></scales>
<clustering>
<clus scale="   45.773">  1  6  2 -1</clus>
<clus scale="   51.561">  1  3  2 -1</clus>
<clus scale="   75.642">  2  5  1 -1</clus>
<clus scale="   75.642">  2  3  1 -1</clus>
</clustering>
</event>
<event>
 6    0  0.4017242E+002  0.8281727E+02  0.7546771E-02  0.1321241E+00
         21   -1    0    0  504  502  0.00000000000E+00  0.00000000000E+00  0.24097674563E+02  0.24097674563E+02  0.00000000000E+00 0.  1.
         -2   -1    0    0    0  501 -0.00000000000E+00 -0.00000000000E+00 -0.17108352790E+04  0.17108352790E+04  0.00000000000E+00 0. -1.
         21    1    1    2  503  501 -0.47957038321E+02  0.41020820665E+02 -0.25276456973E+03  0.26052353630E+03  0.00000000000E+00 0. -1.
         21    1    1    2  504  503  0.29710840146E+02  0.23694440345E+02 -0.15358583819E+03  0.15821747760E+03  0.00000000000E+00 0.  1.
         21    1    1    2  505  502 -0.63951013672E+02 -0.78048914657E+02 -0.13895405877E+03  0.17172534955E+03  0.00000000000E+00 0.  1.
         -2    1    1    2    0  505  0.82197211847E+02  0.13333653647E+02 -0.11414331377E+04  0.11444665901E+04  0.00000000000E+00 0. -1.
<scales pt_clust_3="62.18582" pt_clust_4="38.00211" pt_clust_5="14000.00000" pt_clust_6="82.81727"></scales>
<clustering>
<clus scale="   38.002">  1  4  2 -1</clus>
<clus scale="   62.186">  1  3  2 -1</clus>
<clus scale="   82.817">  2  6  1 -1</clus>
<clus scale="   38.002">  1  3  2 -1</clus>
</clustering>
</event>
<event>
 6    0  0.4017242E+002  0.1245219E+03  0.7546771E-02  0.1235818E+00
         21   -1    0    0  503  502  0.00000000000E+00  0.00000000000E+00  0.18439699202E+03  0.18439699202E+03  0.00000000000E+00 0.  1.
          1   -1    0    0  504    0 -0.00000000000E+00 -0.00000000000E+00 -0.14648115954E+04  0.14648115954E+04  0.00000000000E+00 0. -1.
         21    1    1    2  503  505  0.66666762441E+01 -0.61558914585E+02  0.67147047548E+02  0.91338220540E+02  0.00000000000E+00 0.  1.
         21    1    1    2  504  502  0.55221482103E+02 -0.15567641434E+02 -0.50249662781E+02  0.76267897278E+02  0.00000000000E+00 0. -1.
         21    1    1    2  505  501 -0.37198980631E+02 -0.32269176124E+02  0.83125332149E+02  0.96617207229E+02  0.00000000000E+00 0.  1.
          1    1    1    2  501    0 -0.24689177716E+02  0.10939573214E+03 -0.13804373203E+04  0.13849852623E+04  0.00000000000E+00 0. -1.
<scales pt_clust_3="48.92357" pt_clust_4="57.37389" pt_clust_5="48.92357" pt_clust_6="111.78636"></scales>
<clustering>
<clus scale="   48.924">  3  5 -1 -1</clus>
<clus scale="   57.374">  1  4  2 -1</clus>
<clus scale="  111.786">  2  6  1 -1</clus>
<clus scale="   57.374">  1  3  2 -1</clus>
</clustering>
</event>
<event>
 6    0  0.4017242E+002  0.8134777E+02  0.7546771E-02  0.1325270E+00
          3   -1    0    0  505    0 -0.00000000000E+00  0.00000000000E+00  0.89887478032E+02  0.89887478032E+02  0.00000000000E+00 0. -1.
         21   -1    0    0  503  502  0.00000000000E+00 -0.00000000000E+00 -0.11948055559E+04  0.11948055559E+04  0.00000000000E+00 0. -1.
         21    1    1    2  503  504 -0.76483266515E+02  0.37324452529E+02 -0.69933034672E+03  0.70448970089E+03  0.00000000000E+00 0. -1.
         21    1    1    2  504  501  0.78060169019E+02  0.17918719777E+02 -0.13403518773E+03  0.15614064831E+03  0.00000000000E+00 0. -1.
         21    1    1    2  505  502 -0.10959671944E+00 -0.10494574933E+03 -0.33060592264E+03  0.34686293892E+03  0.00000000000E+00 0. -1.
          3    1    1    2  501    0 -0.14673057846E+01  0.49702577021E+02  0.59053379246E+02  0.77199745784E+02  0.00000000000E+00 0. -1.
<scales pt_clust_3="81.34777" pt_clust_4="14000.00000" pt_clust_5="86.38250" pt_clust_6="49.72423"></scales>
<clustering>
<clus scale="   49.724">  1  6  2 -1</clus>
<clus scale="   86.382">  1  5  2 -1</clus>
<clus scale="   81.348">  2  3  1 -1</clus>
<clus scale="   81.348">  2  3  1 -1</clus>
</clustering>
</event>
<event>
 6    0  0.4017242E+002  0.1126994E+03  0.7546771E-02  0.1255651E+00
          2   -1    0    0  504    0 -0.00000000000E+00  0.00000000000E+00  0.32208730712E+04  0.32208730712E+04  0.00000000000E+00 0.  1.
         21   -1    0    0  505  502  0.00000000000E+00 -0.00000000000E+00 -0.16218975001E+02  0.16218975001E+02  0.00000000000E+00 0. -1.
         21    1    1    2  503  501  0.23209022943E+02  0.45020962067E+02  0.21794538270E+03  0.22375373876E+03  0.00000000000E+00 0. -1.
         21    1    1    2  504  502  0.60248707005E+01 -0.60509311659E+02  0.34220998241E+03  0.34757063731E+03  0.00000000000E+00 0. -1.
         21    1    1    2  505  503 -0.42237900522E+02  0.97575897623E+02  0.27540994399E+03  0.29522149869E+03  0.00000000000E+00 0. -1.
          2    1    1    2  501    0  0.13004006879E+02 -0.82087548031E+02  0.23690887871E+04  0.23705461715E+04  0.00000000000E+00 0.  1.
<scales pt_clust_3="49.96157" pt_clust_4="60.80852" pt_clust_5="49.96157" pt_clust_6="86.37882"></scales>
<clustering>
<clus scale="   49.962">  3  5 -1 -1</clus>
<clus scale="   60.809">  2  4  1 -1</clus>
<clus scale="   86.379">  1  6  2 -1</clus>
<clus scale="   60.809">  2  3  1 -1</clus>
</clustering>
</event>
<event>
 6    0  0.4017242E+002  0.2549728E+03  0.7546771E-02  0.1110202E+00
         21   -1    0    0  503  502  0.00000000000E+00  0.00000000000E+00  0.10020537259E+04  0.10020537259E+04  0.00000000000E+00 0.  1.
         -1   -1    0    0    0  501 -0.00000000000E+00 -0.00000000000E+00 -0.10758043282E+04  0.10758043282E+04  0.00000000000E+00 0.  1.
         21    1    1    2  503  505 -0.69232950244E+02 -0.13783934949E+03  0.34534673784E+03  0.37822910650E+03  0.00000000000E+00 0.  1.
         21    1    1    2  504  502  0.26712260815E+02  0.25677129634E+02  0.48496498919E+03  0.48637835130E+03  0.00000000000E+00 0.  1.
         21    1    1    2  505  501 -0.44165996803E+02 -0.14219374839E+03  0.96367173401E+02  0.17735932303E+03  0.00000000000E+00 0.  1.
         -1    1    1    2    0  504  0.86686686232E+02  0.25435596825E+03 -0.10004295027E+04  0.10358912733E+04  0.00000000000E+00 0.  1.
<scales pt_clust_3="130.06126" pt_clust_4="37.05212" pt_clust_5="254.97276" pt_clust_6="14000.00000"></scales>
<clustering>
<clus scale="   37.052">  1  4  2 -1</clus>
<clus scale="  130.061">  1  3  2 -1</clus>
<clus scale="  254.973">  1  5  2 -1</clus>
<clus scale="   37.052">  1  3  2 -1</clus>
</clustering>
</event>
<event>
 6    0  0.4017242E+002  0.1284647E+03  0.7546771E-02  0.1229752E+00
         21   -1    0    0  504  502  0.00000000000E+00  0.00000000000E+00  0.20923649401E+02  0.20923649401E+02  0.00000000000E+00 0. -1.
          2   -1    0    0  502    0 -0.00000000000E+00 -0.00000000000E+00 -0.13261734911E+04  0.13261734911E+04  0.00000000000E+00 0. -1.
         21    1    1    2  503  501  0.15221545688E+02 -0.47482094569E+02 -0.22173847676E+03  0.22727559665E+03  0.00000000000E+00 0. -1.
         21    1    1    2  504  505 -0.75527512850E+01  0.12359121823E+03 -0.31896462139E+03  0.34215531996E+03  0.00000000000E+00 0. -1.
         21    1    1    2  505  503 -0.41985973715E+02 -0.52147777532E+02 -0.18733018906E+03  0.19893419119E+03  0.00000000000E+00 0. -1.
          2    1    1    2  501    0  0.34317179312E+02 -0.23961346128E+02 -0.57721655448E+03  0.57873203270E+03  0.00000000000E+00 0. -1.
<scales pt_clust_3="57.49282" pt_clust_4="113.26079" pt_clust_5="57.49282" pt_clust_6="41.85469"></scales>
<clustering>
<clus scale="   41.855">  2  6  1 -1</clus>
<clus scale="   57.493">  3  5 -1 -1</clus>
<clus scale="  113.261">  1  4  2 -1</clus>
<clus scale="  113.261">  1  3  2 -1</clus>
</clustering>
</event>
<event>
 6    0  0.4017242E+002  0.1386672E+03  0.7546771E-02  0.1215134E+00
          2   -1    0    0  503    0 -0.00000000000E+00  0.00000000000E+00  0.20934616994E+04  0.20934616994E+04  0.00000000000E+00 0.  1.
         21   -1    0    0  505  502  0.00000000000E+00 -0.00000000000E+00 -0.12403926951E+03  0.12403926951E+03  0.00000000000E+00 0.  1.
         21    1    1    2  503  504  0.56900058240E+02 -0.12884131016E+03  0.99304554254E+03  0.10029841222E+04  0.00000000000E+00 0.  1.
         21    1    1    2  504  502 -0.32798204083E+02  0.29044061060E+02 -0.10590037497E+03  0.11460440259E+03  0.00000000000E+00 0.  1.
         21    1    1    2  505  501 -0.89599004563E+01  0.12921984914E+03  0.49381717902E+03  0.51052272772E+03  0.00000000000E+00 0. -1.
          2    1    1    2  501    0 -0.15141953700E+02 -0.29422600037E+02  0.58846008333E+03  0.58938971643E+03  0.00000000000E+00 0.  1.
<scales pt_clust_3="138.66718" pt_clust_4="43.78605" pt_clust_5="14000.00000" pt_clust_6="33.09030"></scales>
<clustering>
<clus scale="   33.090">  1  6  2 -1</clus>
<clus scale="   43.786">  2  4  1 -1</clus>
<clus scale="  138.667">  1  3  2 -1</clus>
<clus scale="   43.786">  2  3  1 -1</clus>
</clustering>
</event>
<event>
 6    0  0.4017242E+002  0.1495012E+03  0.7546771E-02  0.1201087E+00
         21   -1    0    0  503  502  0.00000000000E+00  0.00000000000E+00  0.95663682543E+02  0.95663682543E+02  0.00000000000E+00 0.  1.
          2   -1    0    0  504    0 -0.00000000000E+00 -0.00000000000E+00 -0.12121965666E+04  0.12121965666E+04  0.00000000000E+00 0.  1.
         21    1    1    2  503  505 -0.24361351333E+02  0.11842156624E+03 -0.50310447076E+02  0.13095145618E+03  0.00000000000E+00 0.  1.
         21    1    1    2  504  502  0.10894766666E+02 -0.12831237922E+03 -0.77349364634E+02  0.15021879647E+03  0.00000000000E+00 0.  1.
         21    1    1    2  505  501 -0.29753761272E+02  0.15448711615E+02  0.31841218354E+01  0.33676217606E+02  0.00000000000E+00 0.  1.
          2    1    1    2  501    0  0.43220345939E+02 -0.55578986367E+01 -0.99205719416E+03  0.99301377887E+03  0.00000000000E+00 0.  1.
<scales pt_clust_3="33.43600" pt_clust_4="135.34741" pt_clust_5="33.43600" pt_clust_6="43.57624"></scales>
<clustering>
<clus scale="   33.436">  3  5 -1 -1</clus>
<clus scale="   43.576">  2  6  1 -1</clus>
<clus scale="  135.347">  2  4  1 -1</clus>
<clus scale="  149.501">  1  3  2 -1</clus>
</clustering>
</event>
<event>
 6    0  0.4017242E+002  0.9430791E+02  0.7546771E-02  0.1292742E+00
          2   -1    0    0  505    0 -0.00000000000E+00  0.00000000000E+00  0.37297696275E+03  0.37297696275E+03  0.00000000000E+00 0. -1.
         21   -1    0    0  504  502  0.00000000000E+00 -0.00000000000E+00 -0.49378207123E+02  0.49378207123E+02  0.00000000000E+00 0. -1.
         21    1    1    2  503  502 -0.25334846112E+02  0.51286870098E+02  0.71677898032E+02  0.91705607998E+02  0.00000000000E+00 0.  1.
         21    1    1    2  504  501 -0.67288293222E+00 -0.54397754901E+02  0.18410233319E+02  0.57432614433E+02  0.00000000000E+00 0. -1.
         21    1    1    2  505  503  0.34212942358E+01  0.70560015527E+02  0.11198106918E+03  0.13240158949E+03  0.00000000000E+00 0. -1.
          2    1    1    2  501    0  0.22586434808E+02 -0.67449130723E+02  0.12152955510E+03  0.14081535795E+03  0.00000000000E+00 0. -1.
<scales pt_clust_3="30.73461" pt_clust_4="54.40192" pt_clust_5="30.73461" pt_clust_6="87.90580"></scales>
<clustering>
<clus scale="   30.735">  3  5 -1 -1</clus>
<clus scale="   54.402">  2  4  1 -1</clus>
<clus scale="   87.906">  1  6  2 -1</clus>
<clus scale="   54.402">  2  3  1 -1</clus>
</clustering>
</event>
<event>
 6    0  0.4017242E+002  0.2330601E+03  0.7546771E-02  0.1124504E+00
         21   -1    0    0  505  502  0.00000000000E+00  0.00000000000E+00  0.84793160913E+02  0.84793160913E+02  0.00000000000E+00 0. -1.
          2   -1    0    0  503    0 -0.00000000000E+00 -0.00000000000E+00 -0.27674921014E+04  0.27674921014E+04  0.00000000000E+00 0.  1.
         21    1    1    2  503  504  0.73487098801E+02  0.21219827058E+03 -0.35498011192E+03  0.42004683023E+03  0.00000000000E+00 0. -1.
         21    1    1    2  504  502  0.17461734059E+02  0.88544443838E+02 -0.77319964351E+02  0.11884194368E+03  0.00000000000E+00 0. -1.
         21    1    1    2  505  501 -0.28829870289E+02 -0.96425520249E+02 -0.70066488602E+02  0.12263097162E+03  0.00000000000E+00 0. -1.
          2    1    1    2  501    0 -0.62118962570E+02 -0.20431719417E+03 -0.21803323756E+04  0.21907655168E+04  0.00000000000E+00 0.  1.
<scales pt_clust_3="43.92074" pt_clust_4="43.92074" pt_clust_5="100.64314" pt_clust_6="222.52439"></scales>
<clustering>
<clus scale="   43.921">  3  4 -1 -1</clus>
<clus scale="  100.643">  1  5  2 -1</clus>
<clus scale="  222.524">  2  6  1 -1</clus>
<clus scale="  100.643">  1  3  2 -1</clus>
</clustering>
</event>
<event>
 6    0  0.4017242E+002  0.8656240E+02  0.7546771E-02  0.1311397E+00
         21   -1    0    0  503  502  0.00000000000E+00  0.00000000000E+00  0.75174446077E+02  0.75174446077E+02  0.00000000000E+00 0.  1.
          2   -1    0    0  505    0 -0.00000000000E+00 -0.00000000000E+00 -0.16917717377E+04  0.16917717377E+04  0.00000000000E+00 0.  1.
         21    1    1    2  503  501 -0.84817900988E+01  0.61033948055E+02  0.47492465125E+02  0.77798572109E+02  0.00000000000E+00 0.  1.
         21    1    1    2  504  502  0.30597750646E+02 -0.40673677492E+02 -0.11063655430E+03  0.12178266516E+03  0.00000000000E+00 0.  1.
         21    1    1    2  505  504 -0.69582357986E+02 -0.84519369803E+02 -0.55293057420E+03  0.56366430462E+03  0.00000000000E+00 0.  1.
          2    1    1    2  501    0  0.47466397439E+02  0.64159099240E+02 -0.10005226282E+04  0.10037006418E+04  0.00000000000E+00 0.  1.
<scales pt_clust_3="30.98060" pt_clust_4="50.89765" pt_clust_5="14000.00000" pt_clust_6="86.56240"></scales>
<clustering>
<clus scale="   50.898">  1  4  2 -1</clus>
<clus scale="   30.981">  1  3  2 -1</clus>
<clus scale="   86.562">  2  6  1 -1</clus>
<clus scale="   50.898">  1  3  2 -1</clus>
</clustering>
</event>
<event>
 6    0  0.4017242E+002  0.1437057E+03  0.7546771E-02  0.1208428E+00
          2   -1    0    0  503    0 -0.00000000000E+00  0.00000000000E+00  0.21195367969E+04  0.21195367969E+04  0.00000000000E+00 0. -1.
         21   -1    0    0  505  502  0.00000000000E+00 -0.00000000000E+00 -0.10186665989E+03  0.10186665989E+03  0.00000000000E+00 0. -1.
         21    1    1    2  503  502 -0.33687910615E+02 -0.17528826090E+02  0.34846947377E+02  0.51540710194E+02  0.00000000000E+00 0. -1.
         21    1    1    2  504  501 -0.32219699493E+02  0.80943680531E+02 -0.30908742901E+02  0.92441001947E+02  0.00000000000E+00 0. -1.
         21    1    1    2  505  504  0.19524779084E+02  0.59321543130E+02  0.31166131436E+01  0.62529798937E+02  0.00000000000E+00 0. -1.
          2    1    1    2  501    0  0.46382831024E+02 -0.12273639757E+03  0.20106153194E+04  0.20148919457E+04  0.00000000000E+00 0. -1.
<scales pt_clust_3="37.97545" pt_clust_4="45.88119" pt_clust_5="45.88119" pt_clust_6="131.31365"></scales>
<clustering>
<clus scale="   37.975">  2  3  1 -1</clus>
<clus scale="   45.881">  4  5 -1 -1</clus>
<clus scale="  131.314">  1  6  2 -1</clus>
<clus scale="   37.975">  2  3  1 -1</clus>
</clustering>
</event>
<event>
 6    0  0.4017242E+002  0.9416042E+02  0.7546771E-02  0.1293078E+00
          2   -1    0    0  503    0 -0.00000000000E+00  0.00000000000E+00  0.23661378621E+04  0.23661378621E+04  0.00000000000E+00 0.  1.
         21   -1    0    0  505  502  0.00000000000E+00 -0.00000000000E+00 -0.54990613138E+03  0.54990613138E+03  0.00000000000E+00 0. -1.
         21    1    1    2  503  504 -0.64602795693E+02 -0.17692555330E+02  0.26203703775E+03  0.27046248700E+03  0.00000000000E+00 0. -1.
         21    1    1    2  504  502  0.87191415063E+02 -0.35833738612E+02 -0.46620670980E+03  0.47564177271E+03  0.00000000000E+00 0. -1.
         21    1    1    2  505  501  0.98152430984E-01  0.79537738254E+02 -0.53432221617E+02  0.95818911220E+02  0.00000000000E+00 0.  1.
          2    1    1    2  501    0 -0.22686771801E+02 -0.26011444312E+02  0.20738336244E+04  0.20741208225E+04  0.00000000000E+00 0.  1.
<scales pt_clust_3="14000.00000" pt_clust_4="94.16042" pt_clust_5="77.66629" pt_clust_6="34.51499"></scales>
<clustering>
<clus scale="   34.515">  1  6  2 -1</clus>
<clus scale="   77.666">  2  5  1 -1</clus>
<clus scale="   94.160">  2  4  1 -1</clus>
<clus scale="   77.666">  2  3  1 -1</clus>
</clustering>
</event>
<event>
 6    0  0.9512987E+002  0.8120536E+02  0.7546771E-02  0.1325665E+00
          2   -1    0    0  505    0 -0.00000000000E+00  0.00000000000E+00  0.23456237990E+04  0.23456237990E+04  0.00000000000E+00 0. -1.
         21   -1    0    0  504  502  0.00000000000E+00 -0.00000000000E+00 -0.31099249058E+03  0.31099249058E+03  0.00000000000E+00 0.  1.
         21    1    1    2  503  501 -0.13013982268E+02  0.69474659953E+02  0.42467004904E+02  0.82459314911E+02  0.00000000000E+00 0.  1.
         21    1    1    2  504  503  0.33500128671E+02 -0.75367087162E+02 -0.25644095186E+03  0.26937783546E+03  0.00000000000E+00 0.  1.
         21    1    1    2  505  502 -0.28521337545E+02 -0.54030783542E+02  0.60348681576E+01  0.61393907672E+02  0.00000000000E+00 0. -1.
          2    1    1    2  501    0  0.80351911421E+01  0.59923210750E+02  0.22425703872E+04  0.22433852315E+04  0.00000000000E+00 0. -1.
<scales pt_clust_3="14000.00000" pt_clust_4="81.20536" pt_clust_5="43.00846" pt_clust_6="60.45954"></scales>
<clustering>
<clus scale="   60.460">  1  6  2 -1</clus>
<clus scale="   43.008">  1  5  2 -1</clus>
<clus scale="   81.205">  2  4  1 -1</clus>
<clus scale="   81.205">  2  3  1 -1</clus>
</clustering>
</event>
<event>
 6    0  0.4017242E+002  0.1143938E+03  0.7546771E-02  0.1252643E+00
         21   -1    0    0  505  502  0.00000000000E+00  0.00000000000E+00  0.18325300240E+03  0.18325300240E+03  0.00000000000E+00 0. -1.
         -1   -1    0    0    0  501 -0.00000000000E+00 -0.00000000000E+00 -0.17087119021E+04  0.17087119021E+04  0.00000000000E+00 0. -1.
         21    1    1    2  503  501 -0.89995219636E+01 -0.83066643913E+02 -0.42268597354E+03  0.43086481750E+03  0.00000000000E+00 0. -1.
         21    1    1    2  504  502 -0.41534877666E+02 -0.45962665872E+02 -0.10068697149E+03  0.11821835282E+03  0.00000000000E+00 0. -1.
         21    1    1    2  505  503  0.17691294015E+02  0.11446323438E+03  0.15040395672E+03  0.18983193647E+03  0.00000000000E+00 0. -1.
         -1    1    1    2    0  504  0.32843105615E+02  0.14566075402E+02 -0.11524899114E+04  0.11530497977E+04  0.00000000000E+00 0. -1.
<scales pt_clust_3="114.39384" pt_clust_4="55.56072" pt_clust_5="14000.00000" pt_clust_6="35.92826"></scales>
<clustering>
<clus scale="   35.928">  2  6  1 -1</clus>
<clus scale="   55.561">  2  4  1 -1</clus>
<clus scale="  114.394">  2  3  1 -1</clus>
<clus scale="  114.394">  1  3  2 -1</clus>
</clustering>
</event>
<event>
 6    0  0.4017242E+002  0.9854090E+02  0.7546771E-02  0.1283394E+00
         21   -1    0    0  501  502  0.00000000000E+00  0.00000000000E+00  0.16595676435E+03  0.16595676435E+03  0.00000000000E+00 0. -1.
          1   -1    0    0  505    0 -0.00000000000E+00 -0.00000000000E+00 -0.83353561494E+03  0.83353561494E+03  0.00000000000E+00 0.  1.
         21    1    1    2  503  504 -0.47792114853E+02  0.94288737674E+01 -0.31316893155E+02  0.57911464319E+02  0.00000000000E+00 0. -1.
         21    1    1    2  504  502  0.87831563359E+02 -0.44820516020E+01  0.12797530849E+03  0.15528088064E+03  0.00000000000E+00 0. -1.
         21    1    1    2  505  503 -0.62802699418E+02  0.31918391909E+02 -0.10997170543E+03  0.13060145019E+03  0.00000000000E+00 0. -1.
          1    1    1    2  501    0  0.22763250912E+02 -0.36865214074E+02 -0.65426556050E+03  0.65569858415E+03  0.00000000000E+00 0.  1.
<scales pt_clust_3="33.61195" pt_clust_4="89.86917" pt_clust_5="33.61195" pt_clust_6="43.32678"></scales>
<clustering>
<clus scale="   33.612">  3  5 -1 -1</clus>
<clus scale="   43.327">  2  6  1 -1</clus>
<clus scale="   89.869">  1  4  2 -1</clus>
<clus scale="   89.869">  1  3  2 -1</clus>
</clustering>
</event>
<event>
 6    0  0.4017242E+002  0.1291459E+03  0.7546771E-02  0.1228729E+00
         -1   -1    0    0    0  501 -0.00000000000E+00  0.00000000000E+00  0.30586473542E+03  0.30586473542E+03  0.00000000000E+00 0. -1.
         21   -1    0    0  504  502  0.00000000000E+00 -0.00000000000E+00 -0.43429395644E+03  0.43429395644E+03  0.00000000000E+00 0. -1.
         21    1    1    2  503  501  0.10341013651E+03  0.34815241216E+02 -0.10803698423E+03  0.15355047155E+03  0.00000000000E+00 0. -1.
         21    1    1    2  504  503 -0.52015728604E+01  0.35975895093E+02 -0.26910232592E+02  0.45227005274E+02  0.00000000000E+00 0. -1.
         21    1    1    2  505  502 -0.62521042948E+02 -0.19201457714E+03 -0.20958681370E+03  0.29104142509E+03  0.00000000000E+00 0. -1.
         -1    1    1    2    0  505 -0.35687520698E+02  0.12122344083E+03  0.21610480950E+03  0.25033978994E+03  0.00000000000E+00 0. -1.
<scales pt_clust_3="111.88258" pt_clust_4="36.34998" pt_clust_5="129.14588" pt_clust_6="14000.00000"></scales>
<clustering>
<clus scale="   36.350">  2  4  1 -1</clus>
<clus scale="  111.883">  2  3  1 -1</clus>
<clus scale="  129.146">  2  5  1 -1</clus>
<clus scale="   36.350">  2  3  1 -1</clus>
</clustering>
</event>
<event>
 6    0  0.4017242E+002  0.8207282E+02  0.7546771E-02  0.1323270E+00
         21   -1    0    0  505  502  0.00000000000E+00  0.00000000000E+00  0.41567177572E+03  0.41567177572E+03  0.00000000000E+00 0. -1.
         -4   -1    0    0    0  501 -0.00000000000E+00 -0.00000000000E+00 -0.44317634842E+03  0.44317634842E+03  0.00000000000E+00 0.  1.
         21    1    1    2  503  502  0.42346459275E+02 -0.39738485541E+02  0.37798181682E+03  0.38241681931E+03  0.00000000000E+00 0. -1.
         21    1    1    2  504  503  0.25580971137E+02  0.82612821891E+02 -0.11786901802E+03  0.14619291992E+03  0.00000000000E+00 0. -1.
         21    1    1    2  505  501  0.31545522811E+02 -0.11296337737E+02 -0.12113643350E+02  0.35629588980E+02  0.00000000000E+00 0. -1.
         -4    1    1    2    0  504 -0.99472953222E+02 -0.31577998612E+02 -0.27550372814E+03  0.29460879593E+03  0.00000000000E+00 0.  1.
<scales pt_clust_3="58.23468" pt_clust_4="14000.00000" pt_clust_5="33.50712" pt_clust_6="82.07282"></scales>
<clustering>
<clus scale="   33.507">  2  5  1 -1</clus>
<clus scale="   58.235">  1  3  2 -1</clus>
<clus scale="   82.073">  2  6  1 -1</clus>
<clus scale="   58.235">  1  3  2 -1</clus>
</clustering>
</event>
<event>
 6    0  0.4017242E+002  0.9235451E+02  0.7546771E-02  0.1297248E+00
          2   -1    0    0  505    0 -0.00000000000E+00  0.00000000000E+00  0.30595581337E+04  0.30595581337E+04  0.00000000000E+00 0. -1.
         21   -1    0    0  503  502  0.00000000000E+00 -0.00000000000E+00 -0.86522986451E+02  0.86522986451E+02  0.00000000000E+00 0.  1.
         21    1    1    2  503  504  0.31906324206E+02  0.20706212128E+02 -0.37047866336E+02  0.53097129349E+02  0.00000000000E+00 0.  1.
         21    1    1    2  504  501 -0.25901389991E+02 -0.40148611413E+02  0.11138016740E+03  0.12119544006E+03  0.00000000000E+00 0. -1.
         21    1    1    2  505  502  0.42635562705E+02 -0.59535636785E+02  0.16448550311E+01  0.73246083872E+02  0.00000000000E+00 0.  1.
          2    1    1    2  501    0 -0.48640496920E+02  0.78978036070E+02  0.28970579912E+04  0.28985424669E+04  0.00000000000E+00 0. -1.
<scales pt_clust_3="38.03631" pt_clust_4="43.70959" pt_clust_5="92.35451" pt_clust_6="14000.00000"></scales>
<clustering>
<clus scale="   38.036">  2  3  1 -1</clus>
<clus scale="   43.710">  2  4  1 -1</clus>
<clus scale="   92.355">  2  5  1 -1</clus>
<clus scale="   38.036">  2  3  1 -1</clus>
</clustering>
</event>
<event>
 6    0  0.4017242E+002  0.1771520E+03  0.7546771E-02  0.1170588E+00
         -3   -1    0    0    0  501 -0.00000000000E+00  0.00000000000E+00  0.49927053382E+03  0.49927053382E+03  0.00000000000E+00 0. -1.
         21   -1    0    0  503  502  0.00000000000E+00 -0.00000000000E+00 -0.10850395104E+03  0.10850395104E+03  0.00000000000E+00 0. -1.
         21    1    1    2  503  504 -0.57670247279E+02  0.86943699042E+02  0.63525750534E+02  0.12214984734E+03  0.00000000000E+00 0. -1.
         21    1    1    2  504  501 -0.30541620409E+01  0.42387363937E+02  0.71125766872E+02  0.82854639221E+02  0.00000000000E+00 0. -1.
         21    1    1    2  505  502  0.42319289154E+01  0.48408853562E+02 -0.32986109237E+02  0.58731675680E+02  0.00000000000E+00 0. -1.
         -3    1    1    2    0  505  0.56492480404E+02 -0.17773991654E+03  0.28910117461E+03  0.34403832262E+03  0.00000000000E+00 0. -1.
<scales pt_clust_3="37.65967" pt_clust_4="37.65967" pt_clust_5="48.59348" pt_clust_6="167.03597"></scales>
<clustering>
<clus scale="   37.660">  3  4 -1 -1</clus>
<clus scale="   48.593">  2  5  1 -1</clus>
<clus scale="  167.036">  1  6  2 -1</clus>
<clus scale="   48.593">  2  3  1 -1</clus>
</clustering>
</event>
<event>
 6    0  0.4017242E+002  0.8829872E+02  0.7546771E-02  0.1307025E+00
         21   -1    0    0  501  502  0.00000000000E+00  0.00000000000E+00  0.19677540910E+02  0.19677540910E+02  0.00000000000E+00 0.  1.
          2   -1    0    0  505    0 -0.00000000000E+00 -0.00000000000E+00 -0.17419262010E+04  0.17419262010E+04  0.00000000000E+00 0.  1.
         21    1    1    2  503  504  0.20346306154E+02 -0.53742813795E+02 -0.26333632169E+03  0.26953344975E+03  0.00000000000E+00 0.  1.
         21    1    1    2  504  502 -0.59410294030E+01 -0.45390732590E+02 -0.78239486699E+02  0.90647844510E+02  0.00000000000E+00 0.  1.
         21    1    1    2  505  503 -0.60311189314E+02  0.51856256062E+01 -0.10294806454E+03  0.11942627124E+03  0.00000000000E+00 0.  1.
          2    1    1    2  501    0  0.45905912563E+02  0.93947920779E+02 -0.12777247871E+04  0.12819961764E+04  0.00000000000E+00 0.  1.
<scales pt_clust_3="66.92924" pt_clust_4="45.77788" pt_clust_5="14000.00000" pt_clust_6="88.29872"></scales>
<clustering>
<clus scale="   45.778">  1  4  2 -1</clus>
<clus scale="   66.929">  1  3  2 -1</clus>
<clus scale="   88.299">  2  6  1 -1</clus>
<clus scale="   45.778">  1  3  2 -1</clus>
</clustering>
</event>
<event>
 6    0  0.4017242E+002  0.1191163E+03  0.7546771E-02  0.1244562E+00
          2   -1    0    0  505    0 -0.00000000000E+00  0.00000000000E+00  0.24810199737E+04  0.24810199737E+04  0.00000000000E+00 0. -1.
         21   -1    0    0  503  502  0.00000000000E+00 -0.00000000000E+00 -0.41861150184E+02  0.41861150184E+02  0.00000000000E+00 0. -1.
         21    1    1    2  503  504 -0.88023835974E+02  0.23723771678E+02  0.60763546858E+03  0.61443622592E+03  0.00000000000E+00 0. -1.
         21    1    1    2  504  501 -0.34830258285E+02  0.34343212932E+02  0.62166873151E+03  0.62359010167E+03  0.00000000000E+00 0. -1.
         21    1    1    2  505  502  0.43352177780E+02 -0.90214729421E+01 -0.22012846859E+02  0.49450618997E+02  0.00000000000E+00 0. -1.
          2    1    1    2  501    0  0.79501916479E+02 -0.49045511668E+02  0.12318674703E+04  0.12354041773E+04  0.00000000000E+00 0. -1.
<scales pt_clust_3="40.48956" pt_clust_4="40.48956" pt_clust_5="44.28090" pt_clust_6="105.51408"></scales>
<clustering>
<clus scale="   40.490">  3  4 -1 -1</clus>
<clus scale="   44.281">  2  5  1 -1</clus>
<clus scale="  105.514">  1  6  2 -1</clus>
<clus scale="   44.281">  2  3  1 -1</clus>
</clustering>
</event>
<event>
 6    0  0.4017242E+002  0.9516291E+02  0.7546771E-02  0.1290810E+00
          2   -1    0    0  503    0 -0.00000000000E+00  0.00000000000E+00  0.97952590214E+03  0.97952590214E+03  0.00000000000E+00 0.  1.
         21   -1    0    0  504  502  0.00000000000E+00 -0.00000000000E+00 -0.12746955237E+04  0.12746955237E+04  0.00000000000E+00 0.  1.
         21    1    1    2  503  505 -0.99598901920E+01  0.37439488076E+02  0.93111985079E+02  0.10085016830E+03  0.00000000000E+00 0.  1.
         21    1    1    2  504  501 -0.79049104372E+02 -0.13473457083E+03 -0.34434873398E+02  0.15996226426E+03  0.00000000000E+00 0.  1.
         21    1    1    2  505  502  0.66859220221E+02  0.65370138639E+02 -0.11713031746E+04  0.11750295899E+04  0.00000000000E+00 0.  1.
          2    1    1    2  501    0  0.22149774344E+02  0.31924944119E+02  0.81745644130E+03  0.81837940344E+03  0.00000000000E+00 0.  1.
<scales pt_clust_3="38.74164" pt_clust_4="95.16291" pt_clust_5="14000.00000" pt_clust_6="67.86388"></scales>
<clustering>
<clus scale="   38.742">  1  3  2 -1</clus>
<clus scale="   67.864">  1  6  2 -1</clus>
<clus scale="   95.163">  1  4  2 -1</clus>
<clus scale="   95.163">  2  3  1 -1</clus>
</clustering>
</event>
<event>
 6    0  0.4017242E+002  0.1563728E+03  0.7546771E-02  0.1192854E+00
         21   -1    0    0  504  502  0.00000000000E+00  0.00000000000E+00  0.16356712808E+03  0.16356712808E+03  0.00000000000E+00 0. -1.
          1   -1    0    0  505    0 -0.00000000000E+00 -0.00000000000E+00 -0.17498850584E+04  0.17498850584E+04  0.00000000000E+00 0.  1.
         21    1    1    2  503  502  0.51854420325E+02  0.26546865774E+02  0.43118285926E+02  0.72476227625E+02  0.00000000000E+00 0. -1.
         21    1    1    2  504  501 -0.42105738669E+02 -0.10784548575E+02 -0.47264556901E+02  0.64211666042E+02  0.00000000000E+00 0.  1.
         21    1    1    2  505  503  0.13157210425E+03 -0.24469560219E+02  0.46706179124E+02  0.14174429499E+03  0.00000000000E+00 0. -1.
          1    1    1    2  501    0 -0.14132078591E+03  0.87072430196E+01 -0.16288778384E+04  0.16350199978E+04  0.00000000000E+00 0.  1.
<scales pt_clust_3="42.61716" pt_clust_4="43.46493" pt_clust_5="42.61716" pt_clust_6="142.40806"></scales>
<clustering>
<clus scale="   42.617">  3  5 -1 -1</clus>
<clus scale="   43.465">  1  4  2 -1</clus>
<clus scale="  142.408">  2  6  1 -1</clus>
<clus scale="   43.465">  1  3  2 -1</clus>
</clustering>
</event>
<event>
 6    0  0.4017242E+002  0.8888499E+02  0.7546771E-02  0.1305575E+00
         21   -1    0    0  505  502  0.00000000000E+00  0.00000000000E+00  0.14578364397E+03  0.14578364397E+03  0.00000000000E+00 0.  1.
         -2   -1    0    0    0  501 -0.00000000000E+00 -0.00000000000E+00 -0.85382139978E+03  0.85382139978E+03  0.00000000000E+00 0.  1.
         21    1    1    2  503  504  0.41004291386E+02  0.80794028183E+02 -0.19209669503E+03  0.21239154207E+03  0.00000000000E+00 0.  1.
         21    1    1    2  504  502 -0.20367485810E+02 -0.86571771143E+02  0.11389625114E+03  0.14450557795E+03  0.00000000000E+00 0.  1.
         21    1    1    2  505  501 -0.47434724581E+02 -0.15634267238E+02 -0.10016769797E+03  0.11192877702E+03  0.00000000000E+00 0.  1.
         -2    1    1    2    0  503  0.26797919005E+02  0.21412010198E+02 -0.52966961394E+03  0.53077914670E+03  0.00000000000E+00 0.  1.
<scales pt_clust_3="14000.00000" pt_clust_4="88.88499" pt_clust_5="39.60150" pt_clust_6="34.30164"></scales>
<clustering>
<clus scale="   34.302">  2  6  1 -1</clus>
<clus scale="   39.601">  2  5  1 -1</clus>
<clus scale="   88.885">  1  4  2 -1</clus>
<clus scale="   88.885">  1  3  2 -1</clus>
</clustering>
</event>
<event>
 6    0  0.4017242E+002  0.1191771E+03  0.7546771E-02  0.1244461E+00
          2   -1    0    0  503    0 -0.00000000000E+00  0.00000000000E+00  0.20633840370E+04  0.20633840370E+04  0.00000000000E+00 0. -1.
         21   -1    0    0  504  502  0.00000000000E+00 -0.00000000000E+00 -0.47408048082E+02  0.47408048082E+02  0.00000000000E+00 0.  1.
         21    1    1    2  503  502  0.67895267211E+02  0.11915993340E+02  0.10847160258E+03  0.12852177549E+03  0.00000000000E+00 0.  1.
         21    1    1    2  504  505 -0.20929175343E+02  0.26928655339E+02  0.27236972717E+02  0.43646712839E+02  0.00000000000E+00 0. -1.
         21    1    1    2  505  501 -0.13875632557E+03  0.56820873379E-01  0.14572659167E+03  0.20122017949E+03  0.00000000000E+00 0.  1.
          2    1    1    2  501    0  0.91790233699E+02 -0.38901469552E+02  0.17345408219E+04  0.17374034173E+04  0.00000000000E+00 0. -1.
<scales pt_clust_3="68.93300" pt_clust_4="30.62486" pt_clust_5="30.62486" pt_clust_6="101.91891"></scales>
<clustering>
<clus scale="   30.625">  4  5 -1 -1</clus>
<clus scale="   68.933">  2  3  1 -1</clus>
<clus scale="  101.919">  1  6  2 -1</clus>
<clus scale="   68.933">  2  3  1 -1</clus>
</clustering>
</event>
<event>
 6    0  0.4017242E+002  0.1854259E+03  0.7546771E-02  0.1162653E+00
         21   -1    0    0  504  502  0.00000000000E+00  0.00000000000E+00  0.47854358156E+03  0.47854358156E+03  0.00000000000E+00 0. -1.
          2   -1    0    0  505    0 -0.00000000000E+00 -0.00000000000E+00 -0.11939429568E+04  0.11939429568E+04  0.00000000000E+00 0.  1.
         21    1    1    2  503  502  0.10804951439E+03  0.85598740626E+02  0.17383330200E+03  0.22185549090E+03  0.00000000000E+00 0. -1.
         21    1    1    2  504  501 -0.73524628047E+02 -0.60637693863E+02  0.62027940225E+02  0.11371132844E+03  0.00000000000E+00 0. -1.
         21    1    1    2  505  503  0.85657018912E+02  0.10965057703E+03  0.15946241137E+03  0.21163325488E+03  0.00000000000E+00 0. -1.
          2    1    1    2  501    0 -0.12018190526E+03 -0.13461162380E+03 -0.11107230288E+04  0.11252864641E+04  0.00000000000E+00 0.  1.
<scales pt_clust_3="34.21911" pt_clust_4="95.30373" pt_clust_5="34.21911" pt_clust_6="182.21091"></scales>
<clustering>
<clus scale="   34.219">  3  5 -1 -1</clus>
<clus scale="   95.304">  1  4  2 -1</clus>
<clus scale="  182.211">  2  6  1 -1</clus>
<clus scale="   95.304">  1  3  2 -1</clus>
</clustering>
</event>
<event>
 6    0  0.4017242E+002  0.1287887E+03  0.7546771E-02  0.1229264E+00
         21   -1    0    0  505  502  0.00000000000E+00  0.00000000000E+00  0.30042617117E+03  0.30042617117E+03  0.00000000000E+00 0.  1.
          2   -1    0    0  504    0 -0.00000000000E+00 -0.00000000000E+00 -0.15158295037E+04  0.15158295037E+04  0.00000000000E+00 0.  1.
         21    1    1    2  503  502 -0.13588076902E+02  0.39473373542E+02  0.27726071666E+02  0.50115048665E+02  0.00000000000E+00 0.  1.
         21    1    1    2  504  503 -0.33733993704E+02  0.10292756637E+03 -0.17389507893E+03  0.20486962861E+03  0.00000000000E+00 0. -1.
         21    1    1    2  505  501  0.12560337192E+03 -0.11057178267E+03  0.21601386452E+03  0.27324771880E+03  0.00000000000E+00 0.  1.
          2    1    1    2  501    0 -0.78281301310E+02 -0.31829157236E+02 -0.12852481898E+04  0.12880232788E+04  0.00000000000E+00 0.  1.
<scales pt_clust_3="41.74665" pt_clust_4="14000.00000" pt_clust_5="128.78870" pt_clust_6="84.49297"></scales>
<clustering>
<clus scale="   41.747">  1  3  2 -1</clus>
<clus scale="   84.493">  2  6  1 -1</clus>
<clus scale="  128.789">  1  5  2 -1</clus>
<clus scale="   41.747">  1  3  2 -1</clus>
</clustering>
</event>
<event>
 6    0  0.4017242E+002  0.1192752E+03  0.7546771E-02  0.1244297E+00
         21   -1    0    0  505  502  0.00000000000E+00  0.00000000000E+00  0.34601374934E+02  0.34601374934E+02  0.00000000000E+00 0.  1.
          2   -1    0    0  503    0 -0.00000000000E+00 -0.00000000000E+00 -0.23754709234E+04  0.23754709234E+04  0.00000000000E+00 0. -1.
         21    1    1    2  503  504 -0.25181692657E+02 -0.19136330653E+02 -0.27772633780E+03  0.27952144015E+03  0.00000000000E+00 0.  1.
         21    1    1    2  504  502 -0.50243348667E+02 -0.62585833111E+02 -0.12220821950E+03  0.14620611993E+03  0.00000000000E+00 0.  1.
         21    1    1    2  505  501 -0.65739689319E+02  0.95781677623E+02 -0.15977722539E+03  0.19754644587E+03  0.00000000000E+00 0.  1.
          2    1    1    2  501    0  0.14116473064E+03 -0.14059513859E+02 -0.17811577657E+04  0.17867982923E+04  0.00000000000E+00 0. -1.
<scales pt_clust_3="31.62779" pt_clust_4="82.22377" pt_clust_5="119.27523" pt_clust_6="14000.00000"></scales>
<clustering>
<clus scale="   31.628">  2  3  1 -1</clus>
<clus scale="   82.224">  1  4  2 -1</clus>
<clus scale="  119.275">  1  5  2 -1</clus>
<clus scale="   82.224">  1  3  2 -1</clus>
</clustering>
</event>
<event>
 6    0  0.4017242E+002  0.1510155E+03  0.7546771E-02  0.1199231E+00
         21   -1    0    0  504  502  0.00000000000E+00  0.00000000000E+00  0.34756387705E+03  0.34756387705E+03  0.00000000000E+00 0.  1.
          2   -1    0    0  505    0 -0.00000000000E+00 -0.00000000000E+00 -0.19142011413E+04  0.19142011413E+04  0.00000000000E+00 0.  1.
         21    1    1    2  503  501 -0.11493273293E+03  0.13736949721E+02  0.19676366075E+03  0.22828529317E+03  0.00000000000E+00 0.  1.
         21    1    1    2  504  503 -0.26100329875E+02 -0.22860411295E+02  0.10103540745E+03  0.10682686545E+03  0.00000000000E+00 0.  1.
         21    1    1    2  505  502  0.10731624629E+03  0.83091040574E+02 -0.12253075959E+03  0.18285153756E+03  0.00000000000E+00 0.  1.
          2    1    1    2  501    0  0.33716816512E+02 -0.73967578999E+02 -0.17419055728E+04  0.17438013222E+04  0.00000000000E+00 0.  1.
<scales pt_clust_3="33.04209" pt_clust_4="33.04209" pt_clust_5="138.43177" pt_clust_6="81.28977"></scales>
<clustering>
<clus scale="   33.042">  3  4 -1 -1</clus>
<clus scale="   81.290">  2  6  1 -1</clus>
<clus scale="  138.432">  2  5  1 -1</clus>
<clus scale="  151.015">  1  3  2 -1</clus>
</clustering>
</event>
<event>
 6    0  0.4017242E+002  0.2165067E+03  0.7546771E-02  0.1136515E+00
          2   -1    0    0  504    0 -0.00000000000E+00  0.00000000000E+00  0.47723520590E+04  0.47723520590E+04  0.00000000000E+00 0.  1.
         21   -1    0    0  503  502  0.00000000000E+00 -0.00000000000E+00 -0.12906587994E+03  0.12906587994E+03  0.00000000000E+00 0.  1.
         21    1    1    2  503  505  0.60809145987E+02  0.75387333534E+02  0.14182642643E+03  0.17174323139E+03  0.00000000000E+00 0.  1.
         21    1    1    2  504  502 -0.53160007061E+02  0.96758744846E+02 -0.58250463972E+02  0.12482530836E+03  0.00000000000E+00 0.  1.
         21    1    1    2  505  501  0.87829282115E+02  0.91830725406E+01  0.76145660937E+02  0.11660391631E+03  0.00000000000E+00 0. -1.
          2    1    1    2  501    0 -0.95478421041E+02 -0.18132915092E+03  0.44835645556E+04  0.44882454829E+04  0.00000000000E+00 0.  1.
<scales pt_clust_3="76.30912" pt_clust_4="110.40037" pt_clust_5="76.30912" pt_clust_6="201.21742"></scales>
<clustering>
<clus scale="   76.309">  3  5 -1 -1</clus>
<clus scale="  110.400">  2  4  1 -1</clus>
<clus scale="  201.217">  1  6  2 -1</clus>
<clus scale="  110.400">  2  3  1 -1</clus>
</clustering>
</event>
<event>
 6    0  0.4017242E+002  0.1322248E+03  0.7546771E-02  0.1224191E+00
         21   -1    0    0  503  502  0.00000000000E+00  0.00000000000E+00  0.69865488700E+02  0.69865488700E+02  0.00000000000E+00 0.  1.
          2   -1    0    0  504    0 -0.00000000000E+00 -0.00000000000E+00 -0.27083595767E+04  0.27083595767E+04  0.00000000000E+00 0. -1.
         21    1    1    2  503  505 -0.54790243526E+02 -0.25953596481E+01  0.43204200823E+02  0.69823417605E+02  0.00000000000E+00 0.  1.
         21    1    1    2  504  502 -0.73019569991E+02  0.11755090761E+03 -0.85195495476E+03  0.86312068589E+03  0.00000000000E+00 0. -1.
         21    1    1    2  505  501  0.85130501672E+02  0.80145789991E+01 -0.37028410631E+03  0.38002862415E+03  0.00000000000E+00 0. -1.
          2    1    1    2  501    0  0.42679311845E+02 -0.12297012696E+03 -0.14594592278E+04  0.14652523377E+04  0.00000000000E+00 0. -1.
<scales pt_clust_3="54.85168" pt_clust_4="132.22484" pt_clust_5="65.51889" pt_clust_6="14000.00000"></scales>
<clustering>
<clus scale="   54.852">  1  3  2 -1</clus>
<clus scale="   65.519">  1  5  2 -1</clus>
<clus scale="  132.225">  1  4  2 -1</clus>
<clus scale="   54.852">  1  3  2 -1</clus>
</clustering>
</event>
<event>
 6    0  0.4017242E+002  0.1902594E+03  0.7546771E-02  0.1158228E+00
          3   -1    0    0  504    0 -0.00000000000E+00  0.00000000000E+00  0.41144863361E+03  0.41144863361E+03  0.00000000000E+00 0.  1.
         21   -1    0    0  505  502  0.00000000000E+00 -0.00000000000E+00 -0.31080965129E+03  0.31080965129E+03  0.00000000000E+00 0. -1.
         21    1    1    2  503  502 -0.29961602839E+02 -0.55444875568E+02 -0.22931347442E+00  0.63022888352E+02  0.00000000000E+00 0.  1.
         21    1    1    2  504  503 -0.81196191588E+02 -0.12997570350E+03 -0.88155165078E+02  0.17679886357E+03  0.00000000000E+00 0.  1.
         21    1    1    2  505  501  0.21546569420E+02  0.32299499371E+02 -0.11998933831E+03  0.12611484299E+03  0.00000000000E+00 0. -1.
          3    1    1    2  501    0  0.89611225007E+02  0.15312107970E+03  0.30901279918E+03  0.35632168999E+03  0.00000000000E+00 0.  1.
<scales pt_clust_3="34.92326" pt_clust_4="34.92326" pt_clust_5="38.82670" pt_clust_6="182.29875"></scales>
<clustering>
<clus scale="   34.923">  3  4 -1 -1</clus>
<clus scale="   38.827">  2  5  1 -1</clus>
<clus scale="  182.299">  1  6  2 -1</clus>
<clus scale="   38.827">  2  3  1 -1</clus>
</clustering>
</event>
<event>
 6    0  0.4017242E+002  0.9674981E+02  0.7546771E-02  0.1287283E+00
          1   -1    0    0  505    0 -0.00000000000E+00  0.00000000000E+00  0.53934764383E+03  0.53934764383E+03  0.00000000000E+00 0. -1.
         21   -1    0    0  504  502  0.00000000000E+00 -0.00000000000E+00 -0.16121681644E+03  0.16121681644E+03  0.00000000000E+00 0.  1.
         21    1    1    2  503  502  0.24119485628E+02 -0.32976129473E+02 -0.48339364090E+02  0.63291933314E+02  0.00000000000E+00 0.  1.
         21    1    1    2  504  501 -0.12047676474E+03 -0.25190576063E+02 -0.11403750338E+02  0.12360930986E+03  0.00000000000E+00 0.  1.
         21    1    1    2  505  503  0.65928868130E+02  0.42094207389E+02  0.38907273883E+01  0.78317786665E+02  0.00000000000E+00 0. -1.
          1    1    1    2  501    0  0.30428410978E+02  0.16072498147E+02  0.43398321442E+03  0.43534543042E+03  0.00000000000E+00 0. -1.
<scales pt_clust_3="41.28366" pt_clust_4="14000.00000" pt_clust_5="96.74981" pt_clust_6="34.41240"></scales>
<clustering>
<clus scale="   34.412">  1  6  2 -1</clus>
<clus scale="   41.284">  2  3  1 -1</clus>
<clus scale="   96.750">  2  5  1 -1</clus>
<clus scale="   41.284">  2  3  1 -1</clus>
</clustering>
</event>
<event>
 6    0  0.4017242E+002  0.3103745E+03  0.7546771E-02  0.1080167E+00
          1   -1    0    0  505    0 -0.00000000000E+00  0.00000000000E+00  0.14263619501E+04  0.14263619501E+04  0.00000000000E+00 0.  1.
         21   -1    0    0  501  502  0.00000000000E+00 -0.00000000000E+00 -0.14704881918E+03  0.14704881918E+03  0.00000000000E+00 0. -1.
         21    1    1    2  503  502  0.26505484454E+03  0.17501300526E+03  0.15830853437E+03  0.35488760851E+03  0.00000000000E+00 0. -1.
         21    1    1    2  504  503 -0.60804590542E+02  0.12808740705E+02  0.12358103651E+03  0.13832402052E+03  0.00000000000E+00 0.  1.
         21    1    1    2  505  504 -0.47186900782E+02  0.79754311452E+02  0.13571467843E+03  0.16433449955E+03  0.00000000000E+00 0. -1.
          1    1    1    2  501    0 -0.15706335321E+03 -0.26757605741E+03  0.86170888162E+03  0.91586464070E+03  0.00000000000E+00 0.  1.
<scales pt_clust_3="310.37450" pt_clust_4="52.67492" pt_clust_5="156.10225" pt_clust_6="14000.00000"></scales>
<clustering>
<clus scale="   52.675">  4  5 -1 -1</clus>
<clus scale="  156.102">  1  4  2 -1</clus>
<clus scale="  310.374">  2  3  1 -1</clus>
<clus scale="  310.374">  2  3  1 -1</clus>
</clustering>
</event>
<event>
 6    0  0.4017242E+002  0.8024856E+02  0.7546771E-02  0.1328348E+00
         21   -1    0    0  504  502  0.00000000000E+00  0.00000000000E+00  0.10276491322E+02  0.10276491322E+02  0.00000000000E+00 0.  1.
          2   -1    0    0  505    0 -0.00000000000E+00 -0.00000000000E+00 -0.39812194326E+04  0.39812194326E+04  0.00000000000E+00 0. -1.
         21    1    1    2  503  502  0.12657864647E+02  0.11684750297E+03 -0.40419188995E+03  0.42093306402E+03  0.00000000000E+00 0.  1.
         21    1    1    2  504  501  0.81085195227E+00 -0.36065213156E+02 -0.33773678503E+03  0.33965790590E+03  0.00000000000E+00 0. -1.
         21    1    1    2  505  503 -0.30889426234E+02 -0.25559412574E+02 -0.64674439719E+03  0.64798592232E+03  0.00000000000E+00 0.  1.
          2    1    1    2  501    0  0.17420709635E+02 -0.55222877241E+02 -0.25822698691E+04  0.25829190317E+04  0.00000000000E+00 0. -1.
<scales pt_clust_3="80.24856" pt_clust_4="36.07433" pt_clust_5="41.62606" pt_clust_6="14000.00000"></scales>
<clustering>
<clus scale="   36.074">  1  4  2 -1</clus>
<clus scale="   41.626">  2  5  1 -1</clus>
<clus scale="   80.249">  1  3  2 -1</clus>
<clus scale="   36.074">  1  3  2 -1</clus>
</clustering>
</event>
<event>
 6    0  0.4017242E+002  0.1266945E+03  0.7546771E-02  0.1232445E+00
         21   -1    0    0  501  502  0.00000000000E+00  0.00000000000E+00  0.21683861382E+03  0.21683861382E+03  0.00000000000E+00 0. -1.
          2   -1    0    0  504    0 -0.00000000000E+00 -0.00000000000E+00 -0.34126241125E+03  0.34126241125E+03  0.00000000000E+00 0. -1.
         21    1    1    2  503  505 -0.11238084199E+03  0.80779891336E+02  0.77370963081E+02  0.15855948542E+03  0.00000000000E+00 0. -1.
         21    1    1    2  504  503  0.48231046732E+02 -0.13912085716E+03 -0.45018011284E+02  0.15397229656E+03  0.00000000000E+00 0. -1.
         21    1    1    2  505  502  0.31751950506E+02  0.16628349479E+00  0.32189117725E+02  0.45214525443E+02  0.00000000000E+00 0. -1.
          2    1    1    2  501    0  0.32397844748E+02  0.58174682332E+02 -0.18896586696E+03  0.20035471765E+03  0.00000000000E+00 0. -1.
<scales pt_clust_3="14000.00000" pt_clust_4="126.69451" pt_clust_5="31.75239" pt_clust_6="67.09196"></scales>
<clustering>
<clus scale="   31.752">  1  5  2 -1</clus>
<clus scale="   67.092">  2  6  1 -1</clus>
<clus scale="  126.695">  2  4  1 -1</clus>
<clus scale="   31.752">  1  3  2 -1</clus>
</clustering>
</event>
<event>
 6    0  0.4017242E+002  0.8644112E+02  0.7546771E-02  0.1311706E+00
          1   -1    0    0  505    0 -0.00000000000E+00  0.00000000000E+00  0.17652285844E+04  0.17652285844E+04  0.00000000000E+00 0. -1.
         21   -1    0    0  503  502  0.00000000000E+00 -0.00000000000E+00 -0.30737136870E+02  0.30737136870E+02  0.00000000000E+00 0. -1.
         21    1    1    2  503  504 -0.42124068124E+02  0.32308160734E+02  0.28233984494E+02  0.60128298211E+02  0.00000000000E+00 0. -1.
         21    1    1    2  504  501  0.12492847568E+02 -0.83967027997E+02  0.39293373210E+03  0.40199931698E+03  0.00000000000E+00 0.  1.
         21    1    1    2  505  502 -0.19608931338E+02  0.70229850470E+02  0.12773147758E+03  0.14707845678E+03  0.00000000000E+00 0. -1.
          1    1    1    2  501    0  0.49240151894E+02 -0.18570983207E+02  0.11855922534E+04  0.11867596493E+04  0.00000000000E+00 0. -1.
<scales pt_clust_3="49.25750" pt_clust_4="14000.00000" pt_clust_5="86.44112" pt_clust_6="52.62579"></scales>
<clustering>
<clus scale="   52.626">  1  6  2 -1</clus>
<clus scale="   49.257">  2  3  1 -1</clus>
<clus scale="   86.441">  2  5  1 -1</clus>
<clus scale="   49.257">  2  3  1 -1</clus>
</clustering>
</event>
<event>
 6    0  0.4017242E+002  0.1739433E+03  0.7546771E-02  0.1173797E+00
         -1   -1    0    0    0  501 -0.00000000000E+00  0.00000000000E+00  0.10753195931E+04  0.10753195931E+04  0.00000000000E+00 0. -1.
         21   -1    0    0  505  502  0.00000000000E+00 -0.00000000000E+00 -0.65422383108E+03  0.65422383108E+03  0.00000000000E+00 0.  1.
         21    1    1    2  503  502 -0.92903675075E+01 -0.20238590613E+03 -0.19319186891E+03  0.27994546637E+03  0.00000000000E+00 0.  1.
         21    1    1    2  504  503  0.65804366004E+02  0.53370097271E+02 -0.57095320744E+02  0.10216876978E+03  0.00000000000E+00 0.  1.
         21    1    1    2  505  501 -0.22737179406E+02  0.16050211246E+03 -0.31824819503E+03  0.35715517786E+03  0.00000000000E+00 0.  1.
         -1    1    1    2    0  504 -0.33776819091E+02 -0.11486303598E+02  0.98963114666E+03  0.99027401012E+03  0.00000000000E+00 0. -1.
<scales pt_clust_3="14000.00000" pt_clust_4="75.96090" pt_clust_5="173.94329" pt_clust_6="35.67644"></scales>
<clustering>
<clus scale="   35.676">  1  6  2 -1</clus>
<clus scale="   75.961">  1  4  2 -1</clus>
<clus scale="  173.943">  2  5  1 -1</clus>
<clus scale="  173.943">  2  3  1 -1</clus>
</clustering>
</event>
<event>
 6    0  0.4017242E+002  0.1270567E+03  0.7546771E-02  0.1231890E+00
         21   -1    0    0  503  502  0.00000000000E+00  0.00000000000E+00  0.75053531205E+03  0.75053531205E+03  0.00000000000E+00 0. -1.
          2   -1    0    0  505    0 -0.00000000000E+00 -0.00000000000E+00 -0.18019407532E+03  0.18019407532E+03  0.00000000000E+00 0. -1.
         21    1    1    2  503  504  0.98812122424E+02 -0.90443564806E+02  0.32381883021E+03  0.35043188889E+03  0.00000000000E+00 0. -1.
         21    1    1    2  504  501  0.64045146857E+02  0.51545171767E+02  0.14279213810E+03  0.16476735196E+03  0.00000000000E+00 0. -1.
         21    1    1    2  505  502 -0.12203375380E+03  0.33940944834E+02  0.24098555177E+03  0.27224669138E+03  0.00000000000E+00 0. -1.
          2    1    1    2  501    0 -0.40823515479E+02  0.49574482055E+01 -0.13725528335E+03  0.14328345514E+03  0.00000000000E+00 0. -1.
<scales pt_clust_3="127.05669" pt_clust_4="74.75514" pt_clust_5="14000.00000" pt_clust_6="41.12342"></scales>
<clustering>
<clus scale="   41.123">  2  6  1 -1</clus>
<clus scale="   74.755">  2  4  1 -1</clus>
<clus scale="  127.057">  1  3  2 -1</clus>
<clus scale="  127.057">  1  3  2 -1</clus>
</clustering>
</event>
<event>
 6    0  0.4017242E+002  0.9103844E+02  0.7546771E-02  0.1300356E+00
         21   -1    0    0  505  502  0.00000000000E+00  0.00000000000E+00  0.10192620812E+03  0.10192620812E+03  0.00000000000E+00 0.  1.
          2   -1    0    0  503    0 -0.00000000000E+00 -0.00000000000E+00 -0.25917451837E+03  0.25917451837E+03  0.00000000000E+00 0.  1.
         21    1    1    2  503  504  0.98110540465E+02  0.54507249848E+01 -0.27084193330E+02  0.10192615995E+03  0.00000000000E+00 0.  1.
         21    1    1    2  504  502  0.28148830610E+02  0.15048518856E+02  0.22430857896E+02  0.39012279739E+02  0.00000000000E+00 0.  1.
         21    1    1    2  505  501 -0.37560504617E+02 -0.17067562136E+02  0.26398706579E+01  0.41340804315E+02  0.00000000000E+00 0.  1.
          2    1    1    2  501    0 -0.88698866459E+02 -0.34316817051E+01 -0.15523484548E+03  0.17882148249E+03  0.00000000000E+00 0.  1.
<scales pt_clust_3="91.03844" pt_clust_4="31.91888" pt_clust_5="31.42570" pt_clust_6="14000.00000"></scales>
<clustering>
<clus scale="   31.919">  1  4  2 -1</clus>
<clus scale="   31.426">  1  5  2 -1</clus>
<clus scale="   91.038">  1  3  2 -1</clus>
<clus scale="   31.919">  1  3  2 -1</clus>
</clustering>
</event>
<event>
 6    0  0.4017242E+002  0.1481169E+03  0.7546771E-02  0.1202806E+00
          1   -1    0    0  503    0 -0.00000000000E+00  0.00000000000E+00  0.14861318349E+04  0.14861318349E+04  0.00000000000E+00 0.  1.
         21   -1    0    0  505  502  0.00000000000E+00 -0.00000000000E+00 -0.42993098456E+03  0.42993098456E+03  0.00000000000E+00 0. -1.
         21    1    1    2  503  504  0.17192327298E+02 -0.95590169412E+02  0.26634696023E+03  0.28350266283E+03  0.00000000000E+00 0.  1.
         21    1    1    2  504  502  0.40538643630E+02 -0.49327761900E+02  0.20371594246E+03  0.21348722429E+03  0.00000000000E+00 0.  1.
         21    1    1    2  505  501 -0.88122875281E+02  0.11142002364E+03 -0.40382226396E+03  0.42807999683E+03  0.00000000000E+00 0. -1.
          1    1    1    2  501    0  0.30391904353E+02  0.33497907669E+02  0.98996021165E+03  0.99099293556E+03  0.00000000000E+00 0.  1.
<scales pt_clust_3="33.48641" pt_clust_4="33.48641" pt_clust_5="142.24232" pt_clust_6="45.23027"></scales>
<clustering>
<clus scale="   33.486">  3  4 -1 -1</clus>
<clus scale="   45.230">  1  6  2 -1</clus>
<clus scale="  142.242">  2  5  1 -1</clus>
<clus scale="  142.242">  2  3  1 -1</clus>
</clustering>
</event>
<event>
 6    0  0.4017242E+002  0.1587590E+03  0.7546771E-02  0.1190105E+00
          2   -1    0    0  502    0 -0.00000000000E+00  0.00000000000E+00  0.89435105629E+03  0.89435105629E+03  0.00000000000E+00 0.  1.
         21   -1    0    0  503  502  0.00000000000E+00 -0.00000000000E+00 -0.54044361627E+02  0.54044361627E+02  0.00000000000E+00 0.  1.
         21    1    1    2  503  505 -0.87619148019E+01  0.77963606004E+02  0.62957423381E+02  0.10059190907E+03  0.00000000000E+00 0.  1.
         21    1    1    2  504  501 -0.50066023411E+02 -0.27855156326E+02  0.12495740490E+03  0.13746588476E+03  0.00000000000E+00 0.  1.
         21    1    1    2  505  504  0.15368628190E+03 -0.25072453891E+02  0.23744794114E+03  0.28395356300E+03  0.00000000000E+00 0.  1.
          2    1    1    2  501    0 -0.94858343686E+02 -0.25035995787E+02  0.41494392525E+03  0.42638406109E+03  0.00000000000E+00 0.  1.
<scales pt_clust_3="78.45441" pt_clust_4="39.21110" pt_clust_5="150.23860" pt_clust_6="39.21110"></scales>
<clustering>
<clus scale="   39.211">  4  6 -1 -1</clus>
<clus scale="   78.454">  2  3  1 -1</clus>
<clus scale="  150.239">  2  5  1 -1</clus>
<clus scale="   78.454">  2  3  1 -1</clus>
</clustering>
</event>
<event>
 6    0  0.4017242E+002  0.1715027E+03  0.7546771E-02  0.1176290E+00
         -3   -1    0    0    0  501 -0.00000000000E+00  0.00000000000E+00  0.58057590551E+03  0.58057590551E+03  0.00000000000E+00 0. -1.
         21   -1    0    0  505  502  0.00000000000E+00 -0.00000000000E+00 -0.63882149218E+03  0.63882149218E+03  0.00000000000E+00 0.  1.
         21    1    1    2  503  501  0.13041138979E+03 -0.45255692694E+02 -0.94647138570E+01  0.13836469607E+03  0.00000000000E+00 0.  1.
         21    1    1    2  504  503 -0.64448779448E+02  0.38335469363E+01 -0.18711500272E+03  0.19794030791E+03  0.00000000000E+00 0.  1.
         21    1    1    2  505  504 -0.87305358889E+02  0.70235259409E+02 -0.36329561662E+03  0.38018274871E+03  0.00000000000E+00 0.  1.
         -3    1    1    2    0  502  0.21342748543E+02 -0.28813113651E+02  0.50162974653E+03  0.50290964500E+03  0.00000000000E+00 0. -1.
<scales pt_clust_3="163.26134" pt_clust_4="40.05887" pt_clust_5="40.05887" pt_clust_6="35.85678"></scales>
<clustering>
<clus scale="   35.857">  1  6  2 -1</clus>
<clus scale="   40.059">  4  5 -1 -1</clus>
<clus scale="  163.261">  1  3  2 -1</clus>
<clus scale="  171.503">  2  3  1 -1</clus>
</clustering>
</event>
<event>
 6    0  0.4017242E+002  0.1118065E+03  0.7546771E-02  0.1257261E+00
         -1   -1    0    0    0  501 -0.00000000000E+00  0.00000000000E+00  0.40353678106E+04  0.40353678106E+04  0.00000000000E+00 0.  1.
         21   -1    0    0  503  502  0.00000000000E+00 -0.00000000000E+00 -0.54480016924E+02  0.54480016924E+02  0.00000000000E+00 0. -1.
         21    1    1    2  503  505 -0.28892932630E+02 -0.11251982187E+02  0.34389687853E+02  0.46303987838E+02  0.00000000000E+00 0. -1.
         21    1    1    2  504  502 -0.12110939869E+03  0.11489716664E+03  0.12488775110E+03  0.20848452155E+03  0.00000000000E+00 0. -1.
         21    1    1    2  505  501  0.39577275715E+02 -0.89763939883E+02  0.40774766335E+03  0.41938297847E+03  0.00000000000E+00 0. -1.
         -1    1    1    2    0  504  0.11042505560E+03 -0.13881244565E+02  0.34138626914E+04  0.34156763397E+04  0.00000000000E+00 0.  1.
<scales pt_clust_3="31.00659" pt_clust_4="14000.00000" pt_clust_5="98.00887" pt_clust_6="111.80649"></scales>
<clustering>
<clus scale="   31.007">  2  3  1 -1</clus>
<clus scale="   98.009">  2  5  1 -1</clus>
<clus scale="  111.806">  1  6  2 -1</clus>
<clus scale="   31.007">  2  3  1 -1</clus>
</clustering>
</event>
<event>
 6    0  0.4017242E+002  0.2547388E+03  0.7546771E-02  0.1110346E+00
         21   -1    0    0  503  502  0.00000000000E+00  0.00000000000E+00  0.28144064890E+03  0.28144064890E+03  0.00000000000E+00 0.  1.
          2   -1    0    0  504    0 -0.00000000000E+00 -0.00000000000E+00 -0.12174150609E+04  0.12174150609E+04  0.00000000000E+00 0.  1.
         21    1    1    2  503  505  0.41575602061E+02 -0.13706635677E+02  0.92455928798E+02  0.10229614518E+03  0.00000000000E+00 0. -1.
         21    1    1    2  504  502 -0.16041592834E+02  0.18196580693E+03  0.70737400860E+02  0.19588942665E+03  0.00000000000E+00 0.  1.
         21    1    1    2  505  501 -0.10352738066E+03  0.84501940129E+02 -0.99533328693E+02  0.16662946904E+03  0.00000000000E+00 0.  1.
          2    1    1    2  501    0  0.77993371431E+02 -0.25276111138E+03 -0.99963441292E+03  0.10340406689E+04  0.00000000000E+00 0.  1.
<scales pt_clust_3="43.77674" pt_clust_4="254.73876" pt_clust_5="126.21790" pt_clust_6="14000.00000"></scales>
<clustering>
<clus scale="   43.777">  1  3  2 -1</clus>
<clus scale="  126.218">  1  5  2 -1</clus>
<clus scale="  254.739">  1  4  2 -1</clus>
<clus scale="   43.777">  1  3  2 -1</clus>
</clustering>
</event>
<event>
 6    0  0.4017242E+002  0.1484372E+03  0.7546771E-02  0.1202407E+00
         -3   -1    0    0    0  501 -0.00000000000E+00  0.00000000000E+00  0.12831410856E+04  0.12831410856E+04  0.00000000000E+00 0.  1.
         21   -1    0    0  504  502  0.00000000000E+00 -0.00000000000E+00 -0.24870455388E+03  0.24870455388E+03  0.00000000000E+00 0.  1.
         21    1    1    2  503  502  0.28722688723E+02 -0.13408680841E+02 -0.16073762554E+03  0.16383335995E+03  0.00000000000E+00 0.  1.
         21    1    1    2  504  501  0.81757697170E+01  0.18749990896E+03  0.21212552693E+03  0.28323188070E+03  0.00000000000E+00 0.  1.
         21    1    1    2  505  503 -0.87805021545E+02 -0.38880765890E+02  0.50426337910E+01  0.96160615224E+02  0.00000000000E+00 0.  1.
         -3    1    1    2    0  505  0.50906563105E+02 -0.13521046223E+03  0.97800599656E+03  0.98861978363E+03  0.00000000000E+00 0.  1.
<scales pt_clust_3="31.69835" pt_clust_4="148.43719" pt_clust_5="85.97239" pt_clust_6="14000.00000"></scales>
<clustering>
<clus scale="   31.698">  2  3  1 -1</clus>
<clus scale="   85.972">  2  5  1 -1</clus>
<clus scale="  148.437">  2  4  1 -1</clus>
<clus scale="   31.698">  2  3  1 -1</clus>
</clustering>
</event>
<event>
 6    0  0.4017242E+002  0.2311758E+03  0.7546771E-02  0.1125815E+00
          1   -1    0    0  504    0 -0.00000000000E+00  0.00000000000E+00  0.31125754661E+03  0.31125754661E+03  0.00000000000E+00 0. -1.
         21   -1    0    0  503  502  0.00000000000E+00 -0.00000000000E+00 -0.53697924927E+03  0.53697924927E+03  0.00000000000E+00 0. -1.
         21    1    1    2  503  501  0.24225913001E+02  0.20536455615E+03 -0.11327603321E+03  0.23578158428E+03  0.00000000000E+00 0. -1.
         21    1    1    2  504  505 -0.19348414750E+02 -0.40046333035E+02 -0.56038139882E+02  0.71542596153E+02  0.00000000000E+00 0.  1.
         21    1    1    2  505  502 -0.21747531798E+03 -0.14419430942E+03 -0.15725917725E+03  0.30466040378E+03  0.00000000000E+00 0. -1.
          1    1    1    2  501    0  0.21259781973E+03 -0.21123913695E+02  0.10085164767E+03  0.23625221167E+03  0.00000000000E+00 0. -1.
<scales pt_clust_3="206.78853" pt_clust_4="31.98693" pt_clust_5="31.98693" pt_clust_6="217.80584"></scales>
<clustering>
<clus scale="   31.987">  4  5 -1 -1</clus>
<clus scale="  206.789">  2  3  1 -1</clus>
<clus scale="  217.806">  1  6  2 -1</clus>
<clus scale="  206.789">  2  3  1 -1</clus>
</clustering>
</event>
<event>
 6    0  0.4017242E+002  0.2152145E+03  0.7546771E-02  0.1137502E+00
          1   -1    0    0  505    0 -0.00000000000E+00  0.00000000000E+00  0.38557788955E+04  0.38557788955E+04  0.00000000000E+00 0. -1.
         21   -1    0    0  503  502  0.00000000000E+00 -0.00000000000E+00 -0.48352040293E+02  0.48352040293E+02  0.00000000000E+00 0. -1.
         21    1    1    2  503  501  0.35563356264E+02  0.16009386419E+02 -0.17652069818E+02  0.42809442079E+02  0.00000000000E+00 0. -1.
         21    1    1    2  504  502 -0.62215945250E+02 -0.19219430692E+03  0.17305285811E+04  0.17422797266E+04  0.00000000000E+00 0. -1.
         21    1    1    2  505  504 -0.42643629530E+02 -0.25997708029E+02  0.11296776510E+04  0.11307811261E+04  0.00000000000E+00 0. -1.
          1    1    1    2  501    0  0.69296218516E+02  0.20218262853E+03  0.96487269282E+03  0.98826064099E+03  0.00000000000E+00 0. -1.
<scales pt_clust_3="39.00068" pt_clust_4="215.21445" pt_clust_5="48.76553" pt_clust_6="14000.00000"></scales>
<clustering>
<clus scale="   39.001">  2  3  1 -1</clus>
<clus scale="   48.766">  1  5  2 -1</clus>
<clus scale="  215.214">  1  4  2 -1</clus>
<clus scale="   39.001">  2  3  1 -1</clus>
</clustering>
</event>
<event>
 6    0  0.4017242E+002  0.1139482E+03  0.7546771E-02  0.1253428E+00
          2   -1    0    0  505    0 -0.00000000000E+00  0.00000000000E+00  0.12850962371E+04  0.12850962371E+04  0.00000000000E+00 0.  1.
         21   -1    0    0  501  502  0.00000000000E+00 -0.00000000000E+00 -0.11360138711E+03  0.11360138711E+03  0.00000000000E+00 0. -1.
         21    1    1    2  503  502 -0.10652922665E+03 -0.89320985715E+00 -0.76753789437E+02  0.13130277281E+03  0.00000000000E+00 0. -1.
         21    1    1    2  504  503  0.39847084783E+02  0.57586668972E+02  0.28733705924E+03  0.29574752783E+03  0.00000000000E+00 0.  1.
         21    1    1    2  505  504  0.45253485364E+02  0.30064706349E+02  0.39643387847E+03  0.40013945632E+03  0.00000000000E+00 0.  1.
          2    1    1    2  501    0  0.21428656502E+02 -0.86758165464E+02  0.56447770176E+03  0.57150786730E+03  0.00000000000E+00 0.  1.
<scales pt_clust_3="105.79733" pt_clust_4="37.27742" pt_clust_5="37.27742" pt_clust_6="89.36535"></scales>
<clustering>
<clus scale="   37.277">  4  5 -1 -1</clus>
<clus scale="   89.365">  1  6  2 -1</clus>
<clus scale="  105.797">  2  3  1 -1</clus>
<clus scale="  105.797">  2  3  1 -1</clus>
</clustering>
</event>
<event>
 6    0  0.4017242E+002  0.1089116E+03  0.7546771E-02  0.1262599E+00
         21   -1    0    0  504  502  0.00000000000E+00  0.00000000000E+00  0.96476901486E+02  0.96476901486E+02  0.00000000000E+00 0.  1.
          3   -1    0    0  505    0 -0.00000000000E+00 -0.00000000000E+00 -0.44327865452E+03  0.44327865452E+03  0.00000000000E+00 0.  1.
         21    1    1    2  503  502 -0.54619030503E+01  0.72242017549E+02 -0.42884607505E+02  0.84189257303E+02  0.00000000000E+00 0.  1.
         21    1    1    2  504  501 -0.28497801844E+01 -0.88822121982E+02  0.13845505927E+02  0.89939916805E+02  0.00000000000E+00 0.  1.
         21    1    1    2  505  503  0.35511360317E+02  0.55323525044E+02 -0.27054608728E+02  0.71089387311E+02  0.00000000000E+00 0. -1.
          3    1    1    2  501    0 -0.27199677082E+02 -0.38743420610E+02 -0.29070804273E+03  0.29453699459E+03  0.00000000000E+00 0.  1.
<scales pt_clust_3="43.06697" pt_clust_4="99.08431" pt_clust_5="43.06697" pt_clust_6="47.33788"></scales>
<clustering>
<clus scale="   43.067">  3  5 -1 -1</clus>
<clus scale="   47.338">  2  6  1 -1</clus>
<clus scale="   99.084">  1  4  2 -1</clus>
<clus scale="   99.084">  1  3  2 -1</clus>
</clustering>
</event>
<event>
 6    0  0.4017242E+002  0.1318035E+03  0.7546771E-02  0.1224804E+00
         21   -1    0    0  505  502  0.00000000000E+00  0.00000000000E+00  0.65918761317E+02  0.65918761317E+02  0.00000000000E+00 0.  1.
         -4   -1    0    0    0  501 -0.00000000000E+00 -0.00000000000E+00 -0.11932587454E+04  0.11932587454E+04  0.00000000000E+00 0. -1.
         21    1    1    2  503  501  0.55321493479E+02  0.17457034818E+02 -0.73433261569E+02  0.93582368051E+02  0.00000000000E+00 0.  1.
         21    1    1    2  504  503  0.20337821221E+02  0.36085355622E+02 -0.26543940029E+02  0.49197160636E+02  0.00000000000E+00 0.  1.
         21    1    1    2  505  504  0.89816526855E+01  0.46991016311E+02  0.26284396049E+02  0.54586584199E+02  0.00000000000E+00 0.  1.
         -4    1    1    2    0  502 -0.84640967385E+02 -0.10053340675E+03 -0.10536471785E+04  0.10618113938E+04  0.00000000000E+00 0. -1.
<scales pt_clust_3="35.84512" pt_clust_4="35.84512" pt_clust_5="47.84167" pt_clust_6="124.79074"></scales>
<clustering>
<clus scale="   35.845">  3  4 -1 -1</clus>
<clus scale="   47.842">  1  5  2 -1</clus>
<clus scale="  124.791">  2  6  1 -1</clus>
<clus scale="   47.842">  1  3  2 -1</clus>
</clustering>
</event>
<event>
 6    0  0.4017242E+002  0.1647989E+03  0.7546771E-02  0.1183383E+00
         21   -1    0    0  504  502  0.00000000000E+00  0.00000000000E+00  0.50342219885E+03  0.50342219885E+03  0.00000000000E+00 0. -1.
          1   -1    0    0  505    0 -0.00000000000E+00 -0.00000000000E+00 -0.14836665847E+03  0.14836665847E+03  0.00000000000E+00 0. -1.
         21    1    1    2  503  501 -0.33754135189E+02 -0.77048702439E+02  0.13313136328E+03  0.15747953543E+03  0.00000000000E+00 0.  1.
         21    1    1    2  504  503  0.44188718598E+02 -0.95821641353E+02  0.14266213295E+03  0.17744552398E+03  0.00000000000E+00 0. -1.
         21    1    1    2  505  502 -0.38747487542E+02  0.33999933396E+02  0.14989464992E+03  0.15851110162E+03  0.00000000000E+00 0. -1.
          1    1    1    2  501    0  0.28312904133E+02  0.13887041040E+03 -0.70632605778E+02  0.15835269629E+03  0.00000000000E+00 0. -1.
<scales pt_clust_3="76.25758" pt_clust_4="76.25758" pt_clust_5="51.54962" pt_clust_6="145.04817"></scales>
<clustering>
<clus scale="   51.550">  1  5  2 -1</clus>
<clus scale="   76.258">  3  4 -1 -1</clus>
<clus scale="  145.048">  2  6  1 -1</clus>
<clus scale="   51.550">  1  3  2 -1</clus>
</clustering>
</event>
<event>
 6    0  0.4017242E+002  0.9205995E+02  0.7546771E-02  0.1297939E+00
         21   -1    0    0  504  502  0.00000000000E+00  0.00000000000E+00  0.63184428994E+03  0.63184428994E+03  0.00000000000E+00 0. -1.
          2   -1    0    0  503    0 -0.00000000000E+00 -0.00000000000E+00 -0.11540361508E+04  0.11540361508E+04  0.00000000000E+00 0. -1.
         21    1    1    2  503  505  0.82874707068E+02 -0.83930448770E+02 -0.11038297270E+03  0.16154546717E+03  0.00000000000E+00 0. -1.
         21    1    1    2  504  501 -0.75203540872E+02  0.44799139779E+02 -0.68742373695E+02  0.11130161466E+03  0.00000000000E+00 0. -1.
         21    1    1    2  505  502  0.42784783828E+02  0.12251321147E+02  0.58325446080E+03  0.58494991123E+03  0.00000000000E+00 0. -1.
          2    1    1    2  501    0 -0.50455950023E+02  0.26879987844E+02 -0.92632097527E+03  0.92808344768E+03  0.00000000000E+00 0. -1.
<scales pt_clust_3="14000.00000" pt_clust_4="92.05995" pt_clust_5="44.50430" pt_clust_6="56.58158"></scales>
<clustering>
<clus scale="   44.504">  1  5  2 -1</clus>
<clus scale="   56.582">  2  6  1 -1</clus>
<clus scale="   92.060">  1  4  2 -1</clus>
<clus scale="   44.504">  1  3  2 -1</clus>
</clustering>
</event>
<event>
 6    0  0.4017242E+002  0.1057840E+03  0.7546771E-02  0.1268583E+00
          1   -1    0    0  503    0 -0.00000000000E+00  0.00000000000E+00  0.17670336797E+04  0.17670336797E+04  0.00000000000E+00 0. -1.
         21   -1    0    0  505  502  0.00000000000E+00 -0.00000000000E+00 -0.64442773415E+02  0.64442773415E+02  0.00000000000E+00 0.  1.
         21    1    1    2  503  504 -0.28235259196E+02 -0.33861169364E+02  0.24694200256E+03  0.25084688812E+03  0.00000000000E+00 0.  1.
         21    1    1    2  504  502  0.37544374676E+02 -0.21840161808E+02 -0.18137770152E+02  0.47069644610E+02  0.00000000000E+00 0.  1.
         21    1    1    2  505  501  0.54521220873E+02  0.83680949036E+02  0.56872506584E+02  0.11493279237E+03  0.00000000000E+00 0.  1.
          1    1    1    2  501    0 -0.63830336354E+02 -0.27979617863E+02  0.14169141673E+04  0.14186271280E+04  0.00000000000E+00 0. -1.
<scales pt_clust_3="43.72174" pt_clust_4="43.43470" pt_clust_5="105.78403" pt_clust_6="14000.00000"></scales>
<clustering>
<clus scale="   43.435">  2  4  1 -1</clus>
<clus scale="   43.722">  1  3  2 -1</clus>
<clus scale="  105.784">  2  5  1 -1</clus>
<clus scale="   43.435">  2  3  1 -1</clus>
</clustering>
</event>
<event>
 6    0  0.4017242E+002  0.6806920E+02  0.7546771E-02  0.1366785E+00
          2   -1    0    0  505    0 -0.00000000000E+00  0.00000000000E+00  0.21016588610E+04  0.21016588610E+04  0.00000000000E+00 0.  1.
         21   -1    0    0  503  502  0.00000000000E+00 -0.00000000000E+00 -0.23428582354E+02  0.23428582354E+02  0.00000000000E+00 0. -1.
         21    1    1    2  503  504  0.12130083362E+02  0.81998934250E+02  0.40230961174E+03  0.41076025591E+03  0.00000000000E+00 0. -1.
         21    1    1    2  504  501  0.65309212395E+02 -0.15364924058E+02  0.38511814110E+03  0.39091860626E+03  0.00000000000E+00 0.  1.
         21    1    1    2  505  502 -0.12566220567E+02 -0.33754885507E+02  0.59583257166E+01  0.36507586065E+02  0.00000000000E+00 0. -1.
          2    1    1    2  501    0 -0.64873075191E+02 -0.32879124684E+02  0.12848442001E+04  0.12869009951E+04  0.00000000000E+00 0.  1.
<scales pt_clust_3="64.75159" pt_clust_4="68.06920" pt_clust_5="36.01808" pt_clust_6="14000.00000"></scales>
<clustering>
<clus scale="   36.018">  2  5  1 -1</clus>
<clus scale="   64.752">  2  3  1 -1</clus>
<clus scale="   68.069">  2  4  1 -1</clus>
<clus scale="   36.018">  2  3  1 -1</clus>
</clustering>
</event>
<event>
 6    0  0.4017242E+002  0.1619651E+03  0.7546771E-02  0.1186496E+00
         -4   -1    0    0    0  501 -0.00000000000E+00  0.00000000000E+00  0.11240274775E+04  0.11240274775E+04  0.00000000000E+00 0.  1.
         21   -1    0    0  504  502  0.00000000000E+00 -0.00000000000E+00 -0.83101426954E+03  0.83101426954E+03  0.00000000000E+00 0.  1.
         21    1    1    2  503  501  0.41930289027E+02 -0.50715932051E+02 -0.16543969060E+03  0.17804647182E+03  0.00000000000E+00 0.  1.
         21    1    1    2  504  505  0.19110319778E+02 -0.38417390154E+02 -0.51989443497E+03  0.52166207808E+03  0.00000000000E+00 0.  1.
         21    1    1    2  505  503 -0.29635903054E+02 -0.53043858618E+02 -0.12681527053E+03  0.14062023513E+03  0.00000000000E+00 0.  1.
         -4    1    1    2    0  502 -0.31404705752E+02  0.14217718082E+03  0.11051626041E+04  0.11147129621E+04  0.00000000000E+00 0.  1.
<scales pt_clust_3="65.30435" pt_clust_4="42.90804" pt_clust_5="65.30435" pt_clust_6="144.96352"></scales>
<clustering>
<clus scale="   42.908">  2  4  1 -1</clus>
<clus scale="   65.304">  3  5 -1 -1</clus>
<clus scale="  144.964">  1  6  2 -1</clus>
<clus scale="   42.908">  2  3  1 -1</clus>
</clustering>
</event>
<event>
 6    0  0.4017242E+002  0.9552603E+02  0.7546771E-02  0.1289996E+00
          2   -1    0    0  505    0 -0.00000000000E+00  0.00000000000E+00  0.77623855121E+03  0.77623855121E+03  0.00000000000E+00 0.  1.
         21   -1    0    0  503  502  0.00000000000E+00 -0.00000000000E+00 -0.64449736757E+03  0.64449736757E+03  0.00000000000E+00 0.  1.
         21    1    1    2  503  504  0.49313342480E+02  0.82948359765E+02 -0.60371839426E+03  0.61138215193E+03  0.00000000000E+00 0.  1.
         21    1    1    2  504  501  0.24511050817E+02 -0.62723174954E+02  0.60130261026E+02  0.90280876046E+02  0.00000000000E+00 0.  1.
         21    1    1    2  505  502 -0.10328121338E+03 -0.11302989488E+02  0.10431274845E+03  0.14722742984E+03  0.00000000000E+00 0.  1.
          2    1    1    2  501    0  0.29456820079E+02 -0.89221953226E+01  0.57101656843E+03  0.57184546097E+03  0.00000000000E+00 0.  1.
<scales pt_clust_3="95.52603" pt_clust_4="74.85963" pt_clust_5="14000.00000" pt_clust_6="30.77840"></scales>
<clustering>
<clus scale="   30.778">  1  6  2 -1</clus>
<clus scale="   74.860">  1  4  2 -1</clus>
<clus scale="   95.526">  2  3  1 -1</clus>
<clus scale="   95.526">  2  3  1 -1</clus>
</clustering>
</event>
<event>
 6    0  0.4017242E+002  0.2800975E+03  0.7546771E-02  0.1095636E+00
          2   -1    0    0  504    0 -0.00000000000E+00  0.00000000000E+00  0.55181908447E+03  0.55181908447E+03  0.00000000000E+00 0. -1.
         21   -1    0    0  503  502  0.00000000000E+00 -0.00000000000E+00 -0.12672165651E+04  0.12672165651E+04  0.00000000000E+00 0. -1.
         21    1    1    2  503  505 -0.23033838254E+03  0.11711156988E+03 -0.10486050507E+04  0.10799738157E+04  0.00000000000E+00 0. -1.
         21    1    1    2  504  502 -0.80170537663E+01  0.41553084252E+02 -0.75931665485E+02  0.86928417593E+02  0.00000000000E+00 0.  1.
         21    1    1    2  505  501  0.23255055989E+03 -0.12641415366E+03  0.24190167520E+02  0.26579214690E+03  0.00000000000E+00 0. -1.
          2    1    1    2  501    0  0.58048764137E+01 -0.32250500477E+02  0.38494906808E+03  0.38634126933E+03  0.00000000000E+00 0. -1.
<scales pt_clust_3="14000.00000" pt_clust_4="41.23524" pt_clust_5="280.09751" pt_clust_6="32.76876"></scales>
<clustering>
<clus scale="   32.769">  1  6  2 -1</clus>
<clus scale="   41.235">  2  4  1 -1</clus>
<clus scale="  280.098">  1  5  2 -1</clus>
<clus scale="   41.235">  2  3  1 -1</clus>
</clustering>
</event>
<event>
 6    0  0.4017242E+002  0.1348167E+03  0.7546771E-02  0.1220479E+00
         21   -1    0    0  503  502  0.00000000000E+00  0.00000000000E+00  0.33296483372E+03  0.33296483372E+03  0.00000000000E+00 0. -1.
          2   -1    0    0  504    0 -0.00000000000E+00 -0.00000000000E+00 -0.25430213222E+04  0.25430213222E+04  0.00000000000E+00 0. -1.
         21    1    1    2  503  505 -0.94128690017E+01  0.36137922172E+02 -0.43356078135E+01  0.37594534401E+02  0.00000000000E+00 0. -1.
         21    1    1    2  504  502  0.34521876164E+02 -0.19907061128E+02  0.50004987492E+01  0.40162868478E+02  0.00000000000E+00 0. -1.
         21    1    1    2  505  501  0.20132264317E+02 -0.14318454175E+03  0.27402309662E+03  0.30983185527E+03  0.00000000000E+00 0. -1.
          2    1    1    2  501    0 -0.45241271479E+02  0.12695368070E+03 -0.24847444761E+04  0.24883968978E+04  0.00000000000E+00 0. -1.
<scales pt_clust_3="37.34369" pt_clust_4="38.02703" pt_clust_5="14000.00000" pt_clust_6="134.81669"></scales>
<clustering>
<clus scale="   37.344">  1  3  2 -1</clus>
<clus scale="   38.027">  1  4  2 -1</clus>
<clus scale="  134.817">  2  6  1 -1</clus>
<clus scale="   37.344">  1  3  2 -1</clus>
</clustering>
</event>
<event>
 6    0  0.4017242E+002  0.2124227E+03  0.7546771E-02  0.1139662E+00
          2   -1    0    0  505    0 -0.00000000000E+00  0.00000000000E+00  0.35027947349E+03  0.35027947349E+03  0.00000000000E+00 0. -1.
         21   -1    0    0  503  502  0.00000000000E+00 -0.00000000000E+00 -0.18111905961E+04  0.18111905961E+04  0.00000000000E+00 0.  1.
         21    1    1    2  503  504  0.58969590813E+00 -0.33928333699E+02 -0.31666624688E+03  0.31847918532E+03  0.00000000000E+00 0. -1.
         21    1    1    2  504  501 -0.21240054486E+03 -0.43324995097E+01 -0.11942793110E+04  0.12130275490E+04  0.00000000000E+00 0.  1.
         21    1    1    2  505  502  0.21044656457E+03 -0.26990360783E+02 -0.24713142478E+03  0.32571487106E+03  0.00000000000E+00 0.  1.
          2    1    1    2  501    0  0.13642843827E+01  0.65251193992E+02  0.29716586004E+03  0.30424846419E+03  0.00000000000E+00 0. -1.
<scales pt_clust_3="33.93346" pt_clust_4="212.42269" pt_clust_5="14000.00000" pt_clust_6="65.18506"></scales>
<clustering>
<clus scale="   33.933">  2  3  1 -1</clus>
<clus scale="   65.185">  1  6  2 -1</clus>
<clus scale="  212.423">  2  4  1 -1</clus>
<clus scale="   33.933">  2  3  1 -1</clus>
</clustering>
</event>
<event>
 6    0  0.4017242E+002  0.1378266E+03  0.7546771E-02  0.1216284E+00
          1   -1    0    0  503    0 -0.00000000000E+00  0.00000000000E+00  0.13757766315E+04  0.13757766315E+04  0.00000000000E+00 0.  1.
         21   -1    0    0  504  502  0.00000000000E+00 -0.00000000000E+00 -0.27447629667E+03  0.27447629667E+03  0.00000000000E+00 0. -1.
         21    1    1    2  503  505  0.91761132054E+02  0.24879611399E+02 -0.76482503509E+02  0.12201915326E+03  0.00000000000E+00 0. -1.
         21    1    1    2  504  501  0.14170459736E+02  0.27124747220E+02  0.21457094709E+02  0.37375938172E+02  0.00000000000E+00 0.  1.
         21    1    1    2  505  502 -0.51690579636E+01  0.44972049616E+02 -0.16043113355E+03  0.16669538992E+03  0.00000000000E+00 0. -1.
          1    1    1    2  501    0 -0.10076253383E+03 -0.96976408235E+02  0.13167568772E+04  0.13241624468E+04  0.00000000000E+00 0.  1.
<scales pt_clust_3="137.82663" pt_clust_4="30.60317" pt_clust_5="61.71958" pt_clust_6="14000.00000"></scales>
<clustering>
<clus scale="   30.603">  2  4  1 -1</clus>
<clus scale="   61.720">  2  5  1 -1</clus>
<clus scale="  137.827">  2  3  1 -1</clus>
<clus scale="   30.603">  2  3  1 -1</clus>
</clustering>
</event>
<event>
 6    0  0.4017242E+002  0.1105802E+03  0.7546771E-02  0.1259499E+00
         21   -1    0    0  501  502  0.00000000000E+00  0.00000000000E+00  0.51795879591E+02  0.51795879591E+02  0.00000000000E+00 0.  1.
          1   -1    0    0  505    0 -0.00000000000E+00 -0.00000000000E+00 -0.13513871853E+04  0.13513871853E+04  0.00000000000E+00 0.  1.
         21    1    1    2  503  504 -0.76757194721E+02  0.22626650767E+02 -0.93532453799E+02  0.12309326618E+03  0.00000000000E+00 0.  1.
         21    1    1    2  504  502 -0.52862334300E+02 -0.42384586672E+02 -0.56854029592E+01  0.67994142261E+02  0.00000000000E+00 0.  1.
         21    1    1    2  505  503  0.26654384895E+02  0.31158226599E+02 -0.12092605096E+03  0.12768868830E+03  0.00000000000E+00 0.  1.
          1    1    1    2  501    0  0.10296514413E+03 -0.11400290694E+02 -0.10794473980E+04  0.10844069682E+04  0.00000000000E+00 0.  1.
<scales pt_clust_3="14000.00000" pt_clust_4="66.54694" pt_clust_5="41.00355" pt_clust_6="110.58025"></scales>
<clustering>
<clus scale="   41.004">  2  5  1 -1</clus>
<clus scale="   66.547">  1  4  2 -1</clus>
<clus scale="  110.580">  2  6  1 -1</clus>
<clus scale="   66.547">  1  3  2 -1</clus>
</clustering>
</event>
<event>
 6    0  0.1499296E+003  0.1273205E+03  0.7546771E-02  0.1231487E+00
         21   -1    0    0  504  502  0.00000000000E+00  0.00000000000E+00  0.23494755654E+04  0.23494755654E+04  0.00000000000E+00 0.  1.
          2   -1    0    0  503    0 -0.00000000000E+00 -0.00000000000E+00 -0.37867288374E+03  0.37867288374E+03  0.00000000000E+00 0.  1.
         21    1    1    2  503  505  0.37303619497E+02 -0.24326638391E+02  0.35528295632E+02  0.56970212862E+02  0.00000000000E+00 0.  1.
         21    1    1    2  504  501 -0.12436681291E+02  0.42092702932E+02  0.13783949055E+03  0.14465888094E+03  0.00000000000E+00 0.  1.
         21    1    1    2  505  502 -0.85209169331E+02  0.41921773949E+02  0.21559774037E+04  0.21580677939E+04  0.00000000000E+00 0.  1.
          2    1    1    2  501    0  0.60342231125E+02 -0.59687838490E+02 -0.35854250824E+03  0.36845156145E+03  0.00000000000E+00 0.  1.
<scales pt_clust_3="43.83908" pt_clust_4="43.89153" pt_clust_5="127.32053" pt_clust_6="14000.00000"></scales>
<clustering>
<clus scale="   43.892">  1  4  2 -1</clus>
<clus scale="   43.839">  2  3  1 -1</clus>
<clus scale="  127.321">  1  5  2 -1</clus>
<clus scale="   43.892">  1  3  2 -1</clus>
</clustering>
</event>
<event>
 6    0  0.4017242E+002  0.1120201E+03  0.7546771E-02  0.1256874E+00
          1   -1    0    0  505    0 -0.00000000000E+00  0.00000000000E+00  0.21913982192E+03  0.21913982192E+03  0.00000000000E+00 0.  1.
         21   -1    0    0  501  502  0.00000000000E+00 -0.00000000000E+00 -0.11362430937E+04  0.11362430937E+04  0.00000000000E+00 0. -1.
         21    1    1    2  503  502 -0.74478595259E+00 -0.11275716368E+03 -0.10587694723E+04  0.10647570277E+04  0.00000000000E+00 0. -1.
         21    1    1    2  504  503  0.17536894901E+02  0.38219833260E+02 -0.31470730473E+02  0.52523377783E+02  0.00000000000E+00 0. -1.
         21    1    1    2  505  504 -0.34149715850E+02 -0.18584498907E+02  0.12684664884E+03  0.13267124412E+03  0.00000000000E+00 0. -1.
          1    1    1    2  501    0  0.17357606902E+02  0.93121829330E+02  0.46290282175E+02  0.10543126595E+03  0.00000000000E+00 0.  1.
<scales pt_clust_3="112.02014" pt_clust_4="38.48249" pt_clust_5="38.87913" pt_clust_6="14000.00000"></scales>
<clustering>
<clus scale="   38.879">  1  5  2 -1</clus>
<clus scale="   38.482">  1  4  2 -1</clus>
<clus scale="  112.020">  2  3  1 -1</clus>
<clus scale="  112.020">  2  3  1 -1</clus>
</clustering>
</event>
<event>
 6    0  0.4017242E+002  0.1192922E+03  0.7546771E-02  0.1244269E+00
          2   -1    0    0  503    0 -0.00000000000E+00  0.00000000000E+00  0.21250503322E+04  0.21250503322E+04  0.00000000000E+00 0. -1.
         21   -1    0    0  504  502  0.00000000000E+00 -0.00000000000E+00 -0.22719732006E+03  0.22719732006E+03  0.00000000000E+00 0.  1.
         21    1    1    2  503  502  0.38248698183E+02 -0.21905901509E+02 -0.15420975317E+03  0.16038540896E+03  0.00000000000E+00 0.  1.
         21    1    1    2  504  505  0.88387601047E+02  0.94648707334E+01 -0.36357323686E+02  0.96040651718E+02  0.00000000000E+00 0.  1.
         21    1    1    2  505  501 -0.80279129467E+02 -0.13762498715E+02  0.50664095556E+03  0.51314637566E+03  0.00000000000E+00 0. -1.
          2    1    1    2  501    0 -0.46357169763E+02  0.26203529490E+02  0.15817791335E+04  0.15826752159E+04  0.00000000000E+00 0. -1.
<scales pt_clust_3="44.07756" pt_clust_4="14000.00000" pt_clust_5="119.29218" pt_clust_6="52.96794"></scales>
<clustering>
<clus scale="   44.078">  2  3  1 -1</clus>
<clus scale="   52.968">  1  6  2 -1</clus>
<clus scale="  119.292">  1  5  2 -1</clus>
<clus scale="   44.078">  2  3  1 -1</clus>
</clustering>
</event>
<event>
 6    0  0.4017242E+002  0.9159013E+02  0.7546771E-02  0.1299046E+00
         21   -1    0    0  501  502  0.00000000000E+00  0.00000000000E+00  0.11113217665E+04  0.11113217665E+04  0.00000000000E+00 0. -1.
          2   -1    0    0  503    0 -0.00000000000E+00 -0.00000000000E+00 -0.49850815163E+03  0.49850815163E+03  0.00000000000E+00 0.  1.
         21    1    1    2  503  505 -0.62166872097E+01  0.48087017163E+02  0.19403773441E+02  0.52225614819E+02  0.00000000000E+00 0. -1.
         21    1    1    2  504  502 -0.49218976611E+02 -0.69704109851E+02  0.72223978183E+03  0.72726300129E+03  0.00000000000E+00 0. -1.
         21    1    1    2  505  504  0.95698791967E+02  0.75594877287E+02  0.33766384865E+03  0.35901214316E+03  0.00000000000E+00 0.  1.
          2    1    1    2  501    0 -0.40263128147E+02 -0.53977784600E+02 -0.46649378907E+03  0.47132915883E+03  0.00000000000E+00 0.  1.
<scales pt_clust_3="48.48720" pt_clust_4="91.59013" pt_clust_5="14000.00000" pt_clust_6="46.86707"></scales>
<clustering>
<clus scale="   48.487">  2  3  1 -1</clus>
<clus scale="   46.867">  2  6  1 -1</clus>
<clus scale="   91.590">  1  4  2 -1</clus>
<clus scale="   91.590">  1  3  2 -1</clus>
</clustering>
</event>
<event>
 6    0  0.4017242E+002  0.8772361E+02  0.7546771E-02  0.1308460E+00
         -1   -1    0    0    0  501 -0.00000000000E+00  0.00000000000E+00  0.70652104301E+03  0.70652104301E+03  0.00000000000E+00 0. -1.
         21   -1    0    0  505  502  0.00000000000E+00 -0.00000000000E+00 -0.51003570428E+03  0.51003570428E+03  0.00000000000E+00 0.  1.
         21    1    1    2  503  504  0.89186154457E+02 -0.23661948890E+02 -0.39637811652E+03  0.40697625143E+03  0.00000000000E+00 0.  1.
         21    1    1    2  504  502 -0.55025423852E+02  0.51079703847E+02 -0.58565683347E+02  0.95220127500E+02  0.00000000000E+00 0.  1.
         21    1    1    2  505  501  0.49960397293E+02 -0.23090195765E+01 -0.66478821257E+01  0.50453614398E+02  0.00000000000E+00 0.  1.
         -1    1    1    2    0  503 -0.84121127899E+02 -0.25108735380E+02  0.65807702072E+03  0.66390675396E+03  0.00000000000E+00 0. -1.
<scales pt_clust_3="87.72361" pt_clust_4="69.17369" pt_clust_5="50.01373" pt_clust_6="14000.00000"></scales>
<clustering>
<clus scale="   50.014">  2  5  1 -1</clus>
<clus scale="   69.174">  2  4  1 -1</clus>
<clus scale="   87.724">  2  3  1 -1</clus>
<clus scale="   50.014">  2  3  1 -1</clus>
</clustering>
</event>
<event>
 6    0  0.4017242E+002  0.9086349E+02  0.7546771E-02  0.1300774E+00
         21   -1    0    0  503  502  0.00000000000E+00  0.00000000000E+00  0.63569323650E+03  0.63569323650E+03  0.00000000000E+00 0.  1.
          4   -1    0    0  505    0 -0.00000000000E+00 -0.00000000000E+00 -0.12160005979E+04  0.12160005979E+04  0.00000000000E+00 0.  1.
         21    1    1    2  503  501  0.61516515453E+02 -0.52249918136E+02  0.56844476215E+03  0.57414613404E+03  0.00000000000E+00 0.  1.
         21    1    1    2  504  502  0.24220857991E+02  0.25107799497E+02  0.37749565930E+02  0.51401179805E+02  0.00000000000E+00 0.  1.
         21    1    1    2  505  504 -0.99911363000E+02  0.83140951686E+02 -0.20362390042E+03  0.24157274500E+03  0.00000000000E+00 0.  1.
          4    1    1    2  501    0  0.14173989556E+02 -0.55998833047E+02 -0.98287778902E+03  0.98457377552E+03  0.00000000000E+00 0.  1.
<scales pt_clust_3="14000.00000" pt_clust_4="34.88627" pt_clust_5="90.86349" pt_clust_6="57.73842"></scales>
<clustering>
<clus scale="   34.886">  1  4  2 -1</clus>
<clus scale="   57.738">  2  6  1 -1</clus>
<clus scale="   90.863">  2  5  1 -1</clus>
<clus scale="   34.886">  1  3  2 -1</clus>
</clustering>
</event>
<event>
 6    0  0.4017242E+002  0.1721356E+03  0.7546771E-02  0.1175639E+00
         21   -1    0    0  503  502  0.00000000000E+00  0.00000000000E+00  0.37987525385E+03  0.37987525385E+03  0.00000000000E+00 0.  1.
          2   -1    0    0  505    0 -0.00000000000E+00 -0.00000000000E+00 -0.16111298034E+04  0.16111298034E+04  0.00000000000E+00 0. -1.
         21    1    1    2  503  504 -0.21410943378E+02  0.12483771230E+03 -0.96261212520E+01  0.12702576557E+03  0.00000000000E+00 0.  1.
         21    1    1    2  504  501  0.20112808468E+02  0.65910628666E+02  0.25748334539E+02  0.73564344401E+02  0.00000000000E+00 0.  1.
         21    1    1    2  505  502 -0.12440961840E+02 -0.31091322992E+02  0.26624065336E+03  0.26833846799E+03  0.00000000000E+00 0.  1.
          2    1    1    2  501    0  0.13739096750E+02 -0.15965701797E+03 -0.15136174162E+04  0.15220764793E+04  0.00000000000E+00 0. -1.
<scales pt_clust_3="41.65486" pt_clust_4="41.65486" pt_clust_5="33.48803" pt_clust_6="161.37171"></scales>
<clustering>
<clus scale="   33.488">  1  5  2 -1</clus>
<clus scale="   41.655">  3  4 -1 -1</clus>
<clus scale="  161.372">  2  6  1 -1</clus>
<clus scale="   33.488">  1  3  2 -1</clus>
</clustering>
</event>
<event>
 6    0  0.4017242E+002  0.1011537E+03  0.7546771E-02  0.1277888E+00
         21   -1    0    0  504  502  0.00000000000E+00  0.00000000000E+00  0.11436085307E+03  0.11436085307E+03  0.00000000000E+00 0.  1.
          1   -1    0    0  505    0 -0.00000000000E+00 -0.00000000000E+00 -0.20643974620E+04  0.20643974620E+04  0.00000000000E+00 0.  1.
         21    1    1    2  503  501 -0.16654623983E+02 -0.10221702676E+03 -0.48758676324E+03  0.49846419003E+03  0.00000000000E+00 0.  1.
         21    1    1    2  504  503  0.14759081312E+02  0.27492013565E+02  0.10060239955E+03  0.10533035691E+03  0.00000000000E+00 0.  1.
         21    1    1    2  505  502  0.28688793764E+01  0.10626873253E+03 -0.48784683369E+03  0.49929531054E+03  0.00000000000E+00 0.  1.
          1    1    1    2  501    0 -0.97333670465E+00 -0.31543719333E+02 -0.10752054116E+04  0.10756684576E+04  0.00000000000E+00 0.  1.
<scales pt_clust_3="14000.00000" pt_clust_4="31.20323" pt_clust_5="101.15369" pt_clust_6="30.99243"></scales>
<clustering>
<clus scale="   31.203">  1  4  2 -1</clus>
<clus scale="   30.992">  2  6  1 -1</clus>
<clus scale="  101.154">  2  5  1 -1</clus>
<clus scale="   31.203">  1  3  2 -1</clus>
</clustering>
</event>
<event>
 6    0  0.4017242E+002  0.1252547E+03  0.7546771E-02  0.1234672E+00
          3   -1    0    0  505    0 -0.00000000000E+00  0.00000000000E+00  0.29617265439E+03  0.29617265439E+03  0.00000000000E+00 0.  1.
         21   -1    0    0  504  502  0.00000000000E+00 -0.00000000000E+00 -0.16615357596E+03  0.16615357596E+03  0.00000000000E+00 0. -1.
         21    1    1    2  503  502  0.26165288161E+02 -0.61160799965E+02 -0.31585285681E+01  0.66597613017E+02  0.00000000000E+00 0. -1.
         21    1    1    2  504  501 -0.87557813154E+02  0.86051527046E+02 -0.33225756575E+02  0.12718170801E+03  0.00000000000E+00 0. -1.
         21    1    1    2  505  503  0.32980846502E+02 -0.39169652774E+02 -0.36681119527E+02  0.62988113674E+02  0.00000000000E+00 0. -1.
          3    1    1    2  501    0  0.28411678491E+02  0.14278925693E+02  0.20308448311E+03  0.20555879566E+03  0.00000000000E+00 0.  1.
<scales pt_clust_3="35.90524" pt_clust_4="118.52401" pt_clust_5="35.90524" pt_clust_6="31.79797"></scales>
<clustering>
<clus scale="   31.798">  1  6  2 -1</clus>
<clus scale="   35.905">  3  5 -1 -1</clus>
<clus scale="  118.524">  1  4  2 -1</clus>
<clus scale="  125.255">  2  3  1 -1</clus>
</clustering>
</event>
<event>
 6    0  0.4017242E+002  0.7838638E+02  0.7546771E-02  0.1333694E+00
          2   -1    0    0  503    0 -0.00000000000E+00  0.00000000000E+00  0.16176073460E+04  0.16176073460E+04  0.00000000000E+00 0.  1.
         21   -1    0    0  505  502  0.00000000000E+00 -0.00000000000E+00 -0.15454382203E+03  0.15454382203E+03  0.00000000000E+00 0. -1.
         21    1    1    2  503  504  0.24446076773E+02 -0.38332107730E+02  0.81103384379E+02  0.92976986994E+02  0.00000000000E+00 0. -1.
         21    1    1    2  504  502  0.54103233970E+02 -0.52436747218E+02 -0.96951168893E+02  0.12278559172E+03  0.00000000000E+00 0. -1.
         21    1    1    2  505  501  0.19569783082E+02  0.25391560208E+02 -0.29386895553E+02  0.43489048850E+02  0.00000000000E+00 0.  1.
          2    1    1    2  501    0 -0.98119093825E+02  0.65377294741E+02  0.15082982041E+04  0.15128995405E+04  0.00000000000E+00 0.  1.
<scales pt_clust_3="44.94222" pt_clust_4="78.38638" pt_clust_5="32.05788" pt_clust_6="14000.00000"></scales>
<clustering>
<clus scale="   32.058">  2  5  1 -1</clus>
<clus scale="   44.942">  1  3  2 -1</clus>
<clus scale="   78.386">  2  4  1 -1</clus>
<clus scale="   32.058">  2  3  1 -1</clus>
</clustering>
</event>
<event>
 6    0  0.4017242E+002  0.1418368E+03  0.7546771E-02  0.1210879E+00
         21   -1    0    0  501  502  0.00000000000E+00  0.00000000000E+00  0.66567467811E+02  0.66567467811E+02  0.00000000000E+00 0. -1.
          2   -1    0    0  504    0 -0.00000000000E+00 -0.00000000000E+00 -0.14044349282E+04  0.14044349282E+04  0.00000000000E+00 0. -1.
         21    1    1    2  503  502  0.91962055700E+01  0.44425427244E+02 -0.33860780195E+02  0.56610433827E+02  0.00000000000E+00 0. -1.
         21    1    1    2  504  505  0.76916785640E+02 -0.59952549269E+02 -0.13702227544E+03  0.16818324543E+03  0.00000000000E+00 0. -1.
         21    1    1    2  505  503  0.72039956906E+02 -0.13731448283E+02 -0.53926770880E+01  0.73534951072E+02  0.00000000000E+00 0. -1.
          2    1    1    2  501    0 -0.15815294812E+03  0.29258570308E+02 -0.11615917277E+04  0.11726737657E+04  0.00000000000E+00 0. -1.
<scales pt_clust_3="45.36727" pt_clust_4="141.83680" pt_clust_5="78.91396" pt_clust_6="14000.00000"></scales>
<clustering>
<clus scale="   45.367">  1  3  2 -1</clus>
<clus scale="   78.914">  1  5  2 -1</clus>
<clus scale="  141.837">  1  4  2 -1</clus>
<clus scale="   45.367">  1  3  2 -1</clus>
</clustering>
</event>
<event>
 6    0  0.4017242E+002  0.2902896E+03  0.7546771E-02  0.1090198E+00
         21   -1    0    0  504  502  0.00000000000E+00  0.00000000000E+00  0.94802666019E+02  0.94802666019E+02  0.00000000000E+00 0.  1.
          2   -1    0    0  505    0 -0.00000000000E+00 -0.00000000000E+00 -0.17177374769E+04  0.17177374769E+04  0.00000000000E+00 0. -1.
         21    1    1    2  503  502 -0.16266133683E+03  0.82817562819E+02 -0.13294773320E+03  0.22581532051E+03  0.00000000000E+00 0.  1.
         21    1    1    2  504  501 -0.36360094097E+02 -0.76965267170E+02 -0.47822691478E+02  0.97635642127E+02  0.00000000000E+00 0.  1.
         21    1    1    2  505  503 -0.65233146808E+02  0.52971994340E+02 -0.18627207551E+03  0.20434941091E+03  0.00000000000E+00 0.  1.
          2    1    1    2  501    0  0.26425457774E+03 -0.58824289988E+02 -0.12558923107E+04  0.12847397694E+04  0.00000000000E+00 0. -1.
<scales pt_clust_3="76.66147" pt_clust_4="85.12173" pt_clust_5="76.66147" pt_clust_6="267.39924"></scales>
<clustering>
<clus scale="   76.661">  3  5 -1 -1</clus>
<clus scale="   85.122">  1  4  2 -1</clus>
<clus scale="  267.399">  2  6  1 -1</clus>
<clus scale="   85.122">  1  3  2 -1</clus>
</clustering>
</event>
<event>
 6    0  0.4017242E+002  0.8625959E+02  0.7546771E-02  0.1312171E+00
         -2   -1    0    0    0  501 -0.00000000000E+00  0.00000000000E+00  0.13416824165E+04  0.13416824165E+04  0.00000000000E+00 0.  1.
         21   -1    0    0  505  502  0.00000000000E+00 -0.00000000000E+00 -0.45225883479E+03  0.45225883479E+03  0.00000000000E+00 0. -1.
         21    1    1    2  503  502  0.13313992514E+03 -0.20246745502E+02 -0.27244111703E+03  0.30390842801E+03  0.00000000000E+00 0. -1.
         21    1    1    2  504  503 -0.53856006067E+02 -0.11371518246E+02  0.10697109561E+03  0.12030210353E+03  0.00000000000E+00 0.  1.
         21    1    1    2  505  501 -0.47010353329E+02 -0.12091147646E+01 -0.15345842834E+03  0.16050210126E+03  0.00000000000E+00 0. -1.
         -2    1    1    2    0  504 -0.32273565744E+02  0.32827378513E+02  0.12083520314E+04  0.12092286185E+04  0.00000000000E+00 0.  1.
<scales pt_clust_3="14000.00000" pt_clust_4="86.25959" pt_clust_5="47.86685" pt_clust_6="46.03498"></scales>
<clustering>
<clus scale="   46.035">  1  6  2 -1</clus>
<clus scale="   47.867">  2  5  1 -1</clus>
<clus scale="   86.260">  1  4  2 -1</clus>
<clus scale="   47.867">  2  3  1 -1</clus>
</clustering>
</event>
<event>
 6    0  0.4017242E+002  0.1534626E+03  0.7546771E-02  0.1196282E+00
         21   -1    0    0  505  502  0.00000000000E+00  0.00000000000E+00  0.46077194262E+03  0.46077194262E+03  0.00000000000E+00 0. -1.
          2   -1    0    0  504    0 -0.00000000000E+00 -0.00000000000E+00 -0.62200835470E+03  0.62200835470E+03  0.00000000000E+00 0. -1.
         21    1    1    2  503  502  0.26324769348E+02 -0.50737239379E+02  0.17258747824E+03  0.18180676166E+03  0.00000000000E+00 0. -1.
         21    1    1    2  504  503 -0.59064220484E+01  0.14426737646E+03  0.21486097596E+03  0.25886908028E+03  0.00000000000E+00 0. -1.
         21    1    1    2  505  501 -0.57175034085E+01  0.59682988932E+02  0.11595358458E+02  0.61067187186E+02  0.00000000000E+00 0.  1.
          2    1    1    2  501    0 -0.14700843891E+02 -0.15321312601E+03 -0.56028022475E+03  0.58103726820E+03  0.00000000000E+00 0. -1.
<scales pt_clust_3="57.15996" pt_clust_4="14000.00000" pt_clust_5="53.23426" pt_clust_6="153.46259"></scales>
<clustering>
<clus scale="   57.160">  1  3  2 -1</clus>
<clus scale="   53.234">  1  5  2 -1</clus>
<clus scale="  153.463">  2  6  1 -1</clus>
<clus scale="   57.160">  1  3  2 -1</clus>
</clustering>
</event>
<event>
 6    0  0.4017242E+002  0.1797075E+03  0.7546771E-02  0.1168086E+00
         21   -1    0    0  504  502  0.00000000000E+00  0.00000000000E+00  0.45358169268E+03  0.45358169268E+03  0.00000000000E+00 0.  1.
         -3   -1    0    0    0  501 -0.00000000000E+00 -0.00000000000E+00 -0.90812435870E+03  0.90812435870E+03  0.00000000000E+00 0.  1.
         21    1    1    2  503  501  0.10731671340E+03 -0.37300267556E+02 -0.29706524270E+03  0.31805022458E+03  0.00000000000E+00 0.  1.
         21    1    1    2  504  505  0.23217510104E+02  0.45474108362E+02  0.41695430841E+03  0.42006885460E+03  0.00000000000E+00 0.  1.
         21    1    1    2  505  503  0.43810761947E+02 -0.39079254136E+02 -0.86671304210E+02  0.10468278722E+03  0.00000000000E+00 0.  1.
         -3    1    1    2    0  502 -0.17434498545E+03  0.30905413330E+02 -0.48776042753E+03  0.51890418498E+03  0.00000000000E+00 0.  1.
<scales pt_clust_3="37.87471" pt_clust_4="51.05827" pt_clust_5="37.87471" pt_clust_6="171.80999"></scales>
<clustering>
<clus scale="   37.875">  3  5 -1 -1</clus>
<clus scale="   51.058">  1  4  2 -1</clus>
<clus scale="  171.810">  2  6  1 -1</clus>
<clus scale="   51.058">  1  3  2 -1</clus>
</clustering>
</event>
<event>
 6    0  0.4017242E+002  0.2292986E+03  0.7546771E-02  0.1127134E+00
         21   -1    0    0  504  502  0.00000000000E+00  0.00000000000E+00  0.20401270510E+04  0.20401270510E+04  0.00000000000E+00 0.  1.
          2   -1    0    0  505    0 -0.00000000000E+00 -0.00000000000E+00 -0.28097747621E+04  0.28097747621E+04  0.00000000000E+00 0.  1.
         21    1    1    2  503  502 -0.22372050996E+02 -0.23692212658E+02  0.74017367610E+03  0.74089061298E+03  0.00000000000E+00 0. -1.
         21    1    1    2  504  501  0.24144517540E+03  0.54536506964E+02  0.95835259507E+03  0.98980285905E+03  0.00000000000E+00 0.  1.
         21    1    1    2  505  503 -0.50472096278E+02  0.12466865339E+03  0.30668733497E+03  0.33488330366E+03  0.00000000000E+00 0.  1.
          2    1    1    2  501    0 -0.16860102813E+03 -0.15551294769E+03 -0.27748613172E+04  0.27843250373E+04  0.00000000000E+00 0.  1.
<scales pt_clust_3="32.58573" pt_clust_4="14000.00000" pt_clust_5="131.35332" pt_clust_6="229.29864"></scales>
<clustering>
<clus scale="   32.586">  1  3  2 -1</clus>
<clus scale="  131.353">  1  5  2 -1</clus>
<clus scale="  229.299">  2  6  1 -1</clus>
<clus scale="   32.586">  1  3  2 -1</clus>
</clustering>
</event>
<event>
 6    0  0.4017242E+002  0.2930802E+03  0.7546771E-02  0.1088752E+00
          1   -1    0    0  505    0 -0.00000000000E+00  0.00000000000E+00  0.24026638604E+04  0.24026638604E+04  0.00000000000E+00 0. -1.
         21   -1    0    0  504  502  0.00000000000E+00 -0.00000000000E+00 -0.77728475147E+03  0.77728475147E+03  0.00000000000E+00 0.  1.
         21    1    1    2  503  501  0.15080266397E+03  0.51209790928E+01 -0.36362981435E+03  0.39369316704E+03  0.00000000000E+00 0.  1.
         21    1    1    2  504  503  0.12849181907E+03 -0.58313659461E+02 -0.30193652028E+03  0.33328110167E+03  0.00000000000E+00 0.  1.
         21    1    1    2  505  502 -0.27730018416E+03  0.96713634134E+02  0.18610646373E+03  0.34768453374E+03  0.00000000000E+00 0.  1.
          1    1    1    2  501    0 -0.19942988768E+01 -0.43520953766E+02  0.21048389798E+04  0.21052898094E+04  0.00000000000E+00 0. -1.
<scales pt_clust_3="66.38043" pt_clust_4="66.38043" pt_clust_5="284.98741" pt_clust_6="43.56662"></scales>
<clustering>
<clus scale="   43.567">  1  6  2 -1</clus>
<clus scale="   66.380">  3  4 -1 -1</clus>
<clus scale="  284.987">  1  5  2 -1</clus>
<clus scale="  293.080">  2  3  1 -1</clus>
</clustering>
</event>
<event>
 6    0  0.4017242E+002  0.1405509E+03  0.7546771E-02  0.1212590E+00
          2   -1    0    0  502    0 -0.00000000000E+00  0.00000000000E+00  0.26154562070E+04  0.26154562070E+04  0.00000000000E+00 0. -1.
         21   -1    0    0  505  502  0.00000000000E+00 -0.00000000000E+00 -0.39104303512E+02  0.39104303512E+02  0.00000000000E+00 0. -1.
         21    1    1    2  503  504 -0.41733346518E+02 -0.79532162256E+02  0.32162299198E+03  0.33392871397E+03  0.00000000000E+00 0. -1.
         21    1    1    2  504  501 -0.66328814737E+01 -0.75566675860E+02  0.13952514107E+03  0.15881304294E+03  0.00000000000E+00 0. -1.
         21    1    1    2  505  503  0.52484975689E+02  0.31846347378E+02  0.22347099857E+02  0.65331886445E+02  0.00000000000E+00 0. -1.
          2    1    1    2  501    0 -0.41187476981E+01  0.12325249074E+03  0.20928566706E+04  0.20964868671E+04  0.00000000000E+00 0. -1.
<scales pt_clust_3="56.21676" pt_clust_4="56.21676" pt_clust_5="61.39106" pt_clust_6="126.54118"></scales>
<clustering>
<clus scale="   56.217">  3  4 -1 -1</clus>
<clus scale="   61.391">  2  5  1 -1</clus>
<clus scale="  126.541">  1  6  2 -1</clus>
<clus scale="   61.391">  2  3  1 -1</clus>
</clustering>
</event>
<event>
 6    0  0.4017242E+002  0.8564199E+02  0.7546771E-02  0.1313762E+00
         -1   -1    0    0    0  501 -0.00000000000E+00  0.00000000000E+00  0.22494867488E+04  0.22494867488E+04  0.00000000000E+00 0.  1.
         21   -1    0    0  503  502  0.00000000000E+00 -0.00000000000E+00 -0.85934470314E+02  0.85934470314E+02  0.00000000000E+00 0. -1.
         21    1    1    2  503  501 -0.62100032650E+02  0.62579750950E+02 -0.53122163474E+02  0.10293009053E+03  0.00000000000E+00 0. -1.
         21    1    1    2  504  502  0.39304791912E+02 -0.51644699362E+02  0.20497359770E+03  0.21500283113E+03  0.00000000000E+00 0.  1.
         21    1    1    2  505  504  0.43400794929E+02 -0.50561715859E+02  0.42784594301E+03  0.43300377257E+03  0.00000000000E+00 0.  1.
         -1    1    1    2    0  505 -0.20605554192E+02  0.39626664271E+02  0.15838549013E+04  0.15844845249E+04  0.00000000000E+00 0.  1.
<scales pt_clust_3="14000.00000" pt_clust_4="85.64199" pt_clust_5="39.05745" pt_clust_6="44.66387"></scales>
<clustering>
<clus scale="   44.664">  1  6  2 -1</clus>
<clus scale="   39.057">  1  5  2 -1</clus>
<clus scale="   85.642">  1  4  2 -1</clus>
<clus scale="   85.642">  2  3  1 -1</clus>
</clustering>
</event>
<event>
 6    0  0.4017242E+002  0.7263990E+02  0.7546771E-02  0.1351339E+00
         21   -1    0    0  504  502  0.00000000000E+00  0.00000000000E+00  0.37226105965E+02  0.37226105965E+02  0.00000000000E+00 0. -1.
          2   -1    0    0  503    0 -0.00000000000E+00 -0.00000000000E+00 -0.90771727335E+03  0.90771727335E+03  0.00000000000E+00 0. -1.
         21    1    1    2  503  505  0.29138874992E+02 -0.38559271561E+02 -0.11776679946E+03  0.12729850947E+03  0.00000000000E+00 0. -1.
         21    1    1    2  504  501 -0.54528011937E+02 -0.42202213887E+02 -0.19254475045E+03  0.20451848784E+03  0.00000000000E+00 0. -1.
         21    1    1    2  505  502 -0.40198150068E+02  0.50598963290E+02 -0.19290265644E+02  0.67440794061E+02  0.00000000000E+00 0. -1.
          2    1    1    2  501    0  0.65587287013E+02  0.30162522158E+02 -0.54088935184E+03  0.54568558794E+03  0.00000000000E+00 0. -1.
<scales pt_clust_3="48.33106" pt_clust_4="14000.00000" pt_clust_5="61.95461" pt_clust_6="72.63990"></scales>
<clustering>
<clus scale="   48.331">  2  3  1 -1</clus>
<clus scale="   61.955">  1  5  2 -1</clus>
<clus scale="   72.640">  2  6  1 -1</clus>
<clus scale="   61.955">  1  3  2 -1</clus>
</clustering>
</event>
<event>
 6    0  0.4017242E+002  0.1072333E+03  0.7546771E-02  0.1265781E+00
         21   -1    0    0  503  502  0.00000000000E+00  0.00000000000E+00  0.21801908273E+02  0.21801908273E+02  0.00000000000E+00 0.  1.
          2   -1    0    0  504    0 -0.00000000000E+00 -0.00000000000E+00 -0.57613539004E+04  0.57613539004E+04  0.00000000000E+00 0. -1.
         21    1    1    2  503  501 -0.29109344244E+02 -0.23111044665E+02 -0.76179191964E+01  0.37940835530E+02  0.00000000000E+00 0.  1.
         21    1    1    2  504  505  0.54946841666E+02  0.43209017591E+02 -0.44439195392E+03  0.44985595841E+03  0.00000000000E+00 0. -1.
         21    1    1    2  505  502  0.65903583254E+02  0.34301106685E+01 -0.31141003875E+03  0.31832571398E+03  0.00000000000E+00 0.  1.
          2    1    1    2  501    0 -0.91741080676E+02 -0.23528083595E+02 -0.49761320802E+04  0.49770333007E+04  0.00000000000E+00 0. -1.
<scales pt_clust_3="37.16819" pt_clust_4="44.34456" pt_clust_5="44.34456" pt_clust_6="97.01850"></scales>
<clustering>
<clus scale="   37.168">  1  3  2 -1</clus>
<clus scale="   44.345">  4  5 -1 -1</clus>
<clus scale="   97.019">  2  6  1 -1</clus>
<clus scale="   37.168">  1  3  2 -1</clus>
</clustering>
</event>
<event>
 6    0  0.4017242E+002  0.1002865E+03  0.7546771E-02  0.1279695E+00
         21   -1    0    0  504  502  0.00000000000E+00  0.00000000000E+00  0.19922995685E+03  0.19922995685E+03  0.00000000000E+00 0.  1.
          1   -1    0    0  502    0 -0.00000000000E+00 -0.00000000000E+00 -0.20431639077E+04  0.20431639077E+04  0.00000000000E+00 0. -1.
         21    1    1    2  503  501 -0.73199386018E+02 -0.91466286219E+02 -0.55690082927E+02  0.12971359591E+03  0.00000000000E+00 0.  1.
         21    1    1    2  504  505 -0.95873849798E+02  0.69104679360E+01  0.90226098692E+02  0.13183436019E+03  0.00000000000E+00 0.  1.
         21    1    1    2  505  503  0.11552947636E+03  0.36423132890E+02 -0.22166212226E+02  0.12314643918E+03  0.00000000000E+00 0. -1.
          1    1    1    2  501    0  0.53543759453E+02  0.48132685393E+02 -0.18563037543E+04  0.18576994692E+04  0.00000000000E+00 0. -1.
<scales pt_clust_3="81.98559" pt_clust_4="100.28647" pt_clust_5="14000.00000" pt_clust_6="71.99784"></scales>
<clustering>
<clus scale="   71.998">  2  6  1 -1</clus>
<clus scale="   81.986">  2  3  1 -1</clus>
<clus scale="  100.286">  1  4  2 -1</clus>
<clus scale="  100.286">  1  3  2 -1</clus>
</clustering>
</event>
<event>
 6    0  0.4017242E+002  0.1064955E+03  0.7546771E-02  0.1267201E+00
          2   -1    0    0  503    0 -0.00000000000E+00  0.00000000000E+00  0.62885682637E+03  0.62885682637E+03  0.00000000000E+00 0.  1.
         21   -1    0    0  504  502  0.00000000000E+00 -0.00000000000E+00 -0.19674591744E+04  0.19674591744E+04  0.00000000000E+00 0.  1.
         21    1    1    2  503  505  0.50828806156E+02 -0.10833978466E+03  0.10594236510E+03  0.15982759836E+03  0.00000000000E+00 0.  1.
         21    1    1    2  504  501 -0.56113698823E+02  0.77719808952E+02  0.92434422604E+02  0.13316620585E+03  0.00000000000E+00 0.  1.
         21    1    1    2  505  502  0.41646908707E+02  0.26318809149E+02 -0.19189590537E+04  0.19195913613E+04  0.00000000000E+00 0.  1.
          2    1    1    2  501    0 -0.36362016041E+02  0.43011665549E+01  0.38197991792E+03  0.38373083527E+03  0.00000000000E+00 0.  1.
<scales pt_clust_3="106.49547" pt_clust_4="14000.00000" pt_clust_5="49.22952" pt_clust_6="36.61552"></scales>
<clustering>
<clus scale="   36.616">  1  6  2 -1</clus>
<clus scale="   49.230">  2  5  1 -1</clus>
<clus scale="  106.495">  1  3  2 -1</clus>
<clus scale="   49.230">  2  3  1 -1</clus>
</clustering>
</event>
<event>
 6    0  0.4017242E+002  0.1462137E+03  0.7546771E-02  0.1205204E+00
         -4   -1    0    0    0  501 -0.00000000000E+00  0.00000000000E+00  0.79176646144E+02  0.79176646144E+02  0.00000000000E+00 0. -1.
         21   -1    0    0  504  502  0.00000000000E+00 -0.00000000000E+00 -0.68062911555E+03  0.68062911555E+03  0.00000000000E+00 0. -1.
         21    1    1    2  503  505  0.60672426978E+02  0.52338786001E+02 -0.32842055228E+02  0.86597300807E+02  0.00000000000E+00 0. -1.
         21    1    1    2  504  501 -0.11472678835E+03 -0.67744541111E+02 -0.56641086025E+03  0.58187010700E+03  0.00000000000E+00 0. -1.
         21    1    1    2  505  502  0.45972551007E+02 -0.19936174167E+02 -0.15916085697E+02  0.52576118823E+02  0.00000000000E+00 0. -1.
         -4    1    1    2    0  503  0.80818103597E+01  0.35341929277E+02  0.13716531764E+02  0.38762235066E+02  0.00000000000E+00 0. -1.
<scales pt_clust_3="48.58142" pt_clust_4="129.65195" pt_clust_5="48.58142" pt_clust_6="36.25421"></scales>
<clustering>
<clus scale="   36.254">  1  6  2 -1</clus>
<clus scale="   48.581">  3  5 -1 -1</clus>
<clus scale="  129.652">  2  4  1 -1</clus>
<clus scale="  129.652">  2  3  1 -1</clus>
</clustering>
</event>
<event>
 6    0  0.4017242E+002  0.3121250E+03  0.7546771E-02  0.1079332E+00
          2   -1    0    0  503    0 -0.00000000000E+00  0.00000000000E+00  0.25757958639E+04  0.25757958639E+04  0.00000000000E+00 0. -1.
         21   -1    0    0  504  502  0.00000000000E+00 -0.00000000000E+00 -0.15776431193E+03  0.15776431193E+03  0.00000000000E+00 0.  1.
         21    1    1    2  503  502 -0.66200369889E+01 -0.37445457096E+02  0.21828622189E+01  0.38088738944E+02  0.00000000000E+00 0.  1.
         21    1    1    2  504  505 -0.74771294341E+02  0.20509929225E+03  0.31819110720E+02  0.22061033962E+03  0.00000000000E+00 0.  1.
         21    1    1    2  505  501 -0.40687630907E+02  0.11102683494E+03  0.63014005042E+02  0.13398957503E+03  0.00000000000E+00 0. -1.
          2    1    1    2  501    0  0.12207896224E+03 -0.27868067010E+03  0.23210155740E+04  0.23408715222E+04  0.00000000000E+00 0. -1.
<scales pt_clust_3="38.02614" pt_clust_4="44.14666" pt_clust_5="44.14666" pt_clust_6="306.49751"></scales>
<clustering>
<clus scale="   38.026">  2  3  1 -1</clus>
<clus scale="   44.147">  4  5 -1 -1</clus>
<clus scale="  306.498">  1  6  2 -1</clus>
<clus scale="   38.026">  2  3  1 -1</clus>
</clustering>
</event>
<event>
 6    0  0.4017242E+002  0.7491379E+02  0.7546771E-02  0.1344138E+00
         21   -1    0    0  504  502  0.00000000000E+00  0.00000000000E+00  0.12705930137E+04  0.12705930137E+04  0.00000000000E+00 0.  1.
         -3   -1    0    0    0  501 -0.00000000000E+00 -0.00000000000E+00 -0.53618761021E+03  0.53618761021E+03  0.00000000000E+00 0. -1.
         21    1    1    2  503  501 -0.71706425496E+02  0.99314619848E+01  0.20319471482E+03  0.21570474619E+03  0.00000000000E+00 0.  1.
         21    1    1    2  504  503  0.65695051642E+02 -0.39721397660E+02  0.92546543565E+03  0.92864412011E+03  0.00000000000E+00 0.  1.
         21    1    1    2  505  502 -0.23838154174E+02  0.57112330984E+02  0.12611996788E+03  0.14048602152E+03  0.00000000000E+00 0.  1.
         -3    1    1    2    0  505  0.29849528028E+02 -0.27322395309E+02 -0.52037471483E+03  0.52194573611E+03  0.00000000000E+00 0. -1.
<scales pt_clust_3="14000.00000" pt_clust_4="74.91379" pt_clust_5="45.07990" pt_clust_6="40.46613"></scales>
<clustering>
<clus scale="   40.466">  2  6  1 -1</clus>
<clus scale="   45.080">  2  5  1 -1</clus>
<clus scale="   74.914">  1  4  2 -1</clus>
<clus scale="   74.914">  1  3  2 -1</clus>
</clustering>
</event>
<event>
 6    0  0.4017242E+002  0.1742825E+03  0.7546771E-02  0.1173454E+00
         21   -1    0    0  501  502  0.00000000000E+00  0.00000000000E+00  0.24272288253E+02  0.24272288253E+02  0.00000000000E+00 0.  1.
          2   -1    0    0  504    0 -0.00000000000E+00 -0.00000000000E+00 -0.20879486882E+04  0.20879486882E+04  0.00000000000E+00 0.  1.
         21    1    1    2  503  502  0.31076013203E+02 -0.38539657378E+02 -0.55797776895E+02  0.74595011186E+02  0.00000000000E+00 0. -1.
         21    1    1    2  504  505  0.85841805202E+02  0.27370267195E+02 -0.30867310000E+03  0.32155408521E+03  0.00000000000E+00 0.  1.
         21    1    1    2  505  503  0.45217890470E+02 -0.41105148180E+02 -0.27461964601E+03  0.28133652589E+03  0.00000000000E+00 0.  1.
          2    1    1    2  501    0 -0.16213570887E+03  0.52274538362E+02 -0.14245858771E+04  0.14347353542E+04  0.00000000000E+00 0.  1.
<scales pt_clust_3="49.50782" pt_clust_4="65.19482" pt_clust_5="65.19482" pt_clust_6="156.50241"></scales>
<clustering>
<clus scale="   49.508">  1  3  2 -1</clus>
<clus scale="   65.195">  4  5 -1 -1</clus>
<clus scale="  156.502">  2  6  1 -1</clus>
<clus scale="   49.508">  1  3  2 -1</clus>
</clustering>
</event>
<event>
 6    0  0.4017242E+002  0.1486803E+03  0.7546771E-02  0.1202104E+00
         -2   -1    0    0    0  501 -0.00000000000E+00  0.00000000000E+00  0.28111887826E+03  0.28111887826E+03  0.00000000000E+00 0. -1.
         21   -1    0    0  505  502  0.00000000000E+00 -0.00000000000E+00 -0.38336722997E+03  0.38336722997E+03  0.00000000000E+00 0. -1.
         21    1    1    2  503  502  0.11988581139E+03 -0.56230883894E+01 -0.71341695483E+02  0.13962042978E+03  0.00000000000E+00 0. -1.
         21    1    1    2  504  501 -0.76484749078E+02 -0.37716354956E+02 -0.10273878909E+03  0.13352040689E+03  0.00000000000E+00 0.  1.
         21    1    1    2  505  504 -0.78737037259E+02 -0.32449088786E+01 -0.14594184999E+03  0.16585859655E+03  0.00000000000E+00 0. -1.
         -2    1    1    2    0  503  0.35335974943E+02  0.46584352224E+02  0.21777398286E+03  0.22548667501E+03  0.00000000000E+00 0. -1.
<scales pt_clust_3="141.74535" pt_clust_4="43.14140" pt_clust_5="43.14140" pt_clust_6="58.46993"></scales>
<clustering>
<clus scale="   43.141">  4  5 -1 -1</clus>
<clus scale="   58.470">  1  6  2 -1</clus>
<clus scale="  141.745">  1  3  2 -1</clus>
<clus scale="  148.680">  2  3  1 -1</clus>
</clustering>
</event>
<event>
 6    0  0.4017242E+002  0.2075090E+03  0.7546771E-02  0.1143554E+00
         21   -1    0    0  503  502  0.00000000000E+00  0.00000000000E+00  0.40622635757E+03  0.40622635757E+03  0.00000000000E+00 0.  1.
          2   -1    0    0  505    0 -0.00000000000E+00 -0.00000000000E+00 -0.77216269042E+03  0.77216269042E+03  0.00000000000E+00 0.  1.
         21    1    1    2  503  501  0.53574986607E+02  0.92691879660E+01  0.63828556680E+02  0.83846775033E+02  0.00000000000E+00 0.  1.
         21    1    1    2  504  502 -0.34068015710E+02  0.19918907871E+02  0.13926373277E+03  0.14474729653E+03  0.00000000000E+00 0.  1.
         21    1    1    2  505  504 -0.48874889230E+02  0.17836990252E+03  0.12603630155E+03  0.22380734177E+03  0.00000000000E+00 0.  1.
          2    1    1    2  501    0  0.29367918333E+02 -0.20755799836E+03 -0.69506492385E+03  0.72598763466E+03  0.00000000000E+00 0.  1.
<scales pt_clust_3="46.48545" pt_clust_4="39.46381" pt_clust_5="207.50898" pt_clust_6="14000.00000"></scales>
<clustering>
<clus scale="   39.464">  1  4  2 -1</clus>
<clus scale="   46.485">  1  3  2 -1</clus>
<clus scale="  207.509">  1  5  2 -1</clus>
<clus scale="   39.464">  1  3  2 -1</clus>
</clustering>
</event>
<event>
 6    0  0.4017242E+002  0.1524770E+03  0.7546771E-02  0.1197462E+00
          2   -1    0    0  505    0 -0.00000000000E+00  0.00000000000E+00  0.12772287466E+04  0.12772287466E+04  0.00000000000E+00 0. -1.
         21   -1    0    0  501  502  0.00000000000E+00 -0.00000000000E+00 -0.17626709067E+03  0.17626709067E+03  0.00000000000E+00 0.  1.
         21    1    1    2  503  502 -0.38284540509E+02  0.60819727951E+01 -0.26362125099E+02  0.46879185944E+02  0.00000000000E+00 0.  1.
         21    1    1    2  504  503  0.10039134671E+02  0.14990255122E+03 -0.65304807191E+02  0.16381781628E+03  0.00000000000E+00 0.  1.
         21    1    1    2  505  504 -0.20622413591E+02 -0.14368371450E+03  0.19097572219E+03  0.23987917838E+03  0.00000000000E+00 0. -1.
          2    1    1    2  501    0  0.48867819430E+02 -0.12300809521E+02  0.10016528660E+04  0.10029196567E+04  0.00000000000E+00 0. -1.
<scales pt_clust_3="38.76463" pt_clust_4="152.47702" pt_clust_5="14000.00000" pt_clust_6="50.21707"></scales>
<clustering>
<clus scale="   38.765">  2  3  1 -1</clus>
<clus scale="   50.217">  1  6  2 -1</clus>
<clus scale="  152.477">  2  4  1 -1</clus>
<clus scale="   38.765">  2  3  1 -1</clus>
</clustering>
</event>
<event>
 6    0  0.4017242E+002  0.1295038E+03  0.7546771E-02  0.1228194E+00
          1   -1    0    0  505    0 -0.00000000000E+00  0.00000000000E+00  0.11607229379E+04  0.11607229379E+04  0.00000000000E+00 0. -1.
         21   -1    0    0  504  502  0.00000000000E+00 -0.00000000000E+00 -0.11418654598E+04  0.11418654598E+04  0.00000000000E+00 0.  1.
         21    1    1    2  503  502 -0.10102103551E+03  0.83587930440E+02 -0.39394081239E+03  0.41518857812E+03  0.00000000000E+00 0.  1.
         21    1    1    2  504  501  0.64446715226E+02  0.43260771930E+02 -0.71426375821E+03  0.71846892054E+03  0.00000000000E+00 0.  1.
         21    1    1    2  505  503  0.56271623598E+02 -0.10344307547E+03  0.14681345687E+03  0.18820509186E+03  0.00000000000E+00 0. -1.
          1    1    1    2  501    0 -0.19697303310E+02 -0.23405626898E+02  0.98024859186E+03  0.98072580723E+03  0.00000000000E+00 0. -1.
<scales pt_clust_3="14000.00000" pt_clust_4="77.27716" pt_clust_5="129.50376" pt_clust_6="30.59096"></scales>
<clustering>
<clus scale="   30.591">  1  6  2 -1</clus>
<clus scale="   77.277">  2  4  1 -1</clus>
<clus scale="  129.504">  1  5  2 -1</clus>
<clus scale="   77.277">  2  3  1 -1</clus>
</clustering>
</event>
<event>
 6    0  0.4017242E+002  0.1271734E+03  0.7546771E-02  0.1231711E+00
          1   -1    0    0  504    0 -0.00000000000E+00  0.00000000000E+00  0.41783131016E+03  0.41783131016E+03  0.00000000000E+00 0. -1.
         21   -1    0    0  503  502  0.00000000000E+00 -0.00000000000E+00 -0.97513173174E+02  0.97513173174E+02  0.00000000000E+00 0.  1.
         21    1    1    2  503  505  0.32589108667E+02 -0.37817347988E+02 -0.18923259412E+02  0.53388121893E+02  0.00000000000E+00 0.  1.
         21    1    1    2  504  502 -0.87312949990E+02  0.74245525484E+02  0.61433897991E+02  0.13003873697E+03  0.00000000000E+00 0.  1.
         21    1    1    2  505  501  0.28657063926E+02 -0.67614842614E+02  0.27634717275E+02  0.78464462360E+02  0.00000000000E+00 0.  1.
          1    1    1    2  501    0  0.26066777397E+02  0.31186665117E+02  0.25017278113E+03  0.25345316211E+03  0.00000000000E+00 0. -1.
<scales pt_clust_3="41.97360" pt_clust_4="117.17888" pt_clust_5="41.97360" pt_clust_6="40.64585"></scales>
<clustering>
<clus scale="   40.646">  1  6  2 -1</clus>
<clus scale="   41.974">  3  5 -1 -1</clus>
<clus scale="  117.179">  1  4  2 -1</clus>
<clus scale="  127.173">  2  3  1 -1</clus>
</clustering>
</event>
<event>
 6    0  0.4017242E+002  0.1390410E+03  0.7546771E-02  0.1214625E+00
         21   -1    0    0  504  502  0.00000000000E+00  0.00000000000E+00  0.22218087988E+03  0.22218087988E+03  0.00000000000E+00 0.  1.
          2   -1    0    0  505    0 -0.00000000000E+00 -0.00000000000E+00 -0.17526347302E+04  0.17526347302E+04  0.00000000000E+00 0. -1.
         21    1    1    2  503  501  0.16917918269E+01 -0.53460621720E+02  0.52731967944E+02  0.75110323375E+02  0.00000000000E+00 0.  1.
         21    1    1    2  504  503  0.73580864030E+01 -0.57131861966E+02  0.14011616647E+03  0.15149498736E+03  0.00000000000E+00 0.  1.
         21    1    1    2  505  502 -0.41864162081E+02 -0.17854059074E+02 -0.42763054167E+02  0.62450414681E+02  0.00000000000E+00 0. -1.
          2    1    1    2  501    0  0.32814283851E+02  0.12844654276E+03 -0.16805389305E+04  0.16857598846E+04  0.00000000000E+00 0. -1.
<scales pt_clust_3="41.41234" pt_clust_4="41.41234" pt_clust_5="45.51237" pt_clust_6="132.23252"></scales>
<clustering>
<clus scale="   41.412">  3  4 -1 -1</clus>
<clus scale="   45.512">  1  5  2 -1</clus>
<clus scale="  132.233">  2  6  1 -1</clus>
<clus scale="   45.512">  1  3  2 -1</clus>
</clustering>
</event>
<event>
 6    0  0.4017242E+002  0.1399527E+03  0.7546771E-02  0.1213393E+00
         -2   -1    0    0    0  501 -0.00000000000E+00  0.00000000000E+00  0.12055936785E+04  0.12055936785E+04  0.00000000000E+00 0.  1.
         21   -1    0    0  504  502  0.00000000000E+00 -0.00000000000E+00 -0.40955159079E+02  0.40955159079E+02  0.00000000000E+00 0.  1.
         21    1    1    2  503  505 -0.13855125188E+02  0.34951064564E+02  0.13711954727E+03  0.14218056003E+03  0.00000000000E+00 0.  1.
         21    1    1    2  504  501  0.67021332007E+01 -0.47702832423E+02  0.55707916315E+01  0.48492396621E+02  0.00000000000E+00 0.  1.
         21    1    1    2  505  502 -0.12054772478E+01 -0.92796135772E+02  0.14235918423E+03  0.16993738060E+03  0.00000000000E+00 0.  1.
         -2    1    1    2    0  503  0.83584692352E+01  0.10554790363E+03  0.87958899630E+03  0.88593850034E+03  0.00000000000E+00 0.  1.
<scales pt_clust_3="35.56664" pt_clust_4="48.17135" pt_clust_5="126.58753" pt_clust_6="35.56664"></scales>
<clustering>
<clus scale="   35.567">  3  6 -1 -1</clus>
<clus scale="   48.171">  2  4  1 -1</clus>
<clus scale="  126.588">  2  5  1 -1</clus>
<clus scale="   48.171">  2  3  1 -1</clus>
</clustering>
</event>
<event>
 6    0  0.4017242E+002  0.2768867E+03  0.7546771E-02  0.1097402E+00
         -3   -1    0    0    0  501 -0.00000000000E+00  0.00000000000E+00  0.33512828073E+03  0.33512828073E+03  0.00000000000E+00 0.  1.
         21   -1    0    0  503  502  0.00000000000E+00 -0.00000000000E+00 -0.79537466321E+03  0.79537466321E+03  0.00000000000E+00 0. -1.
         21    1    1    2  503  504 -0.42461177125E+02  0.14634930806E+02 -0.23260099301E+03  0.23689735058E+03  0.00000000000E+00 0. -1.
         21    1    1    2  504  501 -0.11562546080E+03  0.15929369109E+03 -0.44249133219E+03  0.48429568063E+03  0.00000000000E+00 0. -1.
         21    1    1    2  505  502  0.38097380344E+01  0.37833202095E+02 -0.31731620127E+02  0.49525357147E+02  0.00000000000E+00 0. -1.
         -3    1    1    2    0  505  0.15427689989E+03 -0.21176182399E+03  0.24657756285E+03  0.35978455559E+03  0.00000000000E+00 0.  1.
<scales pt_clust_3="45.62671" pt_clust_4="45.62671" pt_clust_5="38.02454" pt_clust_6="259.88273"></scales>
<clustering>
<clus scale="   38.025">  2  5  1 -1</clus>
<clus scale="   45.627">  3  4 -1 -1</clus>
<clus scale="  259.883">  1  6  2 -1</clus>
<clus scale="   38.025">  2  3  1 -1</clus>
</clustering>
</event>
<event>
 6    0  0.4017242E+002  0.8961016E+02  0.7546771E-02  0.1303799E+00
         21   -1    0    0  503  502  0.00000000000E+00  0.00000000000E+00  0.81336549880E+02  0.81336549880E+02  0.00000000000E+00 0. -1.
          2   -1    0    0  505    0 -0.00000000000E+00 -0.00000000000E+00 -0.16862242073E+04  0.16862242073E+04  0.00000000000E+00 0. -1.
         21    1    1    2  503  501  0.78971311259E+02  0.76989569302E+02 -0.56766097833E+03  0.57827575438E+03  0.00000000000E+00 0. -1.
         21    1    1    2  504  502 -0.32972425742E+02 -0.21759724745E+02  0.67023633931E+02  0.77799961347E+02  0.00000000000E+00 0. -1.
         21    1    1    2  505  504  0.33821244360E+02 -0.15585044612E+02 -0.29460276622E+03  0.29694706607E+03  0.00000000000E+00 0. -1.
          2    1    1    2  501    0 -0.79820129876E+02 -0.39644799945E+02 -0.80964754678E+03  0.81453797536E+03  0.00000000000E+00 0. -1.
<scales pt_clust_3="14000.00000" pt_clust_4="39.42934" pt_clust_5="37.23936" pt_clust_6="89.61016"></scales>
<clustering>
<clus scale="   37.239">  2  5  1 -1</clus>
<clus scale="   39.429">  1  4  2 -1</clus>
<clus scale="   89.610">  2  6  1 -1</clus>
<clus scale="   39.429">  1  3  2 -1</clus>
</clustering>
</event>
<event>
 6    0  0.4017242E+002  0.1751175E+03  0.7546771E-02  0.1172614E+00
          2   -1    0    0  505    0 -0.00000000000E+00  0.00000000000E+00  0.12044143351E+03  0.12044143351E+03  0.00000000000E+00 0.  1.
         21   -1    0    0  504  502  0.00000000000E+00 -0.00000000000E+00 -0.60269810276E+03  0.60269810276E+03  0.00000000000E+00 0.  1.
         21    1    1    2  503  502 -0.64211214305E+02 -0.12826469364E+03 -0.32871344480E+03  0.35864667916E+03  0.00000000000E+00 0.  1.
         21    1    1    2  504  501  0.88143802125E+02  0.11343468892E+03 -0.17465444647E+03  0.22614361405E+03  0.00000000000E+00 0.  1.
         21    1    1    2  505  503 -0.37514401941E+02 -0.14788797173E+02 -0.47551456709E+02  0.62347252626E+02  0.00000000000E+00 0.  1.
          2    1    1    2  501    0  0.13581814122E+02  0.29618801895E+02  0.68662678725E+02  0.76001990436E+02  0.00000000000E+00 0.  1.
<scales pt_clust_3="36.62051" pt_clust_4="160.67955" pt_clust_5="36.62051" pt_clust_6="32.58434"></scales>
<clustering>
<clus scale="   32.584">  1  6  2 -1</clus>
<clus scale="   36.621">  3  5 -1 -1</clus>
<clus scale="  160.680">  1  4  2 -1</clus>
<clus scale="  175.117">  2  3  1 -1</clus>
</clustering>
</event>
<event>
 6    0  0.4017242E+002  0.1066163E+03  0.7546771E-02  0.1266967E+00
         21   -1    0    0  505  502  0.00000000000E+00  0.00000000000E+00  0.13788042859E+03  0.13788042859E+03  0.00000000000E+00 0.  1.
          2   -1    0    0  504    0 -0.00000000000E+00 -0.00000000000E+00 -0.47134938714E+03  0.47134938714E+03  0.00000000000E+00 0.  1.
         21    1    1    2  503  501  0.67329008149E+02  0.87600603271E+01 -0.10896747006E+02  0.68765348037E+02  0.00000000000E+00 0.  1.
         21    1    1    2  504  502 -0.10170655876E+03 -0.89241275864E+02 -0.11238374639E+03  0.17589296707E+03  0.00000000000E+00 0.  1.
         21    1    1    2  505  503 -0.40858008337E+02  0.16504447965E+02  0.61404622713E+02  0.75579768049E+02  0.00000000000E+00 0.  1.
          2    1    1    2  501    0  0.75235558948E+02  0.63976767573E+02 -0.27159308786E+03  0.28899173257E+03  0.00000000000E+00 0.  1.
<scales pt_clust_3="52.66804" pt_clust_4="106.61633" pt_clust_5="44.06556" pt_clust_6="14000.00000"></scales>
<clustering>
<clus scale="   44.066">  1  5  2 -1</clus>
<clus scale="   52.668">  1  3  2 -1</clus>
<clus scale="  106.616">  1  4  2 -1</clus>
<clus scale="   44.066">  1  3  2 -1</clus>
</clustering>
</event>
<event>
 6    0  0.4017242E+002  0.1834973E+03  0.7546771E-02  0.1164461E+00
         21   -1    0    0  505  502  0.00000000000E+00  0.00000000000E+00  0.12203345481E+03  0.12203345481E+03  0.00000000000E+00 0.  1.
          2   -1    0    0  504    0 -0.00000000000E+00 -0.00000000000E+00 -0.70969037135E+03  0.70969037135E+03  0.00000000000E+00 0.  1.
         21    1    1    2  503  502  0.38244071583E+02 -0.37888994628E+02 -0.57293686958E+02  0.78617755567E+02  0.00000000000E+00 0. -1.
         21    1    1    2  504  503  0.17379028089E+02 -0.14763782483E+03 -0.55573410316E+02  0.15870526731E+03  0.00000000000E+00 0.  1.
         21    1    1    2  505  501 -0.44704752049E+02  0.24509707031E+02  0.33567295941E+02  0.61041002214E+02  0.00000000000E+00 0.  1.
          2    1    1    2  501    0 -0.10918347622E+02  0.16101711242E+03 -0.50835711521E+03  0.53335980107E+03  0.00000000000E+00 0.  1.
<scales pt_clust_3="46.88144" pt_clust_4="46.88144" pt_clust_5="50.98275" pt_clust_6="166.13901"></scales>
<clustering>
<clus scale="   46.881">  3  4 -1 -1</clus>
<clus scale="   50.983">  1  5  2 -1</clus>
<clus scale="  166.139">  2  6  1 -1</clus>
<clus scale="   50.983">  1  3  2 -1</clus>
</clustering>
</event>
<event>
 6    0  0.4017242E+002  0.1725523E+03  0.7546771E-02  0.1175212E+00
          2   -1    0    0  504    0 -0.00000000000E+00  0.00000000000E+00  0.12069094292E+04  0.12069094292E+04  0.00000000000E+00 0.  1.
         21   -1    0    0  501  502  0.00000000000E+00 -0.00000000000E+00 -0.93506672288E+02  0.93506672288E+02  0.00000000000E+00 0.  1.
         21    1    1    2  503  502  0.11450218044E+03 -0.11635327445E+03 -0.51319455181E+01  0.16332535218E+03  0.00000000000E+00 0.  1.
         21    1    1    2  504  505 -0.69763206075E+02  0.75117109907E+02  0.58288849479E+03  0.59183484393E+03  0.00000000000E+00 0.  1.
         21    1    1    2  505  503 -0.14712306143E+02  0.41110384965E+02  0.10709472569E+03  0.11565377631E+03  0.00000000000E+00 0.  1.
          2    1    1    2  501    0 -0.30026668220E+02  0.12577957793E+00  0.42855148198E+03  0.42960212910E+03  0.00000000000E+00 0.  1.
<scales pt_clust_3="161.10849" pt_clust_4="38.10235" pt_clust_5="38.10235" pt_clust_6="30.02693"></scales>
<clustering>
<clus scale="   30.027">  1  6  2 -1</clus>
<clus scale="   38.102">  4  5 -1 -1</clus>
<clus scale="  161.108">  2  3  1 -1</clus>
<clus scale="  161.108">  2  3  1 -1</clus>
</clustering>
</event>
<event>
 6    0  0.4017242E+002  0.1089716E+03  0.7546771E-02  0.1262486E+00
         21   -1    0    0  504  502  0.00000000000E+00  0.00000000000E+00  0.69144510313E+02  0.69144510313E+02  0.00000000000E+00 0. -1.
          2   -1    0    0  505    0 -0.00000000000E+00 -0.00000000000E+00 -0.14275146914E+04  0.14275146914E+04  0.00000000000E+00 0. -1.
         21    1    1    2  503  502 -0.43090875485E+02  0.51611787432E+02  0.26282342069E+02  0.72189761439E+02  0.00000000000E+00 0. -1.
         21    1    1    2  504  501 -0.84792894422E+02 -0.54171068286E+02 -0.16840542237E+03  0.19617524275E+03  0.00000000000E+00 0. -1.
         21    1    1    2  505  503  0.42526294840E+02 -0.60022743692E+01 -0.10099280987E+03  0.10974543588E+03  0.00000000000E+00 0.  1.
          2    1    1    2  501    0  0.85357475067E+02  0.85615552234E+01 -0.11152542909E+04  0.11185487616E+04  0.00000000000E+00 0. -1.
<scales pt_clust_3="66.68412" pt_clust_4="108.97156" pt_clust_5="42.94779" pt_clust_6="14000.00000"></scales>
<clustering>
<clus scale="   42.948">  2  5  1 -1</clus>
<clus scale="   66.684">  1  3  2 -1</clus>
<clus scale="  108.972">  1  4  2 -1</clus>
<clus scale="   66.684">  1  3  2 -1</clus>
</clustering>
</event>
<event>
 6    0  0.4017242E+002  0.2871164E+03  0.7546771E-02  0.1091864E+00
          2   -1    0    0  504    0 -0.00000000000E+00  0.00000000000E+00  0.28863567154E+04  0.28863567154E+04  0.00000000000E+00 0. -1.
         21   -1    0    0  503  502  0.00000000000E+00 -0.00000000000E+00 -0.29152291624E+03  0.29152291624E+03  0.00000000000E+00 0. -1.
         21    1    1    2  503  505 -0.54339131045E+02 -0.64973406671E+02 -0.22859756399E+03  0.24378500979E+03  0.00000000000E+00 0. -1.
         21    1    1    2  504  502  0.21564765071E+03 -0.11817243826E+03  0.74884541061E+03  0.78818657906E+03  0.00000000000E+00 0. -1.
         21    1    1    2  505  501 -0.25290089640E+02 -0.14151087966E+03  0.25627679141E+03  0.29384130328E+03  0.00000000000E+00 0. -1.
          2    1    1    2  501    0 -0.13601843003E+03  0.32465672459E+03  0.18183091611E+04  0.18520667395E+04  0.00000000000E+00 0. -1.
<scales pt_clust_3="84.70115" pt_clust_4="287.11636" pt_clust_5="169.31224" pt_clust_6="14000.00000"></scales>
<clustering>
<clus scale="   84.701">  2  3  1 -1</clus>
<clus scale="  169.312">  2  5  1 -1</clus>
<clus scale="  287.116">  2  4  1 -1</clus>
<clus scale="   84.701">  2  3  1 -1</clus>
</clustering>
</event>
<event>
 6    0  0.4017242E+002  0.1656968E+03  0.7546771E-02  0.1182411E+00
         21   -1    0    0  501  502  0.00000000000E+00  0.00000000000E+00  0.20525060524E+04  0.20525060524E+04  0.00000000000E+00 0. -1.
          2   -1    0    0  504    0 -0.00000000000E+00 -0.00000000000E+00 -0.75358970271E+03  0.75358970271E+03  0.00000000000E+00 0. -1.
         21    1    1    2  503  502  0.16758081037E+02 -0.68567107305E+02  0.52799407549E+03  0.53269130389E+03  0.00000000000E+00 0. -1.
         21    1    1    2  504  505 -0.57931788475E+02  0.10453283304E+03  0.28065624622E+03  0.30504283936E+03  0.00000000000E+00 0. -1.
         21    1    1    2  505  503 -0.43491097403E+02 -0.10287178176E+03  0.12228161904E+04  0.12279061506E+04  0.00000000000E+00 0. -1.
          2    1    1    2  501    0  0.84664804840E+02  0.66906056020E+02 -0.73255016250E+03  0.74045546124E+03  0.00000000000E+00 0. -1.
<scales pt_clust_3="51.89239" pt_clust_4="152.29763" pt_clust_5="51.89239" pt_clust_6="107.90991"></scales>
<clustering>
<clus scale="   51.892">  3  5 -1 -1</clus>
<clus scale="  107.910">  2  6  1 -1</clus>
<clus scale="  152.298">  2  4  1 -1</clus>
<clus scale="  165.697">  1  3  2 -1</clus>
</clustering>
</event>
<event>
 6    0  0.4017242E+002  0.8427064E+02  0.7546771E-02  0.1317351E+00
         21   -1    0    0  503  502  0.00000000000E+00  0.00000000000E+00  0.41357840321E+02  0.41357840321E+02  0.00000000000E+00 0.  1.
          2   -1    0    0  505    0 -0.00000000000E+00 -0.00000000000E+00 -0.29468452698E+04  0.29468452698E+04  0.00000000000E+00 0.  1.
         21    1    1    2  503  501 -0.15987024910E+02  0.29229601791E+02 -0.59889754592E+01  0.33849998720E+02  0.00000000000E+00 0.  1.
         21    1    1    2  504  502  0.43392053384E+02 -0.95021753961E+02 -0.15747164720E+03  0.18896910778E+03  0.00000000000E+00 0.  1.
         21    1    1    2  505  504  0.55891292197E+02  0.56620031298E+02 -0.13277249490E+03  0.15478436578E+03  0.00000000000E+00 0.  1.
          2    1    1    2  501    0 -0.83296320671E+02  0.91721208718E+01 -0.26092543119E+04  0.26105996378E+04  0.00000000000E+00 0.  1.
<scales pt_clust_3="33.31598" pt_clust_4="14000.00000" pt_clust_5="74.00654" pt_clust_6="84.27064"></scales>
<clustering>
<clus scale="   33.316">  1  3  2 -1</clus>
<clus scale="   84.271">  2  6  1 -1</clus>
<clus scale="   74.007">  2  5  1 -1</clus>
<clus scale="   33.316">  1  3  2 -1</clus>
</clustering>
</event>
<event>
 6    0  0.4017242E+002  0.7443482E+02  0.7546771E-02  0.1345630E+00
         21   -1    0    0  505  502  0.00000000000E+00  0.00000000000E+00  0.76532156401E+03  0.76532156401E+03  0.00000000000E+00 0. -1.
         -1   -1    0    0    0  501 -0.00000000000E+00 -0.00000000000E+00 -0.17443899651E+03  0.17443899651E+03  0.00000000000E+00 0.  1.
         21    1    1    2  503  504  0.13719902476E+02 -0.93961118361E+02  0.72962157007E+02  0.11975142522E+03  0.00000000000E+00 0.  1.
         21    1    1    2  504  502  0.53286949471E+02  0.34525383435E+02  0.18163020688E+03  0.19240850588E+03  0.00000000000E+00 0. -1.
         21    1    1    2  505  501  0.43877301152E+01  0.39174269450E+02  0.47161614270E+03  0.47326066984E+03  0.00000000000E+00 0. -1.
         -1    1    1    2    0  503 -0.71394582062E+02  0.20261465476E+02 -0.13532593909E+03  0.15433995958E+03  0.00000000000E+00 0.  1.
<scales pt_clust_3="14000.00000" pt_clust_4="73.89078" pt_clust_5="39.41923" pt_clust_6="74.43482"></scales>
<clustering>
<clus scale="   39.419">  1  5  2 -1</clus>
<clus scale="   74.435">  2  6  1 -1</clus>
<clus scale="   73.891">  1  4  2 -1</clus>
<clus scale="   39.419">  1  3  2 -1</clus>
</clustering>
</event>
<event>
 6    0  0.4017242E+002  0.1244211E+03  0.7546771E-02  0.1235977E+00
          2   -1    0    0  503    0 -0.00000000000E+00  0.00000000000E+00  0.10440398636E+04  0.10440398636E+04  0.00000000000E+00 0.  1.
         21   -1    0    0  504  502  0.00000000000E+00 -0.00000000000E+00 -0.83074833261E+02  0.83074833261E+02  0.00000000000E+00 0. -1.
         21    1    1    2  503  502  0.27932071124E+02  0.28151327689E+02  0.95988042376E+02  0.10385760505E+03  0.00000000000E+00 0. -1.
         21    1    1    2  504  505  0.11289383643E+03  0.53804183389E+02  0.19876630003E+02  0.12662933654E+03  0.00000000000E+00 0. -1.
         21    1    1    2  505  501 -0.93465724442E+02 -0.85768349675E+02  0.13615499272E+03  0.18609200277E+03  0.00000000000E+00 0. -1.
          2    1    1    2  501    0 -0.47360183108E+02  0.38128385974E+01  0.70894536522E+03  0.71053575248E+03  0.00000000000E+00 0.  1.
<scales pt_clust_3="39.65725" pt_clust_4="124.42106" pt_clust_5="14000.00000" pt_clust_6="36.31458"></scales>
<clustering>
<clus scale="   39.657">  1  3  2 -1</clus>
<clus scale="   36.315">  1  6  2 -1</clus>
<clus scale="  124.421">  2  4  1 -1</clus>
<clus scale="  124.421">  2  3  1 -1</clus>
</clustering>
</event>
<event>
 6    0  0.4017242E+002  0.8835438E+02  0.7546771E-02  0.1306886E+00
         21   -1    0    0  505  502  0.00000000000E+00  0.00000000000E+00  0.15204524825E+03  0.15204524825E+03  0.00000000000E+00 0. -1.
          3   -1    0    0  504    0 -0.00000000000E+00 -0.00000000000E+00 -0.66637410420E+03  0.66637410420E+03  0.00000000000E+00 0.  1.
         21    1    1    2  503  502  0.43882008400E+02  0.67072193991E+02  0.18576685775E+02  0.82276382531E+02  0.00000000000E+00 0. -1.
         21    1    1    2  504  503 -0.77397790488E+02 -0.40481549468E+02 -0.55061754336E+02  0.10325197630E+03  0.00000000000E+00 0. -1.
         21    1    1    2  505  501  0.28173902697E+02  0.32333112099E+02  0.69874915234E+02  0.81985990939E+02  0.00000000000E+00 0. -1.
          3    1    1    2  501    0  0.53418793906E+01 -0.58923756622E+02 -0.54771870263E+03  0.55090500268E+03  0.00000000000E+00 0.  1.
<scales pt_clust_3="88.35438" pt_clust_4="14000.00000" pt_clust_5="42.88588" pt_clust_6="58.54824"></scales>
<clustering>
<clus scale="   42.886">  1  5  2 -1</clus>
<clus scale="   58.548">  2  6  1 -1</clus>
<clus scale="   88.354">  1  3  2 -1</clus>
<clus scale="   42.886">  1  3  2 -1</clus>
</clustering>
</event>
<event>
 6    0  0.4017242E+002  0.1657532E+03  0.7546771E-02  0.1182350E+00
         21   -1    0    0  503  502  0.00000000000E+00  0.00000000000E+00  0.61289639922E+03  0.61289639922E+03  0.00000000000E+00 0.  1.
          1   -1    0    0  504    0 -0.00000000000E+00 -0.00000000000E+00 -0.30624452625E+03  0.30624452625E+03  0.00000000000E+00 0.  1.
         21    1    1    2  503  501  0.23595752402E+02  0.43818748564E+02  0.26313905839E+03  0.26780404460E+03  0.00000000000E+00 0.  1.
         21    1    1    2  504  505  0.37931102099E+02 -0.63034246701E+02  0.12852539782E+03  0.14809072439E+03  0.00000000000E+00 0.  1.
         21    1    1    2  505  502  0.83854677649E+02  0.56616034620E+00  0.18102455054E+03  0.19950392327E+03  0.00000000000E+00 0.  1.
          1    1    1    2  501    0 -0.14538153215E+03  0.18649337791E+02 -0.26603713378E+03  0.30374223322E+03  0.00000000000E+00 0.  1.
<scales pt_clust_3="49.76788" pt_clust_4="64.22184" pt_clust_5="64.22184" pt_clust_6="145.62719"></scales>
<clustering>
<clus scale="   49.768">  1  3  2 -1</clus>
<clus scale="   64.222">  4  5 -1 -1</clus>
<clus scale="  145.627">  2  6  1 -1</clus>
<clus scale="   49.768">  1  3  2 -1</clus>
</clustering>
</event>
<event>
 6    0  0.4017242E+002  0.1726453E+03  0.7546771E-02  0.1175117E+00
          2   -1    0    0  505    0 -0.00000000000E+00  0.00000000000E+00  0.74999302209E+03  0.74999302209E+03  0.00000000000E+00 0.  1.
         21   -1    0    0  503  502  0.00000000000E+00 -0.00000000000E+00 -0.28801677780E+03  0.28801677780E+03  0.00000000000E+00 0. -1.
         21    1    1    2  503  504  0.22982038376E+02 -0.43800347289E+02 -0.99968561555E+02  0.11153635197E+03  0.00000000000E+00 0. -1.
         21    1    1    2  504  501  0.74136029961E+02 -0.52273920400E+02 -0.67484752410E+02  0.11306151202E+03  0.00000000000E+00 0. -1.
         21    1    1    2  505  502  0.38662990969E+02  0.63725342816E+01 -0.78115928446E+02  0.87392987939E+02  0.00000000000E+00 0. -1.
          2    1    1    2  501    0 -0.13578105931E+03  0.89701733408E+02  0.70754548671E+03  0.72601894797E+03  0.00000000000E+00 0.  1.
<scales pt_clust_3="46.14119" pt_clust_4="46.14119" pt_clust_5="39.18464" pt_clust_6="161.44653"></scales>
<clustering>
<clus scale="   39.185">  2  5  1 -1</clus>
<clus scale="   46.141">  3  4 -1 -1</clus>
<clus scale="  161.447">  1  6  2 -1</clus>
<clus scale="   39.185">  2  3  1 -1</clus>
</clustering>
</event>
<event>
 6    0  0.4017242E+002  0.1226382E+03  0.7546771E-02  0.1238807E+00
          2   -1    0    0  503    0 -0.00000000000E+00  0.00000000000E+00  0.19635024175E+04  0.19635024175E+04  0.00000000000E+00 0. -1.
         21   -1    0    0  501  502  0.00000000000E+00 -0.00000000000E+00 -0.48195538426E+02  0.48195538426E+02  0.00000000000E+00 0.  1.
         21    1    1    2  503  504  0.96078681212E+02 -0.15366289731E+02  0.35698834320E+03  0.37001069312E+03  0.00000000000E+00 0.  1.
         21    1    1    2  504  505  0.74802009238E+02  0.23929610906E+02  0.19017347676E+03  0.20575207928E+03  0.00000000000E+00 0.  1.
         21    1    1    2  505  502 -0.74089217482E+02  0.26592442952E+02  0.16569169532E+02  0.80441951420E+02  0.00000000000E+00 0.  1.
          2    1    1    2  501    0 -0.96791472969E+02 -0.35155764127E+02  0.13515758896E+04  0.13554932321E+04  0.00000000000E+00 0. -1.
<scales pt_clust_3="47.90505" pt_clust_4="47.90505" pt_clust_5="78.71703" pt_clust_6="110.43988"></scales>
<clustering>
<clus scale="   47.905">  3  4 -1 -1</clus>
<clus scale="   78.717">  2  5  1 -1</clus>
<clus scale="  110.440">  1  6  2 -1</clus>
<clus scale="   78.717">  2  3  1 -1</clus>
</clustering>
</event>
<event>
 6    0  0.4017242E+002  0.1597609E+03  0.7546771E-02  0.1188967E+00
          1   -1    0    0  504    0 -0.00000000000E+00  0.00000000000E+00  0.20186282582E+04  0.20186282582E+04  0.00000000000E+00 0. -1.
         21   -1    0    0  503  502  0.00000000000E+00 -0.00000000000E+00 -0.54223036047E+02  0.54223036047E+02  0.00000000000E+00 0.  1.
         21    1    1    2  503  505  0.96864183169E+02 -0.84620768863E+02  0.16975076089E+03  0.21297573882E+03  0.00000000000E+00 0.  1.
         21    1    1    2  504  502 -0.66180229679E+02 -0.73570923308E+02  0.30976984073E+03  0.32519203217E+03  0.00000000000E+00 0.  1.
         21    1    1    2  505  501  0.79423791133E+02  0.18787120910E+03  0.45650719361E+03  0.50000254762E+03  0.00000000000E+00 0.  1.
          1    1    1    2  501    0 -0.11010774462E+03 -0.29679516934E+02  0.10283774269E+04  0.10346809756E+04  0.00000000000E+00 0. -1.
<scales pt_clust_3="128.94056" pt_clust_4="98.95708" pt_clust_5="159.76086" pt_clust_6="14000.00000"></scales>
<clustering>
<clus scale="   98.957">  1  4  2 -1</clus>
<clus scale="  128.941">  2  3  1 -1</clus>
<clus scale="  159.761">  2  5  1 -1</clus>
<clus scale="  128.941">  2  3  1 -1</clus>
</clustering>
</event>
<event>
 6    0  0.4017242E+002  0.2782915E+03  0.7546771E-02  0.1096626E+00
         21   -1    0    0  504  502  0.00000000000E+00  0.00000000000E+00  0.68769367901E+03  0.68769367901E+03  0.00000000000E+00 0.  1.
          2   -1    0    0  503    0 -0.00000000000E+00 -0.00000000000E+00 -0.10376522395E+04  0.10376522395E+04  0.00000000000E+00 0. -1.
         21    1    1    2  503  502 -0.53558785705E+02 -0.63080814245E+02  0.41910754324E+02  0.92759064139E+02  0.00000000000E+00 0.  1.
         21    1    1    2  504  505  0.64474401753E+02  0.80811204661E+02  0.33833028553E+03  0.35377221681E+03  0.00000000000E+00 0.  1.
         21    1    1    2  505  501  0.26732834996E+03 -0.38470627674E+02  0.18148232616E+03  0.32539248700E+03  0.00000000000E+00 0.  1.
          2    1    1    2  501    0 -0.27824396601E+03  0.20740237258E+02 -0.91168192653E+03  0.95342215059E+03  0.00000000000E+00 0. -1.
<scales pt_clust_3="82.75103" pt_clust_4="57.25816" pt_clust_5="14000.00000" pt_clust_6="278.29152"></scales>
<clustering>
<clus scale="   82.751">  1  3  2 -1</clus>
<clus scale="   57.258">  1  4  2 -1</clus>
<clus scale="  278.292">  2  6  1 -1</clus>
<clus scale="   82.751">  1  3  2 -1</clus>
</clustering>
</event>
<event>
 6    0  0.4017242E+002  0.7263583E+02  0.7546771E-02  0.1351352E+00
         21   -1    0    0  504  502  0.00000000000E+00  0.00000000000E+00  0.52959832614E+03  0.52959832614E+03  0.00000000000E+00 0. -1.
          2   -1    0    0  503    0 -0.00000000000E+00 -0.00000000000E+00 -0.17733568987E+04  0.17733568987E+04  0.00000000000E+00 0. -1.
         21    1    1    2  503  502  0.71880156564E+01 -0.36852618760E+02  0.98539071354E+02  0.10545013827E+03  0.00000000000E+00 0. -1.
         21    1    1    2  504  505  0.41817706900E+02 -0.27228309181E+02  0.33861604308E+03  0.34227317461E+03  0.00000000000E+00 0. -1.
         21    1    1    2  505  501 -0.94492264374E+02  0.82676821995E+01  0.60386299969E+02  0.11244397636E+03  0.00000000000E+00 0. -1.
          2    1    1    2  501    0  0.45486541818E+02  0.55813245742E+02 -0.17412999870E+04  0.17427879356E+04  0.00000000000E+00 0. -1.
<scales pt_clust_3="37.54708" pt_clust_4="14000.00000" pt_clust_5="72.63583" pt_clust_6="71.95921"></scales>
<clustering>
<clus scale="   37.547">  1  3  2 -1</clus>
<clus scale="   71.959">  2  6  1 -1</clus>
<clus scale="   72.636">  2  5  1 -1</clus>
<clus scale="   37.547">  1  3  2 -1</clus>
</clustering>
</event>
<event>
 6    0  0.4017242E+002  0.1056032E+03  0.7546771E-02  0.1268936E+00
          2   -1    0    0  502    0 -0.00000000000E+00  0.00000000000E+00  0.11918561574E+04  0.11918561574E+04  0.00000000000E+00 0.  1.
         21   -1    0    0  504  502  0.00000000000E+00 -0.00000000000E+00 -0.81840677275E+03  0.81840677275E+03  0.00000000000E+00 0.  1.
         21    1    1    2  503  505  0.77340872673E+02  0.18119562366E+02 -0.17870436357E+03  0.19556374584E+03  0.00000000000E+00 0.  1.
         21    1    1    2  504  503  0.22159217991E+02  0.27457840007E+02 -0.62073984080E+03  0.62174183861E+03  0.00000000000E+00 0.  1.
         21    1    1    2  505  501 -0.89652854745E+02  0.44416083387E+02  0.32010313886E+03  0.33537507709E+03  0.00000000000E+00 0. -1.
          2    1    1    2  501    0 -0.98472359194E+01 -0.89993485760E+02  0.85279045012E+03  0.85758226856E+03  0.00000000000E+00 0.  1.
<scales pt_clust_3="14000.00000" pt_clust_4="35.28405" pt_clust_5="105.60322" pt_clust_6="90.16996"></scales>
<clustering>
<clus scale="   35.284">  2  4  1 -1</clus>
<clus scale="   90.170">  1  6  2 -1</clus>
<clus scale="  105.603">  1  5  2 -1</clus>
<clus scale="   35.284">  2  3  1 -1</clus>
</clustering>
</event>
<event>
 6    0  0.4017242E+002  0.9790945E+02  0.7546771E-02  0.1284755E+00
          1   -1    0    0  504    0 -0.00000000000E+00  0.00000000000E+00  0.93467748589E+03  0.93467748589E+03  0.00000000000E+00 0.  1.
         21   -1    0    0  505  502  0.00000000000E+00 -0.00000000000E+00 -0.23543389678E+03  0.23543389678E+03  0.00000000000E+00 0. -1.
         21    1    1    2  503  501  0.39265451845E+02  0.32904735848E+02 -0.48164359730E+01  0.51455761634E+02  0.00000000000E+00 0. -1.
         21    1    1    2  504  502  0.72749042931E+02 -0.52582686361E+02 -0.16153023058E+03  0.18479550196E+03  0.00000000000E+00 0. -1.
         21    1    1    2  505  503 -0.14838675793E+02  0.35456746212E+02 -0.19646030471E+02  0.43166348751E+02  0.00000000000E+00 0. -1.
          1    1    1    2  501    0 -0.97175818984E+02 -0.15778795699E+02  0.88523628615E+03  0.89069377033E+03  0.00000000000E+00 0.  1.
<scales pt_clust_3="53.04411" pt_clust_4="97.90945" pt_clust_5="38.43653" pt_clust_6="14000.00000"></scales>
<clustering>
<clus scale="   38.437">  2  5  1 -1</clus>
<clus scale="   53.044">  2  3  1 -1</clus>
<clus scale="   97.909">  2  4  1 -1</clus>
<clus scale="   38.437">  2  3  1 -1</clus>
</clustering>
</event>
<event>
 6    0  0.4017242E+002  0.1323275E+03  0.7546771E-02  0.1224042E+00
         21   -1    0    0  505  502  0.00000000000E+00  0.00000000000E+00  0.17643269581E+03  0.17643269581E+03  0.00000000000E+00 0. -1.
          1   -1    0    0  504    0 -0.00000000000E+00 -0.00000000000E+00 -0.29858279044E+04  0.29858279044E+04  0.00000000000E+00 0. -1.
         21    1    1    2  503  502  0.16826747606E+03 -0.40295983906E+02 -0.68945155951E+03  0.71083131805E+03  0.00000000000E+00 0. -1.
         21    1    1    2  504  503 -0.33525517041E+02 -0.11341300575E+01 -0.15869674608E+03  0.16220327913E+03  0.00000000000E+00 0.  1.
         21    1    1    2  505  501 -0.13046577179E+03  0.10435474503E+02  0.13773957876E+03  0.19000633751E+03  0.00000000000E+00 0. -1.
          1    1    1    2  501    0 -0.42761872295E+01  0.30994639460E+02 -0.20989864817E+04  0.20992196655E+04  0.00000000000E+00 0. -1.
<scales pt_clust_3="132.32750" pt_clust_4="34.58988" pt_clust_5="14000.00000" pt_clust_6="31.28823"></scales>
<clustering>
<clus scale="   31.288">  2  6  1 -1</clus>
<clus scale="   34.590">  2  4  1 -1</clus>
<clus scale="  132.328">  2  3  1 -1</clus>
<clus scale="  132.328">  1  3  2 -1</clus>
</clustering>
</event>
<event>
 6    0  0.5574297E+002  0.1637129E+03  0.7546771E-02  0.1184568E+00
          2   -1    0    0  504    0 -0.00000000000E+00  0.00000000000E+00  0.25650022212E+04  0.25650022212E+04  0.00000000000E+00 0.  1.
         21   -1    0    0  505  502  0.00000000000E+00 -0.00000000000E+00 -0.44634891983E+03  0.44634891983E+03  0.00000000000E+00 0.  1.
         21    1    1    2  503  502  0.84165958174E+01  0.29111123057E+02 -0.13070597817E+02  0.33002077178E+02  0.00000000000E+00 0.  1.
         21    1    1    2  504  503 -0.55862330915E+02  0.11053114247E+03  0.15983016246E+03  0.20219647451E+03  0.00000000000E+00 0.  1.
         21    1    1    2  505  501  0.81188945207E+02 -0.17180959091E+03 -0.37943611495E+03  0.42436063163E+03  0.00000000000E+00 0.  1.
          2    1    1    2  501    0 -0.33743210110E+02  0.32167325379E+02  0.23513298517E+04  0.23517919577E+04  0.00000000000E+00 0.  1.
<scales pt_clust_3="30.30341" pt_clust_4="14000.00000" pt_clust_5="163.71288" pt_clust_6="46.62675"></scales>
<clustering>
<clus scale="   30.303">  2  3  1 -1</clus>
<clus scale="   46.627">  1  6  2 -1</clus>
<clus scale="  163.713">  2  5  1 -1</clus>
<clus scale="   30.303">  2  3  1 -1</clus>
</clustering>
</event>
<event>
 6    0  0.4017242E+002  0.6981384E+02  0.7546771E-02  0.1360727E+00
          2   -1    0    0  504    0 -0.00000000000E+00  0.00000000000E+00  0.38006925823E+03  0.38006925823E+03  0.00000000000E+00 0.  1.
         21   -1    0    0  501  502  0.00000000000E+00 -0.00000000000E+00 -0.32902809169E+03  0.32902809169E+03  0.00000000000E+00 0.  1.
         21    1    1    2  503  505 -0.47694792937E+02 -0.30063978465E+02  0.36262703302E+02  0.67034466696E+02  0.00000000000E+00 0.  1.
         21    1    1    2  504  503 -0.36600671259E+02  0.29370141673E+01  0.77315814326E+02  0.85591882405E+02  0.00000000000E+00 0.  1.
         21    1    1    2  505  502 -0.46721091874E+02 -0.50126291373E+02 -0.28158154390E+03  0.28979936400E+03  0.00000000000E+00 0.  1.
          2    1    1    2  501    0  0.13101655607E+03  0.77253255670E+02  0.21904419281E+03  0.26667163681E+03  0.00000000000E+00 0.  1.
<scales pt_clust_3="61.58153" pt_clust_4="36.71832" pt_clust_5="69.81384" pt_clust_6="14000.00000"></scales>
<clustering>
<clus scale="   36.718">  1  4  2 -1</clus>
<clus scale="   61.582">  1  3  2 -1</clus>
<clus scale="   69.814">  2  5  1 -1</clus>
<clus scale="   69.814">  2  3  1 -1</clus>
</clustering>
</event>
<event>
 6    0  0.4017242E+002  0.9534028E+02  0.7546771E-02  0.1290412E+00
          1   -1    0    0  504    0 -0.00000000000E+00  0.00000000000E+00  0.24401697782E+04  0.24401697782E+04  0.00000000000E+00 0.  1.
         21   -1    0    0  505  502  0.00000000000E+00 -0.00000000000E+00 -0.23122171453E+02  0.23122171453E+02  0.00000000000E+00 0. -1.
         21    1    1    2  503  502 -0.12655064856E+03 -0.54103532886E+02  0.80502111923E+03  0.81670145178E+03  0.00000000000E+00 0. -1.
         21    1    1    2  504  503  0.71056218592E+02 -0.23927510901E+02  0.36140690097E+03  0.36910223522E+03  0.00000000000E+00 0. -1.
         21    1    1    2  505  501  0.45508533053E+02  0.25929260369E+02  0.40506131553E+02  0.66212535198E+02  0.00000000000E+00 0. -1.
          1    1    1    2  501    0  0.99858969118E+01  0.52101783418E+02  0.12101134550E+04  0.12112757275E+04  0.00000000000E+00 0.  1.
<scales pt_clust_3="95.34028" pt_clust_4="14000.00000" pt_clust_5="52.37703" pt_clust_6="55.02218"></scales>
<clustering>
<clus scale="   52.377">  2  5  1 -1</clus>
<clus scale="   55.022">  1  6  2 -1</clus>
<clus scale="   95.340">  2  3  1 -1</clus>
<clus scale="   52.377">  2  3  1 -1</clus>
</clustering>
</event>
<event>
 6    0  0.4017242E+002  0.1826826E+03  0.7546771E-02  0.1165232E+00
          1   -1    0    0  505    0 -0.00000000000E+00  0.00000000000E+00  0.24141689339E+03  0.24141689339E+03  0.00000000000E+00 0.  1.
         21   -1    0    0  503  502  0.00000000000E+00 -0.00000000000E+00 -0.26147337619E+03  0.26147337619E+03  0.00000000000E+00 0.  1.
         21    1    1    2  503  501 -0.49787984677E+02 -0.50482065775E+01 -0.23913277875E+02  0.55463255103E+02  0.00000000000E+00 0. -1.
         21    1    1    2  504  502  0.13723057106E+03 -0.14009607155E+02 -0.84841974122E+02  0.16194647048E+03  0.00000000000E+00 0.  1.
         21    1    1    2  505  504  0.66813116628E+02 -0.41825447416E+02 -0.26946864938E+02  0.83303626182E+02  0.00000000000E+00 0.  1.
          1    1    1    2  501    0 -0.15425570302E+03  0.60883261148E+02  0.11564563413E+03  0.20217691781E+03  0.00000000000E+00 0.  1.
<scales pt_clust_3="50.04326" pt_clust_4="40.70437" pt_clust_5="40.70437" pt_clust_6="174.56640"></scales>
<clustering>
<clus scale="   40.704">  4  5 -1 -1</clus>
<clus scale="   50.043">  2  3  1 -1</clus>
<clus scale="  174.566">  1  6  2 -1</clus>
<clus scale="   50.043">  2  3  1 -1</clus>
</clustering>
</event>
<event>
 6    0  0.4017242E+002  0.1155513E+03  0.7546771E-02  0.1250622E+00
          1   -1    0    0  504    0 -0.00000000000E+00  0.00000000000E+00  0.12147338326E+03  0.12147338326E+03  0.00000000000E+00 0. -1.
         21   -1    0    0  503  502  0.00000000000E+00 -0.00000000000E+00 -0.98295136751E+03  0.98295136751E+03  0.00000000000E+00 0.  1.
         21    1    1    2  503  501 -0.59268354559E+02  0.73194913969E+02 -0.22226406256E+03  0.24139500158E+03  0.00000000000E+00 0. -1.
         21    1    1    2  504  505  0.47475678849E+02  0.25502665633E+02 -0.26161792542E+03  0.26711095997E+03  0.00000000000E+00 0.  1.
         21    1    1    2  505  502  0.46288374808E+02  0.61069965382E+01 -0.45738146429E+03  0.45975832013E+03  0.00000000000E+00 0.  1.
          1    1    1    2  501    0 -0.34495699097E+02 -0.10480457614E+03  0.79785468014E+02  0.13616046909E+03  0.00000000000E+00 0. -1.
<scales pt_clust_3="94.18192" pt_clust_4="37.09095" pt_clust_5="37.09095" pt_clust_6="108.46261"></scales>
<clustering>
<clus scale="   37.091">  4  5 -1 -1</clus>
<clus scale="   94.182">  2  3  1 -1</clus>
<clus scale="  108.463">  1  6  2 -1</clus>
<clus scale="   94.182">  2  3  1 -1</clus>
</clustering>
</event>
<event>
 6    0  0.4017242E+002  0.1579924E+03  0.7546771E-02  0.1190982E+00
         21   -1    0    0  505  502  0.00000000000E+00  0.00000000000E+00  0.67572549879E+02  0.67572549879E+02  0.00000000000E+00 0. -1.
          2   -1    0    0  503    0 -0.00000000000E+00 -0.00000000000E+00 -0.13743941165E+04  0.13743941165E+04  0.00000000000E+00 0. -1.
         21    1    1    2  503  504  0.12262824097E+01 -0.37073481508E+02 -0.10895428620E+03  0.11509553980E+03  0.00000000000E+00 0. -1.
         21    1    1    2  504  502  0.95645790441E+02 -0.73682710258E+02 -0.40352268709E+03  0.42119807456E+03  0.00000000000E+00 0. -1.
         21    1    1    2  505  501  0.28089994818E+02  0.29505694233E+02  0.40607732363E+02  0.57520620031E+02  0.00000000000E+00 0. -1.
          2    1    1    2  501    0 -0.12496206767E+03  0.81250497533E+02 -0.83495232568E+03  0.84815243197E+03  0.00000000000E+00 0. -1.
<scales pt_clust_3="31.97141" pt_clust_4="31.97141" pt_clust_5="40.73860" pt_clust_6="147.08684"></scales>
<clustering>
<clus scale="   31.971">  3  4 -1 -1</clus>
<clus scale="   40.739">  1  5  2 -1</clus>
<clus scale="  147.087">  2  6  1 -1</clus>
<clus scale="   40.739">  1  3  2 -1</clus>
</clustering>
</event>
<event>
 6    0  0.4017242E+002  0.1160729E+03  0.7546771E-02  0.1249720E+00
         21   -1    0    0  505  502  0.00000000000E+00  0.00000000000E+00  0.88885061061E+02  0.88885061061E+02  0.00000000000E+00 0.  1.
          2   -1    0    0  504    0 -0.00000000000E+00 -0.00000000000E+00 -0.30694966352E+04  0.30694966352E+04  0.00000000000E+00 0. -1.
         21    1    1    2  503  502 -0.41026658508E+02  0.59559659933E+01  0.35190217781E+02  0.54378411771E+02  0.00000000000E+00 0.  1.
         21    1    1    2  504  503 -0.21213012549E+02 -0.44191963851E+02 -0.52990705229E+02  0.72186816047E+02  0.00000000000E+00 0. -1.
         21    1    1    2  505  501 -0.22867883095E+02 -0.44230778474E+02  0.14724010690E+02  0.51923966840E+02  0.00000000000E+00 0.  1.
          2    1    1    2  501    0  0.85107554151E+02  0.82466776332E+02 -0.29775350974E+04  0.29798925016E+04  0.00000000000E+00 0. -1.
<scales pt_clust_3="41.45673" pt_clust_4="52.42694" pt_clust_5="116.07293" pt_clust_6="14000.00000"></scales>
<clustering>
<clus scale="   41.457">  1  3  2 -1</clus>
<clus scale="   52.427">  1  4  2 -1</clus>
<clus scale="  116.073">  1  5  2 -1</clus>
<clus scale="   41.457">  1  3  2 -1</clus>
</clustering>
</event>
<event>
 6    0  0.4017242E+002  0.7451478E+02  0.7546771E-02  0.1345380E+00
          2   -1    0    0  503    0 -0.00000000000E+00  0.00000000000E+00  0.10504832303E+04  0.10504832303E+04  0.00000000000E+00 0.  1.
         21   -1    0    0  504  502  0.00000000000E+00 -0.00000000000E+00 -0.42889660528E+02  0.42889660528E+02  0.00000000000E+00 0. -1.
         21    1    1    2  503  502 -0.66655794790E+02 -0.24331696957E+02  0.12568892719E+03  0.14433548723E+03  0.00000000000E+00 0. -1.
         21    1    1    2  504  505  0.49093582425E+02  0.96955730661E+01 -0.23055204716E+01  0.50094903903E+02  0.00000000000E+00 0. -1.
         21    1    1    2  505  501  0.76946458718E+02 -0.26562830684E+02  0.32309983906E+03  0.33319640977E+03  0.00000000000E+00 0. -1.
          2    1    1    2  501    0 -0.59384246353E+02  0.41198954575E+02  0.56111032401E+03  0.56574608994E+03  0.00000000000E+00 0.  1.
<scales pt_clust_3="43.55255" pt_clust_4="50.04182" pt_clust_5="74.51478" pt_clust_6="14000.00000"></scales>
<clustering>
<clus scale="   50.042">  2  4  1 -1</clus>
<clus scale="   43.553">  2  3  1 -1</clus>
<clus scale="   74.515">  2  5  1 -1</clus>
<clus scale="   50.042">  2  3  1 -1</clus>
</clustering>
</event>
<event>
 6    0  0.4017242E+002  0.1371538E+03  0.7546771E-02  0.1217211E+00
          2   -1    0    0  502    0 -0.00000000000E+00  0.00000000000E+00  0.22928282845E+04  0.22928282845E+04  0.00000000000E+00 0.  1.
         21   -1    0    0  503  502  0.00000000000E+00 -0.00000000000E+00 -0.11934070691E+03  0.11934070691E+03  0.00000000000E+00 0. -1.
         21    1    1    2  503  505 -0.31013468802E+02 -0.11547719393E+02  0.11091702698E+01  0.33112162856E+02  0.00000000000E+00 0. -1.
         21    1    1    2  504  501  0.35144938817E+02  0.67490516814E+02  0.53101003132E+01  0.76278003051E+02  0.00000000000E+00 0. -1.
         21    1    1    2  505  504  0.19873685880E+02  0.67441653412E+02 -0.47368848577E+02  0.84777047725E+02  0.00000000000E+00 0. -1.
          2    1    1    2  501    0 -0.24005155894E+02 -0.12338445083E+03  0.22144371555E+04  0.22180017777E+04  0.00000000000E+00 0.  1.
<scales pt_clust_3="33.09358" pt_clust_4="50.89135" pt_clust_5="50.89135" pt_clust_6="125.99653"></scales>
<clustering>
<clus scale="   33.094">  2  3  1 -1</clus>
<clus scale="   50.891">  4  5 -1 -1</clus>
<clus scale="  125.997">  1  6  2 -1</clus>
<clus scale="   33.094">  2  3  1 -1</clus>
</clustering>
</event>
<event>
 6    0  0.4017242E+002  0.9783850E+02  0.7546771E-02  0.1284908E+00
          1   -1    0    0  504    0 -0.00000000000E+00  0.00000000000E+00  0.88938551463E+03  0.88938551463E+03  0.00000000000E+00 0. -1.
         21   -1    0    0  501  502  0.00000000000E+00 -0.00000000000E+00 -0.19503239570E+04  0.19503239570E+04  0.00000000000E+00 0.  1.
         21    1    1    2  503  502 -0.63724972392E+02 -0.31249656816E+02 -0.10013461503E+04  0.10038583196E+04  0.00000000000E+00 0.  1.
         21    1    1    2  504  505  0.73235008511E+02 -0.47395193259E+02 -0.28567112295E+03  0.29869325621E+03  0.00000000000E+00 0. -1.
         21    1    1    2  505  503 -0.21667429047E+02  0.12097970919E+03 -0.64922016532E+03  0.66075138333E+03  0.00000000000E+00 0.  1.
          1    1    1    2  501    0  0.12157392928E+02 -0.42334859118E+02  0.87529899616E+03  0.87640651251E+03  0.00000000000E+00 0. -1.
<scales pt_clust_3="71.80457" pt_clust_4="14000.00000" pt_clust_5="97.83850" pt_clust_6="44.04591"></scales>
<clustering>
<clus scale="   44.046">  1  6  2 -1</clus>
<clus scale="   71.805">  2  3  1 -1</clus>
<clus scale="   97.838">  2  5  1 -1</clus>
<clus scale="   71.805">  2  3  1 -1</clus>
</clustering>
</event>
<event>
 6    0  0.4017242E+002  0.1557157E+03  0.7546771E-02  0.1193620E+00
         21   -1    0    0  505  502  0.00000000000E+00  0.00000000000E+00  0.36565540680E+03  0.36565540680E+03  0.00000000000E+00 0. -1.
         -4   -1    0    0    0  501 -0.00000000000E+00 -0.00000000000E+00 -0.20863250590E+03  0.20863250590E+03  0.00000000000E+00 0. -1.
         21    1    1    2  503  504  0.87955086563E+02 -0.85195971791E+02  0.12600510637E+03  0.17570355060E+03  0.00000000000E+00 0. -1.
         21    1    1    2  504  502  0.11504541504E+02 -0.56376786582E+02  0.86035133010E+02  0.10350237028E+03  0.00000000000E+00 0. -1.
         21    1    1    2  505  501 -0.72551890620E+02  0.95612576751E+02  0.83810656637E+02  0.14638909738E+03  0.00000000000E+00 0. -1.
         -4    1    1    2    0  503 -0.26907737447E+02  0.45960181623E+02 -0.13882799512E+03  0.14869289445E+03  0.00000000000E+00 0. -1.
<scales pt_clust_3="37.91797" pt_clust_4="37.91797" pt_clust_5="145.55949" pt_clust_6="53.25753"></scales>
<clustering>
<clus scale="   37.918">  3  4 -1 -1</clus>
<clus scale="   53.258">  2  6  1 -1</clus>
<clus scale="  145.559">  1  5  2 -1</clus>
<clus scale="  145.559">  1  3  2 -1</clus>
</clustering>
</event>
<event>
 6    0  0.4017242E+002  0.1586119E+03  0.7546771E-02  0.1190273E+00
         21   -1    0    0  503  502  0.00000000000E+00  0.00000000000E+00  0.11701075702E+04  0.11701075702E+04  0.00000000000E+00 0. -1.
         -2   -1    0    0    0  501 -0.00000000000E+00 -0.00000000000E+00 -0.95394542154E+03  0.95394542154E+03  0.00000000000E+00 0.  1.
         21    1    1    2  503  505 -0.30150625606E+02 -0.10746947814E+02  0.96796638537E+03  0.96849547253E+03  0.00000000000E+00 0. -1.
         21    1    1    2  504  502  0.11250682775E+03 -0.32162350987E+02 -0.58959997767E+02  0.13102856348E+03  0.00000000000E+00 0.  1.
         21    1    1    2  505  501 -0.21004704894E+03 -0.47698979430E+02  0.84645942962E+02  0.23143009974E+03  0.00000000000E+00 0.  1.
         -2    1    1    2    0  504  0.12769084680E+03  0.90608278231E+02 -0.77749018189E+03  0.79309885599E+03  0.00000000000E+00 0.  1.
<scales pt_clust_3="32.00870" pt_clust_4="112.41559" pt_clust_5="14000.00000" pt_clust_6="158.61191"></scales>
<clustering>
<clus scale="   32.009">  1  3  2 -1</clus>
<clus scale="  112.416">  1  4  2 -1</clus>
<clus scale="  158.612">  2  6  1 -1</clus>
<clus scale="   32.009">  1  3  2 -1</clus>
</clustering>
</event>
<event>
 6    0  0.1141189E+003  0.1279887E+03  0.7546771E-02  0.1230471E+00
         21   -1    0    0  505  502  0.00000000000E+00  0.00000000000E+00  0.17068398284E+04  0.17068398284E+04  0.00000000000E+00 0. -1.
          2   -1    0    0  504    0 -0.00000000000E+00 -0.00000000000E+00 -0.24672703179E+04  0.24672703179E+04  0.00000000000E+00 0. -1.
         21    1    1    2  503  501 -0.40679188178E+02 -0.10495125782E+03  0.21789986917E+03  0.24525479782E+03  0.00000000000E+00 0. -1.
         21    1    1    2  504  502 -0.88379978979E+02  0.12700031745E+03  0.14504945768E+04  0.14587236266E+04  0.00000000000E+00 0. -1.
         21    1    1    2  505  503  0.23236942737E+01 -0.40397298208E+02 -0.26190704698E+01  0.40548745822E+02  0.00000000000E+00 0.  1.
          2    1    1    2  501    0  0.12673547288E+03  0.18348238574E+02 -0.24262058651E+04  0.24295829761E+04  0.00000000000E+00 0. -1.
<scales pt_clust_3="117.63434" pt_clust_4="14000.00000" pt_clust_5="40.46407" pt_clust_6="127.98872"></scales>
<clustering>
<clus scale="   40.464">  1  5  2 -1</clus>
<clus scale="  117.634">  1  3  2 -1</clus>
<clus scale="  127.989">  2  6  1 -1</clus>
<clus scale="   40.464">  1  3  2 -1</clus>
</clustering>
</event>
<event>
 6    0  0.4017242E+002  0.2784231E+03  0.7546771E-02  0.1096553E+00
          2   -1    0    0  504    0 -0.00000000000E+00  0.00000000000E+00  0.20310132417E+04  0.20310132417E+04  0.00000000000E+00 0. -1.
         21   -1    0    0  501  502  0.00000000000E+00 -0.00000000000E+00 -0.25258358026E+03  0.25258358026E+03  0.00000000000E+00 0. -1.
         21    1    1    2  503  505 -0.73678012283E+02 -0.42272157139E+02 -0.18166187274E+02  0.86864233855E+02  0.00000000000E+00 0. -1.
         21    1    1    2  504  503  0.50452836135E+01  0.44970266099E+02  0.76772104610E+02  0.89116416927E+02  0.00000000000E+00 0. -1.
         21    1    1    2  505  502 -0.72276466337E+02 -0.17397731762E+03 -0.13993542960E+03  0.23467833111E+03  0.00000000000E+00 0. -1.
          2    1    1    2  501    0  0.14090919501E+03  0.17127920866E+03  0.18597591737E+04  0.18729378401E+04  0.00000000000E+00 0. -1.
<scales pt_clust_3="68.23964" pt_clust_4="45.25240" pt_clust_5="68.23964" pt_clust_6="259.21510"></scales>
<clustering>
<clus scale="   45.252">  1  4  2 -1</clus>
<clus scale="   68.240">  3  5 -1 -1</clus>
<clus scale="  259.215">  1  6  2 -1</clus>
<clus scale="  278.423">  2  3  1 -1</clus>
</clustering>
</event>
<event>
 6    0  0.4017242E+002  0.1467770E+03  0.7546771E-02  0.1204490E+00
         21   -1    0    0  501  502  0.00000000000E+00  0.00000000000E+00  0.93839614926E+02  0.93839614926E+02  0.00000000000E+00 0.  1.
          1   -1    0    0  505    0 -0.00000000000E+00 -0.00000000000E+00 -0.33478895499E+03  0.33478895499E+03  0.00000000000E+00 0. -1.
         21    1    1    2  503  502 -0.32143578465E+02 -0.30592445639E+02 -0.19016265461E+02  0.48277590234E+02  0.00000000000E+00 0. -1.
         21    1    1    2  504  503 -0.37264580021E+02  0.60797085942E+02 -0.65056733671E+02  0.96526230524E+02  0.00000000000E+00 0.  1.
         21    1    1    2  505  504 -0.57039655310E+02  0.46004789917E+02 -0.10353939368E+03  0.12684781834E+03  0.00000000000E+00 0.  1.
          1    1    1    2  501    0  0.12644781380E+03 -0.76209430219E+02 -0.53336947253E+02  0.15697693082E+03  0.00000000000E+00 0. -1.
<scales pt_clust_3="44.37463" pt_clust_4="33.76197" pt_clust_5="33.76197" pt_clust_6="142.73093"></scales>
<clustering>
<clus scale="   33.762">  4  5 -1 -1</clus>
<clus scale="   44.375">  1  3  2 -1</clus>
<clus scale="  142.731">  1  6  2 -1</clus>
<clus scale="   44.375">  1  3  2 -1</clus>
</clustering>
</event>
<event>
 6    0  0.4017242E+002  0.1655750E+03  0.7546771E-02  0.1182543E+00
         21   -1    0    0  503  502  0.00000000000E+00  0.00000000000E+00  0.88142215110E+03  0.88142215110E+03  0.00000000000E+00 0.  1.
          2   -1    0    0  504    0 -0.00000000000E+00 -0.00000000000E+00 -0.76866249612E+03  0.76866249612E+03  0.00000000000E+00 0.  1.
         21    1    1    2  503  505 -0.20378510527E+02 -0.12213933146E+03  0.45940536152E+03  0.47580099430E+03  0.00000000000E+00 0.  1.
         21    1    1    2  504  502  0.35188263991E+01  0.85077150976E+02  0.32782724382E+02  0.91242592989E+02  0.00000000000E+00 0. -1.
         21    1    1    2  505  501  0.18171604875E+03  0.26840680595E+02  0.31749994425E+03  0.36680697800E+03  0.00000000000E+00 0.  1.
          2    1    1    2  501    0 -0.16485636462E+03  0.10221499888E+02 -0.69692837517E+03  0.71623408194E+03  0.00000000000E+00 0.  1.
<scales pt_clust_3="75.84762" pt_clust_4="85.14989" pt_clust_5="14000.00000" pt_clust_6="165.57501"></scales>
<clustering>
<clus scale="   85.150">  1  4  2 -1</clus>
<clus scale="   75.848">  1  3  2 -1</clus>
<clus scale="  165.575">  2  6  1 -1</clus>
<clus scale="   85.150">  1  3  2 -1</clus>
</clustering>
</event>
<event>
 6    0  0.4017242E+002  0.1465727E+03  0.7546771E-02  0.1204749E+00
         -2   -1    0    0    0  501 -0.00000000000E+00  0.00000000000E+00  0.66749660538E+03  0.66749660538E+03  0.00000000000E+00 0.  1.
         21   -1    0    0  504  502  0.00000000000E+00 -0.00000000000E+00 -0.36660549568E+03  0.36660549568E+03  0.00000000000E+00 0. -1.
         21    1    1    2  503  502 -0.12308557658E+03  0.44236000210E+02 -0.96361106074E+02  0.16245721172E+03  0.00000000000E+00 0. -1.
         21    1    1    2  504  501  0.84180323988E+02 -0.42794056508E+02 -0.65127232321E+02  0.11471361998E+03  0.00000000000E+00 0.  1.
         21    1    1    2  505  503 -0.67278292553E+02  0.70048983469E+02 -0.12356505181E+03  0.15716727001E+03  0.00000000000E+00 0. -1.
         -2    1    1    2    0  505  0.10618354514E+03 -0.71490927171E+02  0.58594449991E+03  0.59976399934E+03  0.00000000000E+00 0.  1.
<scales pt_clust_3="57.76072" pt_clust_4="94.43335" pt_clust_5="57.76072" pt_clust_6="130.34845"></scales>
<clustering>
<clus scale="   57.761">  3  5 -1 -1</clus>
<clus scale="   94.433">  2  4  1 -1</clus>
<clus scale="  130.348">  1  6  2 -1</clus>
<clus scale="   94.433">  2  3  1 -1</clus>
</clustering>
</event>
<event>
 6    0  0.4017242E+002  0.8246238E+02  0.7546771E-02  0.1322205E+00
         21   -1    0    0  505  502  0.00000000000E+00  0.00000000000E+00  0.16595985315E+04  0.16595985315E+04  0.00000000000E+00 0.  1.
          1   -1    0    0  503    0 -0.00000000000E+00 -0.00000000000E+00 -0.47849832912E+03  0.47849832912E+03  0.00000000000E+00 0. -1.
         21    1    1    2  503  502  0.23560900862E+01 -0.51212416743E+02  0.14330030020E+04  0.14339197560E+04  0.00000000000E+00 0.  1.
         21    1    1    2  504  501 -0.56939050720E+02  0.36177653904E+01 -0.88807740359E+02  0.10555547580E+03  0.00000000000E+00 0. -1.
         21    1    1    2  505  504  0.73582273505E+02  0.90396106180E+02  0.20055663092E+03  0.23196717266E+03  0.00000000000E+00 0.  1.
          1    1    1    2  501    0 -0.18999312872E+02 -0.42801454827E+02 -0.36365169022E+03  0.36665445616E+03  0.00000000000E+00 0. -1.
<scales pt_clust_3="51.43603" pt_clust_4="82.46238" pt_clust_5="14000.00000" pt_clust_6="46.82882"></scales>
<clustering>
<clus scale="   46.829">  2  6  1 -1</clus>
<clus scale="   51.436">  1  3  2 -1</clus>
<clus scale="   82.462">  2  4  1 -1</clus>
<clus scale="   51.436">  1  3  2 -1</clus>
</clustering>
</event>
<event>
 6    0  0.4017242E+002  0.1129391E+03  0.7546771E-02  0.1255222E+00
         21   -1    0    0  504  502  0.00000000000E+00  0.00000000000E+00  0.19256541970E+03  0.19256541970E+03  0.00000000000E+00 0.  1.
          3   -1    0    0  503    0 -0.00000000000E+00 -0.00000000000E+00 -0.22157300455E+04  0.22157300455E+04  0.00000000000E+00 0. -1.
         21    1    1    2  503  502 -0.11825516397E+03  0.15676109391E+02  0.12859874977E+03  0.17540713399E+03  0.00000000000E+00 0.  1.
         21    1    1    2  504  505  0.33087493477E+02  0.94848113525E+01 -0.50090484703E+02  0.60776644599E+02  0.00000000000E+00 0. -1.
         21    1    1    2  505  501  0.32179303689E+02 -0.12571866955E+03 -0.91637569659E+02  0.15886514921E+03  0.00000000000E+00 0.  1.
          3    1    1    2  501    0  0.52988366800E+02  0.10055774881E+03 -0.20100353212E+04  0.20132465374E+04  0.00000000000E+00 0. -1.
<scales pt_clust_3="94.33427" pt_clust_4="34.42011" pt_clust_5="14000.00000" pt_clust_6="112.93908"></scales>
<clustering>
<clus scale="   34.420">  1  4  2 -1</clus>
<clus scale="   94.334">  1  3  2 -1</clus>
<clus scale="  112.939">  2  6  1 -1</clus>
<clus scale="   34.420">  1  3  2 -1</clus>
</clustering>
</event>
<event>
 6    0  0.4017242E+002  0.1517349E+03  0.7546771E-02  0.1198357E+00
         21   -1    0    0  505  502  0.00000000000E+00  0.00000000000E+00  0.72781306732E+03  0.72781306732E+03  0.00000000000E+00 0. -1.
          2   -1    0    0  503    0 -0.00000000000E+00 -0.00000000000E+00 -0.12488553572E+04  0.12488553572E+04  0.00000000000E+00 0.  1.
         21    1    1    2  503  504 -0.99326607295E+02 -0.21784043007E+02  0.68771016160E+02  0.12275900012E+03  0.00000000000E+00 0. -1.
         21    1    1    2  504  502  0.72088384013E+02  0.13962171097E+03  0.60162301755E+03  0.62180480259E+03  0.00000000000E+00 0. -1.
         21    1    1    2  505  501 -0.41370053528E+02 -0.82213628438E+02 -0.92618722393E+02  0.13057101427E+03  0.00000000000E+00 0.  1.
          2    1    1    2  501    0  0.68608276810E+02 -0.35624039527E+02 -0.10988176012E+04  0.11015336076E+04  0.00000000000E+00 0.  1.
<scales pt_clust_3="91.34881" pt_clust_4="14000.00000" pt_clust_5="151.73487" pt_clust_6="77.30568"></scales>
<clustering>
<clus scale="   77.306">  2  6  1 -1</clus>
<clus scale="   91.349">  2  3  1 -1</clus>
<clus scale="  151.735">  2  5  1 -1</clus>
<clus scale="  151.735">  1  3  2 -1</clus>
</clustering>
</event>
<event>
 6    0  0.4017242E+002  0.1115744E+03  0.7546771E-02  0.1257682E+00
         21   -1    0    0  504  502  0.00000000000E+00  0.00000000000E+00  0.34706816790E+03  0.34706816790E+03  0.00000000000E+00 0.  1.
          1   -1    0    0  503    0 -0.00000000000E+00 -0.00000000000E+00 -0.21696319101E+04  0.21696319101E+04  0.00000000000E+00 0.  1.
         21    1    1    2  503  505 -0.27966796834E+02 -0.21639626393E+02  0.19687293430E+02  0.40472270485E+02  0.00000000000E+00 0.  1.
         21    1    1    2  504  501  0.88063684026E+02  0.16012677643E+02  0.11885926474E+03  0.14879228174E+03  0.00000000000E+00 0.  1.
         21    1    1    2  505  502 -0.57351083939E+02 -0.66017255727E+02  0.17208788886E+03  0.19303281166E+03  0.00000000000E+00 0.  1.
          1    1    1    2  501    0 -0.27458032533E+01  0.71644204477E+02 -0.21331981892E+04  0.21344027141E+04  0.00000000000E+00 0.  1.
<scales pt_clust_3="33.55227" pt_clust_4="98.30980" pt_clust_5="33.55227" pt_clust_6="71.69680"></scales>
<clustering>
<clus scale="   33.552">  3  5 -1 -1</clus>
<clus scale="   71.697">  2  6  1 -1</clus>
<clus scale="   98.310">  1  4  2 -1</clus>
<clus scale="   98.310">  1  3  2 -1</clus>
</clustering>
</event>
<event>
 6    0  0.4017242E+002  0.1504249E+03  0.7546771E-02  0.1199952E+00
         21   -1    0    0  501  502  0.00000000000E+00  0.00000000000E+00  0.44386309116E+02  0.44386309116E+02  0.00000000000E+00 0.  1.
          2   -1    0    0  505    0 -0.00000000000E+00 -0.00000000000E+00 -0.33336328965E+04  0.33336328965E+04  0.00000000000E+00 0.  1.
         21    1    1    2  503  502 -0.16972344969E+01  0.49763429393E+02 -0.52601689299E+02  0.72430775413E+02  0.00000000000E+00 0.  1.
         21    1    1    2  504  503 -0.99886499375E+02  0.17977634030E+01 -0.24716170505E+03  0.26658854656E+03  0.00000000000E+00 0.  1.
         21    1    1    2  505  504 -0.18434093345E+02 -0.14838656353E+03 -0.22460937261E+03  0.26982912796E+03  0.00000000000E+00 0. -1.
          2    1    1    2  501    0  0.12001782722E+03  0.96825370732E+02 -0.27648738204E+04  0.27691707557E+04  0.00000000000E+00 0.  1.
<scales pt_clust_3="49.79236" pt_clust_4="101.60392" pt_clust_5="14000.00000" pt_clust_6="150.42494"></scales>
<clustering>
<clus scale="   49.792">  1  3  2 -1</clus>
<clus scale="  101.604">  1  4  2 -1</clus>
<clus scale="  150.425">  2  6  1 -1</clus>
<clus scale="   49.792">  1  3  2 -1</clus>
</clustering>
</event>
<event>
 6    0  0.4017242E+002  0.1679306E+03  0.7546771E-02  0.1180023E+00
         21   -1    0    0  504  502  0.00000000000E+00  0.00000000000E+00  0.12665362085E+03  0.12665362085E+03  0.00000000000E+00 0.  1.
          2   -1    0    0  505    0 -0.00000000000E+00 -0.00000000000E+00 -0.21572058650E+04  0.21572058650E+04  0.00000000000E+00 0.  1.
         21    1    1    2  503  502 -0.99310679596E+02 -0.34116305393E+02  0.33682964063E+02  0.11027726621E+03  0.00000000000E+00 0.  1.
         21    1    1    2  504  501  0.10933819927E+03  0.12587945396E+03 -0.17006966815E+03  0.23816836644E+03  0.00000000000E+00 0.  1.
         21    1    1    2  505  503 -0.53083788797E+02 -0.20709927726E+02 -0.21493192821E+02  0.60899483389E+02  0.00000000000E+00 0.  1.
          2    1    1    2  501    0  0.43056269123E+02 -0.71053220842E+02 -0.18726723472E+04  0.18745143698E+04  0.00000000000E+00 0.  1.
<scales pt_clust_3="39.82545" pt_clust_4="158.98987" pt_clust_5="39.82545" pt_clust_6="83.08070"></scales>
<clustering>
<clus scale="   39.825">  3  5 -1 -1</clus>
<clus scale="   83.081">  2  6  1 -1</clus>
<clus scale="  158.990">  2  4  1 -1</clus>
<clus scale="  167.931">  1  3  2 -1</clus>
</clustering>
</event>
<event>
 6    0  0.4017242E+002  0.1067802E+03  0.7546771E-02  0.1266651E+00
          2   -1    0    0  504    0 -0.00000000000E+00  0.00000000000E+00  0.20428081381E+04  0.20428081381E+04  0.00000000000E+00 0.  1.
         21   -1    0    0  505  502  0.00000000000E+00 -0.00000000000E+00 -0.24152843653E+02  0.24152843653E+02  0.00000000000E+00 0. -1.
         21    1    1    2  503  501 -0.22655398663E+02 -0.41275406151E+02  0.19744049281E+03  0.20297702935E+03  0.00000000000E+00 0. -1.
         21    1    1    2  504  502  0.47499586197E+02  0.11590038689E+02  0.27054233556E+02  0.55879076934E+02  0.00000000000E+00 0. -1.
         21    1    1    2  505  503 -0.92120255784E+02 -0.25409100528E+02  0.40083625841E+03  0.41206973921E+03  0.00000000000E+00 0. -1.
          2    1    1    2  501    0  0.67276068250E+02  0.55094467990E+02  0.13933243097E+04  0.13960351363E+04  0.00000000000E+00 0.  1.
<scales pt_clust_3="36.65694" pt_clust_4="48.89315" pt_clust_5="36.65694" pt_clust_6="93.13874"></scales>
<clustering>
<clus scale="   36.657">  3  5 -1 -1</clus>
<clus scale="   48.893">  2  4  1 -1</clus>
<clus scale="   93.139">  1  6  2 -1</clus>
<clus scale="   48.893">  2  3  1 -1</clus>
</clustering>
</event>
<event>
 6    0  0.4017242E+002  0.1250907E+03  0.7546771E-02  0.1234928E+00
         21   -1    0    0  504  502  0.00000000000E+00  0.00000000000E+00  0.35672021251E+02  0.35672021251E+02  0.00000000000E+00 0.  1.
          2   -1    0    0  505    0 -0.00000000000E+00 -0.00000000000E+00 -0.37588361808E+04  0.37588361808E+04  0.00000000000E+00 0. -1.
         21    1    1    2  503  502 -0.24107788390E+02  0.19861834480E+02 -0.31562367659E+02  0.44405641333E+02  0.00000000000E+00 0. -1.
         21    1    1    2  504  501  0.46235003440E+02 -0.55515850454E+02 -0.11115743278E+03  0.13257322526E+03  0.00000000000E+00 0.  1.
         21    1    1    2  505  503 -0.10761157868E+03 -0.33992569124E+02 -0.16270517626E+03  0.19801192137E+03  0.00000000000E+00 0.  1.
          2    1    1    2  501    0  0.85484363633E+02  0.69646585098E+02 -0.34177391829E+04  0.34195174141E+04  0.00000000000E+00 0. -1.
<scales pt_clust_3="31.02100" pt_clust_4="72.24739" pt_clust_5="31.02100" pt_clust_6="110.32208"></scales>
<clustering>
<clus scale="   31.021">  3  5 -1 -1</clus>
<clus scale="   72.247">  1  4  2 -1</clus>
<clus scale="  110.322">  2  6  1 -1</clus>
<clus scale="   72.247">  1  3  2 -1</clus>
</clustering>
</event>
<event>
 6    0  0.4017242E+002  0.1025836E+03  0.7546771E-02  0.1274955E+00
         21   -1    0    0  504  502  0.00000000000E+00  0.00000000000E+00  0.69628565949E+03  0.69628565949E+03  0.00000000000E+00 0. -1.
         -3   -1    0    0    0  501 -0.00000000000E+00 -0.00000000000E+00 -0.12421144172E+03  0.12421144172E+03  0.00000000000E+00 0.  1.
         21    1    1    2  503  505  0.84942870021E+02  0.52121081947E+02  0.15899959921E+03  0.18765066187E+03  0.00000000000E+00 0. -1.
         21    1    1    2  504  501 -0.36290260916E+02 -0.19411623658E+02  0.23219837017E+03  0.23581746602E+03  0.00000000000E+00 0. -1.
         21    1    1    2  505  502  0.49661863213E+02 -0.79473111686E+00  0.26135242617E+03  0.26603011657E+03  0.00000000000E+00 0. -1.
         -3    1    1    2    0  503 -0.98314472317E+02 -0.31914727172E+02 -0.80476177795E+02  0.13099885675E+03  0.00000000000E+00 0.  1.
<scales pt_clust_3="102.58360" pt_clust_4="41.15573" pt_clust_5="31.29843" pt_clust_6="14000.00000"></scales>
<clustering>
<clus scale="   41.156">  1  4  2 -1</clus>
<clus scale="   31.298">  1  5  2 -1</clus>
<clus scale="  102.584">  1  3  2 -1</clus>
<clus scale="   41.156">  1  3  2 -1</clus>
</clustering>
</event>
<event>
 6    0  0.4017242E+002  0.2395494E+03  0.7546771E-02  0.1120093E+00
         21   -1    0    0  504  502  0.00000000000E+00  0.00000000000E+00  0.89480728961E+02  0.89480728961E+02  0.00000000000E+00 0. -1.
          2   -1    0    0  505    0 -0.00000000000E+00 -0.00000000000E+00 -0.29515046168E+04  0.29515046168E+04  0.00000000000E+00 0.  1.
         21    1    1    2  503  502  0.19625558779E+03  0.52980023934E+02 -0.26282543132E+03  0.33226547522E+03  0.00000000000E+00 0. -1.
         21    1    1    2  504  501 -0.32365331796E+03  0.39592267658E+02 -0.55519177443E+03  0.64386095104E+03  0.00000000000E+00 0. -1.
         21    1    1    2  505  503  0.90722953520E+02 -0.92101534269E+02 -0.39854729213E+03  0.41899080058E+03  0.00000000000E+00 0.  1.
          2    1    1    2  501    0  0.36674776647E+02 -0.47075732220E+00 -0.16454593900E+04  0.16458681189E+04  0.00000000000E+00 0.  1.
<scales pt_clust_3="239.54944" pt_clust_4="14000.00000" pt_clust_5="137.67852" pt_clust_6="36.67780"></scales>
<clustering>
<clus scale="   36.678">  2  6  1 -1</clus>
<clus scale="  137.679">  2  5  1 -1</clus>
<clus scale="  239.549">  1  3  2 -1</clus>
<clus scale="  239.549">  1  3  2 -1</clus>
</clustering>
</event>
<event>
 6    0  0.4017242E+002  0.8033998E+02  0.7546771E-02  0.1328089E+00
          2   -1    0    0  504    0 -0.00000000000E+00  0.00000000000E+00  0.15510327574E+04  0.15510327574E+04  0.00000000000E+00 0. -1.
         21   -1    0    0  501  502  0.00000000000E+00 -0.00000000000E+00 -0.20714899982E+02  0.20714899982E+02  0.00000000000E+00 0. -1.
         21    1    1    2  503  505  0.97713982938E+01  0.53051553705E+02  0.78296368979E+02  0.95080329040E+02  0.00000000000E+00 0. -1.
         21    1    1    2  504  503 -0.62283868517E+02  0.15405907494E+02  0.73645401549E+03  0.73924362642E+03  0.00000000000E+00 0.  1.
         21    1    1    2  505  502 -0.34087424338E+02  0.31169124619E+02  0.18916446595E+03  0.19472201212E+03  0.00000000000E+00 0.  1.
          2    1    1    2  501    0  0.86599894561E+02 -0.99626585818E+02  0.52640300703E+03  0.54270168983E+03  0.00000000000E+00 0. -1.
<scales pt_clust_3="80.33998" pt_clust_4="67.33806" pt_clust_5="46.18947" pt_clust_6="14000.00000"></scales>
<clustering>
<clus scale="   46.189">  2  5  1 -1</clus>
<clus scale="   67.338">  1  4  2 -1</clus>
<clus scale="   80.340">  2  3  1 -1</clus>
<clus scale="   46.189">  2  3  1 -1</clus>
</clustering>
</event>
<event>
 6    0  0.4637591E+002  0.1885957E+03  0.7546771E-02  0.1159734E+00
          2   -1    0    0  503    0 -0.00000000000E+00  0.00000000000E+00  0.13312201702E+04  0.13312201702E+04  0.00000000000E+00 0. -1.
         21   -1    0    0  504  502  0.00000000000E+00 -0.00000000000E+00 -0.78230713623E+03  0.78230713623E+03  0.00000000000E+00 0. -1.
         21    1    1    2  503  502  0.11308589639E+03 -0.32480332824E+02 -0.68187205543E+03  0.69194861945E+03  0.00000000000E+00 0. -1.
         21    1    1    2  504  505  0.28861228955E+02  0.90838296213E+01 -0.32818698805E+02  0.44638027383E+02  0.00000000000E+00 0.  1.
         21    1    1    2  505  501  0.37127336712E+02 -0.37995036473E+02 -0.35644598520E+02  0.63973426761E+02  0.00000000000E+00 0.  1.
          2    1    1    2  501    0 -0.17907446206E+03  0.61391539676E+02  0.12992483868E+04  0.13129672329E+04  0.00000000000E+00 0. -1.
<scales pt_clust_3="14000.00000" pt_clust_4="30.25701" pt_clust_5="54.06927" pt_clust_6="188.59566"></scales>
<clustering>
<clus scale="   30.257">  2  4  1 -1</clus>
<clus scale="   54.069">  2  5  1 -1</clus>
<clus scale="  188.596">  1  6  2 -1</clus>
<clus scale="   30.257">  2  3  1 -1</clus>
</clustering>
</event>
<event>
 6    0  0.4017242E+002  0.6477514E+02  0.7546771E-02  0.1378819E+00
         21   -1    0    0  503  502  0.00000000000E+00  0.00000000000E+00  0.26084629433E+04  0.26084629433E+04  0.00000000000E+00 0. -1.
          2   -1    0    0  505    0 -0.00000000000E+00 -0.00000000000E+00 -0.18227958617E+04  0.18227958617E+04  0.00000000000E+00 0. -1.
         21    1    1    2  503  504  0.37218552764E+02  0.53460617650E+02  0.18007805342E+04  0.18019583210E+04  0.00000000000E+00 0. -1.
         21    1    1    2  504  501 -0.55983123945E+02 -0.35038685794E+02  0.18484948591E+03  0.19629353558E+03  0.00000000000E+00 0.  1.
         21    1    1    2  505  502  0.57591957665E+02  0.26825062060E+02  0.61439424338E+03  0.61767038447E+03  0.00000000000E+00 0.  1.
          2    1    1    2  501    0 -0.38827386483E+02 -0.45246993915E+02 -0.18143571819E+04  0.18153365639E+04  0.00000000000E+00 0. -1.
<scales pt_clust_3="14000.00000" pt_clust_4="64.77514" pt_clust_5="52.58819" pt_clust_6="59.62262"></scales>
<clustering>
<clus scale="   59.623">  2  6  1 -1</clus>
<clus scale="   52.588">  2  5  1 -1</clus>
<clus scale="   64.775">  2  4  1 -1</clus>
<clus scale="   64.775">  1  3  2 -1</clus>
</clustering>
</event>
<event>
 6    0  0.4017242E+002  0.1032057E+03  0.7546771E-02  0.1273696E+00
          2   -1    0    0  505    0 -0.00000000000E+00  0.00000000000E+00  0.16218865815E+04  0.16218865815E+04  0.00000000000E+00 0.  1.
         21   -1    0    0  504  502  0.00000000000E+00 -0.00000000000E+00 -0.52093994372E+03  0.52093994372E+03  0.00000000000E+00 0. -1.
         21    1    1    2  503  501  0.45571569007E+02  0.31183530264E+02  0.27428602110E+01  0.55287464616E+02  0.00000000000E+00 0.  1.
         21    1    1    2  504  503  0.86267727553E+02 -0.66769759260E+01 -0.23333861580E+02  0.89616806018E+02  0.00000000000E+00 0. -1.
         21    1    1    2  505  502 -0.81550062919E+02  0.33039720539E+02 -0.43282697616E+03  0.44168000542E+03  0.00000000000E+00 0. -1.
          2    1    1    2  501    0 -0.50289233641E+02 -0.57546274877E+02  0.15543646153E+04  0.15562422492E+04  0.00000000000E+00 0.  1.
<scales pt_clust_3="40.66438" pt_clust_4="40.66438" pt_clust_5="89.77938" pt_clust_6="76.42369"></scales>
<clustering>
<clus scale="   40.664">  3  4 -1 -1</clus>
<clus scale="   76.424">  1  6  2 -1</clus>
<clus scale="   89.779">  2  5  1 -1</clus>
<clus scale="   89.779">  2  3  1 -1</clus>
</clustering>
</event>
<event>
 6    0  0.4017242E+002  0.9765010E+02  0.7546771E-02  0.1285317E+00
          1   -1    0    0  504    0 -0.00000000000E+00  0.00000000000E+00  0.59183685505E+03  0.59183685505E+03  0.00000000000E+00 0. -1.
         21   -1    0    0  503  502  0.00000000000E+00 -0.00000000000E+00 -0.25868467615E+04  0.25868467615E+04  0.00000000000E+00 0. -1.
         21    1    1    2  503  501  0.17424545960E+02 -0.40353803094E+02 -0.23080469295E+04  0.23084654368E+04  0.00000000000E+00 0. -1.
         21    1    1    2  504  505 -0.73588785433E+02  0.17970729366E+01  0.10325380055E+02  0.74331368116E+02  0.00000000000E+00 0.  1.
         21    1    1    2  505  502  0.87016429012E+02  0.37959075896E+01 -0.23786793662E+03  0.25331289565E+03  0.00000000000E+00 0. -1.
          1    1    1    2  501    0 -0.30852189538E+02  0.34760822568E+02  0.54057957962E+03  0.54257391596E+03  0.00000000000E+00 0. -1.
<scales pt_clust_3="43.95503" pt_clust_4="97.65010" pt_clust_5="14000.00000" pt_clust_6="46.32825"></scales>
<clustering>
<clus scale="   43.955">  2  3  1 -1</clus>
<clus scale="   46.328">  1  6  2 -1</clus>
<clus scale="   97.650">  1  4  2 -1</clus>
<clus scale="   43.955">  2  3  1 -1</clus>
</clustering>
</event>
<event>
 6    0  0.4017242E+002  0.2999325E+03  0.7546771E-02  0.1085274E+00
          2   -1    0    0  502    0 -0.00000000000E+00  0.00000000000E+00  0.16716057301E+04  0.16716057301E+04  0.00000000000E+00 0.  1.
         21   -1    0    0  503  502  0.00000000000E+00 -0.00000000000E+00 -0.40222162649E+03  0.40222162649E+03  0.00000000000E+00 0.  1.
         21    1    1    2  503  504 -0.57541262518E+02 -0.18125207314E+02 -0.93672867855E+02  0.11141869773E+03  0.00000000000E+00 0.  1.
         21    1    1    2  504  505 -0.23938271012E+03  0.57847334486E+01 -0.16928009911E+03  0.29324613723E+03  0.00000000000E+00 0.  1.
         21    1    1    2  505  501  0.26113996704E+03 -0.44423439086E+02  0.19202401637E+03  0.32717082264E+03  0.00000000000E+00 0. -1.
          2    1    1    2  501    0  0.35784005604E+02  0.56763912951E+02  0.13403130542E+04  0.13419916990E+04  0.00000000000E+00 0.  1.
<scales pt_clust_3="39.81880" pt_clust_4="39.81880" pt_clust_5="289.25120" pt_clust_6="67.10169"></scales>
<clustering>
<clus scale="   39.819">  3  4 -1 -1</clus>
<clus scale="   67.102">  1  6  2 -1</clus>
<clus scale="  289.251">  1  5  2 -1</clus>
<clus scale="  299.932">  2  3  1 -1</clus>
</clustering>
</event>
<event>
 6    0  0.4017242E+002  0.1721143E+03  0.7546771E-02  0.1175661E+00
          1   -1    0    0  504    0 -0.00000000000E+00  0.00000000000E+00  0.14807621304E+04  0.14807621304E+04  0.00000000000E+00 0.  1.
         21   -1    0    0  503  502  0.00000000000E+00 -0.00000000000E+00 -0.81938312052E+02  0.81938312052E+02  0.00000000000E+00 0.  1.
         21    1    1    2  503  501 -0.34046240514E+02  0.59427252929E+01 -0.49960633338E+02  0.60749710786E+02  0.00000000000E+00 0.  1.
         21    1    1    2  504  505  0.30999267490E+02 -0.50197956358E+02  0.21153135958E+03  0.21960488494E+03  0.00000000000E+00 0. -1.
         21    1    1    2  505  502  0.37854197953E+02 -0.10712855533E+03  0.17403328132E+03  0.20783900182E+03  0.00000000000E+00 0.  1.
          1    1    1    2  501    0 -0.34807224929E+02  0.15138378639E+03  0.10632198108E+04  0.10745068449E+04  0.00000000000E+00 0.  1.
<scales pt_clust_3="34.56100" pt_clust_4="49.23001" pt_clust_5="49.23001" pt_clust_6="158.32742"></scales>
<clustering>
<clus scale="   34.561">  2  3  1 -1</clus>
<clus scale="   49.230">  4  5 -1 -1</clus>
<clus scale="  158.327">  1  6  2 -1</clus>
<clus scale="   34.561">  2  3  1 -1</clus>
</clustering>
</event>
<event>
 6    0  0.4017242E+002  0.1134628E+03  0.7546771E-02  0.1254289E+00
         21   -1    0    0  504  502  0.00000000000E+00  0.00000000000E+00  0.41953864287E+02  0.41953864287E+02  0.00000000000E+00 0. -1.
          1   -1    0    0  505    0 -0.00000000000E+00 -0.00000000000E+00 -0.83606054381E+03  0.83606054381E+03  0.00000000000E+00 0.  1.
         21    1    1    2  503  501 -0.38685076103E+02  0.47468991897E+02 -0.16136307479E+02  0.63326303570E+02  0.00000000000E+00 0. -1.
         21    1    1    2  504  503 -0.23245961264E+02  0.37227665127E+02 -0.50067853412E+02  0.66581256455E+02  0.00000000000E+00 0. -1.
         21    1    1    2  505  502 -0.41850328745E+02 -0.16250706864E+02 -0.13362923646E+03  0.14096917509E+03  0.00000000000E+00 0. -1.
          1    1    1    2  501    0  0.10378136611E+03 -0.68445950161E+02 -0.59427328217E+03  0.60713767297E+03  0.00000000000E+00 0.  1.
<scales pt_clust_3="32.61326" pt_clust_4="32.61326" pt_clust_5="44.89472" pt_clust_6="106.72297"></scales>
<clustering>
<clus scale="   32.613">  3  4 -1 -1</clus>
<clus scale="   44.895">  2  5  1 -1</clus>
<clus scale="  106.723">  2  6  1 -1</clus>
<clus scale="  113.463">  1  3  2 -1</clus>
</clustering>
</event>
<event>
 6    0  0.4017242E+002  0.1250979E+03  0.7546771E-02  0.1234916E+00
          1   -1    0    0  505    0 -0.00000000000E+00  0.00000000000E+00  0.13039228380E+04  0.13039228380E+04  0.00000000000E+00 0. -1.
         21   -1    0    0  503  502  0.00000000000E+00 -0.00000000000E+00 -0.71133370272E+02  0.71133370272E+02  0.00000000000E+00 0. -1.
         21    1    1    2  503  501 -0.23115942151E+02  0.19623004670E+02  0.14594970597E+02  0.33651482293E+02  0.00000000000E+00 0. -1.
         21    1    1    2  504  502  0.35997179636E+02 -0.86745481058E+02  0.44352708450E+02  0.10386403696E+03  0.00000000000E+00 0. -1.
         21    1    1    2  505  504  0.10418314604E+03  0.11125462394E+02  0.69795219902E+02  0.12589390992E+03  0.00000000000E+00 0. -1.
          1    1    1    2  501    0 -0.11706438353E+03  0.55997013995E+02  0.11040465688E+04  0.11116467791E+04  0.00000000000E+00 0. -1.
<scales pt_clust_3="30.32176" pt_clust_4="81.15964" pt_clust_5="125.09786" pt_clust_6="14000.00000"></scales>
<clustering>
<clus scale="   30.322">  2  3  1 -1</clus>
<clus scale="   81.160">  2  4  1 -1</clus>
<clus scale="  125.098">  2  5  1 -1</clus>
<clus scale="   30.322">  2  3  1 -1</clus>
</clustering>
</event>
<event>
 6    0  0.4017242E+002  0.1651284E+03  0.7546771E-02  0.1183025E+00
         21   -1    0    0  503  502  0.00000000000E+00  0.00000000000E+00  0.56486776066E+03  0.56486776066E+03  0.00000000000E+00 0.  1.
          1   -1    0    0  504    0 -0.00000000000E+00 -0.00000000000E+00 -0.62239710804E+02  0.62239710804E+02  0.00000000000E+00 0.  1.
         21    1    1    2  503  501 -0.26339063176E+02 -0.27594129336E+02  0.10375172702E+03  0.11054231354E+03  0.00000000000E+00 0.  1.
         21    1    1    2  504  505  0.66856809618E+02  0.28644308645E+02  0.47670843683E+02  0.86964583294E+02  0.00000000000E+00 0.  1.
         21    1    1    2  505  502  0.86297416241E+02 -0.19056414204E+01  0.43234592279E+02  0.96540693433E+02  0.00000000000E+00 0.  1.
          1    1    1    2  501    0 -0.12681516268E+03  0.85546211188E+00  0.30797088687E+03  0.33305988120E+03  0.00000000000E+00 0.  1.
<scales pt_clust_3="30.51792" pt_clust_4="32.31411" pt_clust_5="159.40636" pt_clust_6="30.51792"></scales>
<clustering>
<clus scale="   30.518">  3  6 -1 -1</clus>
<clus scale="   32.314">  4  5 -1 -1</clus>
<clus scale="  159.406">  2  4  1 -1</clus>
<clus scale="  165.128">  1  3  2 -1</clus>
</clustering>
</event>
<event>
 6    0  0.4017242E+002  0.1915528E+03  0.7546771E-02  0.1157068E+00
         21   -1    0    0  505  502  0.00000000000E+00  0.00000000000E+00  0.10043893245E+04  0.10043893245E+04  0.00000000000E+00 0. -1.
         -1   -1    0    0    0  501 -0.00000000000E+00 -0.00000000000E+00 -0.75626548274E+03  0.75626548274E+03  0.00000000000E+00 0. -1.
         21    1    1    2  503  501 -0.13206833861E+03  0.72547258215E+02 -0.17145236491E+03  0.22825657531E+03  0.00000000000E+00 0. -1.
         21    1    1    2  504  502  0.13715315831E+02 -0.38758817567E+02  0.86790583475E+03  0.86887910196E+03  0.00000000000E+00 0. -1.
         21    1    1    2  505  503  0.21557363442E+03 -0.40129710435E+01 -0.12485816401E+02  0.21597220054E+03  0.00000000000E+00 0. -1.
         -1    1    1    2    0  504 -0.97220611643E+02 -0.29775469605E+02 -0.43584381165E+03  0.44754692947E+03  0.00000000000E+00 0. -1.
<scales pt_clust_3="191.55277" pt_clust_4="41.11394" pt_clust_5="14000.00000" pt_clust_6="101.61753"></scales>
<clustering>
<clus scale="   41.114">  1  4  2 -1</clus>
<clus scale="  101.618">  2  6  1 -1</clus>
<clus scale="  191.553">  2  3  1 -1</clus>
<clus scale="   41.114">  1  3  2 -1</clus>
</clustering>
</event>
<event>
 6    0  0.4017242E+002  0.7856374E+02  0.7546771E-02  0.1333177E+00
         -3   -1    0    0    0  501 -0.00000000000E+00  0.00000000000E+00  0.45677765132E+03  0.45677765132E+03  0.00000000000E+00 0. -1.
         21   -1    0    0  505  502  0.00000000000E+00 -0.00000000000E+00 -0.65315450648E+02  0.65315450648E+02  0.00000000000E+00 0. -1.
         21    1    1    2  503  502 -0.33914520769E+02 -0.28093100593E+02 -0.27387743302E+02  0.51860442566E+02  0.00000000000E+00 0. -1.
         21    1    1    2  504  503  0.13377730676E+02  0.48700123357E+02  0.92110510191E+02  0.10504766433E+03  0.00000000000E+00 0. -1.
         21    1    1    2  505  501 -0.70381584879E+02 -0.75457610665E+01  0.15595714340E+03  0.17126919331E+03  0.00000000000E+00 0. -1.
         -3    1    1    2    0  504  0.90918374973E+02 -0.13061261698E+02  0.17078229038E+03  0.19391580176E+03  0.00000000000E+00 0. -1.
<scales pt_clust_3="44.03881" pt_clust_4="41.90712" pt_clust_5="78.56374" pt_clust_6="14000.00000"></scales>
<clustering>
<clus scale="   44.039">  2  3  1 -1</clus>
<clus scale="   41.907">  2  4  1 -1</clus>
<clus scale="   78.564">  1  5  2 -1</clus>
<clus scale="   44.039">  2  3  1 -1</clus>
</clustering>
</event>
<event>
 6    0  0.4017242E+002  0.1428173E+03  0.7546771E-02  0.1209588E+00
          2   -1    0    0  504    0 -0.00000000000E+00  0.00000000000E+00  0.13870590492E+04  0.13870590492E+04  0.00000000000E+00 0. -1.
         21   -1    0    0  503  502  0.00000000000E+00 -0.00000000000E+00 -0.37173300702E+03  0.37173300702E+03  0.00000000000E+00 0.  1.
         21    1    1    2  503  501  0.59335724494E+02 -0.17713085195E+02 -0.33143767134E+02  0.70235253884E+02  0.00000000000E+00 0. -1.
         21    1    1    2  504  505  0.66134068067E+02 -0.65164472611E+02  0.54822276863E+02  0.10782210112E+03  0.00000000000E+00 0.  1.
         21    1    1    2  505  502 -0.15695598354E+03  0.14205483606E+03 -0.25435978525E+03  0.33092847802E+03  0.00000000000E+00 0.  1.
          2    1    1    2  501    0  0.31486190976E+02 -0.59177278251E+02  0.12480073177E+04  0.12498062232E+04  0.00000000000E+00 0. -1.
<scales pt_clust_3="61.92319" pt_clust_4="142.81726" pt_clust_5="14000.00000" pt_clust_6="67.15470"></scales>
<clustering>
<clus scale="   61.923">  2  3  1 -1</clus>
<clus scale="   67.155">  1  6  2 -1</clus>
<clus scale="  142.817">  1  4  2 -1</clus>
<clus scale="   61.923">  2  3  1 -1</clus>
</clustering>
</event>
<event>
 6    0  0.4017242E+002  0.8724872E+02  0.7546771E-02  0.1309654E+00
          2   -1    0    0  505    0 -0.00000000000E+00  0.00000000000E+00  0.57642396708E+03  0.57642396708E+03  0.00000000000E+00 0. -1.
         21   -1    0    0  504  502  0.00000000000E+00 -0.00000000000E+00 -0.11841622563E+03  0.11841622563E+03  0.00000000000E+00 0.  1.
         21    1    1    2  503  502  0.28836542409E+02 -0.17745712838E+02  0.94908914713E+01  0.35164378612E+02  0.00000000000E+00 0.  1.
         21    1    1    2  504  501  0.35592669239E+02  0.74465005316E+02 -0.38775510947E+02  0.91188899377E+02  0.00000000000E+00 0.  1.
         21    1    1    2  505  503 -0.38512115092E+02 -0.88452535629E+02  0.18901111253E+02  0.98307100836E+02  0.00000000000E+00 0.  1.
          2    1    1    2  501    0 -0.25917096557E+02  0.31733243151E+02  0.46839124968E+03  0.47017981389E+03  0.00000000000E+00 0. -1.
<scales pt_clust_3="33.85936" pt_clust_4="87.24872" pt_clust_5="14000.00000" pt_clust_6="40.70106"></scales>
<clustering>
<clus scale="   33.859">  2  3  1 -1</clus>
<clus scale="   40.701">  1  6  2 -1</clus>
<clus scale="   87.249">  2  4  1 -1</clus>
<clus scale="   33.859">  2  3  1 -1</clus>
</clustering>
</event>
<event>
 6    0  0.4017242E+002  0.7865723E+02  0.7546771E-02  0.1332906E+00
         21   -1    0    0  504  502  0.00000000000E+00  0.00000000000E+00  0.15944288632E+03  0.15944288632E+03  0.00000000000E+00 0.  1.
          1   -1    0    0  505    0 -0.00000000000E+00 -0.00000000000E+00 -0.28848408705E+04  0.28848408705E+04  0.00000000000E+00 0.  1.
         21    1    1    2  503  502 -0.76179793039E+01  0.37542456989E+02  0.10631788535E+03  0.11300868299E+03  0.00000000000E+00 0.  1.
         21    1    1    2  504  501  0.26723614300E+02 -0.50173184899E+02 -0.63167643402E+02  0.84980298995E+02  0.00000000000E+00 0. -1.
         21    1    1    2  505  503  0.37162165861E+02  0.67691746163E+02 -0.59684506062E+00  0.77224059037E+02  0.00000000000E+00 0.  1.
          1    1    1    2  501    0 -0.56267800857E+02 -0.55061018253E+02 -0.27679513811E+04  0.27690707158E+04  0.00000000000E+00 0.  1.
<scales pt_clust_3="38.30757" pt_clust_4="48.86062" pt_clust_5="78.65723" pt_clust_6="14000.00000"></scales>
<clustering>
<clus scale="   38.308">  1  3  2 -1</clus>
<clus scale="   48.861">  1  4  2 -1</clus>
<clus scale="   78.657">  1  5  2 -1</clus>
<clus scale="   38.308">  1  3  2 -1</clus>
</clustering>
</event>
<event>
 6    0  0.4017242E+002  0.1421542E+03  0.7546771E-02  0.1210459E+00
          1   -1    0    0  505    0 -0.00000000000E+00  0.00000000000E+00  0.38710480251E+03  0.38710480251E+03  0.00000000000E+00 0. -1.
         21   -1    0    0  504  502  0.00000000000E+00 -0.00000000000E+00 -0.26851559224E+03  0.26851559224E+03  0.00000000000E+00 0. -1.
         21    1    1    2  503  502  0.26752973539E+02  0.22372949789E+02 -0.46813100538E+02  0.58375824255E+02  0.00000000000E+00 0.  1.
         21    1    1    2  504  501  0.13853700944E+03 -0.12186421346E+03 -0.87245610982E+02  0.20409602187E+03  0.00000000000E+00 0. -1.
         21    1    1    2  505  503 -0.28051704547E+02  0.72642087884E+02 -0.25406365452E+02  0.81910038857E+02  0.00000000000E+00 0.  1.
          1    1    1    2  501    0 -0.13723827843E+03  0.26849175790E+02  0.27805428724E+03  0.31123850976E+03  0.00000000000E+00 0. -1.
<scales pt_clust_3="34.87507" pt_clust_4="142.15416" pt_clust_5="81.07805" pt_clust_6="14000.00000"></scales>
<clustering>
<clus scale="   34.875">  2  3  1 -1</clus>
<clus scale="   81.078">  2  5  1 -1</clus>
<clus scale="  142.154">  2  4  1 -1</clus>
<clus scale="   34.875">  2  3  1 -1</clus>
</clustering>
</event>
<event>
 6    0  0.4017242E+002  0.8302527E+02  0.7546771E-02  0.1320679E+00
         -3   -1    0    0    0  501 -0.00000000000E+00  0.00000000000E+00  0.11486195339E+03  0.11486195339E+03  0.00000000000E+00 0. -1.
         21   -1    0    0  505  502  0.00000000000E+00 -0.00000000000E+00 -0.27943934312E+04  0.27943934312E+04  0.00000000000E+00 0. -1.
         21    1    1    2  503  502  0.51278802830E+02  0.64775106338E+02 -0.16517641069E+04  0.16538288893E+04  0.00000000000E+00 0. -1.
         21    1    1    2  504  501 -0.29179970425E+02  0.20817953626E+02  0.30089720218E+01  0.35970985249E+02  0.00000000000E+00 0. -1.
         21    1    1    2  505  504  0.19105960058E+02 -0.10775799077E+03 -0.11164699982E+04  0.11218208766E+04  0.00000000000E+00 0. -1.
         -3    1    1    2    0  503 -0.41204792463E+02  0.22164930802E+02  0.85693655345E+02  0.97634633434E+02  0.00000000000E+00 0. -1.
<scales pt_clust_3="14000.00000" pt_clust_4="35.84491" pt_clust_5="83.02527" pt_clust_6="81.08152"></scales>
<clustering>
<clus scale="   35.845">  1  4  2 -1</clus>
<clus scale="   81.082">  1  6  2 -1</clus>
<clus scale="   83.025">  1  5  2 -1</clus>
<clus scale="   83.025">  2  3  1 -1</clus>
</clustering>
</event>
<event>
 6    0  0.4017242E+002  0.6300130E+02  0.7546771E-02  0.1385651E+00
         21   -1    0    0  503  502  0.00000000000E+00  0.00000000000E+00  0.67968618634E+03  0.67968618634E+03  0.00000000000E+00 0. -1.
          2   -1    0    0  502    0 -0.00000000000E+00 -0.00000000000E+00 -0.22280186824E+03  0.22280186824E+03  0.00000000000E+00 0.  1.
         21    1    1    2  503  504 -0.35782114227E+02 -0.23266311641E+01  0.35862018964E+03  0.36040839797E+03  0.00000000000E+00 0. -1.
         21    1    1    2  504  505 -0.36050411214E+02 -0.48976093227E+00  0.11658716322E+03  0.12203457970E+03  0.00000000000E+00 0. -1.
         21    1    1    2  505  501  0.11717503070E+03  0.44646365048E+02  0.17603661082E+03  0.21612999348E+03  0.00000000000E+00 0. -1.
          2    1    1    2  501    0 -0.45342505262E+02 -0.41829972951E+02 -0.19435964558E+03  0.20391508343E+03  0.00000000000E+00 0.  1.
<scales pt_clust_3="35.85768" pt_clust_4="49.40312" pt_clust_5="14000.00000" pt_clust_6="63.00130"></scales>
<clustering>
<clus scale="   35.858">  1  3  2 -1</clus>
<clus scale="   49.403">  1  4  2 -1</clus>
<clus scale="   63.001">  2  6  1 -1</clus>
<clus scale="   35.858">  1  3  2 -1</clus>
</clustering>
</event>
<event>
 6    0  0.4017242E+002  0.8986631E+02  0.7546771E-02  0.1303176E+00
          2   -1    0    0  504    0 -0.00000000000E+00  0.00000000000E+00  0.12613979141E+04  0.12613979141E+04  0.00000000000E+00 0.  1.
         21   -1    0    0  505  502  0.00000000000E+00 -0.00000000000E+00 -0.80195995356E+03  0.80195995356E+03  0.00000000000E+00 0.  1.
         21    1    1    2  503  502 -0.39464788784E+02  0.55444791108E+01 -0.47388555283E+03  0.47555833289E+03  0.00000000000E+00 0.  1.
         21    1    1    2  504  503  0.46942344160E+02 -0.67081927706E+01 -0.88053795486E+02  0.10001027160E+03  0.00000000000E+00 0.  1.
         21    1    1    2  505  501 -0.27612013627E+02 -0.86414132184E+02 -0.22270112059E+03  0.24046957115E+03  0.00000000000E+00 0.  1.
          2    1    1    2  501    0  0.20134458251E+02  0.87577845844E+02  0.12440784295E+04  0.12473196920E+04  0.00000000000E+00 0.  1.
<scales pt_clust_3="39.85236" pt_clust_4="35.96767" pt_clust_5="14000.00000" pt_clust_6="89.86631"></scales>
<clustering>
<clus scale="   39.852">  2  3  1 -1</clus>
<clus scale="   35.968">  2  4  1 -1</clus>
<clus scale="   89.866">  1  6  2 -1</clus>
<clus scale="   39.852">  2  3  1 -1</clus>
</clustering>
</event>
<event>
 6    0  0.4017242E+002  0.1107096E+03  0.7546771E-02  0.1259261E+00
          2   -1    0    0  504    0 -0.00000000000E+00  0.00000000000E+00  0.78121700828E+03  0.78121700828E+03  0.00000000000E+00 0. -1.
         21   -1    0    0  503  502  0.00000000000E+00 -0.00000000000E+00 -0.15328250331E+03  0.15328250331E+03  0.00000000000E+00 0.  1.
         21    1    1    2  503  505 -0.55937985921E+01  0.72275727513E+02 -0.92057002456E+02  0.11717321823E+03  0.00000000000E+00 0.  1.
         21    1    1    2  504  502 -0.11375637161E+03  0.25844281834E+02  0.83033694725E+02  0.14318880349E+03  0.00000000000E+00 0.  1.
         21    1    1    2  505  501  0.63394319725E+02 -0.92594169454E+02  0.16931084941E+03  0.20312233683E+03  0.00000000000E+00 0. -1.
          2    1    1    2  501    0  0.55955850481E+02 -0.55258398931E+01  0.46764696329E+03  0.47101515303E+03  0.00000000000E+00 0. -1.
<scales pt_clust_3="72.13063" pt_clust_4="110.70961" pt_clust_5="14000.00000" pt_clust_6="56.22804"></scales>
<clustering>
<clus scale="   56.228">  1  6  2 -1</clus>
<clus scale="   72.131">  2  3  1 -1</clus>
<clus scale="  110.710">  1  4  2 -1</clus>
<clus scale="   72.131">  2  3  1 -1</clus>
</clustering>
</event>
<event>
 6    0  0.4017242E+002  0.8268185E+02  0.7546771E-02  0.1321609E+00
         21   -1    0    0  505  502  0.00000000000E+00  0.00000000000E+00  0.32098291386E+02  0.32098291386E+02  0.00000000000E+00 0.  1.
          2   -1    0    0  503    0 -0.00000000000E+00 -0.00000000000E+00 -0.16795056987E+04  0.16795056987E+04  0.00000000000E+00 0.  1.
         21    1    1    2  503  504  0.29450239604E+02  0.60854711066E+02 -0.63290634605E+03  0.63650691696E+03  0.00000000000E+00 0.  1.
         21    1    1    2  504  502 -0.15962495881E+02  0.46532485502E+02 -0.13039954279E+03  0.13937042097E+03  0.00000000000E+00 0. -1.
         21    1    1    2  505  501  0.41491995061E+02 -0.90632336847E+01  0.19765719432E+01  0.42516287415E+02  0.00000000000E+00 0.  1.
          2    1    1    2  501    0 -0.54979738783E+02 -0.98323962883E+02 -0.88607809038E+03  0.89321036470E+03  0.00000000000E+00 0.  1.
<scales pt_clust_3="82.68185" pt_clust_4="42.50709" pt_clust_5="42.47032" pt_clust_6="14000.00000"></scales>
<clustering>
<clus scale="   42.470">  1  5  2 -1</clus>
<clus scale="   42.507">  1  4  2 -1</clus>
<clus scale="   82.682">  2  3  1 -1</clus>
<clus scale="   42.470">  1  3  2 -1</clus>
</clustering>
</event>
<event>
 6    0  0.4017242E+002  0.1140345E+03  0.7546771E-02  0.1253276E+00
         21   -1    0    0  503  502  0.00000000000E+00  0.00000000000E+00  0.19558777692E+03  0.19558777692E+03  0.00000000000E+00 0.  1.
          1   -1    0    0  505    0 -0.00000000000E+00 -0.00000000000E+00 -0.61814411633E+03  0.61814411633E+03  0.00000000000E+00 0.  1.
         21    1    1    2  503  504  0.26685314573E+02  0.20651565102E+02  0.53739211212E+02  0.63454676555E+02  0.00000000000E+00 0.  1.
         21    1    1    2  504  501 -0.22691324473E+02  0.29724366117E+02  0.13924271165E+02  0.39903877943E+02  0.00000000000E+00 0.  1.
         21    1    1    2  505  502  0.41333712225E+02 -0.15246412039E+03  0.44496547819E+02  0.16411497964E+03  0.00000000000E+00 0.  1.
          1    1    1    2  501    0 -0.45327702326E+02  0.10208818917E+03 -0.53471636961E+03  0.54625835911E+03  0.00000000000E+00 0.  1.
<scales pt_clust_3="33.74305" pt_clust_4="38.02178" pt_clust_5="14000.00000" pt_clust_6="114.03454"></scales>
<clustering>
<clus scale="   33.743">  1  3  2 -1</clus>
<clus scale="   38.022">  1  4  2 -1</clus>
<clus scale="  114.035">  2  6  1 -1</clus>
<clus scale="   33.743">  1  3  2 -1</clus>
</clustering>
</event>
<event>
 6    0  0.4017242E+002  0.1515032E+03  0.7546771E-02  0.1198638E+00
          1   -1    0    0  505    0 -0.00000000000E+00  0.00000000000E+00  0.25688207294E+04  0.25688207294E+04  0.00000000000E+00 0. -1.
         21   -1    0    0  503  502  0.00000000000E+00 -0.00000000000E+00 -0.14719719570E+03  0.14719719570E+03  0.00000000000E+00 0.  1.
         21    1    1    2  503  501  0.10993831084E+03 -0.10140641779E+02 -0.63919842070E+02  0.12757355140E+03  0.00000000000E+00 0.  1.
         21    1    1    2  504  502  0.16000543387E+02 -0.30739859735E+02 -0.33120669160E+02  0.47936782233E+02  0.00000000000E+00 0.  1.
         21    1    1    2  505  504  0.60712249091E+01 -0.35981677553E+02  0.30219488342E+02  0.47378881024E+02  0.00000000000E+00 0. -1.
          1    1    1    2  501    0 -0.13201007914E+03  0.76862179067E+02  0.24884445566E+04  0.24931287105E+04  0.00000000000E+00 0. -1.
<scales pt_clust_3="14000.00000" pt_clust_4="34.65482" pt_clust_5="39.15185" pt_clust_6="151.50323"></scales>
<clustering>
<clus scale="   34.655">  2  4  1 -1</clus>
<clus scale="   39.152">  2  5  1 -1</clus>
<clus scale="  151.503">  1  6  2 -1</clus>
<clus scale="   34.655">  2  3  1 -1</clus>
</clustering>
</event>
<event>
 6    0  0.4017242E+002  0.2280940E+03  0.7546771E-02  0.1127989E+00
         21   -1    0    0  503  502  0.00000000000E+00  0.00000000000E+00  0.29486993162E+04  0.29486993162E+04  0.00000000000E+00 0. -1.
          1   -1    0    0  505    0 -0.00000000000E+00 -0.00000000000E+00 -0.77498995772E+03  0.77498995772E+03  0.00000000000E+00 0.  1.
         21    1    1    2  503  504  0.84584727351E+02  0.18328321223E+03  0.66511508198E+03  0.69507221515E+03  0.00000000000E+00 0. -1.
         21    1    1    2  504  501  0.76841986748E+02  0.74408303754E+01  0.31385293838E+03  0.32320848351E+03  0.00000000000E+00 0. -1.
         21    1    1    2  505  502 -0.13046518407E+03 -0.20371085838E+03  0.19421944752E+04  0.19572017417E+04  0.00000000000E+00 0. -1.
          1    1    1    2  501    0 -0.30961530027E+02  0.12986815779E+02 -0.74745313708E+03  0.74820683360E+03  0.00000000000E+00 0.  1.
<scales pt_clust_3="228.09397" pt_clust_4="72.16134" pt_clust_5="14000.00000" pt_clust_6="33.57490"></scales>
<clustering>
<clus scale="   33.575">  2  6  1 -1</clus>
<clus scale="   72.161">  2  4  1 -1</clus>
<clus scale="  228.094">  2  3  1 -1</clus>
<clus scale="  228.094">  1  3  2 -1</clus>
</clustering>
</event>
<event>
 6    0  0.4017242E+002  0.1285796E+03  0.7546771E-02  0.1229579E+00
         21   -1    0    0  503  502  0.00000000000E+00  0.00000000000E+00  0.31485851344E+03  0.31485851344E+03  0.00000000000E+00 0. -1.
          2   -1    0    0  502    0 -0.00000000000E+00 -0.00000000000E+00 -0.61575485716E+03  0.61575485716E+03  0.00000000000E+00 0. -1.
         21    1    1    2  503  505 -0.87326979572E+02 -0.34308166416E+02  0.16818574295E+03  0.19258633330E+03  0.00000000000E+00 0. -1.
         21    1    1    2  504  501  0.63098154959E+02  0.54082914671E+02  0.22988620474E+02  0.86225376136E+02  0.00000000000E+00 0. -1.
         21    1    1    2  505  504 -0.26171484246E+02 -0.48190113402E+02  0.68785052708E+02  0.87969409986E+02  0.00000000000E+00 0. -1.
          2    1    1    2  501    0  0.50400308859E+02  0.28415365146E+02 -0.56085575985E+03  0.56383225118E+03  0.00000000000E+00 0. -1.
<scales pt_clust_3="40.94594" pt_clust_4="116.89405" pt_clust_5="40.94594" pt_clust_6="57.85866"></scales>
<clustering>
<clus scale="   40.946">  3  5 -1 -1</clus>
<clus scale="   57.859">  2  6  1 -1</clus>
<clus scale="  116.894">  2  4  1 -1</clus>
<clus scale="  128.580">  1  3  2 -1</clus>
</clustering>
</event>
<event>
 6    0  0.4017242E+002  0.1081470E+03  0.7546771E-02  0.1264040E+00
          2   -1    0    0  504    0 -0.00000000000E+00  0.00000000000E+00  0.15929331836E+04  0.15929331836E+04  0.00000000000E+00 0. -1.
         21   -1    0    0  503  502  0.00000000000E+00 -0.00000000000E+00 -0.52066515398E+02  0.52066515398E+02  0.00000000000E+00 0. -1.
         21    1    1    2  503  501  0.28677229727E+02 -0.97278548257E+02  0.12549045323E+03  0.16134854603E+03  0.00000000000E+00 0. -1.
         21    1    1    2  504  505  0.27871474791E+02  0.19397039362E+02  0.69282541922E+02  0.77156560695E+02  0.00000000000E+00 0. -1.
         21    1    1    2  505  502 -0.89327879896E+02  0.82004679698E+02  0.92622772295E+02  0.15258838608E+03  0.00000000000E+00 0. -1.
          2    1    1    2  501    0  0.32779175378E+02 -0.41231708022E+01  0.12534709008E+04  0.12539062062E+04  0.00000000000E+00 0. -1.
<scales pt_clust_3="14000.00000" pt_clust_4="39.54433" pt_clust_5="108.14698" pt_clust_6="33.03748"></scales>
<clustering>
<clus scale="   33.037">  1  6  2 -1</clus>
<clus scale="   39.544">  1  4  2 -1</clus>
<clus scale="  108.147">  2  5  1 -1</clus>
<clus scale="  108.147">  2  3  1 -1</clus>
</clustering>
</event>
<event>
 6    0  0.4017242E+002  0.1632729E+03  0.7546771E-02  0.1185050E+00
          2   -1    0    0  504    0 -0.00000000000E+00  0.00000000000E+00  0.91651043142E+03  0.91651043142E+03  0.00000000000E+00 0.  1.
         21   -1    0    0  501  502  0.00000000000E+00 -0.00000000000E+00 -0.66628751994E+03  0.66628751994E+03  0.00000000000E+00 0. -1.
         21    1    1    2  503  502 -0.93685388775E+02 -0.13752684116E+02 -0.50823681496E+03  0.51698234832E+03  0.00000000000E+00 0. -1.
         21    1    1    2  504  505 -0.23403070763E+02 -0.27012745033E+02 -0.22876921712E+02  0.42435193677E+02  0.00000000000E+00 0. -1.
         21    1    1    2  505  503  0.94278457908E+01 -0.76094022908E+02 -0.10102436022E+03  0.12682707107E+03  0.00000000000E+00 0.  1.
          2    1    1    2  501    0  0.10766061375E+03  0.11685945206E+03  0.88236100838E+03  0.89655333829E+03  0.00000000000E+00 0.  1.
<scales pt_clust_3="94.68943" pt_clust_4="33.94415" pt_clust_5="33.94415" pt_clust_6="155.51901"></scales>
<clustering>
<clus scale="   33.944">  4  5 -1 -1</clus>
<clus scale="   94.689">  2  3  1 -1</clus>
<clus scale="  155.519">  1  6  2 -1</clus>
<clus scale="   94.689">  2  3  1 -1</clus>
</clustering>
</event>
<event>
 6    0  0.4017242E+002  0.1391462E+03  0.7546771E-02  0.1214482E+00
         21   -1    0    0  501  502  0.00000000000E+00  0.00000000000E+00  0.17902179761E+03  0.17902179761E+03  0.00000000000E+00 0. -1.
          2   -1    0    0  504    0 -0.00000000000E+00 -0.00000000000E+00 -0.23012827000E+04  0.23012827000E+04  0.00000000000E+00 0.  1.
         21    1    1    2  503  505 -0.11747420754E+02  0.52108576849E+02  0.69895529992E+02  0.87969828853E+02  0.00000000000E+00 0. -1.
         21    1    1    2  504  503 -0.22778863618E+02  0.45007945306E+02  0.94160227867E+01  0.51315234127E+02  0.00000000000E+00 0. -1.
         21    1    1    2  505  502 -0.37008409447E+02  0.11929302787E+02  0.62275685542E+02  0.73417924546E+02  0.00000000000E+00 0. -1.
          2    1    1    2  501    0  0.71534693820E+02 -0.10904582494E+03 -0.22638481407E+04  0.22676015101E+04  0.00000000000E+00 0.  1.
<scales pt_clust_3="45.05927" pt_clust_4="45.05927" pt_clust_5="38.88355" pt_clust_6="129.90512"></scales>
<clustering>
<clus scale="   38.884">  1  5  2 -1</clus>
<clus scale="   45.059">  3  4 -1 -1</clus>
<clus scale="  129.905">  2  6  1 -1</clus>
<clus scale="   38.884">  1  3  2 -1</clus>
</clustering>
</event>
<event>
 6    0  0.4017242E+002  0.1175086E+03  0.7546771E-02  0.1247265E+00
         21   -1    0    0  501  502  0.00000000000E+00  0.00000000000E+00  0.29773075226E+03  0.29773075226E+03  0.00000000000E+00 0.  1.
         -2   -1    0    0    0  501 -0.00000000000E+00 -0.00000000000E+00 -0.61165339516E+03  0.61165339516E+03  0.00000000000E+00 0.  1.
         21    1    1    2  503  502  0.65871244459E+02 -0.52509506398E+02  0.14125674855E+03  0.16446804589E+03  0.00000000000E+00 0.  1.
         21    1    1    2  504  503  0.81935524436E+01  0.12062922729E+03  0.23854810389E+02  0.12323796800E+03  0.00000000000E+00 0.  1.
         21    1    1    2  505  504 -0.27804541921E+02 -0.12735223638E+03  0.63529648753E+01  0.13050687654E+03  0.00000000000E+00 0.  1.
         -2    1    1    2    0  505 -0.46260254981E+02  0.59232515491E+02 -0.48538716671E+03  0.49117125699E+03  0.00000000000E+00 0.  1.
<scales pt_clust_3="77.38086" pt_clust_4="117.50857" pt_clust_5="14000.00000" pt_clust_6="75.15652"></scales>
<clustering>
<clus scale="   75.157">  2  6  1 -1</clus>
<clus scale="   77.381">  1  3  2 -1</clus>
<clus scale="  117.509">  1  4  2 -1</clus>
<clus scale="   77.381">  1  3  2 -1</clus>
</clustering>
</event>
<event>
 6    0  0.4017242E+002  0.6366344E+02  0.7546771E-02  0.1383071E+00
         21   -1    0    0  501  502  0.00000000000E+00  0.00000000000E+00  0.18763542112E+03  0.18763542112E+03  0.00000000000E+00 0. -1.
          2   -1    0    0  503    0 -0.00000000000E+00 -0.00000000000E+00 -0.46368381085E+03  0.46368381085E+03  0.00000000000E+00 0.  1.
         21    1    1    2  503  505 -0.39672001874E+02 -0.37320483889E+02 -0.99407727000E+02  0.11335158772E+03  0.00000000000E+00 0.  1.
         21    1    1    2  504  502  0.18906341683E+02  0.61234861701E+02  0.14872198942E+03  0.16194254592E+03  0.00000000000E+00 0. -1.
         21    1    1    2  505  504 -0.39202028303E+02  0.39414392821E+02 -0.21019384591E+02  0.59431539716E+02  0.00000000000E+00 0.  1.
          2    1    1    2  501    0  0.59967688494E+02 -0.63328770632E+02 -0.30434326756E+03  0.31659355862E+03  0.00000000000E+00 0.  1.
<scales pt_clust_3="54.46730" pt_clust_4="63.66344" pt_clust_5="56.09693" pt_clust_6="14000.00000"></scales>
<clustering>
<clus scale="   54.467">  2  3  1 -1</clus>
<clus scale="   56.097">  2  5  1 -1</clus>
<clus scale="   63.663">  1  4  2 -1</clus>
<clus scale="   63.663">  1  3  2 -1</clus>
</clustering>
</event>
<event>
 6    0  0.4017242E+002  0.8835234E+02  0.7546771E-02  0.1306892E+00
         -2   -1    0    0    0  501 -0.00000000000E+00  0.00000000000E+00  0.41608390649E+03  0.41608390649E+03  0.00000000000E+00 0.  1.
         21   -1    0    0  505  502  0.00000000000E+00 -0.00000000000E+00 -0.35120365810E+03  0.35120365810E+03  0.00000000000E+00 0. -1.
         21    1    1    2  503  501  0.45731389582E+02 -0.33759826517E+02 -0.66083315182E+02  0.87167026019E+02  0.00000000000E+00 0. -1.
         21    1    1    2  504  502 -0.26542069768E+02  0.28116383202E+02 -0.37922444852E+02  0.54158326188E+02  0.00000000000E+00 0. -1.
         21    1    1    2  505  503  0.47553365774E+02 -0.55514227296E+02 -0.21732243249E+03  0.22928626581E+03  0.00000000000E+00 0. -1.
         -2    1    1    2    0  504 -0.66742685589E+02  0.61157670611E+02  0.38620844091E+03  0.39667594656E+03  0.00000000000E+00 0.  1.
<scales pt_clust_3="88.35234" pt_clust_4="38.66539" pt_clust_5="44.85711" pt_clust_6="14000.00000"></scales>
<clustering>
<clus scale="   38.665">  2  4  1 -1</clus>
<clus scale="   44.857">  2  5  1 -1</clus>
<clus scale="   88.352">  2  3  1 -1</clus>
<clus scale="   38.665">  2  3  1 -1</clus>
</clustering>
</event>
<event>
 6    0  0.4017242E+002  0.1204665E+03  0.7546771E-02  0.1242329E+00
         21   -1    0    0  505  502  0.00000000000E+00  0.00000000000E+00  0.49048058206E+03  0.49048058206E+03  0.00000000000E+00 0.  1.
          2   -1    0    0  503    0 -0.00000000000E+00 -0.00000000000E+00 -0.26991021985E+04  0.26991021985E+04  0.00000000000E+00 0.  1.
         21    1    1    2  503  502 -0.10294730043E+03  0.31801277667E+02  0.43617123792E+03  0.44928255777E+03  0.00000000000E+00 0.  1.
         21    1    1    2  504  501 -0.22614034869E+02 -0.24981574306E+02  0.12238252706E+01  0.33719006156E+02  0.00000000000E+00 0.  1.
         21    1    1    2  505  504  0.12717375095E+02 -0.49301767604E+02  0.64970161470E+01  0.51328424260E+02  0.00000000000E+00 0.  1.
          2    1    1    2  501    0  0.11284396021E+03  0.42482064243E+02 -0.26525136958E+04  0.26552527924E+04  0.00000000000E+00 0.  1.
<scales pt_clust_3="14000.00000" pt_clust_4="32.10571" pt_clust_5="84.69625" pt_clust_6="120.46654"></scales>
<clustering>
<clus scale="   32.106">  4  5 -1 -1</clus>
<clus scale="   84.696">  1  4  2 -1</clus>
<clus scale="  120.467">  2  6  1 -1</clus>
<clus scale="   84.696">  1  3  2 -1</clus>
</clustering>
</event>
<event>
 6    0  0.4017242E+002  0.1684175E+03  0.7546771E-02  0.1179508E+00
         21   -1    0    0  503  502  0.00000000000E+00  0.00000000000E+00  0.11558965373E+04  0.11558965373E+04  0.00000000000E+00 0. -1.
          2   -1    0    0  505    0 -0.00000000000E+00 -0.00000000000E+00 -0.24202356604E+03  0.24202356604E+03  0.00000000000E+00 0. -1.
         21    1    1    2  503  504  0.27584657299E+02 -0.39024057760E+02  0.27781486496E+03  0.28189517484E+03  0.00000000000E+00 0.  1.
         21    1    1    2  504  501  0.15726612180E+02 -0.18233441318E+03  0.69797647057E+03  0.72157072975E+03  0.00000000000E+00 0. -1.
         21    1    1    2  505  502 -0.27400325253E+02  0.67651287980E+02  0.12937443705E+03  0.14854366210E+03  0.00000000000E+00 0. -1.
          2    1    1    2  501    0 -0.15910944226E+02  0.15370718296E+03 -0.19129280128E+03  0.24591053670E+03  0.00000000000E+00 0. -1.
<scales pt_clust_3="31.91082" pt_clust_4="31.91082" pt_clust_5="72.98955" pt_clust_6="156.41226"></scales>
<clustering>
<clus scale="   31.911">  3  4 -1 -1</clus>
<clus scale="   72.990">  1  5  2 -1</clus>
<clus scale="  156.412">  2  6  1 -1</clus>
<clus scale="   72.990">  1  3  2 -1</clus>
</clustering>
</event>
<event>
 6    0  0.4017242E+002  0.1263141E+03  0.7546771E-02  0.1233030E+00
         21   -1    0    0  501  502  0.00000000000E+00  0.00000000000E+00  0.74148605508E+03  0.74148605508E+03  0.00000000000E+00 0.  1.
          1   -1    0    0  503    0 -0.00000000000E+00 -0.00000000000E+00 -0.11887036305E+04  0.11887036305E+04  0.00000000000E+00 0.  1.
         21    1    1    2  503  504 -0.53791550862E+02 -0.59631140377E+02 -0.44673164488E+03  0.45389268157E+03  0.00000000000E+00 0. -1.
         21    1    1    2  504  505 -0.14241504605E+02 -0.33391696829E+02 -0.88018031277E+02  0.95210291988E+02  0.00000000000E+00 0.  1.
         21    1    1    2  505  502  0.10981314477E+03  0.40779671197E+02  0.72788427480E+03  0.73724990733E+03  0.00000000000E+00 0.  1.
          1    1    1    2  501    0 -0.41780089301E+02  0.52243166008E+02 -0.64035217410E+03  0.64383680473E+03  0.00000000000E+00 0.  1.
<scales pt_clust_3="32.06906" pt_clust_4="32.06906" pt_clust_5="116.96208" pt_clust_6="66.89487"></scales>
<clustering>
<clus scale="   32.069">  3  4 -1 -1</clus>
<clus scale="   66.895">  2  6  1 -1</clus>
<clus scale="  116.962">  1  5  2 -1</clus>
<clus scale="  116.962">  1  3  2 -1</clus>
</clustering>
</event>
<event>
 6    0  0.4017242E+002  0.8794001E+02  0.7546771E-02  0.1307918E+00
         21   -1    0    0  503  502  0.00000000000E+00  0.00000000000E+00  0.40402319293E+03  0.40402319293E+03  0.00000000000E+00 0.  1.
          2   -1    0    0  504    0 -0.00000000000E+00 -0.00000000000E+00 -0.13434988510E+04  0.13434988510E+04  0.00000000000E+00 0.  1.
         21    1    1    2  503  501  0.16747955290E+01 -0.37521204208E+02  0.16818721373E+02  0.41152340078E+02  0.00000000000E+00 0.  1.
         21    1    1    2  504  505  0.14884204910E+02  0.11635007806E+03  0.12551278609E+03  0.17179155885E+03  0.00000000000E+00 0.  1.
         21    1    1    2  505  502  0.35849939083E+02 -0.53235897983E+02  0.22117102753E+03  0.23029525047E+03  0.00000000000E+00 0.  1.
          2    1    1    2  501    0 -0.52408939522E+02 -0.25592975867E+02 -0.13029781930E+04  0.13042828945E+04  0.00000000000E+00 0.  1.
<scales pt_clust_3="37.55856" pt_clust_4="87.94001" pt_clust_5="14000.00000" pt_clust_6="58.35012"></scales>
<clustering>
<clus scale="   37.559">  1  3  2 -1</clus>
<clus scale="   58.350">  2  6  1 -1</clus>
<clus scale="   87.940">  2  4  1 -1</clus>
<clus scale="   37.559">  1  3  2 -1</clus>
</clustering>
</event>
<event>
 6    0  0.4017242E+002  0.1471170E+03  0.7546771E-02  0.1204061E+00
         21   -1    0    0  504  502  0.00000000000E+00  0.00000000000E+00  0.60181974507E+03  0.60181974507E+03  0.00000000000E+00 0. -1.
         -2   -1    0    0    0  501 -0.00000000000E+00 -0.00000000000E+00 -0.13995283365E+03  0.13995283365E+03  0.00000000000E+00 0. -1.
         21    1    1    2  503  505 -0.69735083549E+02  0.18145232383E+03  0.20122619767E+03  0.27978547198E+03  0.00000000000E+00 0. -1.
         21    1    1    2  504  503 -0.48836132012E+02 -0.93024498627E+02  0.26009893372E+03  0.28051734430E+03  0.00000000000E+00 0. -1.
         21    1    1    2  505  501 -0.61457933117E+01 -0.37798408169E+02  0.23490720014E+02  0.44925542427E+02  0.00000000000E+00 0. -1.
         -2    1    1    2    0  502  0.12471700887E+03 -0.50629417035E+02 -0.22948939981E+02  0.13654422001E+03  0.00000000000E+00 0. -1.
<scales pt_clust_3="147.11701" pt_clust_4="107.93809" pt_clust_5="38.29478" pt_clust_6="14000.00000"></scales>
<clustering>
<clus scale="   38.295">  2  5  1 -1</clus>
<clus scale="  107.938">  1  4  2 -1</clus>
<clus scale="  147.117">  1  3  2 -1</clus>
<clus scale="  107.938">  1  3  2 -1</clus>
</clustering>
</event>
<event>
 6    0  0.4017242E+002  0.1087934E+03  0.7546771E-02  0.1262821E+00
         -2   -1    0    0    0  501 -0.00000000000E+00  0.00000000000E+00  0.32657532636E+03  0.32657532636E+03  0.00000000000E+00 0. -1.
         21   -1    0    0  505  502  0.00000000000E+00 -0.00000000000E+00 -0.15593694909E+03  0.15593694909E+03  0.00000000000E+00 0.  1.
         21    1    1    2  503  504  0.51445429775E+02  0.50284138705E+02 -0.11708422272E+02  0.72884936729E+02  0.00000000000E+00 0.  1.
         21    1    1    2  504  502 -0.32061733996E+01  0.60604294535E+02 -0.29327135493E+02  0.67403567711E+02  0.00000000000E+00 0.  1.
         21    1    1    2  505  501  0.19942303386E+02 -0.51499284604E+02 -0.44268854468E+02  0.70778550811E+02  0.00000000000E+00 0.  1.
         -2    1    1    2    0  503 -0.68181559761E+02 -0.59389148636E+02  0.25594278950E+03  0.27144522019E+03  0.00000000000E+00 0. -1.
<scales pt_clust_3="53.34904" pt_clust_4="53.34904" pt_clust_5="55.22564" pt_clust_6="91.99086"></scales>
<clustering>
<clus scale="   53.349">  3  4 -1 -1</clus>
<clus scale="   55.226">  2  5  1 -1</clus>
<clus scale="   91.991">  1  6  2 -1</clus>
<clus scale="   55.226">  2  3  1 -1</clus>
</clustering>
</event>
<event>
 6    0  0.4017242E+002  0.2725583E+03  0.7546771E-02  0.1099824E+00
          1   -1    0    0  505    0 -0.00000000000E+00  0.00000000000E+00  0.15420143916E+04  0.15420143916E+04  0.00000000000E+00 0.  1.
         21   -1    0    0  504  502  0.00000000000E+00 -0.00000000000E+00 -0.10383231973E+04  0.10383231973E+04  0.00000000000E+00 0.  1.
         21    1    1    2  503  501 -0.99101291291E+02 -0.21754767125E+03  0.34733765203E+03  0.42165329326E+03  0.00000000000E+00 0. -1.
         21    1    1    2  504  503  0.34521445212E+02 -0.11720973374E+02 -0.38914447591E+02  0.53323968603E+02  0.00000000000E+00 0.  1.
         21    1    1    2  505  502  0.87823759675E+02  0.25812469314E+03 -0.93527630871E+03  0.97420898354E+03  0.00000000000E+00 0.  1.
          1    1    1    2  501    0 -0.23243913596E+02 -0.28856048515E+02  0.11305442985E+04  0.11311513435E+04  0.00000000000E+00 0.  1.
<scales pt_clust_3="272.55827" pt_clust_4="36.45698" pt_clust_5="14000.00000" pt_clust_6="37.04952"></scales>
<clustering>
<clus scale="   36.457">  2  4  1 -1</clus>
<clus scale="   37.050">  1  6  2 -1</clus>
<clus scale="  272.558">  1  3  2 -1</clus>
<clus scale="   36.457">  2  3  1 -1</clus>
</clustering>
</event>
<event>
 6    0  0.4017242E+002  0.1091976E+03  0.7546771E-02  0.1262063E+00
         21   -1    0    0  504  502  0.00000000000E+00  0.00000000000E+00  0.62544749042E+02  0.62544749042E+02  0.00000000000E+00 0.  1.
          2   -1    0    0  503    0 -0.00000000000E+00 -0.00000000000E+00 -0.10552119398E+04  0.10552119398E+04  0.00000000000E+00 0.  1.
         21    1    1    2  503  502 -0.15068715077E+02 -0.10081359307E+03  0.55086924727E+00  0.10193502920E+03  0.00000000000E+00 0.  1.
         21    1    1    2  504  505 -0.74147551269E+01  0.66635934095E+02 -0.14011079058E+03  0.15532662342E+03  0.00000000000E+00 0.  1.
         21    1    1    2  505  501 -0.27016193425E+02  0.32327331886E+02 -0.15472203367E+03  0.16035535163E+03  0.00000000000E+00 0.  1.
          2    1    1    2  501    0  0.49499663629E+02  0.18503270895E+01 -0.69838523575E+03  0.70013968458E+03  0.00000000000E+00 0.  1.
<scales pt_clust_3="100.86936" pt_clust_4="33.15596" pt_clust_5="33.15596" pt_clust_6="49.53423"></scales>
<clustering>
<clus scale="   33.156">  4  5 -1 -1</clus>
<clus scale="   49.534">  2  6  1 -1</clus>
<clus scale="  100.869">  1  3  2 -1</clus>
<clus scale="  100.869">  1  3  2 -1</clus>
</clustering>
</event>
<event>
 6    0  0.4017242E+002  0.1297987E+03  0.7546771E-02  0.1227755E+00
          1   -1    0    0  505    0 -0.00000000000E+00  0.00000000000E+00  0.14572765946E+03  0.14572765946E+03  0.00000000000E+00 0. -1.
         21   -1    0    0  503  502  0.00000000000E+00 -0.00000000000E+00 -0.11400291036E+04  0.11400291036E+04  0.00000000000E+00 0. -1.
         21    1    1    2  503  504  0.43082919021E+02 -0.14232928752E+02 -0.63243195258E+02  0.77835826704E+02  0.00000000000E+00 0. -1.
         21    1    1    2  504  501  0.62545721692E+02  0.67312830269E+01 -0.81631246334E+03  0.81873274961E+03  0.00000000000E+00 0. -1.
         21    1    1    2  505  502 -0.11114426941E+02 -0.97504049690E+02 -0.20098915894E+03  0.22366763781E+03  0.00000000000E+00 0. -1.
          1    1    1    2  501    0 -0.94514213772E+02  0.10500569542E+03  0.86243373381E+02  0.16552054896E+03  0.00000000000E+00 0. -1.
<scales pt_clust_3="45.37306" pt_clust_4="95.56858" pt_clust_5="14000.00000" pt_clust_6="129.79870"></scales>
<clustering>
<clus scale="   45.373">  2  3  1 -1</clus>
<clus scale="   95.569">  2  4  1 -1</clus>
<clus scale="  129.799">  1  6  2 -1</clus>
<clus scale="   45.373">  2  3  1 -1</clus>
</clustering>
</event>
<event>
 6    0  0.4017242E+002  0.1094661E+03  0.7546771E-02  0.1261562E+00
          2   -1    0    0  504    0 -0.00000000000E+00  0.00000000000E+00  0.68306079564E+03  0.68306079564E+03  0.00000000000E+00 0. -1.
         21   -1    0    0  505  502  0.00000000000E+00 -0.00000000000E+00 -0.13801130767E+03  0.13801130767E+03  0.00000000000E+00 0. -1.
         21    1    1    2  503  501  0.82770677983E+02  0.43983720164E+02 -0.24867919755E+02  0.96974049138E+02  0.00000000000E+00 0. -1.
         21    1    1    2  504  502  0.13109770212E+02 -0.61374781246E+02  0.70480846352E+02  0.94373087003E+02  0.00000000000E+00 0.  1.
         21    1    1    2  505  503  0.94101966835E+01  0.52580997907E+02 -0.47593691206E+02  0.71543501348E+02  0.00000000000E+00 0. -1.
          2    1    1    2  501    0 -0.10529064488E+03 -0.35189936824E+02  0.54703025258E+03  0.55818146582E+03  0.00000000000E+00 0. -1.
<scales pt_clust_3="14000.00000" pt_clust_4="55.31319" pt_clust_5="53.41641" pt_clust_6="109.46608"></scales>
<clustering>
<clus scale="   53.416">  2  5  1 -1</clus>
<clus scale="   55.313">  2  4  1 -1</clus>
<clus scale="  109.466">  1  6  2 -1</clus>
<clus scale="   53.416">  2  3  1 -1</clus>
</clustering>
</event>
<event>
 6    0  0.4017242E+002  0.1644107E+03  0.7546771E-02  0.1183805E+00
         -3   -1    0    0    0  501 -0.00000000000E+00  0.00000000000E+00  0.62985500522E+03  0.62985500522E+03  0.00000000000E+00 0.  1.
         21   -1    0    0  501  502  0.00000000000E+00 -0.00000000000E+00 -0.29914929868E+03  0.29914929868E+03  0.00000000000E+00 0. -1.
         21    1    1    2  503  504 -0.51120150871E+02 -0.19506351825E+02 -0.41927626457E+02  0.68932528221E+02  0.00000000000E+00 0. -1.
         21    1    1    2  504  502 -0.24651526898E+02 -0.40536303405E+02 -0.12416418417E+03  0.13291965356E+03  0.00000000000E+00 0.  1.
         21    1    1    2  505  503 -0.79128794112E+02  0.10619969494E+02 -0.88792767870E+02  0.11940814644E+03  0.00000000000E+00 0. -1.
         -3    1    1    2    0  505  0.15490047188E+03  0.49422685736E+02  0.58559028503E+03  0.60774397568E+03  0.00000000000E+00 0.  1.
<scales pt_clust_3="30.31125" pt_clust_4="47.44354" pt_clust_5="30.31125" pt_clust_6="160.28180"></scales>
<clustering>
<clus scale="   30.311">  3  5 -1 -1</clus>
<clus scale="   47.444">  2  4  1 -1</clus>
<clus scale="  160.282">  1  6  2 -1</clus>
<clus scale="   47.444">  2  3  1 -1</clus>
</clustering>
</event>
<event>
 6    0  0.4017242E+002  0.1143820E+03  0.7546771E-02  0.1252664E+00
          2   -1    0    0  505    0 -0.00000000000E+00  0.00000000000E+00  0.12363664879E+04  0.12363664879E+04  0.00000000000E+00 0.  1.
         21   -1    0    0  503  502  0.00000000000E+00 -0.00000000000E+00 -0.12495622202E+03  0.12495622202E+03  0.00000000000E+00 0. -1.
         21    1    1    2  503  504  0.84245514337E+02  0.41423587137E+02 -0.58443584916E+02  0.11058423430E+03  0.00000000000E+00 0. -1.
         21    1    1    2  504  501 -0.37331155660E+01 -0.13031712315E+03  0.94104728133E+02  0.16078615797E+03  0.00000000000E+00 0.  1.
         21    1    1    2  505  502  0.12907237408E+02  0.28733063354E+02  0.56689482387E+02  0.64852780360E+02  0.00000000000E+00 0. -1.
          2    1    1    2  501    0 -0.93419636179E+02  0.60160472663E+02  0.10190596402E+04  0.10250995372E+04  0.00000000000E+00 0.  1.
<scales pt_clust_3="94.41783" pt_clust_4="14000.00000" pt_clust_5="31.49898" pt_clust_6="114.38201"></scales>
<clustering>
<clus scale="   31.499">  1  5  2 -1</clus>
<clus scale="   94.418">  2  3  1 -1</clus>
<clus scale="  114.382">  1  6  2 -1</clus>
<clus scale="   94.418">  2  3  1 -1</clus>
</clustering>
</event>
<event>
 6    0  0.4017242E+002  0.2465610E+03  0.7546771E-02  0.1115498E+00
          2   -1    0    0  502    0 -0.00000000000E+00  0.00000000000E+00  0.16726522162E+04  0.16726522162E+04  0.00000000000E+00 0. -1.
         21   -1    0    0  505  502  0.00000000000E+00 -0.00000000000E+00 -0.98143755177E+03  0.98143755177E+03  0.00000000000E+00 0.  1.
         21    1    1    2  503  501 -0.72187008102E+02 -0.18490596121E+03 -0.87714013569E+02  0.21701365581E+03  0.00000000000E+00 0.  1.
         21    1    1    2  504  503 -0.69478052988E+02  0.14579605155E+02 -0.73688229638E+02  0.10232164933E+03  0.00000000000E+00 0.  1.
         21    1    1    2  505  504  0.21338481454E+02 -0.48529611568E+02 -0.73031714125E+03  0.73223874576E+03  0.00000000000E+00 0.  1.
          2    1    1    2  501    0  0.12032657964E+03  0.21885596762E+03  0.15829340489E+04  0.16025157170E+04  0.00000000000E+00 0. -1.
<scales pt_clust_3="14000.00000" pt_clust_4="62.02140" pt_clust_5="53.01372" pt_clust_6="246.56098"></scales>
<clustering>
<clus scale="   53.014">  2  5  1 -1</clus>
<clus scale="   62.021">  2  4  1 -1</clus>
<clus scale="  246.561">  1  6  2 -1</clus>
<clus scale="   53.014">  2  3  1 -1</clus>
</clustering>
</event>
<event>
 6    0  0.4017242E+002  0.2370593E+03  0.7546771E-02  0.1121767E+00
         21   -1    0    0  503  502  0.00000000000E+00  0.00000000000E+00  0.42820937500E+02  0.42820937500E+02  0.00000000000E+00 0.  1.
          1   -1    0    0  505    0 -0.00000000000E+00 -0.00000000000E+00 -0.13078545478E+04  0.13078545478E+04  0.00000000000E+00 0. -1.
         21    1    1    2  503  504 -0.95587009890E+02  0.19953734024E+01 -0.32765226093E+03  0.34131636654E+03  0.00000000000E+00 0. -1.
         21    1    1    2  504  501 -0.60954827692E+02 -0.34825846175E+02 -0.25732204022E+03  0.26672638220E+03  0.00000000000E+00 0.  1.
         21    1    1    2  505  502  0.18140953932E+03  0.97578517563E+02 -0.35658155161E+03  0.41180261169E+03  0.00000000000E+00 0.  1.
          1    1    1    2  501    0 -0.24867701741E+02 -0.64748044791E+02 -0.32347775751E+03  0.33083012484E+03  0.00000000000E+00 0. -1.
<scales pt_clust_3="68.79952" pt_clust_4="37.72158" pt_clust_5="205.98783" pt_clust_6="68.79952"></scales>
<clustering>
<clus scale="   37.722">  3  4 -1 -1</clus>
<clus scale="   68.800">  3  6 -1 -1</clus>
<clus scale="  205.988">  1  5  2 -1</clus>
<clus scale="  205.988">  1  3  2 -1</clus>
</clustering>
</event>
<event>
 6    0  0.4017242E+002  0.1353340E+03  0.7546771E-02  0.1219749E+00
         21   -1    0    0  501  502  0.00000000000E+00  0.00000000000E+00  0.80053240849E+03  0.80053240849E+03  0.00000000000E+00 0. -1.
          2   -1    0    0  505    0 -0.00000000000E+00 -0.00000000000E+00 -0.16923001303E+04  0.16923001303E+04  0.00000000000E+00 0. -1.
         21    1    1    2  503  504  0.15424379812E+02 -0.98151589334E+02  0.58567146741E+03  0.59403932001E+03  0.00000000000E+00 0. -1.
         21    1    1    2  504  502  0.36367584993E+02 -0.21544470522E+02  0.16528649360E+03  0.17060595070E+03  0.00000000000E+00 0. -1.
         21    1    1    2  505  503 -0.22875699166E+02  0.70966980022E+02  0.93441474844E+01  0.75146010925E+02  0.00000000000E+00 0. -1.
          2    1    1    2  501    0 -0.28916265639E+02  0.48729079834E+02 -0.16520698303E+04  0.16530412572E+04  0.00000000000E+00 0. -1.
<scales pt_clust_3="39.86240" pt_clust_4="39.86240" pt_clust_5="120.74902" pt_clust_6="56.66281"></scales>
<clustering>
<clus scale="   39.862">  3  4 -1 -1</clus>
<clus scale="   56.663">  2  6  1 -1</clus>
<clus scale="  120.749">  2  5  1 -1</clus>
<clus scale="  135.334">  1  3  2 -1</clus>
</clustering>
</event>
<event>
 6    0  0.4017242E+002  0.8793030E+02  0.7546771E-02  0.1307943E+00
         21   -1    0    0  504  502  0.00000000000E+00  0.00000000000E+00  0.36360577931E+03  0.36360577931E+03  0.00000000000E+00 0. -1.
          1   -1    0    0  505    0 -0.00000000000E+00 -0.00000000000E+00 -0.80129467102E+03  0.80129467102E+03  0.00000000000E+00 0.  1.
         21    1    1    2  503  501 -0.24184347920E+02 -0.52700849064E+02 -0.46896217719E+02  0.74575581880E+02  0.00000000000E+00 0. -1.
         21    1    1    2  504  503  0.18824678276E+02  0.89157207635E+02  0.32871730675E+03  0.34111353526E+03  0.00000000000E+00 0. -1.
         21    1    1    2  505  502  0.50434897340E+02  0.26956330252E+02 -0.52347866558E+02  0.77528199666E+02  0.00000000000E+00 0. -1.
          1    1    1    2  501    0 -0.45075227695E+02 -0.63412688823E+02 -0.66716211418E+03  0.67168313352E+03  0.00000000000E+00 0.  1.
<scales pt_clust_3="87.93030" pt_clust_4="14000.00000" pt_clust_5="57.18673" pt_clust_6="38.91438"></scales>
<clustering>
<clus scale="   57.187">  2  5  1 -1</clus>
<clus scale="   38.914">  2  6  1 -1</clus>
<clus scale="   87.930">  2  3  1 -1</clus>
<clus scale="   87.930">  1  3  2 -1</clus>
</clustering>
</event>
<event>
 6    0  0.4017242E+002  0.1094969E+03  0.7546771E-02  0.1261504E+00
          2   -1    0    0  504    0 -0.00000000000E+00  0.00000000000E+00  0.74114648403E+03  0.74114648403E+03  0.00000000000E+00 0.  1.
         21   -1    0    0  501  502  0.00000000000E+00 -0.00000000000E+00 -0.17957222598E+03  0.17957222598E+03  0.00000000000E+00 0.  1.
         21    1    1    2  503  502 -0.25732689884E+02  0.91936384888E+02 -0.12221386469E+03  0.15508287757E+03  0.00000000000E+00 0.  1.
         21    1    1    2  504  505  0.54937527331E+02 -0.50338205927E+02  0.37845526449E+02  0.83572428213E+02  0.00000000000E+00 0. -1.
         21    1    1    2  505  503  0.62028949781E+02 -0.47723795533E+01  0.55159612235E+02  0.83144146153E+02  0.00000000000E+00 0. -1.
          2    1    1    2  501    0 -0.91233787228E+02 -0.36825799408E+02  0.59078298405E+03  0.59891925806E+03  0.00000000000E+00 0.  1.
<scales pt_clust_3="95.46973" pt_clust_4="45.00711" pt_clust_5="45.00711" pt_clust_6="97.79291"></scales>
<clustering>
<clus scale="   45.007">  4  5 -1 -1</clus>
<clus scale="   95.470">  2  3  1 -1</clus>
<clus scale="   97.793">  1  6  2 -1</clus>
<clus scale="   95.470">  2  3  1 -1</clus>
</clustering>
</event>
<event>
 6    0  0.4017242E+002  0.1786789E+03  0.7546771E-02  0.1169088E+00
         21   -1    0    0  503  502  0.00000000000E+00  0.00000000000E+00  0.41642736665E+03  0.41642736665E+03  0.00000000000E+00 0. -1.
          1   -1    0    0  505    0 -0.00000000000E+00 -0.00000000000E+00 -0.60816015263E+03  0.60816015263E+03  0.00000000000E+00 0. -1.
         21    1    1    2  503  501  0.55430715982E+02  0.61694311755E+01  0.67649040150E+02  0.87675645356E+02  0.00000000000E+00 0. -1.
         21    1    1    2  504  502  0.51021951904E+02 -0.15499430097E+03  0.25890247473E+03  0.30603425352E+03  0.00000000000E+00 0. -1.
         21    1    1    2  505  504 -0.70244631097E+02  0.17127279550E+03 -0.99945755540E+02  0.21037545657E+03  0.00000000000E+00 0.  1.
          1    1    1    2  501    0 -0.36208036790E+02 -0.22447925700E+02 -0.41833854531E+03  0.42050216384E+03  0.00000000000E+00 0. -1.
<scales pt_clust_3="53.74085" pt_clust_4="14000.00000" pt_clust_5="178.67893" pt_clust_6="42.60201"></scales>
<clustering>
<clus scale="   42.602">  2  6  1 -1</clus>
<clus scale="   53.741">  1  3  2 -1</clus>
<clus scale="  178.679">  2  5  1 -1</clus>
<clus scale="   53.741">  1  3  2 -1</clus>
</clustering>
</event>
<event>
 6    0  0.4017242E+002  0.6620654E+02  0.7546771E-02  0.1373490E+00
         21   -1    0    0  505  502  0.00000000000E+00  0.00000000000E+00  0.48722188543E+03  0.48722188543E+03  0.00000000000E+00 0. -1.
          1   -1    0    0  504    0 -0.00000000000E+00 -0.00000000000E+00 -0.26767722739E+03  0.26767722739E+03  0.00000000000E+00 0.  1.
         21    1    1    2  503  501  0.74977472754E+02  0.83385994514E+02  0.70773555740E+02  0.13260370166E+03  0.00000000000E+00 0.  1.
         21    1    1    2  504  502  0.26377431166E+02 -0.61897998332E+02  0.26418966954E+03  0.27262302281E+03  0.00000000000E+00 0. -1.
         21    1    1    2  505  503 -0.44642303270E+02  0.90755893319E+01  0.10796599335E+03  0.11718343434E+03  0.00000000000E+00 0.  1.
          1    1    1    2  501    0 -0.56712600650E+02 -0.30563585513E+02 -0.22338456059E+03  0.23248895402E+03  0.00000000000E+00 0.  1.
<scales pt_clust_3="14000.00000" pt_clust_4="55.67890" pt_clust_5="45.55548" pt_clust_6="66.20654"></scales>
<clustering>
<clus scale="   45.555">  1  5  2 -1</clus>
<clus scale="   55.679">  1  4  2 -1</clus>
<clus scale="   66.207">  2  6  1 -1</clus>
<clus scale="   45.555">  1  3  2 -1</clus>
</clustering>
</event>
<event>
 6    0  0.4017242E+002  0.3117793E+03  0.7546771E-02  0.1079496E+00
          4   -1    0    0  504    0 -0.00000000000E+00  0.00000000000E+00  0.21335665506E+04  0.21335665506E+04  0.00000000000E+00 0. -1.
         21   -1    0    0  501  502  0.00000000000E+00 -0.00000000000E+00 -0.19566039286E+03  0.19566039286E+03  0.00000000000E+00 0.  1.
         21    1    1    2  503  505  0.14398699470E+03  0.20794193693E+02  0.22395034991E+03  0.26705507364E+03  0.00000000000E+00 0. -1.
         21    1    1    2  504  503  0.17644809462E+03  0.31529959414E+02  0.55902086632E+03  0.58705399872E+03  0.00000000000E+00 0. -1.
         21    1    1    2  505  502 -0.28373212553E+03 -0.52735727988E+02 -0.29517363920E+02  0.29009696799E+03  0.00000000000E+00 0.  1.
          4    1    1    2  501    0 -0.36702963787E+02  0.41157488139E+00  0.11844523054E+04  0.11850209031E+04  0.00000000000E+00 0. -1.
<scales pt_clust_3="97.67656" pt_clust_4="97.67656" pt_clust_5="293.53772" pt_clust_6="36.70527"></scales>
<clustering>
<clus scale="   36.705">  1  6  2 -1</clus>
<clus scale="   97.677">  3  4 -1 -1</clus>
<clus scale="  293.538">  2  5  1 -1</clus>
<clus scale="  293.538">  2  3  1 -1</clus>
</clustering>
</event>
<event>
 6    0  0.4017242E+002  0.1709281E+03  0.7546771E-02  0.1176883E+00
          2   -1    0    0  502    0 -0.00000000000E+00  0.00000000000E+00  0.35785418164E+04  0.35785418164E+04  0.00000000000E+00 0.  1.
         21   -1    0    0  503  502  0.00000000000E+00 -0.00000000000E+00 -0.79143862781E+02  0.79143862781E+02  0.00000000000E+00 0. -1.
         21    1    1    2  503  505 -0.32048483512E+02 -0.10398371811E+02  0.84262696141E+01  0.34730871733E+02  0.00000000000E+00 0. -1.
         21    1    1    2  504  501  0.12988549750E+02 -0.17366867988E+03  0.98058651772E+02  0.19986248268E+03  0.00000000000E+00 0. -1.
         21    1    1    2  505  504  0.34987679429E+02  0.14018738384E+02  0.14530729945E+02  0.40395604346E+02  0.00000000000E+00 0.  1.
          2    1    1    2  501    0 -0.15927745668E+02  0.17004831331E+03  0.33783823023E+04  0.33826967204E+04  0.00000000000E+00 0.  1.
<scales pt_clust_3="33.69320" pt_clust_4="170.92809" pt_clust_5="31.10693" pt_clust_6="14000.00000"></scales>
<clustering>
<clus scale="   33.693">  2  3  1 -1</clus>
<clus scale="   31.107">  2  5  1 -1</clus>
<clus scale="  170.928">  2  4  1 -1</clus>
<clus scale="   33.693">  2  3  1 -1</clus>
</clustering>
</event>
<event>
 6    0  0.4017242E+002  0.9662162E+02  0.7546771E-02  0.1287565E+00
         21   -1    0    0  503  502  0.00000000000E+00  0.00000000000E+00  0.89644866142E+02  0.89644866142E+02  0.00000000000E+00 0.  1.
          2   -1    0    0  505    0 -0.00000000000E+00 -0.00000000000E+00 -0.25296935090E+04  0.25296935090E+04  0.00000000000E+00 0.  1.
         21    1    1    2  503  501  0.40628050081E+02 -0.78441066610E+02 -0.10000299233E+03  0.13343252175E+03  0.00000000000E+00 0.  1.
         21    1    1    2  504  502 -0.22085666139E+01  0.10287622771E+03  0.53613007132E+01  0.10303950475E+03  0.00000000000E+00 0.  1.
         21    1    1    2  505  504 -0.70634518084E+02 -0.55100846603E+00 -0.48672944053E+02  0.85782248968E+02  0.00000000000E+00 0.  1.
          2    1    1    2  501    0  0.32215034617E+02 -0.23884152636E+02 -0.22967340072E+04  0.22970840997E+04  0.00000000000E+00 0.  1.
<scales pt_clust_3="96.62162" pt_clust_4="14000.00000" pt_clust_5="61.78156" pt_clust_6="40.10313"></scales>
<clustering>
<clus scale="   40.103">  2  6  1 -1</clus>
<clus scale="   61.782">  2  5  1 -1</clus>
<clus scale="   96.622">  2  3  1 -1</clus>
<clus scale="   96.622">  1  3  2 -1</clus>
</clustering>
</event>
<event>
 6    0  0.4017242E+002  0.1147364E+03  0.7546771E-02  0.1252042E+00
         21   -1    0    0  505  502  0.00000000000E+00  0.00000000000E+00  0.16387353712E+02  0.16387353712E+02  0.00000000000E+00 0. -1.
          1   -1    0    0  503    0 -0.00000000000E+00 -0.00000000000E+00 -0.27634427036E+04  0.27634427036E+04  0.00000000000E+00 0. -1.
         21    1    1    2  503  502  0.12548793196E+02 -0.54977235584E+02 -0.24885562827E+03  0.25516483372E+03  0.00000000000E+00 0. -1.
         21    1    1    2  504  501  0.37747344975E+02  0.17142597691E+02 -0.51648180222E+03  0.51814301378E+03  0.00000000000E+00 0. -1.
         21    1    1    2  505  504 -0.11672403025E+03  0.34794006291E+02 -0.30407328470E+03  0.32756019994E+03  0.00000000000E+00 0. -1.
          1    1    1    2  501    0  0.66427892082E+02  0.30406316019E+01 -0.16776446347E+04  0.16789620099E+04  0.00000000000E+00 0. -1.
<scales pt_clust_3="56.39121" pt_clust_4="33.68324" pt_clust_5="106.51109" pt_clust_6="33.68324"></scales>
<clustering>
<clus scale="   33.683">  4  6 -1 -1</clus>
<clus scale="   56.391">  1  3  2 -1</clus>
<clus scale="  106.511">  1  5  2 -1</clus>
<clus scale="   56.391">  1  3  2 -1</clus>
</clustering>
</event>
<event>
 6    0  0.4017242E+002  0.1047411E+03  0.7546771E-02  0.1270630E+00
          2   -1    0    0  505    0 -0.00000000000E+00  0.00000000000E+00  0.17281419022E+04  0.17281419022E+04  0.00000000000E+00 0. -1.
         21   -1    0    0  501  502  0.00000000000E+00 -0.00000000000E+00 -0.15592752998E+02  0.15592752998E+02  0.00000000000E+00 0. -1.
         21    1    1    2  503  502  0.70702373399E+02  0.53911367781E+02  0.17496466689E+03  0.19625976623E+03  0.00000000000E+00 0. -1.
         21    1    1    2  504  503 -0.44086730666E+02 -0.51705836811E+02  0.44079882528E+03  0.44600531135E+03  0.00000000000E+00 0. -1.
         21    1    1    2  505  504 -0.55410365489E+02 -0.28292118096E+02  0.72179915867E+03  0.72447551926E+03  0.00000000000E+00 0. -1.
          2    1    1    2  501    0  0.28794722756E+02  0.26086587126E+02  0.37498649840E+03  0.37699405840E+03  0.00000000000E+00 0. -1.
<scales pt_clust_3="94.22710" pt_clust_4="40.08451" pt_clust_5="40.08451" pt_clust_6="38.85416"></scales>
<clustering>
<clus scale="   38.854">  1  6  2 -1</clus>
<clus scale="   40.085">  4  5 -1 -1</clus>
<clus scale="   94.227">  2  3  1 -1</clus>
<clus scale="   94.227">  2  3  1 -1</clus>
</clustering>
</event>
<event>
 6    0  0.4017242E+002  0.1172998E+03  0.7546771E-02  0.1247619E+00
         21   -1    0    0  503  502  0.00000000000E+00  0.00000000000E+00  0.20115800934E+03  0.20115800934E+03  0.00000000000E+00 0. -1.
          2   -1    0    0  505    0 -0.00000000000E+00 -0.00000000000E+00 -0.10006256351E+04  0.10006256351E+04  0.00000000000E+00 0. -1.
         21    1    1    2  503  501  0.11329564275E+03 -0.52203019267E+02 -0.16583419188E+03  0.20751394431E+03  0.00000000000E+00 0. -1.
         21    1    1    2  504  502 -0.11085425688E+03 -0.47680168330E+02  0.15344284536E+03  0.19520955795E+03  0.00000000000E+00 0. -1.
         21    1    1    2  505  504 -0.28503595424E+02  0.68851417542E+02 -0.26111666849E+03  0.27154168596E+03  0.00000000000E+00 0. -1.
          2    1    1    2  501    0  0.26062209554E+02  0.31031770055E+02 -0.52595961077E+03  0.52751845624E+03  0.00000000000E+00 0. -1.
<scales pt_clust_3="117.29977" pt_clust_4="14000.00000" pt_clust_5="87.39701" pt_clust_6="40.52418"></scales>
<clustering>
<clus scale="   40.524">  2  6  1 -1</clus>
<clus scale="   87.397">  2  5  1 -1</clus>
<clus scale="  117.300">  2  3  1 -1</clus>
<clus scale="  117.300">  1  3  2 -1</clus>
</clustering>
</event>
<event>
 6    0  0.4017242E+002  0.1947948E+03  0.7546771E-02  0.1154206E+00
         21   -1    0    0  501  502  0.00000000000E+00  0.00000000000E+00  0.91897295786E+02  0.91897295786E+02  0.00000000000E+00 0. -1.
         -4   -1    0    0    0  501 -0.00000000000E+00 -0.00000000000E+00 -0.84616022503E+03  0.84616022503E+03  0.00000000000E+00 0. -1.
         21    1    1    2  503  504 -0.85762193645E+02  0.49965439892E+02 -0.49695904492E+02  0.11100172055E+03  0.00000000000E+00 0. -1.
         21    1    1    2  504  502  0.48074129931E+01  0.40245104063E+02 -0.15195171903E+02  0.43285943098E+02  0.00000000000E+00 0. -1.
         21    1    1    2  505  503 -0.83980604517E+02  0.84454343013E+01 -0.19167037097E+02  0.86553120144E+02  0.00000000000E+00 0. -1.
         -4    1    1    2    0  505  0.16493538517E+03 -0.98655978256E+02 -0.67020481575E+03  0.69721673702E+03  0.00000000000E+00 0. -1.
<scales pt_clust_3="40.75169" pt_clust_4="40.53122" pt_clust_5="40.75169" pt_clust_6="189.42977"></scales>
<clustering>
<clus scale="   40.531">  1  4  2 -1</clus>
<clus scale="   40.752">  3  5 -1 -1</clus>
<clus scale="  189.430">  2  6  1 -1</clus>
<clus scale="   40.531">  1  3  2 -1</clus>
</clustering>
</event>
<event>
 6    0  0.4017242E+002  0.1344580E+03  0.7546771E-02  0.1220987E+00
          2   -1    0    0  505    0 -0.00000000000E+00  0.00000000000E+00  0.88332178950E+03  0.88332178950E+03  0.00000000000E+00 0.  1.
         21   -1    0    0  501  502  0.00000000000E+00 -0.00000000000E+00 -0.16744594249E+04  0.16744594249E+04  0.00000000000E+00 0. -1.
         21    1    1    2  503  502  0.32687199727E+02 -0.75697564396E+02 -0.15530151976E+04  0.15552024878E+04  0.00000000000E+00 0. -1.
         21    1    1    2  504  503 -0.58897865469E+02  0.71230224599E+02  0.25109126495E+02  0.95776676109E+02  0.00000000000E+00 0. -1.
         21    1    1    2  505  504 -0.50210418824E+02  0.77273375039E+02 -0.55472078794E+02  0.10756120199E+03  0.00000000000E+00 0. -1.
          2    1    1    2  501    0  0.76421084566E+02 -0.72806035242E+02  0.79224051452E+03  0.79924084841E+03  0.00000000000E+00 0.  1.
<scales pt_clust_3="82.45347" pt_clust_4="80.29525" pt_clust_5="80.29525" pt_clust_6="107.76139"></scales>
<clustering>
<clus scale="   80.295">  4  5 -1 -1</clus>
<clus scale="   82.453">  2  3  1 -1</clus>
<clus scale="  107.761">  1  6  2 -1</clus>
<clus scale="   82.453">  2  3  1 -1</clus>
</clustering>
</event>
<event>
 6    0  0.4017242E+002  0.2106856E+03  0.7546771E-02  0.1141024E+00
         21   -1    0    0  503  502  0.00000000000E+00  0.00000000000E+00  0.32749108699E+04  0.32749108699E+04  0.00000000000E+00 0. -1.
          1   -1    0    0  504    0 -0.00000000000E+00 -0.00000000000E+00 -0.12087370222E+03  0.12087370222E+03  0.00000000000E+00 0. -1.
         21    1    1    2  503  501 -0.43203684721E+02  0.63826279852E+01  0.17148480409E+03  0.17695856675E+03  0.00000000000E+00 0. -1.
         21    1    1    2  504  505  0.23647230212E+03  0.11902988168E+03  0.13316467476E+04  0.13577077457E+04  0.00000000000E+00 0. -1.
         21    1    1    2  505  502 -0.14858002948E+03 -0.80336237246E+02  0.17419564782E+04  0.17501263692E+04  0.00000000000E+00 0. -1.
          1    1    1    2  501    0 -0.44688587925E+02 -0.45076272423E+02 -0.91050862237E+02  0.11099189043E+03  0.00000000000E+00 0. -1.
<scales pt_clust_3="43.67260" pt_clust_4="210.68564" pt_clust_5="14000.00000" pt_clust_6="63.55727"></scales>
<clustering>
<clus scale="   43.673">  1  3  2 -1</clus>
<clus scale="   63.557">  2  6  1 -1</clus>
<clus scale="  210.686">  2  4  1 -1</clus>
<clus scale="   43.673">  1  3  2 -1</clus>
</clustering>
</event>
<event>
 6    0  0.4017242E+002  0.3069589E+03  0.7546771E-02  0.1081813E+00
         21   -1    0    0  501  502  0.00000000000E+00  0.00000000000E+00  0.53852548843E+02  0.53852548843E+02  0.00000000000E+00 0. -1.
          2   -1    0    0  505    0 -0.00000000000E+00 -0.00000000000E+00 -0.35679587302E+04  0.35679587302E+04  0.00000000000E+00 0.  1.
         21    1    1    2  503  502  0.44796329112E+02 -0.23463282524E+02 -0.69356503126E+01  0.51042531030E+02  0.00000000000E+00 0. -1.
         21    1    1    2  504  503  0.25960126293E+03 -0.92416590499E+02 -0.11890034496E+04  0.12205174498E+04  0.00000000000E+00 0. -1.
         21    1    1    2  505  504 -0.35920047300E+01 -0.42037939241E+02 -0.40112262977E+03  0.40333541246E+03  0.00000000000E+00 0.  1.
          2    1    1    2  501    0 -0.30080558731E+03  0.15791781226E+03 -0.19170444516E+04  0.19469158858E+04  0.00000000000E+00 0.  1.
<scales pt_clust_3="50.71985" pt_clust_4="306.95890" pt_clust_5="42.19112" pt_clust_6="14000.00000"></scales>
<clustering>
<clus scale="   42.191">  2  5  1 -1</clus>
<clus scale="   50.720">  1  3  2 -1</clus>
<clus scale="  306.959">  1  4  2 -1</clus>
<clus scale="   50.720">  1  3  2 -1</clus>
</clustering>
</event>
<event>
 6    0  0.4017242E+002  0.1286542E+03  0.7546771E-02  0.1229466E+00
         21   -1    0    0  504  502  0.00000000000E+00  0.00000000000E+00  0.30813746489E+03  0.30813746489E+03  0.00000000000E+00 0.  1.
          2   -1    0    0  505    0 -0.00000000000E+00 -0.00000000000E+00 -0.22376129343E+04  0.22376129343E+04  0.00000000000E+00 0. -1.
         21    1    1    2  503  502  0.69056002726E+02  0.28002866894E+02  0.83448829102E+02  0.11187760788E+03  0.00000000000E+00 0.  1.
         21    1    1    2  504  501  0.29879319698E+02 -0.47602620388E+02  0.12146500288E+03  0.13383770074E+03  0.00000000000E+00 0.  1.
         21    1    1    2  505  503  0.19529575854E+02  0.41023956094E+02  0.74826992181E+02  0.87541122140E+02  0.00000000000E+00 0.  1.
          2    1    1    2  501    0 -0.11846489828E+03 -0.21424202601E+02 -0.22092162935E+04  0.22124939684E+04  0.00000000000E+00 0. -1.
<scales pt_clust_3="35.82120" pt_clust_4="56.20305" pt_clust_5="35.82120" pt_clust_6="120.19746"></scales>
<clustering>
<clus scale="   35.821">  3  5 -1 -1</clus>
<clus scale="   56.203">  1  4  2 -1</clus>
<clus scale="  120.197">  2  6  1 -1</clus>
<clus scale="   56.203">  1  3  2 -1</clus>
</clustering>
</event>
<event>
 6    0  0.4017242E+002  0.1483437E+03  0.7546771E-02  0.1202523E+00
         21   -1    0    0  504  502  0.00000000000E+00  0.00000000000E+00  0.69062824019E+03  0.69062824019E+03  0.00000000000E+00 0.  1.
          2   -1    0    0  505    0 -0.00000000000E+00 -0.00000000000E+00 -0.10370294163E+04  0.10370294163E+04  0.00000000000E+00 0. -1.
         21    1    1    2  503  502 -0.22045732692E+02 -0.37108561552E+02  0.55373607085E+02  0.70208945527E+02  0.00000000000E+00 0.  1.
         21    1    1    2  504  501 -0.11830093070E+03  0.11427233113E+03  0.56985364756E+03  0.59311588708E+03  0.00000000000E+00 0.  1.
         21    1    1    2  505  503  0.11748082908E+03  0.15622656660E+02 -0.36035861163E+02  0.12387249853E+03  0.00000000000E+00 0.  1.
          2    1    1    2  501    0  0.22865834315E+02 -0.92786426240E+02 -0.93559256963E+03  0.94046032539E+03  0.00000000000E+00 0. -1.
<scales pt_clust_3="43.16317" pt_clust_4="14000.00000" pt_clust_5="148.34370" pt_clust_6="95.68167"></scales>
<clustering>
<clus scale="   43.163">  1  3  2 -1</clus>
<clus scale="   95.682">  2  6  1 -1</clus>
<clus scale="  148.344">  2  5  1 -1</clus>
<clus scale="   43.163">  1  3  2 -1</clus>
</clustering>
</event>
<event>
 6    0  0.4017242E+002  0.8192609E+02  0.7546771E-02  0.1323673E+00
         -3   -1    0    0    0  501 -0.00000000000E+00  0.00000000000E+00  0.14379199113E+04  0.14379199113E+04  0.00000000000E+00 0.  1.
         21   -1    0    0  504  502  0.00000000000E+00 -0.00000000000E+00 -0.14353041229E+04  0.14353041229E+04  0.00000000000E+00 0.  1.
         21    1    1    2  503  502 -0.25231069768E+02 -0.10649711210E+03  0.26945762878E+03  0.29083613165E+03  0.00000000000E+00 0. -1.
         21    1    1    2  504  505  0.33304635984E+02  0.74732034596E+02 -0.14065105278E+04  0.14088881931E+04  0.00000000000E+00 0.  1.
         21    1    1    2  505  501  0.15005885484E+02 -0.33269072803E+02  0.51197481696E+01  0.36854031335E+02  0.00000000000E+00 0. -1.
         -3    1    1    2    0  503 -0.23079451701E+02  0.65034150306E+02  0.11345489393E+04  0.11366456780E+04  0.00000000000E+00 0.  1.
<scales pt_clust_3="81.92609" pt_clust_4="14000.00000" pt_clust_5="36.49668" pt_clust_6="39.93098"></scales>
<clustering>
<clus scale="   36.497">  1  5  2 -1</clus>
<clus scale="   39.931">  1  6  2 -1</clus>
<clus scale="   81.926">  1  3  2 -1</clus>
<clus scale="   81.926">  2  3  1 -1</clus>
</clustering>
</event>
<event>
 6    0  0.4017242E+002  0.2244191E+03  0.7546771E-02  0.1130631E+00
         21   -1    0    0  505  502  0.00000000000E+00  0.00000000000E+00  0.24733587807E+04  0.24733587807E+04  0.00000000000E+00 0.  1.
          3   -1    0    0  504    0 -0.00000000000E+00 -0.00000000000E+00 -0.13763957198E+03  0.13763957198E+03  0.00000000000E+00 0.  1.
         21    1    1    2  503  501 -0.36694057977E+02  0.29404124109E+02  0.34900831962E+02  0.58558726737E+02  0.00000000000E+00 0.  1.
         21    1    1    2  504  502  0.21965637638E+02  0.17812129947E+03  0.32391690792E+03  0.37031317800E+03  0.00000000000E+00 0. -1.
         21    1    1    2  505  503 -0.11945420237E+02 -0.23742217973E+03  0.20685173434E+04  0.20821325569E+04  0.00000000000E+00 0.  1.
          3    1    1    2  501    0  0.26673840577E+02  0.29896756151E+02 -0.91615874509E+02  0.99993891121E+02  0.00000000000E+00 0.  1.
<scales pt_clust_3="47.78105" pt_clust_4="224.41908" pt_clust_5="14000.00000" pt_clust_6="40.06632"></scales>
<clustering>
<clus scale="   40.066">  2  6  1 -1</clus>
<clus scale="   47.781">  2  3  1 -1</clus>
<clus scale="  224.419">  2  4  1 -1</clus>
<clus scale="  224.419">  1  3  2 -1</clus>
</clustering>
</event>
<event>
 6    0  0.4017242E+002  0.2157107E+03  0.7546771E-02  0.1137122E+00
         21   -1    0    0  503  502  0.00000000000E+00  0.00000000000E+00  0.95765390533E+03  0.95765390533E+03  0.00000000000E+00 0.  1.
          2   -1    0    0  504    0 -0.00000000000E+00 -0.00000000000E+00 -0.11375790644E+03  0.11375790644E+03  0.00000000000E+00 0.  1.
         21    1    1    2  503  501  0.64640527888E+02 -0.57871978022E+02  0.34450345327E+03  0.35526073946E+03  0.00000000000E+00 0. -1.
         21    1    1    2  504  505 -0.56620344681E+01  0.68352089152E+02  0.77073529413E+02  0.10317168052E+03  0.00000000000E+00 0. -1.
         21    1    1    2  505  502 -0.16879435901E+03  0.11808065548E+03  0.38968285861E+03  0.44078033886E+03  0.00000000000E+00 0.  1.
          2    1    1    2  501    0  0.10981586559E+03 -0.12856076661E+03  0.32636157597E+02  0.17219905293E+03  0.00000000000E+00 0.  1.
<scales pt_clust_3="86.76153" pt_clust_4="65.35863" pt_clust_5="65.35863" pt_clust_6="183.57847"></scales>
<clustering>
<clus scale="   65.359">  4  5 -1 -1</clus>
<clus scale="   86.762">  1  3  2 -1</clus>
<clus scale="  183.578">  2  6  1 -1</clus>
<clus scale="   86.762">  1  3  2 -1</clus>
</clustering>
</event>
<event>
 6    0  0.4017242E+002  0.1038771E+03  0.7546771E-02  0.1272348E+00
         21   -1    0    0  505  502  0.00000000000E+00  0.00000000000E+00  0.30364167068E+04  0.30364167068E+04  0.00000000000E+00 0. -1.
          2   -1    0    0  504    0 -0.00000000000E+00 -0.00000000000E+00 -0.63458802582E+03  0.63458802582E+03  0.00000000000E+00 0. -1.
         21    1    1    2  503  502 -0.11285418634E+03 -0.81128894274E+02  0.15512688360E+04  0.15574828944E+04  0.00000000000E+00 0. -1.
         21    1    1    2  504  503  0.33882693151E+02  0.86142187014E+01 -0.46677787413E+01  0.35270806872E+02  0.00000000000E+00 0. -1.
         21    1    1    2  505  501  0.89432115337E+01  0.77988549632E+02  0.14636669802E+04  0.14657705223E+04  0.00000000000E+00 0. -1.
          2    1    1    2  501    0  0.70028281658E+02 -0.54738740596E+01 -0.60843935648E+03  0.61248050911E+03  0.00000000000E+00 0. -1.
<scales pt_clust_3="103.87711" pt_clust_4="34.96057" pt_clust_5="78.52092" pt_clust_6="14000.00000"></scales>
<clustering>
<clus scale="   34.961">  2  4  1 -1</clus>
<clus scale="   78.521">  1  5  2 -1</clus>
<clus scale="  103.877">  1  3  2 -1</clus>
<clus scale="   78.521">  1  3  2 -1</clus>
</clustering>
</event>
<event>
 6    0  0.4017242E+002  0.9884994E+02  0.7546771E-02  0.1282733E+00
         21   -1    0    0  505  502  0.00000000000E+00  0.00000000000E+00  0.50144422545E+02  0.50144422545E+02  0.00000000000E+00 0. -1.
          4   -1    0    0  504    0 -0.00000000000E+00 -0.00000000000E+00 -0.26577602935E+04  0.26577602935E+04  0.00000000000E+00 0. -1.
         21    1    1    2  503  502  0.70588311980E+02 -0.45224566793E+02 -0.42464916498E+03  0.43284510457E+03  0.00000000000E+00 0. -1.
         21    1    1    2  504  503 -0.12963872283E+03 -0.23033668399E+02 -0.50711709191E+03  0.52393176392E+03  0.00000000000E+00 0. -1.
         21    1    1    2  505  501  0.16967155212E+02  0.78212447293E+02 -0.55020577241E+01  0.80220595278E+02  0.00000000000E+00 0. -1.
          4    1    1    2  501    0  0.42083255642E+02 -0.99542121014E+01 -0.16703475563E+04  0.16709072523E+04  0.00000000000E+00 0. -1.
<scales pt_clust_3="14000.00000" pt_clust_4="98.84994" pt_clust_5="80.01872" pt_clust_6="43.24450"></scales>
<clustering>
<clus scale="   43.244">  2  6  1 -1</clus>
<clus scale="   80.019">  1  5  2 -1</clus>
<clus scale="   98.850">  2  4  1 -1</clus>
<clus scale="   80.019">  1  3  2 -1</clus>
</clustering>
</event>
<event>
 6    0  0.4017242E+002  0.8723730E+02  0.7546771E-02  0.1309683E+00
         -2   -1    0    0    0  501 -0.00000000000E+00  0.00000000000E+00  0.56729972856E+02  0.56729972856E+02  0.00000000000E+00 0.  1.
         21   -1    0    0  504  502  0.00000000000E+00 -0.00000000000E+00 -0.62900185671E+03  0.62900185671E+03  0.00000000000E+00 0.  1.
         21    1    1    2  503  502  0.61251481233E+02  0.62975098756E+02 -0.13148459769E+03  0.15813224353E+03  0.00000000000E+00 0.  1.
         21    1    1    2  504  505 -0.30664805971E+02 -0.45420979452E+01 -0.16665762185E+03  0.16951614643E+03  0.00000000000E+00 0.  1.
         21    1    1    2  505  501  0.51120392590E+02 -0.90327578283E+02 -0.24430833073E+03  0.26544100362E+03  0.00000000000E+00 0.  1.
         -2    1    1    2    0  503 -0.81707067851E+02  0.31894577472E+02 -0.29821333590E+02  0.92642435989E+02  0.00000000000E+00 0.  1.
<scales pt_clust_3="80.32755" pt_clust_4="30.99937" pt_clust_5="14000.00000" pt_clust_6="87.23730"></scales>
<clustering>
<clus scale="   30.999">  2  4  1 -1</clus>
<clus scale="   80.328">  2  3  1 -1</clus>
<clus scale="   87.237">  1  6  2 -1</clus>
<clus scale="   30.999">  2  3  1 -1</clus>
</clustering>
</event>
<event>
 6    0  0.4017242E+002  0.1413081E+03  0.7546771E-02  0.1211580E+00
          2   -1    0    0  505    0 -0.00000000000E+00  0.00000000000E+00  0.33235833572E+04  0.33235833572E+04  0.00000000000E+00 0.  1.
         21   -1    0    0  501  502  0.00000000000E+00 -0.00000000000E+00 -0.42267859365E+02  0.42267859365E+02  0.00000000000E+00 0.  1.
         21    1    1    2  503  502  0.61262577958E+01 -0.42241853501E+02 -0.28385084893E+01  0.42778059239E+02  0.00000000000E+00 0.  1.
         21    1    1    2  504  503  0.10757923779E+03  0.15195474830E+03  0.51919036622E+03  0.55156339102E+03  0.00000000000E+00 0.  1.
         21    1    1    2  505  504 -0.78022544284E+02 -0.55200433691E+02  0.83589941009E+03  0.84134560621E+03  0.00000000000E+00 0.  1.
          2    1    1    2  501    0 -0.35682951298E+02 -0.54512461105E+02  0.19290642300E+04  0.19301641601E+04  0.00000000000E+00 0.  1.
<scales pt_clust_3="42.68378" pt_clust_4="141.30812" pt_clust_5="14000.00000" pt_clust_6="66.06162"></scales>
<clustering>
<clus scale="   42.684">  2  3  1 -1</clus>
<clus scale="   66.062">  1  6  2 -1</clus>
<clus scale="  141.308">  2  4  1 -1</clus>
<clus scale="   42.684">  2  3  1 -1</clus>
</clustering>
</event>
<event>
 6    0  0.4017242E+002  0.7831111E+02  0.7546771E-02  0.1333914E+00
         21   -1    0    0  504  502  0.00000000000E+00  0.00000000000E+00  0.87254903456E+03  0.87254903456E+03  0.00000000000E+00 0.  1.
          1   -1    0    0  505    0 -0.00000000000E+00 -0.00000000000E+00 -0.31701600789E+03  0.31701600789E+03  0.00000000000E+00 0.  1.
         21    1    1    2  503  502  0.73210298536E+01 -0.60683319774E+02  0.81163215800E+03  0.81393047779E+03  0.00000000000E+00 0.  1.
         21    1    1    2  504  501  0.32322051496E+02 -0.40194240705E+01  0.22065038466E+02  0.39341284998E+02  0.00000000000E+00 0. -1.
         21    1    1    2  505  503 -0.69636067858E+02  0.96292672388E+02 -0.10778573246E+03  0.16043448764E+03  0.00000000000E+00 0.  1.
          1    1    1    2  501    0  0.29992986509E+02 -0.31589928544E+02 -0.17037843733E+03  0.17585879202E+03  0.00000000000E+00 0.  1.
<scales pt_clust_3="14000.00000" pt_clust_4="32.57101" pt_clust_5="78.31111" pt_clust_6="43.64231"></scales>
<clustering>
<clus scale="   32.571">  1  4  2 -1</clus>
<clus scale="   43.642">  2  6  1 -1</clus>
<clus scale="   78.311">  2  5  1 -1</clus>
<clus scale="   32.571">  1  3  2 -1</clus>
</clustering>
</event>
<event>
 6    0  0.4837280E+002  0.1558182E+03  0.7546771E-02  0.1193501E+00
          2   -1    0    0  503    0 -0.00000000000E+00  0.00000000000E+00  0.10866980019E+04  0.10866980019E+04  0.00000000000E+00 0. -1.
         21   -1    0    0  505  502  0.00000000000E+00 -0.00000000000E+00 -0.78344603560E+03  0.78344603560E+03  0.00000000000E+00 0. -1.
         21    1    1    2  503  502 -0.12444445627E+02 -0.55959055236E+02 -0.66379208395E+01  0.57709116116E+02  0.00000000000E+00 0.  1.
         21    1    1    2  504  501 -0.74234226983E+02  0.77575596423E+02 -0.66250747781E+03  0.67115188428E+03  0.00000000000E+00 0. -1.
         21    1    1    2  505  504 -0.62293544938E+02  0.25873197835E+02 -0.64103705725E+02  0.93054785985E+02  0.00000000000E+00 0. -1.
          2    1    1    2  501    0  0.14897221755E+03 -0.47489739022E+02  0.10365010706E+04  0.10482282511E+04  0.00000000000E+00 0. -1.
<scales pt_clust_3="57.32609" pt_clust_4="14000.00000" pt_clust_5="66.67198" pt_clust_6="155.81816"></scales>
<clustering>
<clus scale="   57.326">  2  3  1 -1</clus>
<clus scale="   66.672">  2  5  1 -1</clus>
<clus scale="  155.818">  1  6  2 -1</clus>
<clus scale="   57.326">  2  3  1 -1</clus>
</clustering>
</event>
<event>
 6    0  0.4017242E+002  0.3625921E+03  0.7546771E-02  0.1057562E+00
          1   -1    0    0  503    0 -0.00000000000E+00  0.00000000000E+00  0.17827315839E+04  0.17827315839E+04  0.00000000000E+00 0. -1.
         21   -1    0    0  505  502  0.00000000000E+00 -0.00000000000E+00 -0.28153371401E+03  0.28153371401E+03  0.00000000000E+00 0. -1.
         21    1    1    2  503  504 -0.10968932270E+03  0.40549228638E+03  0.11311005066E+03  0.43502830412E+03  0.00000000000E+00 0. -1.
         21    1    1    2  504  502 -0.38550163111E+02 -0.34561395124E+02 -0.71355906700E+02  0.88160481678E+02  0.00000000000E+00 0. -1.
         21    1    1    2  505  501 -0.28683415243E+01 -0.48984110774E+02  0.11908751821E+02  0.50492463412E+02  0.00000000000E+00 0. -1.
          1    1    1    2  501    0  0.15110782734E+03 -0.32194678048E+03  0.14475349742E+04  0.14905840487E+04  0.00000000000E+00 0. -1.
<scales pt_clust_3="362.59213" pt_clust_4="63.24848" pt_clust_5="49.06802" pt_clust_6="14000.00000"></scales>
<clustering>
<clus scale="   49.068">  2  5  1 -1</clus>
<clus scale="   63.248">  2  4  1 -1</clus>
<clus scale="  362.592">  2  3  1 -1</clus>
<clus scale="   49.068">  2  3  1 -1</clus>
</clustering>
</event>
<event>
 6    0  0.4017242E+002  0.1007263E+03  0.7546771E-02  0.1278776E+00
          2   -1    0    0  502    0 -0.00000000000E+00  0.00000000000E+00  0.14774983660E+04  0.14774983660E+04  0.00000000000E+00 0. -1.
         21   -1    0    0  503  502  0.00000000000E+00 -0.00000000000E+00 -0.18104473194E+03  0.18104473194E+03  0.00000000000E+00 0.  1.
         21    1    1    2  503  505 -0.19271044502E+02  0.24732453695E+02 -0.69814014963E+02  0.76531458285E+02  0.00000000000E+00 0.  1.
         21    1    1    2  504  501 -0.30002820486E+02 -0.89046250154E+02 -0.30528606287E+02  0.98799796080E+02  0.00000000000E+00 0.  1.
         21    1    1    2  505  504  0.31273596159E+02 -0.35008098675E+02 -0.28122820040E+02  0.54722004684E+02  0.00000000000E+00 0.  1.
          2    1    1    2  501    0  0.18000268829E+02  0.99321895134E+02  0.14249190754E+04  0.14284898389E+04  0.00000000000E+00 0. -1.
<scales pt_clust_3="31.35391" pt_clust_4="100.72634" pt_clust_5="34.93932" pt_clust_6="14000.00000"></scales>
<clustering>
<clus scale="   31.354">  2  3  1 -1</clus>
<clus scale="   34.939">  2  5  1 -1</clus>
<clus scale="  100.726">  2  4  1 -1</clus>
<clus scale="   31.354">  2  3  1 -1</clus>
</clustering>
</event>
<event>
 6    0  0.4017242E+002  0.1011566E+03  0.7546771E-02  0.1277882E+00
          2   -1    0    0  503    0 -0.00000000000E+00  0.00000000000E+00  0.25710040014E+02  0.25710040014E+02  0.00000000000E+00 0.  1.
         21   -1    0    0  504  502  0.00000000000E+00 -0.00000000000E+00 -0.18467009340E+04  0.18467009340E+04  0.00000000000E+00 0.  1.
         21    1    1    2  503  505  0.12296120321E+03  0.46630751280E+02 -0.38619037677E+03  0.40796677753E+03  0.00000000000E+00 0.  1.
         21    1    1    2  504  501 -0.74630336059E+02  0.88450355664E+01 -0.51549860805E+03  0.52094792121E+03  0.00000000000E+00 0.  1.
         21    1    1    2  505  502 -0.23476761555E+02 -0.76373491405E+02 -0.90413163757E+03  0.90765526858E+03  0.00000000000E+00 0.  1.
          2    1    1    2  501    0 -0.24854105598E+02  0.20897704559E+02 -0.15170271608E+02  0.35841006704E+02  0.00000000000E+00 0.  1.
<scales pt_clust_3="14000.00000" pt_clust_4="101.15660" pt_clust_5="78.52297" pt_clust_6="32.47215"></scales>
<clustering>
<clus scale="   32.472">  1  6  2 -1</clus>
<clus scale="   78.523">  2  5  1 -1</clus>
<clus scale="  101.157">  2  4  1 -1</clus>
<clus scale="   78.523">  2  3  1 -1</clus>
</clustering>
</event>
<event>
 6    0  0.4017242E+002  0.1161710E+03  0.7546771E-02  0.1249551E+00
         21   -1    0    0  503  502  0.00000000000E+00  0.00000000000E+00  0.20821545228E+03  0.20821545228E+03  0.00000000000E+00 0.  1.
          1   -1    0    0  504    0 -0.00000000000E+00 -0.00000000000E+00 -0.26449313400E+04  0.26449313400E+04  0.00000000000E+00 0. -1.
         21    1    1    2  503  501  0.17929373497E+02 -0.25183598962E+02  0.16735642050E+02  0.35153347003E+02  0.00000000000E+00 0.  1.
         21    1    1    2  504  505  0.48809825864E+02  0.77021890833E+02 -0.12793449005E+03  0.15710507476E+03  0.00000000000E+00 0. -1.
         21    1    1    2  505  502 -0.13346958632E+03 -0.21786646268E+02  0.13978758206E+03  0.19449770314E+03  0.00000000000E+00 0.  1.
          1    1    1    2  501    0  0.66730386962E+02 -0.30051645603E+02 -0.24653046218E+04  0.24663906674E+04  0.00000000000E+00 0. -1.
<scales pt_clust_3="30.91401" pt_clust_4="116.17105" pt_clust_5="14000.00000" pt_clust_6="73.26454"></scales>
<clustering>
<clus scale="   30.914">  1  3  2 -1</clus>
<clus scale="   73.265">  2  6  1 -1</clus>
<clus scale="  116.171">  2  4  1 -1</clus>
<clus scale="   30.914">  1  3  2 -1</clus>
</clustering>
</event>
<event>
 6    0  0.4017242E+002  0.8862719E+02  0.7546771E-02  0.1306211E+00
          2   -1    0    0  502    0 -0.00000000000E+00  0.00000000000E+00  0.11153297800E+04  0.11153297800E+04  0.00000000000E+00 0. -1.
         21   -1    0    0  504  502  0.00000000000E+00 -0.00000000000E+00 -0.31480177314E+03  0.31480177314E+03  0.00000000000E+00 0. -1.
         21    1    1    2  503  505  0.61709006483E+02 -0.28993186976E+02  0.12128569864E+03  0.13913600205E+03  0.00000000000E+00 0. -1.
         21    1    1    2  504  503 -0.79010824489E+02  0.11087209329E+02 -0.28436445467E+03  0.29534518732E+03  0.00000000000E+00 0. -1.
         21    1    1    2  505  501  0.91423237048E+02 -0.21800224399E+01  0.13244930886E+03  0.16095272656E+03  0.00000000000E+00 0. -1.
          2    1    1    2  501    0 -0.74121419042E+02  0.20086000087E+02  0.83115745398E+03  0.83469763716E+03  0.00000000000E+00 0. -1.
<scales pt_clust_3="30.53438" pt_clust_4="81.26648" pt_clust_5="30.53438" pt_clust_6="76.79474"></scales>
<clustering>
<clus scale="   30.534">  3  5 -1 -1</clus>
<clus scale="   76.795">  1  6  2 -1</clus>
<clus scale="   81.266">  2  4  1 -1</clus>
<clus scale="   81.266">  2  3  1 -1</clus>
</clustering>
</event>
<event>
 6    0  0.4017242E+002  0.1502268E+03  0.7546771E-02  0.1200195E+00
          2   -1    0    0  503    0 -0.00000000000E+00  0.00000000000E+00  0.37792365055E+03  0.37792365055E+03  0.00000000000E+00 0.  1.
         21   -1    0    0  505  502  0.00000000000E+00 -0.00000000000E+00 -0.94617104935E+03  0.94617104935E+03  0.00000000000E+00 0. -1.
         21    1    1    2  503  504 -0.15459580950E+02 -0.19867111282E+03  0.12991658250E+03  0.23788133201E+03  0.00000000000E+00 0.  1.
         21    1    1    2  504  502  0.44301805474E+02  0.77238731581E+00 -0.45128654366E+02  0.63244304054E+02  0.00000000000E+00 0. -1.
         21    1    1    2  505  501 -0.30453467509E+02  0.14495200030E+03 -0.82749415583E+03  0.84064562927E+03  0.00000000000E+00 0. -1.
          2    1    1    2  501    0  0.16112429851E+01  0.52946725205E+02  0.17445882889E+03  0.18232343457E+03  0.00000000000E+00 0.  1.
<scales pt_clust_3="14000.00000" pt_clust_4="44.30854" pt_clust_5="150.22677" pt_clust_6="52.98094"></scales>
<clustering>
<clus scale="   44.309">  2  4  1 -1</clus>
<clus scale="   52.981">  1  6  2 -1</clus>
<clus scale="  150.227">  2  5  1 -1</clus>
<clus scale="   44.309">  2  3  1 -1</clus>
</clustering>
</event>
<event>
 6    0  0.4017242E+002  0.1209890E+03  0.7546771E-02  0.1241474E+00
          3   -1    0    0  505    0 -0.00000000000E+00  0.00000000000E+00  0.60252890291E+03  0.60252890291E+03  0.00000000000E+00 0. -1.
         21   -1    0    0  504  502  0.00000000000E+00 -0.00000000000E+00 -0.16825886992E+04  0.16825886992E+04  0.00000000000E+00 0. -1.
         21    1    1    2  503  502 -0.66206929926E+02  0.15269340173E+02 -0.12683128140E+04  0.12701314516E+04  0.00000000000E+00 0. -1.
         21    1    1    2  504  501 -0.55179158777E+02 -0.36965028548E+02 -0.37450462172E+03  0.38034834638E+03  0.00000000000E+00 0.  1.
         21    1    1    2  505  503  0.61773068237E+02 -0.15368448769E+02 -0.37797414805E+01  0.63768233648E+02  0.00000000000E+00 0.  1.
          3    1    1    2  501    0  0.59613020466E+02  0.37064137143E+02  0.56653738092E+03  0.57086957044E+03  0.00000000000E+00 0. -1.
<scales pt_clust_3="14000.00000" pt_clust_4="66.19869" pt_clust_5="63.65612" pt_clust_6="120.98898"></scales>
<clustering>
<clus scale="   63.656">  1  5  2 -1</clus>
<clus scale="   66.199">  2  4  1 -1</clus>
<clus scale="  120.989">  1  6  2 -1</clus>
<clus scale="   66.199">  2  3  1 -1</clus>
</clustering>
</event>
<event>
 6    0  0.4017242E+002  0.1021816E+03  0.7546771E-02  0.1275774E+00
          2   -1    0    0  504    0 -0.00000000000E+00  0.00000000000E+00  0.57105346557E+03  0.57105346557E+03  0.00000000000E+00 0.  1.
         21   -1    0    0  505  502  0.00000000000E+00 -0.00000000000E+00 -0.11111557584E+03  0.11111557584E+03  0.00000000000E+00 0. -1.
         21    1    1    2  503  502 -0.25442384203E+02  0.31147178081E+02  0.23256011423E+02  0.46457547112E+02  0.00000000000E+00 0. -1.
         21    1    1    2  504  503 -0.19543672968E+02  0.72157974310E+02  0.14171324171E+03  0.16022288004E+03  0.00000000000E+00 0. -1.
         21    1    1    2  505  501 -0.20106619228E+02 -0.50368479808E+02 -0.76996106554E+02  0.94178874061E+02  0.00000000000E+00 0. -1.
          2    1    1    2  501    0  0.65092676400E+02 -0.52936672584E+02  0.37196474315E+03  0.38130974020E+03  0.00000000000E+00 0.  1.
<scales pt_clust_3="38.85465" pt_clust_4="38.85465" pt_clust_5="54.23338" pt_clust_6="87.37755"></scales>
<clustering>
<clus scale="   38.855">  3  4 -1 -1</clus>
<clus scale="   54.233">  2  5  1 -1</clus>
<clus scale="   87.378">  1  6  2 -1</clus>
<clus scale="   54.233">  2  3  1 -1</clus>
</clustering>
</event>
<event>
 6    0  0.4017242E+002  0.1155210E+03  0.7546771E-02  0.1250674E+00
          2   -1    0    0  502    0 -0.00000000000E+00  0.00000000000E+00  0.13695168941E+04  0.13695168941E+04  0.00000000000E+00 0. -1.
         21   -1    0    0  505  502  0.00000000000E+00 -0.00000000000E+00 -0.51344644026E+02  0.51344644026E+02  0.00000000000E+00 0. -1.
         21    1    1    2  503  501  0.65071194352E+01  0.38278866825E+02  0.11201272904E+03  0.11855153190E+03  0.00000000000E+00 0. -1.
         21    1    1    2  504  503 -0.62034627922E+02  0.11447421722E+03  0.23314782542E+03  0.26704035269E+03  0.00000000000E+00 0. -1.
         21    1    1    2  505  504  0.63816534303E+02 -0.57859579557E+02  0.35889035685E+02  0.93318293380E+02  0.00000000000E+00 0. -1.
          2    1    1    2  501    0 -0.82890258152E+01 -0.94893504483E+02  0.93712265992E+03  0.94195136015E+03  0.00000000000E+00 0. -1.
<scales pt_clust_3="30.54430" pt_clust_4="30.54430" pt_clust_5="86.14105" pt_clust_6="101.07727"></scales>
<clustering>
<clus scale="   30.544">  3  4 -1 -1</clus>
<clus scale="   86.141">  2  5  1 -1</clus>
<clus scale="  101.077">  1  6  2 -1</clus>
<clus scale="   86.141">  2  3  1 -1</clus>
</clustering>
</event>
<event>
 6    0  0.4332945E+002  0.2529475E+03  0.7546771E-02  0.1111456E+00
          1   -1    0    0  503    0 -0.00000000000E+00  0.00000000000E+00  0.21103570094E+04  0.21103570094E+04  0.00000000000E+00 0.  1.
         21   -1    0    0  505  502  0.00000000000E+00 -0.00000000000E+00 -0.69300499391E+03  0.69300499391E+03  0.00000000000E+00 0.  1.
         21    1    1    2  503  502 -0.23551384407E+03 -0.10732827461E+03 -0.59450303974E+03  0.64839802093E+03  0.00000000000E+00 0.  1.
         21    1    1    2  504  501  0.21124460252E+02  0.39019925998E+02 -0.26467380403E+02  0.51665459170E+02  0.00000000000E+00 0. -1.
         21    1    1    2  505  504 -0.31041071540E+02  0.71824423522E+01 -0.14462793270E+02  0.34990112742E+02  0.00000000000E+00 0.  1.
          1    1    1    2  501    0  0.24543045536E+03  0.61125906264E+02  0.20527852289E+04  0.20683084104E+04  0.00000000000E+00 0.  1.
<scales pt_clust_3="252.94753" pt_clust_4="43.91319" pt_clust_5="31.86119" pt_clust_6="14000.00000"></scales>
<clustering>
<clus scale="   31.861">  2  5  1 -1</clus>
<clus scale="   43.913">  2  4  1 -1</clus>
<clus scale="  252.948">  2  3  1 -1</clus>
<clus scale="   31.861">  2  3  1 -1</clus>
</clustering>
</event>
<event>
 6    0  0.4017242E+002  0.1059701E+03  0.7546771E-02  0.1268220E+00
          1   -1    0    0  504    0 -0.00000000000E+00  0.00000000000E+00  0.28308626439E+04  0.28308626439E+04  0.00000000000E+00 0. -1.
         21   -1    0    0  505  502  0.00000000000E+00 -0.00000000000E+00 -0.10150958512E+03  0.10150958512E+03  0.00000000000E+00 0.  1.
         21    1    1    2  503  502 -0.21465554209E+02  0.29417754122E+02  0.33655424587E+02  0.49586912378E+02  0.00000000000E+00 0.  1.
         21    1    1    2  504  503  0.33589573787E+02 -0.33638165357E+02  0.63274376333E+02  0.79141849461E+02  0.00000000000E+00 0. -1.
         21    1    1    2  505  501  0.80319552845E+02  0.56238109679E+02 -0.56142219663E+02  0.11298630173E+03  0.00000000000E+00 0.  1.
          1    1    1    2  501    0 -0.92443572424E+02 -0.52017698444E+02  0.26885654775E+04  0.26906571654E+04  0.00000000000E+00 0. -1.
<scales pt_clust_3="36.41668" pt_clust_4="44.48782" pt_clust_5="105.97009" pt_clust_6="14000.00000"></scales>
<clustering>
<clus scale="   36.417">  2  3  1 -1</clus>
<clus scale="   44.488">  2  4  1 -1</clus>
<clus scale="  105.970">  2  5  1 -1</clus>
<clus scale="   36.417">  2  3  1 -1</clus>
</clustering>
</event>
<event>
 6    0  0.4017242E+002  0.3085304E+03  0.7546771E-02  0.1081052E+00
         21   -1    0    0  504  502  0.00000000000E+00  0.00000000000E+00  0.54208155835E+03  0.54208155835E+03  0.00000000000E+00 0.  1.
         -4   -1    0    0    0  501 -0.00000000000E+00 -0.00000000000E+00 -0.48495412005E+03  0.48495412005E+03  0.00000000000E+00 0.  1.
         21    1    1    2  503  502  0.44042455802E+02 -0.81901166010E+02  0.19776416064E+03  0.21853650070E+03  0.00000000000E+00 0.  1.
         21    1    1    2  504  505  0.21402396712E+03  0.22401936904E+03  0.12280132667E+03  0.33327331432E+03  0.00000000000E+00 0.  1.
         21    1    1    2  505  501  0.46821919086E+02  0.14570655178E+02 -0.56497637337E+02  0.74810287553E+02  0.00000000000E+00 0.  1.
         -4    1    1    2    0  503 -0.30488834200E+03 -0.15668885821E+03 -0.20694041168E+03  0.40041557582E+03  0.00000000000E+00 0.  1.
<scales pt_clust_3="93.23119" pt_clust_4="14000.00000" pt_clust_5="49.03668" pt_clust_6="308.53041"></scales>
<clustering>
<clus scale="   49.037">  2  5  1 -1</clus>
<clus scale="   93.231">  1  3  2 -1</clus>
<clus scale="  308.530">  2  6  1 -1</clus>
<clus scale="   93.231">  1  3  2 -1</clus>
</clustering>
</event>
<event>
 6    0  0.4017242E+002  0.1016515E+03  0.7546771E-02  0.1276861E+00
         21   -1    0    0  503  502  0.00000000000E+00  0.00000000000E+00  0.21890361656E+03  0.21890361656E+03  0.00000000000E+00 0.  1.
          1   -1    0    0  504    0 -0.00000000000E+00 -0.00000000000E+00 -0.10551973353E+04  0.10551973353E+04  0.00000000000E+00 0.  1.
         21    1    1    2  503  501  0.28152138004E+02  0.11112497377E+02  0.20381234861E+02  0.36488699711E+02  0.00000000000E+00 0.  1.
         21    1    1    2  504  505 -0.11361396997E+03 -0.54708862365E+02 -0.99881555887E+02  0.16086490916E+03  0.00000000000E+00 0.  1.
         21    1    1    2  505  502  0.36683466755E+02  0.70503362502E+02  0.14919758098E+03  0.16904531649E+03  0.00000000000E+00 0.  1.
          1    1    1    2  501    0  0.48778365213E+02 -0.26906997514E+02 -0.90599097869E+03  0.90770202649E+03  0.00000000000E+00 0.  1.
<scales pt_clust_3="30.26600" pt_clust_4="101.65153" pt_clust_5="14000.00000" pt_clust_6="55.79412"></scales>
<clustering>
<clus scale="   30.266">  1  3  2 -1</clus>
<clus scale="   55.794">  2  6  1 -1</clus>
<clus scale="  101.652">  2  4  1 -1</clus>
<clus scale="   30.266">  1  3  2 -1</clus>
</clustering>
</event>
<event>
 6    0  0.4017242E+002  0.2060019E+03  0.7546771E-02  0.1144772E+00
         21   -1    0    0  503  502  0.00000000000E+00  0.00000000000E+00  0.35414354343E+03  0.35414354343E+03  0.00000000000E+00 0.  1.
          2   -1    0    0  505    0 -0.00000000000E+00 -0.00000000000E+00 -0.12823243185E+04  0.12823243185E+04  0.00000000000E+00 0.  1.
         21    1    1    2  503  501 -0.41587692883E+02  0.14394663067E+03 -0.70164693662E+03  0.71746678833E+03  0.00000000000E+00 0.  1.
         21    1    1    2  504  502 -0.26042640521E+02 -0.16706725790E+02  0.26962472238E+03  0.27139422384E+03  0.00000000000E+00 0.  1.
         21    1    1    2  505  504  0.84100137805E+02 -0.17332190760E+03 -0.50348299120E+02  0.19911872855E+03  0.00000000000E+00 0.  1.
          2    1    1    2  501    0 -0.16469804401E+02  0.46082002720E+02 -0.44581026174E+03  0.44848812125E+03  0.00000000000E+00 0.  1.
<scales pt_clust_3="32.93817" pt_clust_4="30.94081" pt_clust_5="197.80166" pt_clust_6="32.93817"></scales>
<clustering>
<clus scale="   30.941">  1  4  2 -1</clus>
<clus scale="   32.938">  3  6 -1 -1</clus>
<clus scale="  197.802">  1  5  2 -1</clus>
<clus scale="   30.941">  1  3  2 -1</clus>
</clustering>
</event>
<event>
 6    0  0.4017242E+002  0.7288495E+02  0.7546771E-02  0.1350549E+00
         21   -1    0    0  504  502  0.00000000000E+00  0.00000000000E+00  0.63342910460E+02  0.63342910460E+02  0.00000000000E+00 0.  1.
          2   -1    0    0  503    0 -0.00000000000E+00 -0.00000000000E+00 -0.12966677546E+04  0.12966677546E+04  0.00000000000E+00 0. -1.
         21    1    1    2  503  505  0.41598878562E+02  0.12146732330E+01  0.30030193066E+02  0.51320119099E+02  0.00000000000E+00 0.  1.
         21    1    1    2  504  501 -0.12874435862E+03  0.20275520107E+02 -0.38553831040E+03  0.40697173781E+03  0.00000000000E+00 0.  1.
         21    1    1    2  505  502  0.28229364180E+02 -0.20282421103E+02 -0.16656890752E+02  0.38545111458E+02  0.00000000000E+00 0.  1.
          2    1    1    2  501    0  0.58916115880E+02 -0.12077722364E+01 -0.86115983604E+03  0.86317369668E+03  0.00000000000E+00 0. -1.
<scales pt_clust_3="14000.00000" pt_clust_4="72.88495" pt_clust_5="34.76023" pt_clust_6="59.48005"></scales>
<clustering>
<clus scale="   34.760">  1  5  2 -1</clus>
<clus scale="   59.480">  2  6  1 -1</clus>
<clus scale="   72.885">  2  4  1 -1</clus>
<clus scale="   34.760">  1  3  2 -1</clus>
</clustering>
</event>
<event>
 6    0  0.4017242E+002  0.1272450E+03  0.7546771E-02  0.1231602E+00
         21   -1    0    0  505  502  0.00000000000E+00  0.00000000000E+00  0.53592001423E+03  0.53592001423E+03  0.00000000000E+00 0. -1.
          2   -1    0    0  503    0 -0.00000000000E+00 -0.00000000000E+00 -0.86590382423E+03  0.86590382423E+03  0.00000000000E+00 0.  1.
         21    1    1    2  503  502 -0.84716107719E+02 -0.52950376379E+02  0.72101100715E+02  0.12320361192E+03  0.00000000000E+00 0. -1.
         21    1    1    2  504  501  0.27481123649E+02 -0.75462747388E+02  0.35522105692E+02  0.87816048608E+02  0.00000000000E+00 0. -1.
         21    1    1    2  505  504  0.87042177205E+02  0.11573568012E+03  0.36233731466E+03  0.39020432835E+03  0.00000000000E+00 0. -1.
          2    1    1    2  501    0 -0.29807193135E+02  0.12677443646E+02 -0.79994433107E+03  0.80059984958E+03  0.00000000000E+00 0.  1.
<scales pt_clust_3="14000.00000" pt_clust_4="72.12095" pt_clust_5="127.24504" pt_clust_6="32.39115"></scales>
<clustering>
<clus scale="   32.391">  2  6  1 -1</clus>
<clus scale="   72.121">  2  4  1 -1</clus>
<clus scale="  127.245">  1  5  2 -1</clus>
<clus scale="  127.245">  1  3  2 -1</clus>
</clustering>
</event>
<event>
 6    0  0.4017242E+002  0.7202228E+02  0.7546771E-02  0.1353348E+00
         21   -1    0    0  504  502  0.00000000000E+00  0.00000000000E+00  0.24349111193E+04  0.24349111193E+04  0.00000000000E+00 0. -1.
         -4   -1    0    0    0  501 -0.00000000000E+00 -0.00000000000E+00 -0.35044491522E+02  0.35044491522E+02  0.00000000000E+00 0. -1.
         21    1    1    2  503  505  0.78279128488E+02 -0.84071439253E+02  0.39049638083E+03  0.40704183114E+03  0.00000000000E+00 0. -1.
         21    1    1    2  504  501  0.32908403886E+02  0.64968434861E+01  0.21879423759E+03  0.22135060521E+03  0.00000000000E+00 0.  1.
         21    1    1    2  505  502 -0.74602409960E+02  0.35031057647E+02  0.17830455011E+04  0.17849492860E+04  0.00000000000E+00 0. -1.
         -4    1    1    2    0  503 -0.36585122415E+02  0.42543538120E+02  0.75305082878E+01  0.56613888516E+02  0.00000000000E+00 0. -1.
<scales pt_clust_3="14000.00000" pt_clust_4="33.54358" pt_clust_5="72.02228" pt_clust_6="55.87304"></scales>
<clustering>
<clus scale="   33.544">  1  4  2 -1</clus>
<clus scale="   55.873">  2  6  1 -1</clus>
<clus scale="   72.022">  1  5  2 -1</clus>
<clus scale="   33.544">  1  3  2 -1</clus>
</clustering>
</event>
<event>
 6    0  0.4017242E+002  0.1384804E+03  0.7546771E-02  0.1215388E+00
         21   -1    0    0  505  502  0.00000000000E+00  0.00000000000E+00  0.72019533591E+02  0.72019533591E+02  0.00000000000E+00 0.  1.
          2   -1    0    0  504    0 -0.00000000000E+00 -0.00000000000E+00 -0.26621218998E+04  0.26621218998E+04  0.00000000000E+00 0.  1.
         21    1    1    2  503  502 -0.13071317610E+02  0.54560883020E+02 -0.28125925882E+02  0.62759995274E+02  0.00000000000E+00 0.  1.
         21    1    1    2  504  503  0.12286783598E+03 -0.13148865572E+03 -0.11623658400E+03  0.21423518657E+03  0.00000000000E+00 0.  1.
         21    1    1    2  505  501 -0.28356008366E+02 -0.33014499213E+02 -0.12467979348E+03  0.13205707581E+03  0.00000000000E+00 0.  1.
          2    1    1    2  501    0 -0.81440510007E+02  0.10994227191E+03 -0.23210600628E+04  0.23250891757E+04  0.00000000000E+00 0.  1.
<scales pt_clust_3="50.44065" pt_clust_4="14000.00000" pt_clust_5="43.52034" pt_clust_6="138.48041"></scales>
<clustering>
<clus scale="   43.520">  1  5  2 -1</clus>
<clus scale="   50.441">  1  3  2 -1</clus>
<clus scale="  138.480">  2  6  1 -1</clus>
<clus scale="   43.520">  1  3  2 -1</clus>
</clustering>
</event>
<event>
 6    0  0.4017242E+002  0.2122942E+03  0.7546771E-02  0.1139762E+00
          2   -1    0    0  505    0 -0.00000000000E+00  0.00000000000E+00  0.14579786479E+04  0.14579786479E+04  0.00000000000E+00 0. -1.
         21   -1    0    0  504  502  0.00000000000E+00 -0.00000000000E+00 -0.16576124257E+04  0.16576124257E+04  0.00000000000E+00 0.  1.
         21    1    1    2  503  502 -0.68309541050E+01 -0.37628992941E+02 -0.15293739017E+04  0.15298519975E+04  0.00000000000E+00 0.  1.
         21    1    1    2  504  501  0.60120121768E+02  0.24531005300E+02  0.31672318984E+03  0.32331065285E+03  0.00000000000E+00 0. -1.
         21    1    1    2  505  503 -0.13124840672E+03 -0.10985768929E+03 -0.58642608621E+02  0.18092487864E+03  0.00000000000E+00 0.  1.
          2    1    1    2  501    0  0.77959239060E+02  0.12295567693E+03  0.10716595427E+04  0.10815035446E+04  0.00000000000E+00 0. -1.
<scales pt_clust_3="38.24399" pt_clust_4="47.62136" pt_clust_5="199.97686" pt_clust_6="47.62136"></scales>
<clustering>
<clus scale="   38.244">  2  3  1 -1</clus>
<clus scale="   47.621">  4  6 -1 -1</clus>
<clus scale="  199.977">  2  5  1 -1</clus>
<clus scale="   38.244">  2  3  1 -1</clus>
</clustering>
</event>
<event>
 6    0  0.4017242E+002  0.1120054E+03  0.7546771E-02  0.1256901E+00
          2   -1    0    0  503    0 -0.00000000000E+00  0.00000000000E+00  0.16798336390E+04  0.16798336390E+04  0.00000000000E+00 0. -1.
         21   -1    0    0  505  502  0.00000000000E+00 -0.00000000000E+00 -0.40782069306E+03  0.40782069306E+03  0.00000000000E+00 0.  1.
         21    1    1    2  503  504 -0.76707100013E+02 -0.90848238004E+02 -0.32787917115E+02  0.12333867621E+03  0.00000000000E+00 0.  1.
         21    1    1    2  504  502 -0.51692080328E+02 -0.30036217517E+02 -0.30831033185E+03  0.31405334938E+03  0.00000000000E+00 0.  1.
         21    1    1    2  505  501  0.31847480398E+02  0.64130364253E+02  0.60851092185E+02  0.93967127481E+02  0.00000000000E+00 0.  1.
          2    1    1    2  501    0  0.96551699943E+02  0.56754091268E+02  0.15522601027E+04  0.15562951790E+04  0.00000000000E+00 0. -1.
<scales pt_clust_3="112.00536" pt_clust_4="59.78499" pt_clust_5="63.30623" pt_clust_6="14000.00000"></scales>
<clustering>
<clus scale="   59.785">  2  4  1 -1</clus>
<clus scale="   63.306">  2  5  1 -1</clus>
<clus scale="  112.005">  2  3  1 -1</clus>
<clus scale="   59.785">  2  3  1 -1</clus>
</clustering>
</event>
<event>
 6    0  0.4017242E+002  0.1085473E+03  0.7546771E-02  0.1263284E+00
          2   -1    0    0  503    0 -0.00000000000E+00  0.00000000000E+00  0.11629863344E+04  0.11629863344E+04  0.00000000000E+00 0.  1.
         21   -1    0    0  501  502  0.00000000000E+00 -0.00000000000E+00 -0.51348708252E+02  0.51348708252E+02  0.00000000000E+00 0. -1.
         21    1    1    2  503  505  0.66662166267E+02 -0.36708815783E+02  0.21370818125E+03  0.22685362748E+03  0.00000000000E+00 0. -1.
         21    1    1    2  504  502  0.10538375446E+03 -0.12947459481E+02  0.71167212140E+02  0.12782075142E+03  0.00000000000E+00 0. -1.
         21    1    1    2  505  504 -0.67147233479E+02 -0.54227420161E+02  0.25819210737E+03  0.27223616286E+03  0.00000000000E+00 0. -1.
          2    1    1    2  501    0 -0.10489868724E+03  0.10388369542E+03  0.56857012534E+03  0.58742450084E+03  0.00000000000E+00 0.  1.
<scales pt_clust_3="76.10113" pt_clust_4="108.54733" pt_clust_5="80.67964" pt_clust_6="14000.00000"></scales>
<clustering>
<clus scale="   76.101">  1  3  2 -1</clus>
<clus scale="   80.680">  1  5  2 -1</clus>
<clus scale="  108.547">  2  4  1 -1</clus>
<clus scale="  108.547">  2  3  1 -1</clus>
</clustering>
</event>
<event>
 6    0  0.4017242E+002  0.9444738E+02  0.7546771E-02  0.1292426E+00
          2   -1    0    0  503    0 -0.00000000000E+00  0.00000000000E+00  0.13799764558E+03  0.13799764558E+03  0.00000000000E+00 0. -1.
         21   -1    0    0  505  502  0.00000000000E+00 -0.00000000000E+00 -0.57764569437E+03  0.57764569437E+03  0.00000000000E+00 0. -1.
         21    1    1    2  503  504  0.21803453236E+02 -0.47831823515E+02 -0.10875219999E+02  0.53680017919E+02  0.00000000000E+00 0. -1.
         21    1    1    2  504  502 -0.83082384428E+02  0.70110377864E+01 -0.13035298224E+03  0.15473764000E+03  0.00000000000E+00 0. -1.
         21    1    1    2  505  501  0.75494107063E+02  0.96361119407E+02 -0.38465988089E+03  0.40366824188E+03  0.00000000000E+00 0. -1.
          2    1    1    2  501    0 -0.14215175871E+02 -0.55540333679E+02  0.86240034338E+02  0.10355744016E+03  0.00000000000E+00 0. -1.
<scales pt_clust_3="52.56685" pt_clust_4="80.82738" pt_clust_5="94.44738" pt_clust_6="14000.00000"></scales>
<clustering>
<clus scale="   52.567">  1  3  2 -1</clus>
<clus scale="   80.827">  2  4  1 -1</clus>
<clus scale="   94.447">  2  5  1 -1</clus>
<clus scale="   80.827">  2  3  1 -1</clus>
</clustering>
</event>
<event>
 6    0  0.4017242E+002  0.1296546E+03  0.7546771E-02  0.1227969E+00
         21   -1    0    0  503  502  0.00000000000E+00  0.00000000000E+00  0.83674140773E+02  0.83674140773E+02  0.00000000000E+00 0.  1.
         -2   -1    0    0    0  501 -0.00000000000E+00 -0.00000000000E+00 -0.85872968261E+03  0.85872968261E+03  0.00000000000E+00 0.  1.
         21    1    1    2  503  504  0.16937793217E+02  0.95270199558E+02 -0.94734930293E+01  0.97226780431E+02  0.00000000000E+00 0.  1.
         21    1    1    2  504  505  0.21275597826E+01 -0.55549785851E+02 -0.23854328409E+02  0.60492430952E+02  0.00000000000E+00 0.  1.
         21    1    1    2  505  501  0.43478441636E+02 -0.11407949010E+03 -0.20003841022E+03  0.23434988908E+03  0.00000000000E+00 0.  1.
         -2    1    1    2    0  502 -0.62543794636E+02  0.74359076391E+02 -0.54168931018E+03  0.55033472292E+03  0.00000000000E+00 0.  1.
<scales pt_clust_3="96.76415" pt_clust_4="52.05120" pt_clust_5="52.05120" pt_clust_6="104.21264"></scales>
<clustering>
<clus scale="   52.051">  4  5 -1 -1</clus>
<clus scale="   96.764">  1  3  2 -1</clus>
<clus scale="  104.213">  2  6  1 -1</clus>
<clus scale="   96.764">  1  3  2 -1</clus>
</clustering>
</event>
<event>
 6    0  0.4017242E+002  0.7280273E+02  0.7546771E-02  0.1350814E+00
         21   -1    0    0  503  502  0.00000000000E+00  0.00000000000E+00  0.10612082508E+04  0.10612082508E+04  0.00000000000E+00 0.  1.
          4   -1    0    0  505    0 -0.00000000000E+00 -0.00000000000E+00 -0.43664093318E+03  0.43664093318E+03  0.00000000000E+00 0.  1.
         21    1    1    2  503  501 -0.79954263367E+02 -0.25207119009E+02  0.49025096764E+03  0.49736716252E+03  0.00000000000E+00 0.  1.
         21    1    1    2  504  502  0.32299627124E+02  0.68865820573E+02  0.52319960438E+03  0.52869990843E+03  0.00000000000E+00 0.  1.
         21    1    1    2  505  504  0.15299002698E+02 -0.54035991118E+02  0.21396352917E+02  0.60097851357E+02  0.00000000000E+00 0.  1.
          4    1    1    2  501    0  0.32355633545E+02  0.10377289554E+02 -0.41027960729E+03  0.41168426169E+03  0.00000000000E+00 0.  1.
<scales pt_clust_3="14000.00000" pt_clust_4="72.80273" pt_clust_5="60.92168" pt_clust_6="33.97904"></scales>
<clustering>
<clus scale="   33.979">  2  6  1 -1</clus>
<clus scale="   60.922">  2  5  1 -1</clus>
<clus scale="   72.803">  1  4  2 -1</clus>
<clus scale="   72.803">  1  3  2 -1</clus>
</clustering>
</event>
<event>
 6    0  0.4017242E+002  0.7105647E+02  0.7546771E-02  0.1356537E+00
          3   -1    0    0  504    0 -0.00000000000E+00  0.00000000000E+00  0.24956763754E+03  0.24956763754E+03  0.00000000000E+00 0.  1.
         21   -1    0    0  505  502  0.00000000000E+00 -0.00000000000E+00 -0.40715705973E+03  0.40715705973E+03  0.00000000000E+00 0. -1.
         21    1    1    2  503  502  0.24534819919E+02 -0.21217022756E+02 -0.16969801821E+02  0.36607289123E+02  0.00000000000E+00 0.  1.
         21    1    1    2  504  503 -0.38397689181E+02 -0.33747977387E+02  0.29803522510E+02  0.59173967809E+02  0.00000000000E+00 0.  1.
         21    1    1    2  505  501 -0.51248610785E+02  0.86426086192E+02 -0.35170201775E+03  0.36577342409E+03  0.00000000000E+00 0. -1.
          3    1    1    2  501    0  0.65111480047E+02 -0.31461086049E+02  0.18127887487E+03  0.19517001625E+03  0.00000000000E+00 0.  1.
<scales pt_clust_3="32.43639" pt_clust_4="50.96491" pt_clust_5="71.05647" pt_clust_6="14000.00000"></scales>
<clustering>
<clus scale="   32.436">  2  3  1 -1</clus>
<clus scale="   50.965">  1  4  2 -1</clus>
<clus scale="   71.056">  2  5  1 -1</clus>
<clus scale="   32.436">  2  3  1 -1</clus>
</clustering>
</event>
<event>
 6    0  0.4017242E+002  0.8713923E+02  0.7546771E-02  0.1309931E+00
          2   -1    0    0  504    0 -0.00000000000E+00  0.00000000000E+00  0.19929985593E+04  0.19929985593E+04  0.00000000000E+00 0. -1.
         21   -1    0    0  505  502  0.00000000000E+00 -0.00000000000E+00 -0.20266862578E+03  0.20266862578E+03  0.00000000000E+00 0. -1.
         21    1    1    2  503  502 -0.63369663920E+01 -0.52205008858E+02 -0.15740267454E+03  0.16595518083E+03  0.00000000000E+00 0. -1.
         21    1    1    2  504  503  0.32821632215E+02  0.27677353803E+02  0.11182283208E+03  0.11978163979E+03  0.00000000000E+00 0.  1.
         21    1    1    2  505  501  0.65752919644E+02 -0.17261625929E+02 -0.31796020033E+01  0.68055271951E+02  0.00000000000E+00 0. -1.
          2    1    1    2  501    0 -0.92237585466E+02  0.41789280984E+02  0.18390893780E+04  0.18418750925E+04  0.00000000000E+00 0. -1.
<scales pt_clust_3="52.51666" pt_clust_4="42.93362" pt_clust_5="87.13923" pt_clust_6="14000.00000"></scales>
<clustering>
<clus scale="   42.934">  1  4  2 -1</clus>
<clus scale="   52.517">  2  3  1 -1</clus>
<clus scale="   87.139">  2  5  1 -1</clus>
<clus scale="   52.517">  2  3  1 -1</clus>
</clustering>
</event>
<event>
 6    0  0.4017242E+002  0.8978330E+02  0.7546771E-02  0.1303377E+00
          1   -1    0    0  505    0 -0.00000000000E+00  0.00000000000E+00  0.29560105747E+03  0.29560105747E+03  0.00000000000E+00 0.  1.
         21   -1    0    0  504  502  0.00000000000E+00 -0.00000000000E+00 -0.21200261780E+03  0.21200261780E+03  0.00000000000E+00 0.  1.
         21    1    1    2  503  502 -0.63809227112E+02  0.20152681060E+02 -0.19269626776E+02  0.69635239173E+02  0.00000000000E+00 0.  1.
         21    1    1    2  504  501  0.91412225776E+02 -0.61082517688E+02 -0.12616503462E+03  0.16734660124E+03  0.00000000000E+00 0.  1.
         21    1    1    2  505  503  0.86013306549E+01  0.45486789983E+02  0.84708764564E+01  0.47061520375E+02  0.00000000000E+00 0.  1.
          1    1    1    2  501    0 -0.36204329319E+02 -0.45569533560E+01  0.22056222460E+03  0.22356031447E+03  0.00000000000E+00 0.  1.
<scales pt_clust_3="14000.00000" pt_clust_4="89.78330" pt_clust_5="44.05871" pt_clust_6="36.48999"></scales>
<clustering>
<clus scale="   36.490">  1  6  2 -1</clus>
<clus scale="   44.059">  1  5  2 -1</clus>
<clus scale="   89.783">  2  4  1 -1</clus>
<clus scale="   89.783">  2  3  1 -1</clus>
</clustering>
</event>
<event>
 6    0  0.4017242E+002  0.8525085E+02  0.7546771E-02  0.1314778E+00
          2   -1    0    0  505    0 -0.00000000000E+00  0.00000000000E+00  0.29169982956E+04  0.29169982956E+04  0.00000000000E+00 0.  1.
         21   -1    0    0  504  502  0.00000000000E+00 -0.00000000000E+00 -0.97643912581E+02  0.97643912581E+02  0.00000000000E+00 0.  1.
         21    1    1    2  503  502  0.28097133184E+02 -0.12262022838E+03 -0.15718841060E+02  0.12677638292E+03  0.00000000000E+00 0.  1.
         21    1    1    2  504  501  0.30441652988E+02  0.60362327753E+02  0.25821786126E+02  0.72367599706E+02  0.00000000000E+00 0.  1.
         21    1    1    2  505  503 -0.33889989222E+02  0.20388317361E+02  0.13180402018E+03  0.13761000904E+03  0.00000000000E+00 0.  1.
          2    1    1    2  501    0 -0.24648796950E+02  0.41869583266E+02  0.26774474177E+04  0.26778882165E+04  0.00000000000E+00 0.  1.
<scales pt_clust_3="14000.00000" pt_clust_4="67.65956" pt_clust_5="39.55016" pt_clust_6="85.25085"></scales>
<clustering>
<clus scale="   39.550">  1  5  2 -1</clus>
<clus scale="   67.660">  2  4  1 -1</clus>
<clus scale="   85.251">  1  6  2 -1</clus>
<clus scale="   67.660">  2  3  1 -1</clus>
</clustering>
</event>
<event>
 6    0  0.4017242E+002  0.2419163E+03  0.7546771E-02  0.1118523E+00
         -2   -1    0    0    0  501 -0.00000000000E+00  0.00000000000E+00  0.13534454926E+03  0.13534454926E+03  0.00000000000E+00 0. -1.
         21   -1    0    0  505  502  0.00000000000E+00 -0.00000000000E+00 -0.20370521499E+04  0.20370521499E+04  0.00000000000E+00 0.  1.
         21    1    1    2  503  501  0.12786629257E+03  0.43066715305E+02 -0.77921054583E+03  0.79080566859E+03  0.00000000000E+00 0.  1.
         21    1    1    2  504  503  0.55262489050E+02  0.91815128193E+02 -0.78301071014E+03  0.79030989659E+03  0.00000000000E+00 0.  1.
         21    1    1    2  505  504 -0.22519571330E+02  0.23467179068E+02 -0.36305582547E+03  0.36450976941E+03  0.00000000000E+00 0. -1.
         -2    1    1    2    0  502 -0.16060921029E+03 -0.15834902257E+03  0.23569480776E+02  0.22677136460E+03  0.00000000000E+00 0. -1.
<scales pt_clust_3="81.55662" pt_clust_4="81.55662" pt_clust_5="32.52445" pt_clust_6="225.52514"></scales>
<clustering>
<clus scale="   32.524">  2  5  1 -1</clus>
<clus scale="   81.557">  3  4 -1 -1</clus>
<clus scale="  225.525">  1  6  2 -1</clus>
<clus scale="   32.524">  2  3  1 -1</clus>
</clustering>
</event>
<event>
 6    0  0.4017242E+002  0.1409457E+03  0.7546771E-02  0.1212062E+00
          2   -1    0    0  505    0 -0.00000000000E+00  0.00000000000E+00  0.19550533331E+03  0.19550533331E+03  0.00000000000E+00 0. -1.
         21   -1    0    0  503  502  0.00000000000E+00 -0.00000000000E+00 -0.44447457776E+03  0.44447457776E+03  0.00000000000E+00 0. -1.
         21    1    1    2  503  504  0.74199852646E+02  0.42626067396E+02 -0.89098504983E+02  0.12353600020E+03  0.00000000000E+00 0. -1.
         21    1    1    2  504  501  0.10741666000E+03 -0.12406569045E+03 -0.22125509076E+03  0.27547132261E+03  0.00000000000E+00 0. -1.
         21    1    1    2  505  502 -0.11148096245E+03  0.13805329949E+02 -0.19903841114E+02  0.11408222918E+03  0.00000000000E+00 0. -1.
          2    1    1    2  501    0 -0.70135550202E+02  0.67634293106E+02  0.81288192399E+02  0.12689035909E+03  0.00000000000E+00 0. -1.
<scales pt_clust_3="85.57219" pt_clust_4="140.94572" pt_clust_5="14000.00000" pt_clust_6="95.98791"></scales>
<clustering>
<clus scale="   85.572">  2  3  1 -1</clus>
<clus scale="   95.988">  1  6  2 -1</clus>
<clus scale="  140.946">  2  4  1 -1</clus>
<clus scale="   85.572">  2  3  1 -1</clus>
</clustering>
</event>
<event>
 6    0  0.4017242E+002  0.9423885E+02  0.7546771E-02  0.1292900E+00
         21   -1    0    0  505  502  0.00000000000E+00  0.00000000000E+00  0.42390545598E+02  0.42390545598E+02  0.00000000000E+00 0.  1.
          1   -1    0    0  503    0 -0.00000000000E+00 -0.00000000000E+00 -0.23201540645E+04  0.23201540645E+04  0.00000000000E+00 0. -1.
         21    1    1    2  503  504  0.60252559514E+02 -0.17610627702E+02 -0.12893517506E+03  0.14340426948E+03  0.00000000000E+00 0.  1.
         21    1    1    2  504  502  0.78592831437E+02 -0.27200131793E+02 -0.32433579324E+02  0.89267112593E+02  0.00000000000E+00 0.  1.
         21    1    1    2  505  501 -0.48534965999E+02  0.25350377570E+01 -0.10174121775E+03  0.11275346881E+03  0.00000000000E+00 0.  1.
          1    1    1    2  501    0 -0.90310424953E+02  0.42275721738E+02 -0.20146535468E+04  0.20171197592E+04  0.00000000000E+00 0. -1.
<scales pt_clust_3="94.23885" pt_clust_4="48.32047" pt_clust_5="48.60112" pt_clust_6="14000.00000"></scales>
<clustering>
<clus scale="   48.601">  1  5  2 -1</clus>
<clus scale="   48.320">  1  4  2 -1</clus>
<clus scale="   94.239">  1  3  2 -1</clus>
<clus scale="   48.601">  1  3  2 -1</clus>
</clustering>
</event>
<event>
 6    0  0.4017242E+002  0.6991260E+02  0.7546771E-02  0.1360391E+00
          2   -1    0    0  504    0 -0.00000000000E+00  0.00000000000E+00  0.27041318034E+04  0.27041318034E+04  0.00000000000E+00 0. -1.
         21   -1    0    0  505  502  0.00000000000E+00 -0.00000000000E+00 -0.29399694624E+02  0.29399694624E+02  0.00000000000E+00 0. -1.
         21    1    1    2  503  502 -0.10577728989E+02  0.45013517342E+02  0.15407060274E+03  0.16085973928E+03  0.00000000000E+00 0.  1.
         21    1    1    2  504  503 -0.35186651502E+00  0.53424632131E+02  0.56601263632E+03  0.56852846859E+03  0.00000000000E+00 0.  1.
         21    1    1    2  505  501  0.16331451113E+01  0.30434375059E+02 -0.12364603818E+02  0.32890755172E+02  0.00000000000E+00 0. -1.
          2    1    1    2  501    0  0.92964503922E+01 -0.12887252453E+03  0.19670134735E+04  0.19712525350E+04  0.00000000000E+00 0. -1.
<scales pt_clust_3="69.91260" pt_clust_4="59.07790" pt_clust_5="30.47816" pt_clust_6="14000.00000"></scales>
<clustering>
<clus scale="   30.478">  2  5  1 -1</clus>
<clus scale="   59.078">  1  4  2 -1</clus>
<clus scale="   69.913">  2  3  1 -1</clus>
<clus scale="   30.478">  2  3  1 -1</clus>
</clustering>
</event>
<event>
 6    0  0.4017242E+002  0.1360177E+03  0.7546771E-02  0.1218790E+00
         21   -1    0    0  504  502  0.00000000000E+00  0.00000000000E+00  0.81023497360E+03  0.81023497360E+03  0.00000000000E+00 0. -1.
          1   -1    0    0  505    0 -0.00000000000E+00 -0.00000000000E+00 -0.32745983374E+04  0.32745983374E+04  0.00000000000E+00 0. -1.
         21    1    1    2  503  501  0.14938287338E+03  0.70613557270E+02  0.13686032452E+03  0.21455131265E+03  0.00000000000E+00 0. -1.
         21    1    1    2  504  503 -0.10022180046E+03 -0.62340356255E+02  0.61620184609E+03  0.62740373320E+03  0.00000000000E+00 0. -1.
         21    1    1    2  505  502 -0.12291015333E+02  0.39074395605E+02 -0.21261933745E+02  0.46151351837E+02  0.00000000000E+00 0. -1.
          1    1    1    2  501    0 -0.36870057588E+02 -0.47347596620E+02 -0.31961636006E+04  0.31967269133E+04  0.00000000000E+00 0. -1.
<scales pt_clust_3="14000.00000" pt_clust_4="136.01770" pt_clust_5="40.96190" pt_clust_6="60.00175"></scales>
<clustering>
<clus scale="   40.962">  1  5  2 -1</clus>
<clus scale="   60.002">  2  6  1 -1</clus>
<clus scale="  136.018">  1  4  2 -1</clus>
<clus scale="   40.962">  1  3  2 -1</clus>
</clustering>
</event>
<event>
 6    0  0.4017242E+002  0.1733416E+03  0.7546771E-02  0.1174407E+00
         21   -1    0    0  503  502  0.00000000000E+00  0.00000000000E+00  0.20911081255E+03  0.20911081255E+03  0.00000000000E+00 0.  1.
          2   -1    0    0  504    0 -0.00000000000E+00 -0.00000000000E+00 -0.12747081528E+04  0.12747081528E+04  0.00000000000E+00 0. -1.
         21    1    1    2  503  501 -0.11603044375E+03 -0.10239549902E+03  0.13300805883E+03  0.20405647701E+03  0.00000000000E+00 0.  1.
         21    1    1    2  504  505  0.28219240173E+02  0.43772059550E+02 -0.10436139894E+03  0.11663455878E+03  0.00000000000E+00 0.  1.
         21    1    1    2  505  502  0.11780468026E+03  0.88210330999E+02 -0.12534730334E+03  0.19331567872E+03  0.00000000000E+00 0.  1.
          2    1    1    2  501    0 -0.29993476684E+02 -0.29586891531E+02 -0.96889669676E+03  0.96981225080E+03  0.00000000000E+00 0. -1.
<scales pt_clust_3="159.64517" pt_clust_4="40.17376" pt_clust_5="40.17376" pt_clust_6="42.13066"></scales>
<clustering>
<clus scale="   40.174">  4  5 -1 -1</clus>
<clus scale="   42.131">  2  6  1 -1</clus>
<clus scale="  159.645">  1  3  2 -1</clus>
<clus scale="  159.645">  1  3  2 -1</clus>
</clustering>
</event>
<event>
 6    0  0.4017242E+002  0.1632889E+03  0.7546771E-02  0.1185033E+00
          2   -1    0    0  504    0 -0.00000000000E+00  0.00000000000E+00  0.32422481411E+04  0.32422481411E+04  0.00000000000E+00 0.  1.
         21   -1    0    0  503  502  0.00000000000E+00 -0.00000000000E+00 -0.57635657390E+03  0.57635657390E+03  0.00000000000E+00 0.  1.
         21    1    1    2  503  501  0.95907805982E+02 -0.13113356708E+03 -0.54236346815E+03  0.56617351691E+03  0.00000000000E+00 0.  1.
         21    1    1    2  504  505 -0.91399818362E+02 -0.24739911093E+02  0.71848518199E+03  0.72469783134E+03  0.00000000000E+00 0.  1.
         21    1    1    2  505  502 -0.16417995738E+03  0.15373207663E+03  0.81814429230E+03  0.84849790383E+03  0.00000000000E+00 0.  1.
          2    1    1    2  501    0  0.15967196976E+03  0.21414015472E+01  0.16716255611E+04  0.16792354629E+04  0.00000000000E+00 0.  1.
<scales pt_clust_3="163.28894" pt_clust_4="94.68891" pt_clust_5="14000.00000" pt_clust_6="99.94898"></scales>
<clustering>
<clus scale="   94.689">  1  4  2 -1</clus>
<clus scale="   99.949">  1  6  2 -1</clus>
<clus scale="  163.289">  2  3  1 -1</clus>
<clus scale="  163.289">  2  3  1 -1</clus>
</clustering>
</event>
<event>
 6    0  0.4017242E+002  0.8067977E+02  0.7546771E-02  0.1327133E+00
          2   -1    0    0  503    0 -0.00000000000E+00  0.00000000000E+00  0.13836579936E+04  0.13836579936E+04  0.00000000000E+00 0. -1.
         21   -1    0    0  505  502  0.00000000000E+00 -0.00000000000E+00 -0.15242524634E+03  0.15242524634E+03  0.00000000000E+00 0. -1.
         21    1    1    2  503  502  0.27939741030E+02 -0.32155171393E+02  0.64025927850E+02  0.76901909035E+02  0.00000000000E+00 0. -1.
         21    1    1    2  504  501  0.63362558199E+02  0.10697337459E+03  0.16861374065E+02  0.12546881121E+03  0.00000000000E+00 0. -1.
         21    1    1    2  505  504 -0.65085456218E+02 -0.35605401689E+02 -0.76147835366E+02  0.10631253017E+03  0.00000000000E+00 0. -1.
          2    1    1    2  501    0 -0.26216843011E+02 -0.39212801505E+02  0.12264932807E+04  0.12273999895E+04  0.00000000000E+00 0. -1.
<scales pt_clust_3="42.59794" pt_clust_4="14000.00000" pt_clust_5="80.67977" pt_clust_6="69.25619"></scales>
<clustering>
<clus scale="   42.598">  1  3  2 -1</clus>
<clus scale="   69.256">  1  6  2 -1</clus>
<clus scale="   80.680">  2  5  1 -1</clus>
<clus scale="   80.680">  2  3  1 -1</clus>
</clustering>
</event>
<event>
 6    0  0.5434887E+002  0.2429770E+03  0.7546771E-02  0.1117825E+00
         -3   -1    0    0    0  501 -0.00000000000E+00  0.00000000000E+00  0.11755583624E+04  0.11755583624E+04  0.00000000000E+00 0. -1.
         21   -1    0    0  505  502  0.00000000000E+00 -0.00000000000E+00 -0.15779716510E+04  0.15779716510E+04  0.00000000000E+00 0.  1.
         21    1    1    2  503  504  0.15253568809E+03  0.90550649524E+02  0.20595422835E+02  0.17857975168E+03  0.00000000000E+00 0.  1.
         21    1    1    2  504  502 -0.15350560847E+03 -0.13509329031E+03 -0.14118268983E+04  0.14265585721E+04  0.00000000000E+00 0.  1.
         21    1    1    2  505  501 -0.44653922954E+02 -0.36120594258E+02 -0.67151784219E+02  0.88363070841E+02  0.00000000000E+00 0.  1.
         -3    1    1    2    0  503  0.45623843335E+02  0.80663235043E+02  0.10559699711E+04  0.10600286187E+04  0.00000000000E+00 0. -1.
<scales pt_clust_3="242.97696" pt_clust_4="14000.00000" pt_clust_5="57.43405" pt_clust_6="92.59970"></scales>
<clustering>
<clus scale="   57.434">  2  5  1 -1</clus>
<clus scale="   92.600">  1  6  2 -1</clus>
<clus scale="  242.977">  1  3  2 -1</clus>
<clus scale="   57.434">  2  3  1 -1</clus>
</clustering>
</event>
<event>
 6    0  0.4017242E+002  0.9995078E+02  0.7546771E-02  0.1280399E+00
          2   -1    0    0  503    0 -0.00000000000E+00  0.00000000000E+00  0.30078888010E+03  0.30078888010E+03  0.00000000000E+00 0.  1.
         21   -1    0    0  505  502  0.00000000000E+00 -0.00000000000E+00 -0.20071045624E+03  0.20071045624E+03  0.00000000000E+00 0.  1.
         21    1    1    2  503  504  0.79024689647E+01 -0.44120007840E+02 -0.30401590060E+02  0.54159770917E+02  0.00000000000E+00 0. -1.
         21    1    1    2  504  502  0.37023911080E+02 -0.18031687110E+02 -0.85169012104E+02  0.94602707966E+02  0.00000000000E+00 0.  1.
         21    1    1    2  505  501  0.62145657696E+02  0.60198162983E+02 -0.24389770011E+02  0.89893061346E+02  0.00000000000E+00 0.  1.
          2    1    1    2  501    0 -0.10707203774E+03  0.19535319668E+01  0.24003879603E+03  0.26284379611E+03  0.00000000000E+00 0.  1.
<scales pt_clust_3="55.55299" pt_clust_4="41.18145" pt_clust_5="14000.00000" pt_clust_6="99.95078"></scales>
<clustering>
<clus scale="   41.181">  2  4  1 -1</clus>
<clus scale="   55.553">  2  3  1 -1</clus>
<clus scale="   99.951">  1  6  2 -1</clus>
<clus scale="   41.181">  2  3  1 -1</clus>
</clustering>
</event>
<event>
 6    0  0.4017242E+002  0.9201549E+02  0.7546771E-02  0.1298043E+00
          2   -1    0    0  505    0 -0.00000000000E+00  0.00000000000E+00  0.16524502526E+04  0.16524502526E+04  0.00000000000E+00 0.  1.
         21   -1    0    0  503  502  0.00000000000E+00 -0.00000000000E+00 -0.16481729478E+03  0.16481729478E+03  0.00000000000E+00 0. -1.
         21    1    1    2  503  504 -0.25151618114E+02  0.25797833129E+02 -0.53289244236E+02  0.64326321511E+02  0.00000000000E+00 0. -1.
         21    1    1    2  504  501  0.13572410076E+03  0.98261644487E+01 -0.18998870512E+02  0.13739920711E+03  0.00000000000E+00 0. -1.
         21    1    1    2  505  502 -0.19818123564E+02 -0.25907941658E+02 -0.16449200881E+02  0.36531570896E+02  0.00000000000E+00 0. -1.
          2    1    1    2  501    0 -0.90754359080E+02 -0.97160559204E+01  0.15763702734E+04  0.15790104478E+04  0.00000000000E+00 0.  1.
<scales pt_clust_3="36.68741" pt_clust_4="92.01549" pt_clust_5="32.61870" pt_clust_6="14000.00000"></scales>
<clustering>
<clus scale="   32.619">  2  5  1 -1</clus>
<clus scale="   36.687">  2  3  1 -1</clus>
<clus scale="   92.015">  2  4  1 -1</clus>
<clus scale="   32.619">  2  3  1 -1</clus>
</clustering>
</event>
<event>
 6    0  0.4017242E+002  0.1494585E+03  0.7546771E-02  0.1201140E+00
          2   -1    0    0  503    0 -0.00000000000E+00  0.00000000000E+00  0.13729368161E+03  0.13729368161E+03  0.00000000000E+00 0.  1.
         21   -1    0    0  505  502  0.00000000000E+00 -0.00000000000E+00 -0.47536456010E+03  0.47536456010E+03  0.00000000000E+00 0. -1.
         21    1    1    2  503  502  0.32635175166E+02  0.45661319584E+02  0.10204003532E+01  0.56134231812E+02  0.00000000000E+00 0. -1.
         21    1    1    2  504  501  0.77384406072E+01 -0.39443300344E+02 -0.57113397504E+02  0.69839799395E+02  0.00000000000E+00 0. -1.
         21    1    1    2  505  504  0.34369916165E+02 -0.99748590628E+02 -0.33830097487E+03  0.35437074098E+03  0.00000000000E+00 0. -1.
          2    1    1    2  501    0 -0.74743531938E+02  0.93530571388E+02  0.56323093536E+02  0.13231346952E+03  0.00000000000E+00 0.  1.
<scales pt_clust_3="56.12496" pt_clust_4="30.58017" pt_clust_5="30.58017" pt_clust_6="141.00809"></scales>
<clustering>
<clus scale="   30.580">  4  5 -1 -1</clus>
<clus scale="   56.125">  1  3  2 -1</clus>
<clus scale="  141.008">  1  6  2 -1</clus>
<clus scale="  149.458">  2  3  1 -1</clus>
</clustering>
</event>
<event>
 6    0  0.4017242E+002  0.1345825E+03  0.7546771E-02  0.1220810E+00
         -1   -1    0    0    0  501 -0.00000000000E+00  0.00000000000E+00  0.85386755596E+02  0.85386755596E+02  0.00000000000E+00 0. -1.
         21   -1    0    0  505  502  0.00000000000E+00 -0.00000000000E+00 -0.32469935784E+04  0.32469935784E+04  0.00000000000E+00 0. -1.
         21    1    1    2  503  504 -0.19810415548E+01 -0.15042758130E+03 -0.49740869162E+03  0.51966122449E+03  0.00000000000E+00 0. -1.
         21    1    1    2  504  502  0.30932522272E+02  0.12860956009E+03 -0.21751257334E+04  0.21791441430E+04  0.00000000000E+00 0. -1.
         21    1    1    2  505  501 -0.50343122111E+02  0.62676169236E+02 -0.55073599878E+03  0.55657243238E+03  0.00000000000E+00 0. -1.
         -1    1    1    2    0  503  0.21391641394E+02 -0.40858148021E+02  0.61663600967E+02  0.77002534149E+02  0.00000000000E+00 0. -1.
<scales pt_clust_3="134.58246" pt_clust_4="14000.00000" pt_clust_5="72.18368" pt_clust_6="46.11931"></scales>
<clustering>
<clus scale="   46.119">  1  6  2 -1</clus>
<clus scale="   72.184">  1  5  2 -1</clus>
<clus scale="  134.582">  1  3  2 -1</clus>
<clus scale="  134.582">  2  3  1 -1</clus>
</clustering>
</event>
<event>
 6    0  0.4017242E+002  0.6898797E+02  0.7546771E-02  0.1363569E+00
          1   -1    0    0  504    0 -0.00000000000E+00  0.00000000000E+00  0.25494690782E+04  0.25494690782E+04  0.00000000000E+00 0.  1.
         21   -1    0    0  503  502  0.00000000000E+00 -0.00000000000E+00 -0.29852820626E+03  0.29852820626E+03  0.00000000000E+00 0. -1.
         21    1    1    2  503  501 -0.11138855768E+02  0.49402207738E+02  0.31860310367E+02  0.59830858375E+02  0.00000000000E+00 0. -1.
         21    1    1    2  504  505  0.95133104332E+02 -0.37716091619E+02 -0.20305646140E+03  0.22738675780E+03  0.00000000000E+00 0. -1.
         21    1    1    2  505  502 -0.32773818504E+02 -0.57811118627E+02 -0.52803759304E+02  0.84879241354E+02  0.00000000000E+00 0.  1.
          1    1    1    2  501    0 -0.51220430060E+02  0.46125002508E+02  0.24749407822E+04  0.24759004269E+04  0.00000000000E+00 0.  1.
<scales pt_clust_3="50.64240" pt_clust_4="14000.00000" pt_clust_5="57.97472" pt_clust_6="68.98797"></scales>
<clustering>
<clus scale="   50.642">  2  3  1 -1</clus>
<clus scale="   57.975">  2  5  1 -1</clus>
<clus scale="   68.988">  1  6  2 -1</clus>
<clus scale="   50.642">  2  3  1 -1</clus>
</clustering>
</event>
<event>
 6    0  0.4017242E+002  0.6303648E+02  0.7546771E-02  0.1385513E+00
         21   -1    0    0  503  502  0.00000000000E+00  0.00000000000E+00  0.27319315735E+02  0.27319315735E+02  0.00000000000E+00 0.  1.
          2   -1    0    0  504    0 -0.00000000000E+00 -0.00000000000E+00 -0.34480428090E+04  0.34480428090E+04  0.00000000000E+00 0. -1.
         21    1    1    2  503  501 -0.25928560607E+02  0.34352218829E+02 -0.21311406122E+03  0.21741657775E+03  0.00000000000E+00 0.  1.
         21    1    1    2  504  505 -0.74576061988E+02 -0.11934072838E+02 -0.26750205207E+03  0.27795927576E+03  0.00000000000E+00 0.  1.
         21    1    1    2  505  502  0.63702138392E+02 -0.70362949715E+02 -0.95182942827E+02  0.13441986361E+03  0.00000000000E+00 0.  1.
          2    1    1    2  501    0  0.36802484203E+02  0.47944803723E+02 -0.28449244372E+04  0.28455664077E+04  0.00000000000E+00 0. -1.
<scales pt_clust_3="43.03911" pt_clust_4="14000.00000" pt_clust_5="63.03648" pt_clust_6="60.58960"></scales>
<clustering>
<clus scale="   43.039">  1  3  2 -1</clus>
<clus scale="   60.590">  2  6  1 -1</clus>
<clus scale="   63.036">  1  5  2 -1</clus>
<clus scale="   43.039">  1  3  2 -1</clus>
</clustering>
</event>
<event>
 6    0  0.4017242E+002  0.8973856E+02  0.7546771E-02  0.1303486E+00
         -3   -1    0    0    0  501 -0.00000000000E+00  0.00000000000E+00  0.24178895844E+03  0.24178895844E+03  0.00000000000E+00 0.  1.
         21   -1    0    0  503  502  0.00000000000E+00 -0.00000000000E+00 -0.35828690851E+03  0.35828690851E+03  0.00000000000E+00 0.  1.
         21    1    1    2  503  504 -0.65681226723E+02  0.45894049239E+02 -0.26684137367E+03  0.27861192724E+03  0.00000000000E+00 0.  1.
         21    1    1    2  504  505  0.22549541279E+02 -0.63552638595E+02 -0.21470665589E+02  0.70770114915E+02  0.00000000000E+00 0.  1.
         21    1    1    2  505  501  0.43972682009E+02 -0.44913718221E+02 -0.50765873450E+01  0.63060372553E+02  0.00000000000E+00 0.  1.
         -3    1    1    2    0  502 -0.84099656515E+00  0.62572307577E+02  0.17689067654E+03  0.18763345223E+03  0.00000000000E+00 0.  1.
<scales pt_clust_3="83.88875" pt_clust_4="30.76882" pt_clust_5="30.76882" pt_clust_6="62.57796"></scales>
<clustering>
<clus scale="   30.769">  4  5 -1 -1</clus>
<clus scale="   62.578">  1  6  2 -1</clus>
<clus scale="   83.889">  2  3  1 -1</clus>
<clus scale="   83.889">  2  3  1 -1</clus>
</clustering>
</event>
<event>
 6    0  0.4017242E+002  0.9170584E+02  0.7546771E-02  0.1298773E+00
         -3   -1    0    0    0  501 -0.00000000000E+00  0.00000000000E+00  0.54025374238E+03  0.54025374238E+03  0.00000000000E+00 0. -1.
         21   -1    0    0  505  502  0.00000000000E+00 -0.00000000000E+00 -0.87797287256E+02  0.87797287256E+02  0.00000000000E+00 0.  1.
         21    1    1    2  503  504 -0.12821977346E+02 -0.37301709154E+02  0.10691837694E+02  0.40867297465E+02  0.00000000000E+00 0.  1.
         21    1    1    2  504  502 -0.34815545980E+02 -0.11383922102E+02 -0.42681530006E+02  0.56244367967E+02  0.00000000000E+00 0.  1.
         21    1    1    2  505  501 -0.31297269133E+02  0.99136608089E+02  0.14248857011E+03  0.17638191157E+03  0.00000000000E+00 0.  1.
         -3    1    1    2    0  503  0.78934792459E+02 -0.50450976834E+02  0.34195757733E+03  0.35455745264E+03  0.00000000000E+00 0. -1.
<scales pt_clust_3="49.49058" pt_clust_4="36.62944" pt_clust_5="14000.00000" pt_clust_6="91.70584"></scales>
<clustering>
<clus scale="   36.629">  2  4  1 -1</clus>
<clus scale="   49.491">  2  3  1 -1</clus>
<clus scale="   91.706">  1  6  2 -1</clus>
<clus scale="   36.629">  2  3  1 -1</clus>
</clustering>
</event>
<event>
 6    0  0.4017242E+002  0.2462518E+03  0.7546771E-02  0.1115697E+00
          2   -1    0    0  503    0 -0.00000000000E+00  0.00000000000E+00  0.29254197979E+03  0.29254197979E+03  0.00000000000E+00 0.  1.
         21   -1    0    0  505  502  0.00000000000E+00 -0.00000000000E+00 -0.75693723338E+03  0.75693723338E+03  0.00000000000E+00 0. -1.
         21    1    1    2  503  504  0.25466687411E+02 -0.71660979492E+02  0.76776605308E+01  0.76438175153E+02  0.00000000000E+00 0. -1.
         21    1    1    2  504  502  0.49910705112E+02 -0.12613859236E+03 -0.57730669693E+02  0.14742745060E+03  0.00000000000E+00 0. -1.
         21    1    1    2  505  501  0.10990570894E+01 -0.48332294923E+02 -0.53770405104E+03  0.53987300837E+03  0.00000000000E+00 0. -1.
          2    1    1    2  501    0 -0.76476449613E+02  0.24613186678E+03  0.12336180661E+03  0.28574057905E+03  0.00000000000E+00 0.  1.
<scales pt_clust_3="39.64916" pt_clust_4="39.64916" pt_clust_5="48.34479" pt_clust_6="240.49086"></scales>
<clustering>
<clus scale="   39.649">  3  4 -1 -1</clus>
<clus scale="   48.345">  2  5  1 -1</clus>
<clus scale="  240.491">  1  6  2 -1</clus>
<clus scale="   48.345">  2  3  1 -1</clus>
</clustering>
</event>
<event>
 6    0  0.4017242E+002  0.1361831E+03  0.7546771E-02  0.1218559E+00
          2   -1    0    0  505    0 -0.00000000000E+00  0.00000000000E+00  0.14372238981E+04  0.14372238981E+04  0.00000000000E+00 0.  1.
         21   -1    0    0  501  502  0.00000000000E+00 -0.00000000000E+00 -0.50071138326E+03  0.50071138326E+03  0.00000000000E+00 0.  1.
         21    1    1    2  503  504  0.21848487575E+02 -0.31979343416E+02 -0.16272104959E+02  0.42009715715E+02  0.00000000000E+00 0.  1.
         21    1    1    2  504  502 -0.30133007432E+02  0.71593429620E+02 -0.39101040426E+03  0.39865116774E+03  0.00000000000E+00 0.  1.
         21    1    1    2  505  503 -0.15155914724E+02 -0.15569851791E+03  0.84227149432E+01  0.15666101097E+03  0.00000000000E+00 0.  1.
          2    1    1    2  501    0  0.23440434581E+02  0.11608443171E+03  0.13353723091E+04  0.13406133869E+04  0.00000000000E+00 0.  1.
<scales pt_clust_3="32.01804" pt_clust_4="77.67636" pt_clust_5="32.01804" pt_clust_6="120.02154"></scales>
<clustering>
<clus scale="   32.018">  3  5 -1 -1</clus>
<clus scale="   77.676">  2  4  1 -1</clus>
<clus scale="  120.022">  1  6  2 -1</clus>
<clus scale="   77.676">  2  3  1 -1</clus>
</clustering>
</event>
<event>
 6    0  0.4017242E+002  0.1323606E+03  0.7546771E-02  0.1223994E+00
          2   -1    0    0  503    0 -0.00000000000E+00  0.00000000000E+00  0.41140804726E+02  0.41140804726E+02  0.00000000000E+00 0.  1.
         21   -1    0    0  505  502  0.00000000000E+00 -0.00000000000E+00 -0.10968002737E+04  0.10968002737E+04  0.00000000000E+00 0.  1.
         21    1    1    2  503  502 -0.11044974192E+03  0.59848108639E+02 -0.33370059012E+03  0.35656279313E+03  0.00000000000E+00 0.  1.
         21    1    1    2  504  501  0.53095690686E+01  0.37561951892E+02 -0.16469627589E+03  0.16900874251E+03  0.00000000000E+00 0. -1.
         21    1    1    2  505  504  0.43024791144E+02  0.35343701618E+02 -0.37198337752E+03  0.37612756220E+03  0.00000000000E+00 0.  1.
          2    1    1    2  501    0  0.62115381708E+02 -0.13275376215E+03 -0.18527922546E+03  0.23624198060E+03  0.00000000000E+00 0.  1.
<scales pt_clust_3="132.36063" pt_clust_4="31.93711" pt_clust_5="95.64800" pt_clust_6="14000.00000"></scales>
<clustering>
<clus scale="   31.937">  4  5 -1 -1</clus>
<clus scale="   95.648">  2  4  1 -1</clus>
<clus scale="  132.361">  2  3  1 -1</clus>
<clus scale="   95.648">  2  3  1 -1</clus>
</clustering>
</event>
<event>
 6    0  0.4017242E+002  0.1690215E+03  0.7546771E-02  0.1178872E+00
         21   -1    0    0  501  502  0.00000000000E+00  0.00000000000E+00  0.80159114706E+03  0.80159114706E+03  0.00000000000E+00 0.  1.
          2   -1    0    0  503    0 -0.00000000000E+00 -0.00000000000E+00 -0.58188045594E+03  0.58188045594E+03  0.00000000000E+00 0.  1.
         21    1    1    2  503  505  0.50073132567E+02  0.93730307711E+02 -0.26071988928E+02  0.10941863550E+03  0.00000000000E+00 0.  1.
         21    1    1    2  504  502 -0.69617704104E+02 -0.13640692277E+03  0.68273046008E+03  0.69969590140E+03  0.00000000000E+00 0.  1.
         21    1    1    2  505  504  0.44033139773E+02  0.80470937004E+02  0.36534197563E+02  0.98738223055E+02  0.00000000000E+00 0.  1.
          2    1    1    2  501    0 -0.24488568237E+02 -0.37794321944E+02 -0.47348197760E+03  0.47561884305E+03  0.00000000000E+00 0.  1.
<scales pt_clust_3="63.08599" pt_clust_4="156.68608" pt_clust_5="63.08599" pt_clust_6="45.03444"></scales>
<clustering>
<clus scale="   45.034">  2  6  1 -1</clus>
<clus scale="   63.086">  3  5 -1 -1</clus>
<clus scale="  156.686">  1  4  2 -1</clus>
<clus scale="  156.686">  1  3  2 -1</clus>
</clustering>
</event>
<event>
 6    0  0.4017242E+002  0.1084719E+03  0.7546771E-02  0.1263426E+00
         21   -1    0    0  503  502  0.00000000000E+00  0.00000000000E+00  0.70670819345E+02  0.70670819345E+02  0.00000000000E+00 0.  1.
          2   -1    0    0  504    0 -0.00000000000E+00 -0.00000000000E+00 -0.85646836760E+03  0.85646836760E+03  0.00000000000E+00 0.  1.
         21    1    1    2  503  505 -0.11599390782E+02 -0.56412818484E+02  0.16813415011E+02  0.59997023928E+02  0.00000000000E+00 0.  1.
         21    1    1    2  504  502  0.63340062072E+02  0.11200144788E+02 -0.48060060519E+02  0.80294309411E+02  0.00000000000E+00 0.  1.
         21    1    1    2  505  501 -0.62922238243E+01 -0.44027623937E+02 -0.26146753444E+02  0.51591437912E+02  0.00000000000E+00 0.  1.
          2    1    1    2  501    0 -0.45448447466E+02  0.89240297633E+02 -0.72840414930E+03  0.73525641569E+03  0.00000000000E+00 0.  1.
<scales pt_clust_3="38.86968" pt_clust_4="64.32268" pt_clust_5="38.86968" pt_clust_6="99.04379"></scales>
<clustering>
<clus scale="   38.870">  3  5 -1 -1</clus>
<clus scale="   64.323">  1  4  2 -1</clus>
<clus scale="   99.044">  2  6  1 -1</clus>
<clus scale="   64.323">  1  3  2 -1</clus>
</clustering>
</event>
<event>
 6    0  0.4017242E+002  0.1852070E+03  0.7546771E-02  0.1162857E+00
          2   -1    0    0  504    0 -0.00000000000E+00  0.00000000000E+00  0.14376967039E+04  0.14376967039E+04  0.00000000000E+00 0. -1.
         21   -1    0    0  501  502  0.00000000000E+00 -0.00000000000E+00 -0.65302411849E+03  0.65302411849E+03  0.00000000000E+00 0.  1.
         21    1    1    2  503  502 -0.13346385111E+02 -0.33587246104E+02 -0.27657123712E+03  0.27892271026E+03  0.00000000000E+00 0.  1.
         21    1    1    2  504  505  0.68946734472E+02  0.45383275861E+02  0.14644100290E+03  0.16810193709E+03  0.00000000000E+00 0. -1.
         21    1    1    2  505  503 -0.16808267999E+03 -0.13878747087E+02 -0.34228717744E+03  0.38158212586E+03  0.00000000000E+00 0.  1.
          2    1    1    2  501    0  0.11248233063E+03  0.20827173299E+01  0.12570899970E+04  0.12621140492E+04  0.00000000000E+00 0. -1.
<scales pt_clust_3="36.14179" pt_clust_4="81.69019" pt_clust_5="185.20700" pt_clust_6="14000.00000"></scales>
<clustering>
<clus scale="   36.142">  2  3  1 -1</clus>
<clus scale="   81.690">  1  4  2 -1</clus>
<clus scale="  185.207">  2  5  1 -1</clus>
<clus scale="   36.142">  2  3  1 -1</clus>
</clustering>
</event>
<event>
 6    0  0.4017242E+002  0.1243804E+03  0.7546771E-02  0.1236041E+00
         21   -1    0    0  504  502  0.00000000000E+00  0.00000000000E+00  0.11481125726E+02  0.11481125726E+02  0.00000000000E+00 0.  1.
          2   -1    0    0  505    0 -0.00000000000E+00 -0.00000000000E+00 -0.23356814557E+04  0.23356814557E+04  0.00000000000E+00 0. -1.
         21    1    1    2  503  502  0.48842833094E+02  0.26431735411E+02 -0.52761086465E+03  0.53052566713E+03  0.00000000000E+00 0. -1.
         21    1    1    2  504  501 -0.11125185328E+03  0.12754489323E+02 -0.45388938074E+03  0.46749890032E+03  0.00000000000E+00 0.  1.
         21    1    1    2  505  503  0.76232871946E+02 -0.90310914084E+01 -0.50689660703E+03  0.51267648824E+03  0.00000000000E+00 0. -1.
          2    1    1    2  501    0 -0.13823851761E+02 -0.30155133325E+02 -0.83580347757E+03  0.83646152575E+03  0.00000000000E+00 0. -1.
<scales pt_clust_3="36.54745" pt_clust_4="115.55156" pt_clust_5="36.54745" pt_clust_6="33.17274"></scales>
<clustering>
<clus scale="   33.173">  2  6  1 -1</clus>
<clus scale="   36.547">  3  5 -1 -1</clus>
<clus scale="  115.552">  1  4  2 -1</clus>
<clus scale="  115.552">  1  3  2 -1</clus>
</clustering>
</event>
<event>
 6    0  0.4017242E+002  0.9940022E+02  0.7546771E-02  0.1281562E+00
          2   -1    0    0  505    0 -0.00000000000E+00  0.00000000000E+00  0.15266410045E+04  0.15266410045E+04  0.00000000000E+00 0.  1.
         21   -1    0    0  503  502  0.00000000000E+00 -0.00000000000E+00 -0.22521767988E+03  0.22521767988E+03  0.00000000000E+00 0. -1.
         21    1    1    2  503  501  0.59293153158E+02 -0.15372324447E+02 -0.59954996675E+02  0.85712239479E+02  0.00000000000E+00 0. -1.
         21    1    1    2  504  502  0.39997482540E+02  0.35760399501E+02  0.17568824517E+02  0.56455897628E+02  0.00000000000E+00 0. -1.
         21    1    1    2  505  504 -0.17529824821E+03  0.42378512544E+02 -0.69257839851E+02  0.19318918845E+03  0.00000000000E+00 0. -1.
          2    1    1    2  501    0  0.76007612515E+02 -0.62766587599E+02  0.14130673366E+04  0.14165013588E+04  0.00000000000E+00 0.  1.
<scales pt_clust_3="73.50039" pt_clust_4="53.65263" pt_clust_5="14000.00000" pt_clust_6="99.40022"></scales>
<clustering>
<clus scale="   53.653">  2  4  1 -1</clus>
<clus scale="   73.500">  2  3  1 -1</clus>
<clus scale="   99.400">  1  6  2 -1</clus>
<clus scale="   53.653">  2  3  1 -1</clus>
</clustering>
</event>
<event>
 6    0  0.4017242E+002  0.1075986E+03  0.7546771E-02  0.1265083E+00
          2   -1    0    0  505    0 -0.00000000000E+00  0.00000000000E+00  0.51516331258E+03  0.51516331258E+03  0.00000000000E+00 0.  1.
         21   -1    0    0  504  502  0.00000000000E+00 -0.00000000000E+00 -0.72434166765E+02  0.72434166765E+02  0.00000000000E+00 0.  1.
         21    1    1    2  503  501 -0.11072276617E+02  0.56319253257E+02  0.39528623211E+02  0.69691933894E+02  0.00000000000E+00 0.  1.
         21    1    1    2  504  503 -0.38954851683E+01 -0.62502083911E+02 -0.13910779443E+02  0.64149786302E+02  0.00000000000E+00 0.  1.
         21    1    1    2  505  502  0.15814186351E+02 -0.82041333733E+02  0.26555615002E+03  0.27838990237E+03  0.00000000000E+00 0.  1.
          2    1    1    2  501    0 -0.84642456536E+00  0.88224164386E+02  0.15155515203E+03  0.17536585678E+03  0.00000000000E+00 0.  1.
<scales pt_clust_3="40.37249" pt_clust_4="62.62336" pt_clust_5="95.24705" pt_clust_6="40.37249"></scales>
<clustering>
<clus scale="   40.372">  3  6 -1 -1</clus>
<clus scale="   62.623">  2  4  1 -1</clus>
<clus scale="   95.247">  1  5  2 -1</clus>
<clus scale="   62.623">  2  3  1 -1</clus>
</clustering>
</event>
<event>
 6    0  0.4017242E+002  0.1492790E+03  0.7546771E-02  0.1201362E+00
          1   -1    0    0  505    0 -0.00000000000E+00  0.00000000000E+00  0.20814257254E+04  0.20814257254E+04  0.00000000000E+00 0.  1.
         21   -1    0    0  504  502  0.00000000000E+00 -0.00000000000E+00 -0.46197866853E+03  0.46197866853E+03  0.00000000000E+00 0. -1.
         21    1    1    2  503  501  0.68051693914E+02  0.13100525028E+03 -0.13142378431E+03  0.19765024596E+03  0.00000000000E+00 0. -1.
         21    1    1    2  504  503 -0.69105392210E+02 -0.12850286736E+03 -0.23731798820E+03  0.27858278783E+03  0.00000000000E+00 0. -1.
         21    1    1    2  505  502 -0.32846612417E+02 -0.84820897032E+00 -0.32489454356E+02  0.46208051789E+02  0.00000000000E+00 0. -1.
          1    1    1    2  501    0  0.33900310713E+02 -0.16541739451E+01  0.20206782837E+04  0.20209633083E+04  0.00000000000E+00 0.  1.
<scales pt_clust_3="149.27904" pt_clust_4="14000.00000" pt_clust_5="32.85756" pt_clust_6="33.92960"></scales>
<clustering>
<clus scale="   32.858">  2  5  1 -1</clus>
<clus scale="   33.930">  1  6  2 -1</clus>
<clus scale="  149.279">  1  3  2 -1</clus>
<clus scale="   32.858">  2  3  1 -1</clus>
</clustering>
</event>
<event>
 6    0  0.4017242E+002  0.6844078E+02  0.7546771E-02  0.1365477E+00
         21   -1    0    0  504  502  0.00000000000E+00  0.00000000000E+00  0.56335981696E+03  0.56335981696E+03  0.00000000000E+00 0. -1.
          2   -1    0    0  505    0 -0.00000000000E+00 -0.00000000000E+00 -0.10694065803E+03  0.10694065803E+03  0.00000000000E+00 0.  1.
         21    1    1    2  503  502 -0.56900759671E+02  0.22821797480E+02  0.15586768971E+03  0.16749109703E+03  0.00000000000E+00 0. -1.
         21    1    1    2  504  501  0.19014322923E+02  0.35796997096E+02  0.34139416808E+03  0.34379201195E+03  0.00000000000E+00 0. -1.
         21    1    1    2  505  503  0.82603383751E+02 -0.37695364124E+01 -0.26299379532E+02  0.86770880920E+02  0.00000000000E+00 0.  1.
          2    1    1    2  501    0 -0.44716947003E+02 -0.54849258163E+02 -0.14543319330E+02  0.72246485087E+02  0.00000000000E+00 0.  1.
<scales pt_clust_3="65.20437" pt_clust_4="40.53356" pt_clust_5="68.44078" pt_clust_6="14000.00000"></scales>
<clustering>
<clus scale="   40.534">  1  4  2 -1</clus>
<clus scale="   65.204">  1  3  2 -1</clus>
<clus scale="   68.441">  1  5  2 -1</clus>
<clus scale="   40.534">  1  3  2 -1</clus>
</clustering>
</event>
<event>
 6    0  0.4017242E+002  0.2007962E+03  0.7546771E-02  0.1149069E+00
          1   -1    0    0  505    0 -0.00000000000E+00  0.00000000000E+00  0.42540939902E+03  0.42540939902E+03  0.00000000000E+00 0. -1.
         21   -1    0    0  501  502  0.00000000000E+00 -0.00000000000E+00 -0.10647843630E+04  0.10647843630E+04  0.00000000000E+00 0.  1.
         21    1    1    2  503  502 -0.22822195215E+02  0.23618339503E+02 -0.37556834010E+03  0.37700166662E+03  0.00000000000E+00 0.  1.
         21    1    1    2  504  503  0.33752202745E+02  0.36607313255E+02 -0.27412501269E+03  0.27861053310E+03  0.00000000000E+00 0. -1.
         21    1    1    2  505  504 -0.13498243829E+01  0.12643196339E+03 -0.38072294523E+03  0.40116932138E+03  0.00000000000E+00 0.  1.
          1    1    1    2  501    0 -0.95801831471E+01 -0.18665761614E+03  0.39104133408E+03  0.43341224087E+03  0.00000000000E+00 0. -1.
<scales pt_clust_3="32.84324" pt_clust_4="45.79317" pt_clust_5="45.79317" pt_clust_6="186.21497"></scales>
<clustering>
<clus scale="   32.843">  2  3  1 -1</clus>
<clus scale="   45.793">  4  5 -1 -1</clus>
<clus scale="  186.215">  1  6  2 -1</clus>
<clus scale="   32.843">  2  3  1 -1</clus>
</clustering>
</event>
<event>
 6    0  0.4017242E+002  0.1680216E+03  0.7546771E-02  0.1179927E+00
         21   -1    0    0  503  502  0.00000000000E+00  0.00000000000E+00  0.43472966154E+03  0.43472966154E+03  0.00000000000E+00 0. -1.
         -2   -1    0    0    0  501 -0.00000000000E+00 -0.00000000000E+00 -0.37062357802E+03  0.37062357802E+03  0.00000000000E+00 0. -1.
         21    1    1    2  503  505  0.84101763419E+02 -0.14680176706E+03  0.29805308131E+03  0.34272365646E+03  0.00000000000E+00 0. -1.
         21    1    1    2  504  501  0.55958677068E+01 -0.60639956938E+02 -0.12859129673E+03  0.14228225366E+03  0.00000000000E+00 0. -1.
         21    1    1    2  505  504 -0.31426467848E+02  0.21624202632E+03 -0.13241137666E+03  0.25550148629E+03  0.00000000000E+00 0. -1.
         -2    1    1    2    0  502 -0.58271163277E+02 -0.88003023184E+01  0.27055675613E+02  0.64845843147E+02  0.00000000000E+00 0. -1.
<scales pt_clust_3="168.02165" pt_clust_4="60.96642" pt_clust_5="14000.00000" pt_clust_6="58.93194"></scales>
<clustering>
<clus scale="   58.932">  1  6  2 -1</clus>
<clus scale="   60.966">  2  4  1 -1</clus>
<clus scale="  168.022">  1  3  2 -1</clus>
<clus scale="   58.932">  1  3  2 -1</clus>
</clustering>
</event>
<event>
 6    0  0.4017242E+002  0.1132204E+03  0.7546771E-02  0.1254720E+00
         21   -1    0    0  501  502  0.00000000000E+00  0.00000000000E+00  0.80203785131E+02  0.80203785131E+02  0.00000000000E+00 0. -1.
          2   -1    0    0  504    0 -0.00000000000E+00 -0.00000000000E+00 -0.15075481407E+04  0.15075481407E+04  0.00000000000E+00 0. -1.
         21    1    1    2  503  502  0.31477706256E+02 -0.43978060765E+01  0.13732374680E+02  0.34623183039E+02  0.00000000000E+00 0.  1.
         21    1    1    2  504  505 -0.57089960267E+02  0.11860853514E+03 -0.12121596941E+03  0.17894289428E+03  0.00000000000E+00 0. -1.
         21    1    1    2  505  503 -0.20752431001E+02 -0.10641431777E+03 -0.83281495821E+02  0.13671312287E+03  0.00000000000E+00 0. -1.
          2    1    1    2  501    0  0.46364685012E+02 -0.77964113014E+01 -0.12365792650E+04  0.12374727256E+04  0.00000000000E+00 0. -1.
<scales pt_clust_3="31.78343" pt_clust_4="14000.00000" pt_clust_5="113.22045" pt_clust_6="47.26895"></scales>
<clustering>
<clus scale="   31.783">  1  3  2 -1</clus>
<clus scale="   47.269">  2  6  1 -1</clus>
<clus scale="  113.220">  1  5  2 -1</clus>
<clus scale="   31.783">  1  3  2 -1</clus>
</clustering>
</event>
<event>
 6    0  0.4017242E+002  0.1376334E+03  0.7546771E-02  0.1216549E+00
          4   -1    0    0  503    0 -0.00000000000E+00  0.00000000000E+00  0.19332655444E+03  0.19332655444E+03  0.00000000000E+00 0. -1.
         21   -1    0    0  504  502  0.00000000000E+00 -0.00000000000E+00 -0.30798538315E+03  0.30798538315E+03  0.00000000000E+00 0.  1.
         21    1    1    2  503  505 -0.30223226876E+02 -0.52402616374E+01 -0.35613673392E+01  0.30880205992E+02  0.00000000000E+00 0.  1.
         21    1    1    2  504  501  0.38241811739E+02  0.25487636198E+02 -0.11925306141E+03  0.12780198911E+03  0.00000000000E+00 0.  1.
         21    1    1    2  505  502 -0.42448029654E+02 -0.15327115318E+03 -0.81353567883E+02  0.17864009803E+03  0.00000000000E+00 0.  1.
          4    1    1    2  501    0  0.34429444790E+02  0.13302377862E+03  0.89509167924E+02  0.16398964445E+03  0.00000000000E+00 0. -1.
<scales pt_clust_3="30.67415" pt_clust_4="45.29060" pt_clust_5="137.63340" pt_clust_6="14000.00000"></scales>
<clustering>
<clus scale="   30.674">  1  3  2 -1</clus>
<clus scale="   45.291">  2  4  1 -1</clus>
<clus scale="  137.633">  2  5  1 -1</clus>
<clus scale="   45.291">  2  3  1 -1</clus>
</clustering>
</event>
<event>
 6    0  0.4017242E+002  0.8347428E+02  0.7546771E-02  0.1319471E+00
         -3   -1    0    0    0  501 -0.00000000000E+00  0.00000000000E+00  0.21302527141E+03  0.21302527141E+03  0.00000000000E+00 0. -1.
         21   -1    0    0  505  502  0.00000000000E+00 -0.00000000000E+00 -0.39594731418E+03  0.39594731418E+03  0.00000000000E+00 0.  1.
         21    1    1    2  503  501 -0.23984419517E+02  0.27858330108E+02 -0.10922795747E+02  0.38349007848E+02  0.00000000000E+00 0. -1.
         21    1    1    2  504  502 -0.75785800680E+02  0.19253562072E+02 -0.27022598920E+03  0.28131169986E+03  0.00000000000E+00 0.  1.
         21    1    1    2  505  503  0.14087430712E+03  0.82387023621E+00 -0.32105033216E+02  0.14448869273E+03  0.00000000000E+00 0. -1.
         -3    1    1    2    0  504 -0.41104086923E+02 -0.47935762417E+02  0.13033177540E+03  0.14482318516E+03  0.00000000000E+00 0. -1.
<scales pt_clust_3="36.76056" pt_clust_4="14000.00000" pt_clust_5="83.47428" pt_clust_6="64.41023"></scales>
<clustering>
<clus scale="   36.761">  1  3  2 -1</clus>
<clus scale="   64.410">  1  6  2 -1</clus>
<clus scale="   83.474">  1  5  2 -1</clus>
<clus scale="   83.474">  2  3  1 -1</clus>
</clustering>
</event>
<event>
 6    0  0.6431189E+002  0.1011031E+03  0.7546771E-02  0.1277993E+00
         21   -1    0    0  503  502  0.00000000000E+00  0.00000000000E+00  0.77785263871E+03  0.77785263871E+03  0.00000000000E+00 0.  1.
          2   -1    0    0  505    0 -0.00000000000E+00 -0.00000000000E+00 -0.35167829819E+04  0.35167829819E+04  0.00000000000E+00 0.  1.
         21    1    1    2  503  504 -0.69588158041E+02  0.58517423103E+02  0.18854777660E+03  0.20932526032E+03  0.00000000000E+00 0.  1.
         21    1    1    2  504  501  0.58517983662E+02  0.96403433541E+01 -0.55107038092E+02  0.80957249701E+02  0.00000000000E+00 0.  1.
         21    1    1    2  505  502 -0.36842193455E+02 -0.10050735565E+03  0.56068396903E+03  0.57081134264E+03  0.00000000000E+00 0.  1.
          2    1    1    2  501    0  0.47912367834E+02  0.32349589198E+02 -0.34330550507E+04  0.34335417679E+04  0.00000000000E+00 0.  1.
<scales pt_clust_3="89.21822" pt_clust_4="101.10310" pt_clust_5="14000.00000" pt_clust_6="57.81082"></scales>
<clustering>
<clus scale="   57.811">  2  6  1 -1</clus>
<clus scale="   89.218">  1  3  2 -1</clus>
<clus scale="  101.103">  2  4  1 -1</clus>
<clus scale="   89.218">  1  3  2 -1</clus>
</clustering>
</event>
<event>
 6    0  0.4017242E+002  0.1054517E+03  0.7546771E-02  0.1269232E+00
          2   -1    0    0  505    0 -0.00000000000E+00  0.00000000000E+00  0.90908207800E+03  0.90908207800E+03  0.00000000000E+00 0.  1.
         21   -1    0    0  503  502  0.00000000000E+00 -0.00000000000E+00 -0.86670029763E+02  0.86670029763E+02  0.00000000000E+00 0.  1.
         21    1    1    2  503  501 -0.26779115002E+02  0.50507889254E+02  0.10801380937E+02  0.58179358086E+02  0.00000000000E+00 0. -1.
         21    1    1    2  504  502  0.80478609599E+02 -0.25175755106E+02 -0.60784830225E+01  0.84543321463E+02  0.00000000000E+00 0.  1.
         21    1    1    2  505  504  0.23390173499E+02  0.66831607943E+02  0.85341757703E+02  0.11089084563E+03  0.00000000000E+00 0.  1.
          2    1    1    2  501    0 -0.77089668095E+02 -0.92163742091E+02  0.73234739262E+03  0.74213858258E+03  0.00000000000E+00 0.  1.
<scales pt_clust_3="57.16789" pt_clust_4="62.22199" pt_clust_5="14000.00000" pt_clust_6="105.45170"></scales>
<clustering>
<clus scale="   57.168">  2  3  1 -1</clus>
<clus scale="   62.222">  2  4  1 -1</clus>
<clus scale="  105.452">  1  6  2 -1</clus>
<clus scale="   57.168">  2  3  1 -1</clus>
</clustering>
</event>
<event>
 6    0  0.4017242E+002  0.2071672E+03  0.7546771E-02  0.1143829E+00
          2   -1    0    0  504    0 -0.00000000000E+00  0.00000000000E+00  0.40791838204E+04  0.40791838204E+04  0.00000000000E+00 0.  1.
         21   -1    0    0  505  502  0.00000000000E+00 -0.00000000000E+00 -0.24905809490E+02  0.24905809490E+02  0.00000000000E+00 0.  1.
         21    1    1    2  503  502  0.63729667411E+02  0.25930930024E+02  0.13189529543E+03  0.14876240317E+03  0.00000000000E+00 0.  1.
         21    1    1    2  504  503  0.14311601047E+03 -0.46888974164E+02  0.58742536519E+03  0.60642339007E+03  0.00000000000E+00 0.  1.
         21    1    1    2  505  501 -0.15132875449E+03 -0.30610478674E+02  0.92812639112E+03  0.94088043408E+03  0.00000000000E+00 0. -1.
          2    1    1    2  501    0 -0.55516923397E+02  0.51568522815E+02  0.24068309592E+04  0.24080234026E+04  0.00000000000E+00 0.  1.
<scales pt_clust_3="66.42873" pt_clust_4="66.42873" pt_clust_5="182.37116" pt_clust_6="75.77230"></scales>
<clustering>
<clus scale="   66.429">  3  4 -1 -1</clus>
<clus scale="   75.772">  1  6  2 -1</clus>
<clus scale="  182.371">  1  5  2 -1</clus>
<clus scale="  207.167">  2  3  1 -1</clus>
</clustering>
</event>
<event>
 6    0  0.4017242E+002  0.1413464E+03  0.7546771E-02  0.1211529E+00
         21   -1    0    0  503  502  0.00000000000E+00  0.00000000000E+00  0.47530579860E+03  0.47530579860E+03  0.00000000000E+00 0.  1.
          1   -1    0    0  504    0 -0.00000000000E+00 -0.00000000000E+00 -0.28870656232E+04  0.28870656232E+04  0.00000000000E+00 0.  1.
         21    1    1    2  503  505 -0.46067820083E+02  0.28974230154E+02  0.37048423392E+03  0.37446003477E+03  0.00000000000E+00 0.  1.
         21    1    1    2  504  502 -0.10193264266E+03 -0.28718904551E+02  0.40153974275E+02  0.11325802739E+03  0.00000000000E+00 0. -1.
         21    1    1    2  505  501  0.16817608799E+03  0.39692787137E+02 -0.26192244150E+03  0.31378667799E+03  0.00000000000E+00 0. -1.
          1    1    1    2  501    0 -0.20175625252E+02 -0.39948112740E+02 -0.25604755912E+04  0.25608666816E+04  0.00000000000E+00 0.  1.
<scales pt_clust_3="54.39712" pt_clust_4="141.34639" pt_clust_5="14000.00000" pt_clust_6="44.75386"></scales>
<clustering>
<clus scale="   44.754">  2  6  1 -1</clus>
<clus scale="   54.397">  1  3  2 -1</clus>
<clus scale="  141.346">  1  4  2 -1</clus>
<clus scale="   54.397">  1  3  2 -1</clus>
</clustering>
</event>
<event>
 6    0  0.4017242E+002  0.8711548E+02  0.7546771E-02  0.1309991E+00
         21   -1    0    0  503  502  0.00000000000E+00  0.00000000000E+00  0.45425162242E+03  0.45425162242E+03  0.00000000000E+00 0.  1.
          1   -1    0    0  505    0 -0.00000000000E+00 -0.00000000000E+00 -0.17106940221E+03  0.17106940221E+03  0.00000000000E+00 0.  1.
         21    1    1    2  503  504 -0.35862519762E+02 -0.35646742448E+01  0.11027561371E+03  0.11601524988E+03  0.00000000000E+00 0.  1.
         21    1    1    2  504  501 -0.59129248445E+02 -0.49270624828E+02  0.50727927592E+02  0.92180177535E+02  0.00000000000E+00 0.  1.
         21    1    1    2  505  502  0.60770981479E+02  0.89568465615E+02  0.25398233656E+03  0.27608449704E+03  0.00000000000E+00 0.  1.
          1    1    1    2  501    0  0.34220786728E+02 -0.36733166543E+02 -0.13180365765E+03  0.14104110018E+03  0.00000000000E+00 0.  1.
<scales pt_clust_3="36.03925" pt_clust_4="87.11548" pt_clust_5="14000.00000" pt_clust_6="49.90929"></scales>
<clustering>
<clus scale="   36.039">  1  3  2 -1</clus>
<clus scale="   49.909">  2  6  1 -1</clus>
<clus scale="   87.115">  2  4  1 -1</clus>
<clus scale="   36.039">  1  3  2 -1</clus>
</clustering>
</event>
<event>
 6    0  0.4017242E+002  0.8141140E+02  0.7546771E-02  0.1325093E+00
         21   -1    0    0  503  502  0.00000000000E+00  0.00000000000E+00  0.15838981940E+03  0.15838981940E+03  0.00000000000E+00 0. -1.
          2   -1    0    0  504    0 -0.00000000000E+00 -0.00000000000E+00 -0.16208094059E+03  0.16208094059E+03  0.00000000000E+00 0.  1.
         21    1    1    2  503  505 -0.84615476826E+02 -0.13336829057E+02  0.67540428076E+02  0.10908418470E+03  0.00000000000E+00 0. -1.
         21    1    1    2  504  502 -0.23884687844E+02 -0.30771449652E+02 -0.22204055853E+01  0.39016543005E+02  0.00000000000E+00 0.  1.
         21    1    1    2  505  501  0.59110534937E+02  0.60124042026E+02  0.20762261428E+01  0.84340183099E+02  0.00000000000E+00 0.  1.
          2    1    1    2  501    0  0.49389629733E+02 -0.16015763316E+02 -0.71087369823E+02  0.88029849188E+02  0.00000000000E+00 0.  1.
<scales pt_clust_3="14000.00000" pt_clust_4="38.95331" pt_clust_5="81.41140" pt_clust_6="49.02273"></scales>
<clustering>
<clus scale="   38.953">  2  4  1 -1</clus>
<clus scale="   49.023">  2  6  1 -1</clus>
<clus scale="   81.411">  2  5  1 -1</clus>
<clus scale="   81.411">  1  3  2 -1</clus>
</clustering>
</event>
<event>
 6    0  0.4017242E+002  0.1256461E+03  0.7546771E-02  0.1234063E+00
          1   -1    0    0  502    0 -0.00000000000E+00  0.00000000000E+00  0.92157344670E+03  0.92157344670E+03  0.00000000000E+00 0. -1.
         21   -1    0    0  504  502  0.00000000000E+00 -0.00000000000E+00 -0.23162306716E+03  0.23162306716E+03  0.00000000000E+00 0.  1.
         21    1    1    2  503  505 -0.14742494391E+03 -0.83650051130E+02  0.25815584346E+03  0.30882986360E+03  0.00000000000E+00 0. -1.
         21    1    1    2  504  503  0.11408349519E+03  0.45581615938E+02 -0.18344284968E+03  0.22078044906E+03  0.00000000000E+00 0.  1.
         21    1    1    2  505  501  0.40943546385E+01  0.54056904714E+02  0.20668610378E+03  0.21367746298E+03  0.00000000000E+00 0. -1.
          1    1    1    2  501    0  0.29247094073E+02 -0.15988469523E+02  0.40855128198E+03  0.40990873823E+03  0.00000000000E+00 0. -1.
<scales pt_clust_3="14000.00000" pt_clust_4="125.64609" pt_clust_5="50.14995" pt_clust_6="33.33202"></scales>
<clustering>
<clus scale="   33.332">  1  6  2 -1</clus>
<clus scale="   50.150">  1  5  2 -1</clus>
<clus scale="  125.646">  2  4  1 -1</clus>
<clus scale="  125.646">  2  3  1 -1</clus>
</clustering>
</event>
<event>
 6    0  0.4017242E+002  0.9901848E+02  0.7546771E-02  0.1282374E+00
         21   -1    0    0  504  502  0.00000000000E+00  0.00000000000E+00  0.21454800378E+02  0.21454800378E+02  0.00000000000E+00 0. -1.
          2   -1    0    0  503    0 -0.00000000000E+00 -0.00000000000E+00 -0.25530534172E+04  0.25530534172E+04  0.00000000000E+00 0.  1.
         21    1    1    2  503  505 -0.47806304266E+02  0.60755550838E+02 -0.13214965327E+03  0.15310196127E+03  0.00000000000E+00 0. -1.
         21    1    1    2  504  501  0.97650007730E+01 -0.83900614186E+02 -0.28928118664E+03  0.30136070288E+03  0.00000000000E+00 0. -1.
         21    1    1    2  505  502 -0.46918477968E+02  0.30824388741E+02 -0.19346220192E+03  0.20144257268E+03  0.00000000000E+00 0.  1.
          2    1    1    2  501    0  0.84959781461E+02 -0.76793253928E+01 -0.19167055750E+04  0.19186029807E+04  0.00000000000E+00 0.  1.
<scales pt_clust_3="41.03660" pt_clust_4="84.46697" pt_clust_5="41.03660" pt_clust_6="86.51927"></scales>
<clustering>
<clus scale="   41.037">  3  5 -1 -1</clus>
<clus scale="   84.467">  1  4  2 -1</clus>
<clus scale="   86.519">  2  6  1 -1</clus>
<clus scale="   84.467">  1  3  2 -1</clus>
</clustering>
</event>
<event>
 6    0  0.4017242E+002  0.1249806E+03  0.7546771E-02  0.1235100E+00
         21   -1    0    0  504  502  0.00000000000E+00  0.00000000000E+00  0.51586307201E+03  0.51586307201E+03  0.00000000000E+00 0. -1.
          2   -1    0    0  503    0 -0.00000000000E+00 -0.00000000000E+00 -0.27594697860E+03  0.27594697860E+03  0.00000000000E+00 0.  1.
         21    1    1    2  503  502  0.88731099789E+02  0.56666124819E+02  0.29333842300E+03  0.31165957097E+03  0.00000000000E+00 0. -1.
         21    1    1    2  504  505 -0.19988908001E+02 -0.38244524902E+02  0.58223638270E+02  0.72472009641E+02  0.00000000000E+00 0.  1.
         21    1    1    2  505  501 -0.16763119502E+02  0.10083836792E+03  0.11031882341E+03  0.15039820949E+03  0.00000000000E+00 0. -1.
          2    1    1    2  501    0 -0.51979072286E+02 -0.11925996783E+03 -0.22196479126E+03  0.25728026050E+03  0.00000000000E+00 0.  1.
<scales pt_clust_3="81.43529" pt_clust_4="43.15322" pt_clust_5="14000.00000" pt_clust_6="124.98057"></scales>
<clustering>
<clus scale="   43.153">  1  4  2 -1</clus>
<clus scale="   81.435">  1  3  2 -1</clus>
<clus scale="  124.981">  2  6  1 -1</clus>
<clus scale="   43.153">  1  3  2 -1</clus>
</clustering>
</event>
<event>
 6    0  0.4017242E+002  0.1133967E+03  0.7546771E-02  0.1254406E+00
         21   -1    0    0  501  502  0.00000000000E+00  0.00000000000E+00  0.81711686885E+02  0.81711686885E+02  0.00000000000E+00 0. -1.
          2   -1    0    0  505    0 -0.00000000000E+00 -0.00000000000E+00 -0.44109932095E+04  0.44109932095E+04  0.00000000000E+00 0.  1.
         21    1    1    2  503  504  0.12734507436E+01 -0.68870476525E+02 -0.91829187366E+03  0.92087172257E+03  0.00000000000E+00 0.  1.
         21    1    1    2  504  502  0.22063976999E+02  0.11335733434E+03  0.38135216237E+02  0.12161825129E+03  0.00000000000E+00 0. -1.
         21    1    1    2  505  503  0.24015762946E+02 -0.27195040596E+02 -0.13996542871E+04  0.14001244411E+04  0.00000000000E+00 0.  1.
          2    1    1    2  501    0 -0.47353190689E+02 -0.17291817223E+02 -0.20494705781E+04  0.20500904814E+04  0.00000000000E+00 0.  1.
<scales pt_clust_3="14000.00000" pt_clust_4="113.39670" pt_clust_5="36.28122" pt_clust_6="47.36305"></scales>
<clustering>
<clus scale="   36.281">  2  5  1 -1</clus>
<clus scale="   47.363">  2  6  1 -1</clus>
<clus scale="  113.397">  1  4  2 -1</clus>
<clus scale="  113.397">  1  3  2 -1</clus>
</clustering>
</event>
<event>
 6    0  0.4017242E+002  0.1226782E+03  0.7546771E-02  0.1238743E+00
          2   -1    0    0  503    0 -0.00000000000E+00  0.00000000000E+00  0.12477011902E+04  0.12477011902E+04  0.00000000000E+00 0.  1.
         21   -1    0    0  505  502  0.00000000000E+00 -0.00000000000E+00 -0.59156069735E+02  0.59156069735E+02  0.00000000000E+00 0.  1.
         21    1    1    2  503  502  0.87549646257E+02 -0.89102314070E+02  0.66030638756E+03  0.67201836908E+03  0.00000000000E+00 0.  1.
         21    1    1    2  504  501 -0.91555592564E+02  0.66365160286E+02  0.45433149520E+02  0.12186440048E+03  0.00000000000E+00 0.  1.
         21    1    1    2  505  504  0.29703445450E+02  0.44006427858E+02  0.34253100892E+02  0.63183346581E+02  0.00000000000E+00 0.  1.
          2    1    1    2  501    0 -0.25697499144E+02 -0.21269274074E+02  0.44855248254E+03  0.44979114384E+03  0.00000000000E+00 0.  1.
<scales pt_clust_3="122.67825" pt_clust_4="14000.00000" pt_clust_5="51.14348" pt_clust_6="33.35781"></scales>
<clustering>
<clus scale="   33.358">  1  6  2 -1</clus>
<clus scale="   51.143">  2  5  1 -1</clus>
<clus scale="  122.678">  1  3  2 -1</clus>
<clus scale="   51.143">  2  3  1 -1</clus>
</clustering>
</event>
<event>
 6    0  0.4017242E+002  0.7420382E+02  0.7546771E-02  0.1346354E+00
         21   -1    0    0  503  502  0.00000000000E+00  0.00000000000E+00  0.19233081921E+03  0.19233081921E+03  0.00000000000E+00 0. -1.
          2   -1    0    0  505    0 -0.00000000000E+00 -0.00000000000E+00 -0.16723302503E+04  0.16723302503E+04  0.00000000000E+00 0. -1.
         21    1    1    2  503  501  0.56986137313E+02 -0.74440890411E+02  0.15446036979E+03  0.18068445380E+03  0.00000000000E+00 0. -1.
         21    1    1    2  504  502  0.16178040494E+01  0.33135284792E+02 -0.21914246510E+02  0.39759257894E+02  0.00000000000E+00 0.  1.
         21    1    1    2  505  504 -0.87018478369E+02  0.48303342332E+01 -0.10717863219E+03  0.13814053317E+03  0.00000000000E+00 0. -1.
          2    1    1    2  501    0  0.28414537007E+02  0.36475271386E+02 -0.15053669222E+04  0.15060768247E+04  0.00000000000E+00 0. -1.
<scales pt_clust_3="14000.00000" pt_clust_4="33.17476" pt_clust_5="74.20382" pt_clust_6="46.28922"></scales>
<clustering>
<clus scale="   33.175">  1  4  2 -1</clus>
<clus scale="   46.289">  2  6  1 -1</clus>
<clus scale="   74.204">  2  5  1 -1</clus>
<clus scale="   33.175">  1  3  2 -1</clus>
</clustering>
</event>
<event>
 6    0  0.4017242E+002  0.8855856E+02  0.7546771E-02  0.1306380E+00
         21   -1    0    0  505  502  0.00000000000E+00  0.00000000000E+00  0.46344106645E+03  0.46344106645E+03  0.00000000000E+00 0.  1.
         -1   -1    0    0    0  501 -0.00000000000E+00 -0.00000000000E+00 -0.10207684140E+03  0.10207684140E+03  0.00000000000E+00 0.  1.
         21    1    1    2  503  501  0.15162947813E+02 -0.47622029394E+02  0.18308092996E+02  0.53225547805E+02  0.00000000000E+00 0.  1.
         21    1    1    2  504  502  0.11697310873E+02  0.32291152244E+02  0.29860260972E+02  0.45510227205E+02  0.00000000000E+00 0. -1.
         21    1    1    2  505  503  0.32442654124E+02 -0.95747940809E+02  0.32495389577E+03  0.34031636509E+03  0.00000000000E+00 0.  1.
         -1    1    1    2    0  504 -0.59302912810E+02  0.11107881796E+03 -0.11758024684E+02  0.12646576775E+03  0.00000000000E+00 0.  1.
<scales pt_clust_3="47.72345" pt_clust_4="34.34451" pt_clust_5="14000.00000" pt_clust_6="88.55856"></scales>
<clustering>
<clus scale="   34.345">  1  4  2 -1</clus>
<clus scale="   47.723">  2  3  1 -1</clus>
<clus scale="   88.559">  2  6  1 -1</clus>
<clus scale="   34.345">  1  3  2 -1</clus>
</clustering>
</event>
<event>
 6    0  0.4017242E+002  0.1131680E+03  0.7546771E-02  0.1254813E+00
          2   -1    0    0  504    0 -0.00000000000E+00  0.00000000000E+00  0.15872558783E+04  0.15872558783E+04  0.00000000000E+00 0. -1.
         21   -1    0    0  501  502  0.00000000000E+00 -0.00000000000E+00 -0.66621695158E+03  0.66621695158E+03  0.00000000000E+00 0. -1.
         21    1    1    2  503  505 -0.23778244908E+02 -0.74692614994E+02  0.22637493812E+02  0.81589507853E+02  0.00000000000E+00 0. -1.
         21    1    1    2  504  503 -0.62636304622E+02 -0.45178011513E+02  0.39152156481E+02  0.86586666052E+02  0.00000000000E+00 0.  1.
         21    1    1    2  505  502  0.67058208596E+02  0.21962730396E+02 -0.60929377706E+03  0.61336618071E+03  0.00000000000E+00 0. -1.
          2    1    1    2  501    0  0.19356340934E+02  0.97907896111E+02  0.14685430535E+04  0.14719304753E+04  0.00000000000E+00 0. -1.
<scales pt_clust_3="50.89228" pt_clust_4="50.89228" pt_clust_5="70.56320" pt_clust_6="100.88698"></scales>
<clustering>
<clus scale="   50.892">  3  4 -1 -1</clus>
<clus scale="   70.563">  2  5  1 -1</clus>
<clus scale="  100.887">  1  6  2 -1</clus>
<clus scale="   70.563">  2  3  1 -1</clus>
</clustering>
</event>
<event>
 6    0  0.4017242E+002  0.8681775E+02  0.7546771E-02  0.1310746E+00
         21   -1    0    0  505  502  0.00000000000E+00  0.00000000000E+00  0.13939744630E+02  0.13939744630E+02  0.00000000000E+00 0. -1.
          1   -1    0    0  503    0 -0.00000000000E+00 -0.00000000000E+00 -0.32148668063E+04  0.32148668063E+04  0.00000000000E+00 0.  1.
         21    1    1    2  503  504 -0.43468607669E+02  0.68079031748E+02 -0.34994156719E+03  0.35914255507E+03  0.00000000000E+00 0. -1.
         21    1    1    2  504  502 -0.37150757581E+02  0.99128349714E+01 -0.81328611236E+02  0.89959913804E+02  0.00000000000E+00 0.  1.
         21    1    1    2  505  501  0.49304815254E+02  0.42692038893E+01 -0.13851658234E+03  0.14709192531E+03  0.00000000000E+00 0. -1.
          1    1    1    2  501    0  0.31314549996E+02 -0.82261070609E+02 -0.26311403009E+04  0.26326121568E+04  0.00000000000E+00 0.  1.
<scales pt_clust_3="86.81775" pt_clust_4="38.45053" pt_clust_5="33.88566" pt_clust_6="14000.00000"></scales>
<clustering>
<clus scale="   38.451">  1  4  2 -1</clus>
<clus scale="   33.886">  1  5  2 -1</clus>
<clus scale="   86.818">  1  3  2 -1</clus>
<clus scale="   38.451">  1  3  2 -1</clus>
</clustering>
</event>
<event>
 6    0  0.4017242E+002  0.9047337E+02  0.7546771E-02  0.1301709E+00
         21   -1    0    0  504  502  0.00000000000E+00  0.00000000000E+00  0.62459148946E+02  0.62459148946E+02  0.00000000000E+00 0.  1.
          2   -1    0    0  503    0 -0.00000000000E+00 -0.00000000000E+00 -0.24148471385E+04  0.24148471385E+04  0.00000000000E+00 0.  1.
         21    1    1    2  503  502  0.72135205756E+02  0.12942071055E+03 -0.97435085918E+02  0.17733246797E+03  0.00000000000E+00 0.  1.
         21    1    1    2  504  505  0.44496420575E+02 -0.39443578831E+02 -0.45868532971E+02  0.75097600973E+02  0.00000000000E+00 0.  1.
         21    1    1    2  505  501 -0.62904618584E+02 -0.18878824388E+02 -0.14861011779E+03  0.16247574637E+03  0.00000000000E+00 0.  1.
          2    1    1    2  501    0 -0.53727007747E+02 -0.71098307334E+02 -0.20604742529E+04  0.20624004722E+04  0.00000000000E+00 0.  1.
<scales pt_clust_3="90.47337" pt_clust_4="59.46198" pt_clust_5="61.58140" pt_clust_6="14000.00000"></scales>
<clustering>
<clus scale="   59.462">  1  4  2 -1</clus>
<clus scale="   61.581">  1  5  2 -1</clus>
<clus scale="   90.473">  1  3  2 -1</clus>
<clus scale="   59.462">  1  3  2 -1</clus>
</clustering>
</event>
<event>
 6    0  0.4017242E+002  0.1046679E+03  0.7546771E-02  0.1270775E+00
         21   -1    0    0  504  502  0.00000000000E+00  0.00000000000E+00  0.35663791706E+02  0.35663791706E+02  0.00000000000E+00 0.  1.
         -3   -1    0    0    0  501 -0.00000000000E+00 -0.00000000000E+00 -0.21639996536E+04  0.21639996536E+04  0.00000000000E+00 0.  1.
         21    1    1    2  503  505  0.77656081424E+02  0.36300033639E+02 -0.54170736891E+03  0.54844783977E+03  0.00000000000E+00 0. -1.
         21    1    1    2  504  503 -0.90927411671E+02 -0.10535982910E+02 -0.45372188379E+02  0.10216377346E+03  0.00000000000E+00 0.  1.
         21    1    1    2  505  501  0.67398130121E+02 -0.61876417443E+01 -0.35465384891E+03  0.36105421670E+03  0.00000000000E+00 0. -1.
         -3    1    1    2    0  502 -0.54126799873E+02 -0.19576408985E+02 -0.11866024557E+04  0.11879976154E+04  0.00000000000E+00 0.  1.
<scales pt_clust_3="37.52111" pt_clust_4="95.77209" pt_clust_5="37.52111" pt_clust_6="57.55820"></scales>
<clustering>
<clus scale="   37.521">  3  5 -1 -1</clus>
<clus scale="   57.558">  2  6  1 -1</clus>
<clus scale="   95.772">  1  4  2 -1</clus>
<clus scale="   95.772">  1  3  2 -1</clus>
</clustering>
</event>
<event>
 6    0  0.4017242E+002  0.1100935E+03  0.7546771E-02  0.1260397E+00
          2   -1    0    0  505    0 -0.00000000000E+00  0.00000000000E+00  0.13801494340E+04  0.13801494340E+04  0.00000000000E+00 0.  1.
         21   -1    0    0  504  502  0.00000000000E+00 -0.00000000000E+00 -0.15746686163E+03  0.15746686163E+03  0.00000000000E+00 0.  1.
         21    1    1    2  503  502 -0.75339379079E+02  0.80779046273E+02  0.36767012751E+03  0.38390441391E+03  0.00000000000E+00 0. -1.
         21    1    1    2  504  501  0.17475473297E+02 -0.10972494865E+03 -0.12013390148E+03  0.16363713151E+03  0.00000000000E+00 0.  1.
         21    1    1    2  505  503  0.56916221903E+01  0.45952226900E+02  0.74222639232E+02  0.87481437430E+02  0.00000000000E+00 0. -1.
          2    1    1    2  501    0  0.52172283592E+02 -0.17006324520E+02  0.90092370714E+03  0.90259331281E+03  0.00000000000E+00 0.  1.
<scales pt_clust_3="110.09352" pt_clust_4="14000.00000" pt_clust_5="46.30337" pt_clust_6="58.06315"></scales>
<clustering>
<clus scale="   46.303">  1  5  2 -1</clus>
<clus scale="   58.063">  1  6  2 -1</clus>
<clus scale="  110.094">  1  3  2 -1</clus>
<clus scale="  110.094">  2  3  1 -1</clus>
</clustering>
</event>
<event>
 6    0  0.4017242E+002  0.1003210E+03  0.7546771E-02  0.1279622E+00
         21   -1    0    0  503  502  0.00000000000E+00  0.00000000000E+00  0.32274383495E+03  0.32274383495E+03  0.00000000000E+00 0.  1.
          2   -1    0    0  504    0 -0.00000000000E+00 -0.00000000000E+00 -0.12060148501E+04  0.12060148501E+04  0.00000000000E+00 0.  1.
         21    1    1    2  503  501  0.70006589045E+02 -0.81177851747E+02 -0.11535771021E+03  0.15747433896E+03  0.00000000000E+00 0. -1.
         21    1    1    2  504  505 -0.30775234219E+02  0.20559896541E+02 -0.97877238902E+02  0.10464118827E+03  0.00000000000E+00 0. -1.
         21    1    1    2  505  502 -0.70174033014E+02 -0.27341800509E+02  0.29125798709E+03  0.30083747108E+03  0.00000000000E+00 0.  1.
          2    1    1    2  501    0  0.30942678188E+02  0.87959755716E+02 -0.96129405317E+03  0.96580568678E+03  0.00000000000E+00 0.  1.
<scales pt_clust_3="100.32102" pt_clust_4="37.01114" pt_clust_5="75.40455" pt_clust_6="14000.00000"></scales>
<clustering>
<clus scale="   37.011">  2  4  1 -1</clus>
<clus scale="   75.405">  1  5  2 -1</clus>
<clus scale="  100.321">  1  3  2 -1</clus>
<clus scale="   75.405">  1  3  2 -1</clus>
</clustering>
</event>
<event>
 6    0  0.4017242E+002  0.1031647E+03  0.7546771E-02  0.1273778E+00
         21   -1    0    0  505  502  0.00000000000E+00  0.00000000000E+00  0.11356735483E+04  0.11356735483E+04  0.00000000000E+00 0.  1.
         -3   -1    0    0    0  501 -0.00000000000E+00 -0.00000000000E+00 -0.32386587718E+02  0.32386587718E+02  0.00000000000E+00 0.  1.
         21    1    1    2  503  502  0.86659790176E+02 -0.63713194407E+01  0.35749822725E+03  0.36790691137E+03  0.00000000000E+00 0.  1.
         21    1    1    2  504  501  0.26994528577E+02 -0.14972683352E+02  0.43438740739E+02  0.53289867863E+02  0.00000000000E+00 0.  1.
         21    1    1    2  505  504 -0.36226614326E+02 -0.89542834704E+02  0.45313700260E+03  0.46331784982E+03  0.00000000000E+00 0.  1.
         -3    1    1    2    0  503 -0.77427704427E+02  0.11088683750E+03  0.24921299000E+03  0.28354550698E+03  0.00000000000E+00 0.  1.
<scales pt_clust_3="92.23658" pt_clust_4="30.86885" pt_clust_5="14000.00000" pt_clust_6="103.16467"></scales>
<clustering>
<clus scale="   30.869">  2  4  1 -1</clus>
<clus scale="   92.237">  1  3  2 -1</clus>
<clus scale="  103.165">  2  6  1 -1</clus>
<clus scale="   92.237">  1  3  2 -1</clus>
</clustering>
</event>
<event>
 6    0  0.4017242E+002  0.1779885E+03  0.7546771E-02  0.1169764E+00
          2   -1    0    0  503    0 -0.00000000000E+00  0.00000000000E+00  0.12113028281E+04  0.12113028281E+04  0.00000000000E+00 0.  1.
         21   -1    0    0  504  502  0.00000000000E+00 -0.00000000000E+00 -0.24694676262E+03  0.24694676262E+03  0.00000000000E+00 0.  1.
         21    1    1    2  503  505  0.23413377549E+02 -0.40056371192E+02  0.30875673434E+01  0.46499808531E+02  0.00000000000E+00 0. -1.
         21    1    1    2  504  501 -0.55548494418E+02  0.11618328922E+03 -0.38280856699E+01  0.12883650944E+03  0.00000000000E+00 0.  1.
         21    1    1    2  505  502  0.12839223593E+03 -0.94681442186E+02 -0.11608679630E+03  0.19729492141E+03  0.00000000000E+00 0.  1.
          2    1    1    2  501    0 -0.96257119061E+02  0.18554524160E+02  0.10811833801E+04  0.10856183513E+04  0.00000000000E+00 0.  1.
<scales pt_clust_3="39.87813" pt_clust_4="161.90144" pt_clust_5="39.87813" pt_clust_6="98.02909"></scales>
<clustering>
<clus scale="   39.878">  3  5 -1 -1</clus>
<clus scale="   98.029">  1  6  2 -1</clus>
<clus scale="  161.901">  1  4  2 -1</clus>
<clus scale="  177.988">  2  3  1 -1</clus>
</clustering>
</event>
<event>
 6    0  0.4017242E+002  0.1125962E+03  0.7546771E-02  0.1255836E+00
         21   -1    0    0  504  502  0.00000000000E+00  0.00000000000E+00  0.31614997273E+03  0.31614997273E+03  0.00000000000E+00 0.  1.
          2   -1    0    0  503    0 -0.00000000000E+00 -0.00000000000E+00 -0.36576179517E+04  0.36576179517E+04  0.00000000000E+00 0. -1.
         21    1    1    2  503  502  0.91334293945E+02 -0.74766085610E+02 -0.29103582383E+03  0.31406014004E+03  0.00000000000E+00 0. -1.
         21    1    1    2  504  505 -0.35847626049E+02  0.10719147542E+03  0.28634943699E+03  0.30784909413E+03  0.00000000000E+00 0.  1.
         21    1    1    2  505  501 -0.72733491239E+01 -0.68639235233E+02 -0.15697022480E+03  0.17147564752E+03  0.00000000000E+00 0. -1.
          2    1    1    2  501    0 -0.48213318772E+02  0.36213845419E+02 -0.31798113674E+04  0.31803830428E+04  0.00000000000E+00 0. -1.
<scales pt_clust_3="112.59621" pt_clust_4="14000.00000" pt_clust_5="61.03919" pt_clust_6="60.29898"></scales>
<clustering>
<clus scale="   60.299">  2  6  1 -1</clus>
<clus scale="   61.039">  2  5  1 -1</clus>
<clus scale="  112.596">  2  3  1 -1</clus>
<clus scale="  112.596">  1  3  2 -1</clus>
</clustering>
</event>
<event>
 6    0  0.4017242E+002  0.2019777E+03  0.7546771E-02  0.1148081E+00
         21   -1    0    0  504  502  0.00000000000E+00  0.00000000000E+00  0.38828501439E+03  0.38828501439E+03  0.00000000000E+00 0. -1.
          2   -1    0    0  503    0 -0.00000000000E+00 -0.00000000000E+00 -0.80376002754E+03  0.80376002754E+03  0.00000000000E+00 0. -1.
         21    1    1    2  503  505 -0.46605667396E+02  0.11589423361E+03  0.19470083890E+03  0.23132656200E+03  0.00000000000E+00 0. -1.
         21    1    1    2  504  501  0.58341859669E+02  0.25949882757E+02  0.10380457474E+03  0.12187107426E+03  0.00000000000E+00 0. -1.
         21    1    1    2  505  502 -0.52094816947E+02  0.37186354852E+02  0.31338814648E+02  0.71265813989E+02  0.00000000000E+00 0.  1.
          2    1    1    2  501    0  0.40358624674E+02 -0.17903047122E+03 -0.74531924144E+03  0.76758159168E+03  0.00000000000E+00 0. -1.
<scales pt_clust_3="61.12920" pt_clust_4="63.85271" pt_clust_5="61.12920" pt_clust_6="183.03607"></scales>
<clustering>
<clus scale="   61.129">  3  5 -1 -1</clus>
<clus scale="   63.853">  1  4  2 -1</clus>
<clus scale="  183.036">  2  6  1 -1</clus>
<clus scale="   63.853">  1  3  2 -1</clus>
</clustering>
</event>
<event>
 6    0  0.4017242E+002  0.1788422E+03  0.7546771E-02  0.1168928E+00
          3   -1    0    0  502    0 -0.00000000000E+00  0.00000000000E+00  0.23145901959E+03  0.23145901959E+03  0.00000000000E+00 0. -1.
         21   -1    0    0  504  502  0.00000000000E+00 -0.00000000000E+00 -0.38024581085E+03  0.38024581085E+03  0.00000000000E+00 0.  1.
         21    1    1    2  503  505  0.33762426882E+02 -0.13026765388E+03 -0.11538153244E+03  0.17726381792E+03  0.00000000000E+00 0.  1.
         21    1    1    2  504  503  0.34179921815E+02  0.51366098159E+02 -0.52178056142E+02  0.80804038501E+02  0.00000000000E+00 0.  1.
         21    1    1    2  505  501  0.53184079827E+01 -0.71015147815E+02 -0.11804091613E+03  0.13785896620E+03  0.00000000000E+00 0.  1.
          3    1    1    2  501    0 -0.73260756679E+02  0.14991670353E+03  0.13681371345E+03  0.21577800781E+03  0.00000000000E+00 0. -1.
<scales pt_clust_3="38.31587" pt_clust_4="61.69881" pt_clust_5="38.31587" pt_clust_6="170.91018"></scales>
<clustering>
<clus scale="   38.316">  3  5 -1 -1</clus>
<clus scale="   61.699">  2  4  1 -1</clus>
<clus scale="  170.910">  1  6  2 -1</clus>
<clus scale="   61.699">  2  3  1 -1</clus>
</clustering>
</event>
<event>
 6    0  0.4017242E+002  0.1055153E+03  0.7546771E-02  0.1269108E+00
         21   -1    0    0  503  502  0.00000000000E+00  0.00000000000E+00  0.27790062927E+03  0.27790062927E+03  0.00000000000E+00 0. -1.
         -2   -1    0    0    0  501 -0.00000000000E+00 -0.00000000000E+00 -0.14934566008E+03  0.14934566008E+03  0.00000000000E+00 0. -1.
         21    1    1    2  503  504  0.59847797981E+02 -0.11109049662E+03  0.16328897907E+03  0.20636411521E+03  0.00000000000E+00 0. -1.
         21    1    1    2  504  501 -0.29041905957E+02  0.39175566371E+02 -0.16520218361E+02  0.51488590162E+02  0.00000000000E+00 0. -1.
         21    1    1    2  505  502  0.20361327068E+02  0.88124893536E+02  0.31953685411E+02  0.95925067172E+02  0.00000000000E+00 0. -1.
         -2    1    1    2    0  505 -0.51167219092E+02 -0.16209963290E+02 -0.50167476936E+02  0.73468516805E+02  0.00000000000E+00 0. -1.
<scales pt_clust_3="14000.00000" pt_clust_4="48.76635" pt_clust_5="105.51528" pt_clust_6="66.90388"></scales>
<clustering>
<clus scale="   48.766">  2  4  1 -1</clus>
<clus scale="   66.904">  2  6  1 -1</clus>
<clus scale="  105.515">  2  5  1 -1</clus>
<clus scale="  105.515">  1  3  2 -1</clus>
</clustering>
</event>
<event>
 6    0  0.4017242E+002  0.2336411E+03  0.7546771E-02  0.1124103E+00
         21   -1    0    0  505  502  0.00000000000E+00  0.00000000000E+00  0.65966246334E+02  0.65966246334E+02  0.00000000000E+00 0. -1.
          2   -1    0    0  504    0 -0.00000000000E+00 -0.00000000000E+00 -0.19698215211E+04  0.19698215211E+04  0.00000000000E+00 0.  1.
         21    1    1    2  503  502  0.60317027715E+02 -0.12088251449E+03 -0.86479138270E+02  0.16040376398E+03  0.00000000000E+00 0. -1.
         21    1    1    2  504  503  0.57308397200E+02 -0.95773889195E+02 -0.17029663507E+03  0.20361196958E+03  0.00000000000E+00 0. -1.
         21    1    1    2  505  501 -0.24722790451E+02  0.20086924458E+02 -0.45733189384E+02  0.55733522346E+02  0.00000000000E+00 0.  1.
          2    1    1    2  501    0 -0.92902634464E+02  0.19656947923E+03 -0.16013463120E+04  0.16160385115E+04  0.00000000000E+00 0.  1.
<scales pt_clust_3="71.37159" pt_clust_4="71.37159" pt_clust_5="31.85437" pt_clust_6="220.88513"></scales>
<clustering>
<clus scale="   31.854">  1  5  2 -1</clus>
<clus scale="   71.372">  3  4 -1 -1</clus>
<clus scale="  220.885">  2  6  1 -1</clus>
<clus scale="   31.854">  1  3  2 -1</clus>
</clustering>
</event>
<event>
 6    0  0.4017242E+002  0.1179802E+03  0.7546771E-02  0.1246467E+00
          1   -1    0    0  505    0 -0.00000000000E+00  0.00000000000E+00  0.44025059654E+04  0.44025059654E+04  0.00000000000E+00 0. -1.
         21   -1    0    0  504  502  0.00000000000E+00 -0.00000000000E+00 -0.20803148039E+02  0.20803148039E+02  0.00000000000E+00 0.  1.
         21    1    1    2  503  501 -0.13229922815E+02  0.46964176791E+02  0.46742670275E+03  0.46996636816E+03  0.00000000000E+00 0. -1.
         21    1    1    2  504  503  0.27842167185E+02  0.97129406593E+02  0.45339515634E+03  0.46451746543E+03  0.00000000000E+00 0.  1.
         21    1    1    2  505  502  0.77192241451E+01 -0.90132995325E+02  0.13544702301E+03  0.16287860299E+03  0.00000000000E+00 0.  1.
          1    1    1    2  501    0 -0.22331468515E+02 -0.53960588058E+02  0.33254339352E+04  0.33259466769E+04  0.00000000000E+00 0. -1.
<scales pt_clust_3="45.94085" pt_clust_4="45.94085" pt_clust_5="97.71728" pt_clust_6="58.39897"></scales>
<clustering>
<clus scale="   45.941">  3  4 -1 -1</clus>
<clus scale="   58.399">  1  6  2 -1</clus>
<clus scale="   97.717">  2  5  1 -1</clus>
<clus scale="   97.717">  2  3  1 -1</clus>
</clustering>
</event>
<event>
 6    0  0.4017242E+002  0.1396074E+03  0.7546771E-02  0.1213858E+00
          2   -1    0    0  503    0 -0.00000000000E+00  0.00000000000E+00  0.25220050387E+03  0.25220050387E+03  0.00000000000E+00 0.  1.
         21   -1    0    0  504  502  0.00000000000E+00 -0.00000000000E+00 -0.15968520191E+04  0.15968520191E+04  0.00000000000E+00 0. -1.
         21    1    1    2  503  502 -0.75263134907E+02 -0.13041727880E+03 -0.14225782668E+04  0.14305251243E+04  0.00000000000E+00 0. -1.
         21    1    1    2  504  505  0.59286752303E+02  0.34630103820E+02 -0.12145274833E+02  0.69725682428E+02  0.00000000000E+00 0. -1.
         21    1    1    2  505  501 -0.19603603973E+02  0.68246840923E+02 -0.11702013940E+03  0.13687821452E+03  0.00000000000E+00 0.  1.
          2    1    1    2  501    0  0.35579986577E+02  0.27540334055E+02  0.20709216581E+03  0.21192350172E+03  0.00000000000E+00 0.  1.
<scales pt_clust_3="139.60742" pt_clust_4="14000.00000" pt_clust_5="75.50660" pt_clust_6="44.99339"></scales>
<clustering>
<clus scale="   44.993">  1  6  2 -1</clus>
<clus scale="   75.507">  1  5  2 -1</clus>
<clus scale="  139.607">  2  3  1 -1</clus>
<clus scale="  139.607">  2  3  1 -1</clus>
</clustering>
</event>
<event>
 6    0  0.4017242E+002  0.1517867E+03  0.7546771E-02  0.1198295E+00
          1   -1    0    0  503    0 -0.00000000000E+00  0.00000000000E+00  0.43428074336E+03  0.43428074336E+03  0.00000000000E+00 0. -1.
         21   -1    0    0  505  502  0.00000000000E+00 -0.00000000000E+00 -0.28179796889E+03  0.28179796889E+03  0.00000000000E+00 0. -1.
         21    1    1    2  503  504  0.14001336286E+03 -0.36225827844E+02  0.27472255962E+03  0.31046503370E+03  0.00000000000E+00 0. -1.
         21    1    1    2  504  502  0.36627547615E+02 -0.75208725464E+01  0.70023809650E+01  0.38041741644E+02  0.00000000000E+00 0.  1.
         21    1    1    2  505  501  0.84006709218E+01  0.40371866837E+02 -0.17262576456E+03  0.17748271322E+03  0.00000000000E+00 0. -1.
          1    1    1    2  501    0 -0.18504158140E+03  0.33748335527E+01  0.43383598443E+02  0.19008922368E+03  0.00000000000E+00 0. -1.
<scales pt_clust_3="151.78668" pt_clust_4="37.39172" pt_clust_5="48.06312" pt_clust_6="14000.00000"></scales>
<clustering>
<clus scale="   37.392">  2  4  1 -1</clus>
<clus scale="   48.063">  2  5  1 -1</clus>
<clus scale="  151.787">  1  3  2 -1</clus>
<clus scale="   37.392">  2  3  1 -1</clus>
</clustering>
</event>
<event>
 6    0  0.4017242E+002  0.1006594E+03  0.7546771E-02  0.1278915E+00
         21   -1    0    0  501  502  0.00000000000E+00  0.00000000000E+00  0.31749797013E+03  0.31749797013E+03  0.00000000000E+00 0.  1.
          2   -1    0    0  505    0 -0.00000000000E+00 -0.00000000000E+00 -0.79357897348E+03  0.79357897348E+03  0.00000000000E+00 0. -1.
         21    1    1    2  503  504 -0.92695716571E+02  0.96030477502E+02  0.26817516150E+01  0.13349734181E+03  0.00000000000E+00 0.  1.
         21    1    1    2  504  502  0.41052647944E+02 -0.87549579937E+02  0.23233345894E+03  0.25165270711E+03  0.00000000000E+00 0.  1.
         21    1    1    2  505  503  0.16010031123E+02  0.48612072535E+02 -0.11292839881E+03  0.12398499083E+03  0.00000000000E+00 0. -1.
          2    1    1    2  501    0  0.35633037503E+02 -0.57092970101E+02 -0.59816781510E+03  0.60194190386E+03  0.00000000000E+00 0. -1.
<scales pt_clust_3="100.65938" pt_clust_4="14000.00000" pt_clust_5="51.18061" pt_clust_6="51.76034"></scales>
<clustering>
<clus scale="   51.181">  2  5  1 -1</clus>
<clus scale="   51.760">  2  6  1 -1</clus>
<clus scale="  100.659">  2  3  1 -1</clus>
<clus scale="  100.659">  1  3  2 -1</clus>
</clustering>
</event>
<event>
 6    0  0.4017242E+002  0.1744613E+03  0.7546771E-02  0.1173274E+00
          2   -1    0    0  502    0 -0.00000000000E+00  0.00000000000E+00  0.15177993508E+04  0.15177993508E+04  0.00000000000E+00 0.  1.
         21   -1    0    0  505  502  0.00000000000E+00 -0.00000000000E+00 -0.25414907355E+02  0.25414907355E+02  0.00000000000E+00 0.  1.
         21    1    1    2  503  501 -0.90108693548E+02 -0.51869379062E+02  0.30761500009E+03  0.32471063644E+03  0.00000000000E+00 0.  1.
         21    1    1    2  504  503  0.95501417752E+02  0.10608061144E+03  0.46311405580E+03  0.48461143775E+03  0.00000000000E+00 0.  1.
         21    1    1    2  505  504  0.54084576697E+02 -0.17029743646E+02  0.21278836664E+03  0.22021362942E+03  0.00000000000E+00 0.  1.
          2    1    1    2  501    0 -0.59477300901E+02 -0.37181488729E+02  0.50886702097E+03  0.51367855460E+03  0.00000000000E+00 0.  1.
<scales pt_clust_3="66.02463" pt_clust_4="156.49031" pt_clust_5="56.70232" pt_clust_6="66.02463"></scales>
<clustering>
<clus scale="   56.702">  2  5  1 -1</clus>
<clus scale="   66.025">  3  6 -1 -1</clus>
<clus scale="  156.490">  2  4  1 -1</clus>
<clus scale="   56.702">  2  3  1 -1</clus>
</clustering>
</event>
<event>
 6    0  0.4017242E+002  0.2715342E+03  0.7546771E-02  0.1100405E+00
          2   -1    0    0  503    0 -0.00000000000E+00  0.00000000000E+00  0.84849600376E+03  0.84849600376E+03  0.00000000000E+00 0. -1.
         21   -1    0    0  501  502  0.00000000000E+00 -0.00000000000E+00 -0.37520689231E+03  0.37520689231E+03  0.00000000000E+00 0. -1.
         21    1    1    2  503  505  0.50145554379E+02 -0.19076076465E+03  0.20978496815E+03  0.28794787517E+03  0.00000000000E+00 0. -1.
         21    1    1    2  504  502  0.18582809615E+03  0.13498226093E+03 -0.21958913060E+03  0.31776041031E+03  0.00000000000E+00 0. -1.
         21    1    1    2  505  504  0.47073012466E+02 -0.53495260606E+02  0.42279344369E+02  0.82856227106E+02  0.00000000000E+00 0. -1.
          2    1    1    2  501    0 -0.28304666300E+03  0.10927376433E+03  0.44081392952E+03  0.53513838347E+03  0.00000000000E+00 0. -1.
<scales pt_clust_3="41.84500" pt_clust_4="229.67867" pt_clust_5="41.84500" pt_clust_6="262.45760"></scales>
<clustering>
<clus scale="   41.845">  3  5 -1 -1</clus>
<clus scale="  229.679">  2  4  1 -1</clus>
<clus scale="  262.458">  1  6  2 -1</clus>
<clus scale="  229.679">  2  3  1 -1</clus>
</clustering>
</event>
<event>
 6    0  0.4017242E+002  0.8666846E+02  0.7546771E-02  0.1311126E+00
          2   -1    0    0  503    0 -0.00000000000E+00  0.00000000000E+00  0.12180873489E+04  0.12180873489E+04  0.00000000000E+00 0. -1.
         21   -1    0    0  501  502  0.00000000000E+00 -0.00000000000E+00 -0.16030031102E+03  0.16030031102E+03  0.00000000000E+00 0. -1.
         21    1    1    2  503  505  0.63343317877E+00 -0.35347630363E+02  0.13166894410E+03  0.13633256049E+03  0.00000000000E+00 0. -1.
         21    1    1    2  504  502 -0.89781655056E+01 -0.35599226464E+02 -0.14672867123E+03  0.15125215814E+03  0.00000000000E+00 0. -1.
         21    1    1    2  505  504 -0.78593676590E+02  0.68249667725E+01  0.29003658850E+03  0.30057406548E+03  0.00000000000E+00 0. -1.
          2    1    1    2  501    0  0.86938408917E+02  0.64121890054E+02  0.78281017649E+03  0.79022887580E+03  0.00000000000E+00 0. -1.
<scales pt_clust_3="35.35331" pt_clust_4="36.78512" pt_clust_5="14000.00000" pt_clust_6="86.66846"></scales>
<clustering>
<clus scale="   35.353">  1  3  2 -1</clus>
<clus scale="   36.785">  2  4  1 -1</clus>
<clus scale="   86.668">  1  6  2 -1</clus>
<clus scale="   36.785">  2  3  1 -1</clus>
</clustering>
</event>
<event>
 6    0  0.4017242E+002  0.5852547E+02  0.7546771E-02  0.1404126E+00
         21   -1    0    0  503  502  0.00000000000E+00  0.00000000000E+00  0.16001765449E+03  0.16001765449E+03  0.00000000000E+00 0. -1.
          2   -1    0    0  504    0 -0.00000000000E+00 -0.00000000000E+00 -0.15540319402E+04  0.15540319402E+04  0.00000000000E+00 0.  1.
         21    1    1    2  503  501 -0.10050456410E+03  0.36423764232E+02  0.72361116958E+02  0.12908907488E+03  0.00000000000E+00 0. -1.
         21    1    1    2  504  505  0.27297228131E+02 -0.38288461746E+02 -0.27334248267E+02  0.54390312509E+02  0.00000000000E+00 0. -1.
         21    1    1    2  505  502  0.24027393815E+02 -0.29791375568E+02  0.37080784098E+02  0.53290020277E+02  0.00000000000E+00 0. -1.
          2    1    1    2  501    0  0.49179942155E+02  0.31656073082E+02 -0.14761219385E+04  0.14772801870E+04  0.00000000000E+00 0.  1.
<scales pt_clust_3="58.52547" pt_clust_4="51.52442" pt_clust_5="38.27325" pt_clust_6="14000.00000"></scales>
<clustering>
<clus scale="   38.273">  1  5  2 -1</clus>
<clus scale="   51.524">  1  4  2 -1</clus>
<clus scale="   58.525">  1  3  2 -1</clus>
<clus scale="   38.273">  1  3  2 -1</clus>
</clustering>
</event>
<event>
 6    0  0.4017242E+002  0.1166869E+03  0.7546771E-02  0.1248665E+00
         21   -1    0    0  503  502  0.00000000000E+00  0.00000000000E+00  0.25209205856E+02  0.25209205856E+02  0.00000000000E+00 0.  1.
          2   -1    0    0  504    0 -0.00000000000E+00 -0.00000000000E+00 -0.42783619903E+04  0.42783619903E+04  0.00000000000E+00 0.  1.
         21    1    1    2  503  505 -0.23621289156E+02 -0.99475013422E+02 -0.20061556909E+03  0.22516627225E+03  0.00000000000E+00 0. -1.
         21    1    1    2  504  502  0.31239014345E+02  0.68448352811E+02 -0.23719828269E+03  0.24884549088E+03  0.00000000000E+00 0.  1.
         21    1    1    2  505  501 -0.46465314337E+02 -0.63759877023E+02 -0.23763317506E+03  0.25038744626E+03  0.00000000000E+00 0.  1.
          2    1    1    2  501    0  0.38847589148E+02  0.94786537635E+02 -0.35777057576E+04  0.35791719867E+04  0.00000000000E+00 0.  1.
<scales pt_clust_3="44.19871" pt_clust_4="75.23997" pt_clust_5="44.19871" pt_clust_6="105.28165"></scales>
<clustering>
<clus scale="   44.199">  3  5 -1 -1</clus>
<clus scale="   75.240">  1  4  2 -1</clus>
<clus scale="  105.282">  2  6  1 -1</clus>
<clus scale="   75.240">  1  3  2 -1</clus>
</clustering>
</event>
<event>
 6    0  0.4017242E+002  0.7402004E+02  0.7546771E-02  0.1346933E+00
         21   -1    0    0  504  502  0.00000000000E+00  0.00000000000E+00  0.17708661333E+03  0.17708661333E+03  0.00000000000E+00 0. -1.
          2   -1    0    0  503    0 -0.00000000000E+00 -0.00000000000E+00 -0.32027401720E+03  0.32027401720E+03  0.00000000000E+00 0. -1.
         21    1    1    2  503  505 -0.46994573985E+02 -0.37493837538E+02 -0.23026612320E+02  0.64377812267E+02  0.00000000000E+00 0.  1.
         21    1    1    2  504  501  0.90209814604E+02  0.17114994075E+01 -0.56994117965E+02  0.10671958285E+03  0.00000000000E+00 0.  1.
         21    1    1    2  505  502 -0.70712141551E+02  0.14963421114E+02  0.11988674500E+03  0.13998908015E+03  0.00000000000E+00 0. -1.
          2    1    1    2  501    0  0.27496900932E+02  0.20818917017E+02 -0.18305341858E+03  0.18627415526E+03  0.00000000000E+00 0. -1.
<scales pt_clust_3="49.00863" pt_clust_4="74.02004" pt_clust_5="14000.00000" pt_clust_6="34.48923"></scales>
<clustering>
<clus scale="   34.489">  2  6  1 -1</clus>
<clus scale="   49.009">  2  3  1 -1</clus>
<clus scale="   74.020">  2  4  1 -1</clus>
<clus scale="   74.020">  1  3  2 -1</clus>
</clustering>
</event>
<event>
 6    0  0.4017242E+002  0.1043068E+03  0.7546771E-02  0.1271491E+00
         -4   -1    0    0    0  501 -0.00000000000E+00  0.00000000000E+00  0.17987694251E+04  0.17987694251E+04  0.00000000000E+00 0.  1.
         21   -1    0    0  504  502  0.00000000000E+00 -0.00000000000E+00 -0.65276643985E+02  0.65276643985E+02  0.00000000000E+00 0.  1.
         21    1    1    2  503  501 -0.73178894226E+02 -0.17898095176E+02 -0.10596469677E+01  0.75343315714E+02  0.00000000000E+00 0.  1.
         21    1    1    2  504  503 -0.17293100091E+02  0.24904731380E+02  0.10973207580E+02  0.32244507136E+02  0.00000000000E+00 0. -1.
         21    1    1    2  505  502 -0.98719739020E+01 -0.39745149472E+02  0.13493882509E+02  0.43118646087E+02  0.00000000000E+00 0.  1.
         -4    1    1    2    0  505  0.10034396822E+03  0.32738513267E+02  0.17100853380E+04  0.17133396002E+04  0.00000000000E+00 0.  1.
<scales pt_clust_3="104.30678" pt_clust_4="30.31991" pt_clust_5="36.06360" pt_clust_6="14000.00000"></scales>
<clustering>
<clus scale="   30.320">  2  4  1 -1</clus>
<clus scale="   36.064">  2  5  1 -1</clus>
<clus scale="  104.307">  2  3  1 -1</clus>
<clus scale="   30.320">  2  3  1 -1</clus>
</clustering>
</event>
<event>
 6    0  0.4017242E+002  0.7645144E+02  0.7546771E-02  0.1339434E+00
          2   -1    0    0  504    0 -0.00000000000E+00  0.00000000000E+00  0.20567475688E+04  0.20567475688E+04  0.00000000000E+00 0. -1.
         21   -1    0    0  505  502  0.00000000000E+00 -0.00000000000E+00 -0.60108089998E+02  0.60108089998E+02  0.00000000000E+00 0.  1.
         21    1    1    2  503  502  0.64317172797E+02  0.39900269672E+02 -0.29145622371E+02  0.81106088180E+02  0.00000000000E+00 0.  1.
         21    1    1    2  504  503  0.17523167593E+02 -0.27360145711E+02  0.15061079326E+03  0.15407546859E+03  0.00000000000E+00 0. -1.
         21    1    1    2  505  501 -0.10876039647E+03 -0.30122260427E+02  0.10866611599E+04  0.10925056754E+04  0.00000000000E+00 0. -1.
          2    1    1    2  501    0  0.26920056080E+02  0.17582136466E+02  0.78851314796E+03  0.78916842654E+03  0.00000000000E+00 0. -1.
<scales pt_clust_3="76.45144" pt_clust_4="32.68521" pt_clust_5="14000.00000" pt_clust_6="32.15309"></scales>
<clustering>
<clus scale="   32.153">  1  6  2 -1</clus>
<clus scale="   32.685">  1  4  2 -1</clus>
<clus scale="   76.451">  2  3  1 -1</clus>
<clus scale="   76.451">  2  3  1 -1</clus>
</clustering>
</event>
<event>
 6    0  0.4017242E+002  0.1552324E+03  0.7546771E-02  0.1194187E+00
          2   -1    0    0  502    0 -0.00000000000E+00  0.00000000000E+00  0.35413325020E+04  0.35413325020E+04  0.00000000000E+00 0. -1.
         21   -1    0    0  504  502  0.00000000000E+00 -0.00000000000E+00 -0.24726642481E+02  0.24726642481E+02  0.00000000000E+00 0. -1.
         21    1    1    2  503  505  0.31028460159E+02  0.78019831539E+02  0.29576981937E+03  0.30745673761E+03  0.00000000000E+00 0. -1.
         21    1    1    2  504  503 -0.12968870610E+03 -0.51602574259E+02  0.37689606660E+03  0.40191122301E+03  0.00000000000E+00 0. -1.
         21    1    1    2  505  501  0.58080715974E+02  0.92905663393E+02  0.65292858937E+03  0.66205783333E+03  0.00000000000E+00 0. -1.
          2    1    1    2  501    0  0.40579529971E+02 -0.11932292067E+03  0.21910113842E+04  0.21946333506E+04  0.00000000000E+00 0. -1.
<scales pt_clust_3="46.10506" pt_clust_4="146.02478" pt_clust_5="46.10506" pt_clust_6="126.03435"></scales>
<clustering>
<clus scale="   46.105">  3  5 -1 -1</clus>
<clus scale="  126.034">  1  6  2 -1</clus>
<clus scale="  146.025">  2  4  1 -1</clus>
<clus scale="  146.025">  2  3  1 -1</clus>
</clustering>
</event>
<event>
 6    0  0.4017242E+002  0.7651108E+02  0.7546771E-02  0.1339255E+00
         21   -1    0    0  505  502  0.00000000000E+00  0.00000000000E+00  0.26150373537E+03  0.26150373537E+03  0.00000000000E+00 0. -1.
         -1   -1    0    0    0  501 -0.00000000000E+00 -0.00000000000E+00 -0.11584688210E+03  0.11584688210E+03  0.00000000000E+00 0. -1.
         21    1    1    2  503  504 -0.65508570125E+02  0.22581232617E+02  0.41458217057E+02  0.80746941662E+02  0.00000000000E+00 0. -1.
         21    1    1    2  504  502  0.80400253385E+01 -0.69436530801E+02  0.92683261851E+02  0.11608729838E+03  0.00000000000E+00 0. -1.
         21    1    1    2  505  501  0.89655644197E+02  0.39822593013E+02  0.65012064110E+02  0.11768832538E+03  0.00000000000E+00 0. -1.
         -1    1    1    2    0  503 -0.32187099411E+02  0.70327051714E+01 -0.53496689754E+02  0.62828052056E+02  0.00000000000E+00 0. -1.
<scales pt_clust_3="76.51108" pt_clust_4="68.02663" pt_clust_5="14000.00000" pt_clust_6="32.94645"></scales>
<clustering>
<clus scale="   32.946">  2  6  1 -1</clus>
<clus scale="   68.027">  1  4  2 -1</clus>
<clus scale="   76.511">  1  3  2 -1</clus>
<clus scale="   68.027">  1  3  2 -1</clus>
</clustering>
</event>
<event>
 6    0  0.4017242E+002  0.7635205E+02  0.7546771E-02  0.1339735E+00
         21   -1    0    0  504  502  0.00000000000E+00  0.00000000000E+00  0.14235134792E+03  0.14235134792E+03  0.00000000000E+00 0. -1.
          2   -1    0    0  503    0 -0.00000000000E+00 -0.00000000000E+00 -0.13317767914E+04  0.13317767914E+04  0.00000000000E+00 0.  1.
         21    1    1    2  503  505  0.10106267493E+03 -0.58546366161E+01 -0.28465379691E+03  0.30211872688E+03  0.00000000000E+00 0. -1.
         21    1    1    2  504  501 -0.28092355670E+02 -0.52139488552E+02  0.11529787379E+03  0.12961985347E+03  0.00000000000E+00 0. -1.
         21    1    1    2  505  502 -0.50017581627E+01  0.30763082310E+02 -0.14880259105E+02  0.34537037061E+02  0.00000000000E+00 0. -1.
          2    1    1    2  501    0 -0.67968561101E+02  0.27231042858E+02 -0.10051892613E+04  0.10078525219E+04  0.00000000000E+00 0.  1.
<scales pt_clust_3="14000.00000" pt_clust_4="40.40436" pt_clust_5="31.16705" pt_clust_6="76.35205"></scales>
<clustering>
<clus scale="   31.167">  1  5  2 -1</clus>
<clus scale="   40.404">  1  4  2 -1</clus>
<clus scale="   76.352">  2  6  1 -1</clus>
<clus scale="   31.167">  1  3  2 -1</clus>
</clustering>
</event>
<event>
 6    0  0.4017242E+002  0.8229490E+02  0.7546771E-02  0.1322662E+00
         -1   -1    0    0    0  501 -0.00000000000E+00  0.00000000000E+00  0.39267007266E+03  0.39267007266E+03  0.00000000000E+00 0.  1.
         21   -1    0    0  504  502  0.00000000000E+00 -0.00000000000E+00 -0.33134658341E+03  0.33134658341E+03  0.00000000000E+00 0. -1.
         21    1    1    2  503  505 -0.45495034741E+02 -0.58981477231E+02 -0.89940904031E+02  0.11678175825E+03  0.00000000000E+00 0. -1.
         21    1    1    2  504  501 -0.22326134670E+02 -0.48312904586E+02 -0.13711586385E+01  0.53239770049E+02  0.00000000000E+00 0.  1.
         21    1    1    2  505  502 -0.62009417916E+01  0.69740945611E+02 -0.18945499547E+03  0.20197882682E+03  0.00000000000E+00 0. -1.
         -1    1    1    2    0  503  0.74022111203E+02  0.37553436206E+02  0.34209054740E+03  0.35201630095E+03  0.00000000000E+00 0.  1.
<scales pt_clust_3="82.29490" pt_clust_4="53.22211" pt_clust_5="43.77631" pt_clust_6="14000.00000"></scales>
<clustering>
<clus scale="   53.222">  2  4  1 -1</clus>
<clus scale="   43.776">  2  5  1 -1</clus>
<clus scale="   82.295">  2  3  1 -1</clus>
<clus scale="   53.222">  2  3  1 -1</clus>
</clustering>
</event>
<event>
 6    0  0.4017242E+002  0.1526308E+03  0.7546771E-02  0.1197277E+00
          2   -1    0    0  505    0 -0.00000000000E+00  0.00000000000E+00  0.13399554310E+04  0.13399554310E+04  0.00000000000E+00 0. -1.
         21   -1    0    0  503  502  0.00000000000E+00 -0.00000000000E+00 -0.40262728941E+02  0.40262728941E+02  0.00000000000E+00 0.  1.
         21    1    1    2  503  501 -0.48353631370E+02  0.23204536636E+02  0.45335511563E+02  0.70227009020E+02  0.00000000000E+00 0.  1.
         21    1    1    2  504  502  0.62850501232E+02 -0.32876230822E+02  0.11492354418E+03  0.13504981697E+03  0.00000000000E+00 0.  1.
         21    1    1    2  505  504  0.11943597674E+03 -0.13965862901E+02  0.27878830726E+03  0.30361639964E+03  0.00000000000E+00 0.  1.
          2    1    1    2  501    0 -0.13393284660E+03  0.23637557087E+02  0.86064533907E+03  0.87132493432E+03  0.00000000000E+00 0. -1.
<scales pt_clust_3="53.63324" pt_clust_4="34.31669" pt_clust_5="34.31669" pt_clust_6="145.94404"></scales>
<clustering>
<clus scale="   34.317">  4  5 -1 -1</clus>
<clus scale="   53.633">  2  3  1 -1</clus>
<clus scale="  145.944">  1  6  2 -1</clus>
<clus scale="   53.633">  2  3  1 -1</clus>
</clustering>
</event>
<event>
 6    0  0.4017242E+002  0.1372472E+03  0.7546771E-02  0.1217082E+00
          2   -1    0    0  505    0 -0.00000000000E+00  0.00000000000E+00  0.29808010110E+03  0.29808010110E+03  0.00000000000E+00 0.  1.
         21   -1    0    0  503  502  0.00000000000E+00 -0.00000000000E+00 -0.11327858942E+04  0.11327858942E+04  0.00000000000E+00 0. -1.
         21    1    1    2  503  504  0.31368185035E+02 -0.59082260645E+01 -0.46885168139E+03  0.46993698440E+03  0.00000000000E+00 0. -1.
         21    1    1    2  504  501  0.30033571666E+02 -0.18196664360E+02 -0.82909199650E+02  0.90039265920E+02  0.00000000000E+00 0. -1.
         21    1    1    2  505  502 -0.18323261500E+02 -0.10747080171E+03 -0.55501396750E+03  0.56562020760E+03  0.00000000000E+00 0. -1.
          2    1    1    2  501    0 -0.43078495200E+02  0.13157569214E+03  0.27206905544E+03  0.30526953736E+03  0.00000000000E+00 0.  1.
<scales pt_clust_3="31.91975" pt_clust_4="39.03950" pt_clust_5="137.24715" pt_clust_6="14000.00000"></scales>
<clustering>
<clus scale="   31.920">  2  3  1 -1</clus>
<clus scale="   39.040">  2  4  1 -1</clus>
<clus scale="  137.247">  2  5  1 -1</clus>
<clus scale="   31.920">  2  3  1 -1</clus>
</clustering>
</event>
<event>
 6    0  0.1502541E+003  0.1186938E+03  0.7546771E-02  0.1245267E+00
         21   -1    0    0  504  502  0.00000000000E+00  0.00000000000E+00  0.63782467799E+03  0.63782467799E+03  0.00000000000E+00 0.  1.
          2   -1    0    0  503    0 -0.00000000000E+00 -0.00000000000E+00 -0.19274927659E+04  0.19274927659E+04  0.00000000000E+00 0. -1.
         21    1    1    2  503  505  0.40945700226E+01 -0.36635133673E+02 -0.44724373286E+02  0.57958330624E+02  0.00000000000E+00 0.  1.
         21    1    1    2  504  501 -0.39818565487E+02  0.68593902220E+01  0.68003051016E+02  0.79101102009E+02  0.00000000000E+00 0.  1.
         21    1    1    2  505  502  0.40138686495E+02  0.11216680607E+03  0.55036966498E+03  0.56311568497E+03  0.00000000000E+00 0.  1.
          2    1    1    2  501    0 -0.44146910310E+01 -0.82391062621E+02 -0.18633164306E+04  0.18651423262E+04  0.00000000000E+00 0. -1.
<scales pt_clust_3="36.86324" pt_clust_4="40.37487" pt_clust_5="118.69383" pt_clust_6="14000.00000"></scales>
<clustering>
<clus scale="   36.863">  2  3  1 -1</clus>
<clus scale="   40.375">  1  4  2 -1</clus>
<clus scale="  118.694">  1  5  2 -1</clus>
<clus scale="   40.375">  1  3  2 -1</clus>
</clustering>
</event>
<event>
 6    0  0.4017242E+002  0.7136352E+02  0.7546771E-02  0.1355517E+00
         21   -1    0    0  504  502  0.00000000000E+00  0.00000000000E+00  0.10168438133E+02  0.10168438133E+02  0.00000000000E+00 0.  1.
          2   -1    0    0  503    0 -0.00000000000E+00 -0.00000000000E+00 -0.20607699102E+04  0.20607699102E+04  0.00000000000E+00 0.  1.
         21    1    1    2  503  505  0.25552986711E+02  0.18616916946E+02 -0.31950642477E+03  0.32106681578E+03  0.00000000000E+00 0.  1.
         21    1    1    2  504  501  0.10317513139E+02 -0.41904863331E+02 -0.19189252292E+03  0.19668555870E+03  0.00000000000E+00 0.  1.
         21    1    1    2  505  502 -0.21437898241E+02  0.98181597422E+02 -0.43956155407E+03  0.45090305984E+03  0.00000000000E+00 0.  1.
          2    1    1    2  501    0 -0.14432601608E+02 -0.74893651037E+02 -0.10996409703E+04  0.11022829140E+04  0.00000000000E+00 0.  1.
<scales pt_clust_3="31.61558" pt_clust_4="41.94773" pt_clust_5="71.36352" pt_clust_6="14000.00000"></scales>
<clustering>
<clus scale="   31.616">  2  3  1 -1</clus>
<clus scale="   41.948">  1  4  2 -1</clus>
<clus scale="   71.364">  1  5  2 -1</clus>
<clus scale="   41.948">  1  3  2 -1</clus>
</clustering>
</event>
<event>
 6    0  0.4017242E+002  0.1236060E+03  0.7546771E-02  0.1237264E+00
         -1   -1    0    0    0  501 -0.00000000000E+00  0.00000000000E+00  0.45695743287E+03  0.45695743287E+03  0.00000000000E+00 0.  1.
         21   -1    0    0  503  502  0.00000000000E+00 -0.00000000000E+00 -0.10000282817E+04  0.10000282817E+04  0.00000000000E+00 0.  1.
         21    1    1    2  503  501 -0.81044300518E+02 -0.83960821493E+02 -0.96565274781E+03  0.97267817264E+03  0.00000000000E+00 0.  1.
         21    1    1    2  504  502  0.23086059076E+02  0.36233428833E+02  0.19001379969E+02  0.46977440643E+02  0.00000000000E+00 0.  1.
         21    1    1    2  505  504  0.61231564217E+02  0.11267587336E+02  0.44838374584E+02  0.76725112031E+02  0.00000000000E+00 0. -1.
         -1    1    1    2    0  505 -0.32733227750E+01  0.36459805324E+02  0.35874214445E+03  0.36060498922E+03  0.00000000000E+00 0.  1.
<scales pt_clust_3="115.83366" pt_clust_4="35.83584" pt_clust_5="35.83584" pt_clust_6="36.60645"></scales>
<clustering>
<clus scale="   35.836">  4  5 -1 -1</clus>
<clus scale="   36.606">  1  6  2 -1</clus>
<clus scale="  115.834">  2  3  1 -1</clus>
<clus scale="  115.834">  2  3  1 -1</clus>
</clustering>
</event>
<event>
 6    0  0.4017242E+002  0.7841233E+02  0.7546771E-02  0.1333618E+00
          1   -1    0    0  504    0 -0.00000000000E+00  0.00000000000E+00  0.20878018528E+04  0.20878018528E+04  0.00000000000E+00 0. -1.
         21   -1    0    0  503  502  0.00000000000E+00 -0.00000000000E+00 -0.23427186641E+03  0.23427186641E+03  0.00000000000E+00 0.  1.
         21    1    1    2  503  501  0.38156437684E+02  0.47569706150E+02  0.29604381259E+02  0.67787978799E+02  0.00000000000E+00 0.  1.
         21    1    1    2  504  505 -0.40717187422E+01 -0.11353910411E+03  0.16703606696E+03  0.20201176877E+03  0.00000000000E+00 0.  1.
         21    1    1    2  505  502 -0.58206346334E+02  0.36308572120E+02 -0.19153705900E+03  0.20345204873E+03  0.00000000000E+00 0.  1.
          1    1    1    2  501    0  0.24121627393E+02  0.29660825843E+02  0.18484265971E+04  0.18488219229E+04  0.00000000000E+00 0. -1.
<scales pt_clust_3="78.41233" pt_clust_4="14000.00000" pt_clust_5="68.49017" pt_clust_6="38.23111"></scales>
<clustering>
<clus scale="   38.231">  1  6  2 -1</clus>
<clus scale="   68.490">  2  5  1 -1</clus>
<clus scale="   78.412">  2  3  1 -1</clus>
<clus scale="   68.490">  2  3  1 -1</clus>
</clustering>
</event>
<event>
 6    0  0.4017242E+002  0.9712901E+02  0.7546771E-02  0.1286452E+00
          2   -1    0    0  503    0 -0.00000000000E+00  0.00000000000E+00  0.12797911540E+04  0.12797911540E+04  0.00000000000E+00 0. -1.
         21   -1    0    0  504  502  0.00000000000E+00 -0.00000000000E+00 -0.20161715294E+02  0.20161715294E+02  0.00000000000E+00 0.  1.
         21    1    1    2  503  505  0.33166157017E+02  0.90519246849E+02  0.34677138344E+03  0.35992238106E+03  0.00000000000E+00 0.  1.
         21    1    1    2  504  501  0.41479588855E+02 -0.28826881036E+02  0.21164197636E+03  0.21758646907E+03  0.00000000000E+00 0.  1.
         21    1    1    2  505  502 -0.29093832119E+02  0.24890413686E+02  0.45485168997E+02  0.59454893487E+02  0.00000000000E+00 0. -1.
          2    1    1    2  501    0 -0.45551913753E+02 -0.86582779499E+02  0.65573090989E+03  0.66298912566E+03  0.00000000000E+00 0. -1.
<scales pt_clust_3="97.12901" pt_clust_4="41.92870" pt_clust_5="38.28817" pt_clust_6="14000.00000"></scales>
<clustering>
<clus scale="   38.288">  2  5  1 -1</clus>
<clus scale="   41.929">  2  4  1 -1</clus>
<clus scale="   97.129">  2  3  1 -1</clus>
<clus scale="   38.288">  2  3  1 -1</clus>
</clustering>
</event>
<event>
 6    0  0.4017242E+002  0.1236008E+03  0.7546771E-02  0.1237272E+00
          1   -1    0    0  504    0 -0.00000000000E+00  0.00000000000E+00  0.95137803868E+03  0.95137803868E+03  0.00000000000E+00 0. -1.
         21   -1    0    0  501  502  0.00000000000E+00 -0.00000000000E+00 -0.32213532393E+02  0.32213532393E+02  0.00000000000E+00 0. -1.
         21    1    1    2  503  502  0.14816604478E+01 -0.58206598806E+02  0.42847233933E+02  0.72291693285E+02  0.00000000000E+00 0. -1.
         21    1    1    2  504  505 -0.60857137795E+02  0.60065639023E+01  0.17271497467E+03  0.18322153942E+03  0.00000000000E+00 0. -1.
         21    1    1    2  505  503 -0.53531235984E+02 -0.65912128745E+01  0.30218362288E+03  0.30695924689E+03  0.00000000000E+00 0. -1.
          1    1    1    2  501    0  0.11290671333E+03  0.58791247778E+02  0.40141867480E+03  0.42111909148E+03  0.00000000000E+00 0. -1.
<scales pt_clust_3="58.22545" pt_clust_4="38.30348" pt_clust_5="38.30348" pt_clust_6="116.67767"></scales>
<clustering>
<clus scale="   38.303">  4  5 -1 -1</clus>
<clus scale="   58.225">  2  3  1 -1</clus>
<clus scale="  116.678">  2  6  1 -1</clus>
<clus scale="   58.225">  2  3  1 -1</clus>
</clustering>
</event>
<event>
 6    0  0.4017242E+002  0.1423581E+03  0.7546771E-02  0.1210191E+00
         21   -1    0    0  504  502  0.00000000000E+00  0.00000000000E+00  0.39198536409E+03  0.39198536409E+03  0.00000000000E+00 0. -1.
          2   -1    0    0  503    0 -0.00000000000E+00 -0.00000000000E+00 -0.64444395526E+03  0.64444395526E+03  0.00000000000E+00 0. -1.
         21    1    1    2  503  502  0.47674872000E-01  0.33554224578E+02 -0.91663252100E+01  0.34783757385E+02  0.00000000000E+00 0. -1.
         21    1    1    2  504  505  0.31242101114E+02 -0.26493409910E+02  0.25718572761E+03  0.26042747193E+03  0.00000000000E+00 0. -1.
         21    1    1    2  505  501 -0.12785557746E+03 -0.80237168103E+02  0.63948213481E+02  0.16393421193E+03  0.00000000000E+00 0.  1.
          2    1    1    2  501    0  0.96565801474E+02  0.73176353434E+02 -0.56442620705E+03  0.57728387811E+03  0.00000000000E+00 0. -1.
<scales pt_clust_3="33.55426" pt_clust_4="40.90667" pt_clust_5="142.35809" pt_clust_6="14000.00000"></scales>
<clustering>
<clus scale="   33.554">  2  3  1 -1</clus>
<clus scale="   40.907">  1  4  2 -1</clus>
<clus scale="  142.358">  1  5  2 -1</clus>
<clus scale="   40.907">  1  3  2 -1</clus>
</clustering>
</event>
<event>
 6    0  0.6879150E+002  0.8363712E+02  0.7546771E-02  0.1319036E+00
         21   -1    0    0  503  502  0.00000000000E+00  0.00000000000E+00  0.11990062438E+03  0.11990062438E+03  0.00000000000E+00 0. -1.
          2   -1    0    0  504    0 -0.00000000000E+00 -0.00000000000E+00 -0.29474583365E+04  0.29474583365E+04  0.00000000000E+00 0. -1.
         21    1    1    2  503  505 -0.23528398362E+02 -0.21154292382E+02 -0.49906868342E+02  0.59091328665E+02  0.00000000000E+00 0.  1.
         21    1    1    2  504  502 -0.47384703315E+02  0.78248150451E+02  0.89380287007E+02  0.12789417056E+03  0.00000000000E+00 0. -1.
         21    1    1    2  505  501  0.49130068002E+02  0.23630885440E+02 -0.11707147584E+03  0.12914299356E+03  0.00000000000E+00 0.  1.
          2    1    1    2  501    0  0.21783033675E+02 -0.80724743509E+02 -0.27499596549E+04  0.27512304681E+04  0.00000000000E+00 0. -1.
<scales pt_clust_3="31.64000" pt_clust_4="83.63712" pt_clust_5="52.92992" pt_clust_6="14000.00000"></scales>
<clustering>
<clus scale="   31.640">  1  3  2 -1</clus>
<clus scale="   52.930">  1  5  2 -1</clus>
<clus scale="   83.637">  1  4  2 -1</clus>
<clus scale="   31.640">  1  3  2 -1</clus>
</clustering>
</event>
<event>
 6    0  0.4017242E+002  0.9592508E+02  0.7546771E-02  0.1289106E+00
          1   -1    0    0  505    0 -0.00000000000E+00  0.00000000000E+00  0.12447718617E+04  0.12447718617E+04  0.00000000000E+00 0.  1.
         21   -1    0    0  504  502  0.00000000000E+00 -0.00000000000E+00 -0.43906192124E+02  0.43906192124E+02  0.00000000000E+00 0. -1.
         21    1    1    2  503  501 -0.30188916411E+02 -0.66574226244E+02  0.12113361686E+03  0.14148092241E+03  0.00000000000E+00 0.  1.
         21    1    1    2  504  503  0.19570839491E+02 -0.62494228778E+02  0.19441982941E+02  0.68312056693E+02  0.00000000000E+00 0. -1.
         21    1    1    2  505  502 -0.26467597307E+02  0.34310028649E+02  0.63273973152E+02  0.76689682823E+02  0.00000000000E+00 0. -1.
          1    1    1    2  501    0  0.37085674227E+02  0.94758426373E+02  0.99701609663E+03  0.10021953919E+04  0.00000000000E+00 0.  1.
<scales pt_clust_3="14000.00000" pt_clust_4="40.01616" pt_clust_5="43.33257" pt_clust_6="95.92508"></scales>
<clustering>
<clus scale="   43.333">  2  5  1 -1</clus>
<clus scale="   40.016">  2  4  1 -1</clus>
<clus scale="   95.925">  1  6  2 -1</clus>
<clus scale="   43.333">  2  3  1 -1</clus>
</clustering>
</event>
<event>
 6    0  0.4017242E+002  0.1436424E+03  0.7546771E-02  0.1208510E+00
          1   -1    0    0  505    0 -0.00000000000E+00  0.00000000000E+00  0.80795211677E+03  0.80795211677E+03  0.00000000000E+00 0. -1.
         21   -1    0    0  501  502  0.00000000000E+00 -0.00000000000E+00 -0.82472614946E+03  0.82472614946E+03  0.00000000000E+00 0. -1.
         21    1    1    2  503  502 -0.11900319566E+03  0.73844551843E+02 -0.72316617653E+03  0.73660307988E+03  0.00000000000E+00 0. -1.
         21    1    1    2  504  503 -0.42857702304E+02  0.11199436172E+03  0.35677118461E+03  0.37638437517E+03  0.00000000000E+00 0. -1.
         21    1    1    2  505  504 -0.70187456064E+02 -0.13397852432E+02  0.15642883474E+03  0.17197605001E+03  0.00000000000E+00 0. -1.
          1    1    1    2  501    0  0.23204835403E+03 -0.17244106113E+03  0.19319212449E+03  0.34771476117E+03  0.00000000000E+00 0. -1.
<scales pt_clust_3="143.64237" pt_clust_4="133.23703" pt_clust_5="71.45475" pt_clust_6="14000.00000"></scales>
<clustering>
<clus scale="   71.455">  1  5  2 -1</clus>
<clus scale="  133.237">  1  4  2 -1</clus>
<clus scale="  143.642">  2  3  1 -1</clus>
<clus scale="  143.642">  2  3  1 -1</clus>
</clustering>
</event>
<event>
 6    0  0.4017242E+002  0.1826108E+03  0.7546771E-02  0.1165300E+00
         21   -1    0    0  504  502  0.00000000000E+00  0.00000000000E+00  0.14374023217E+03  0.14374023217E+03  0.00000000000E+00 0. -1.
         -1   -1    0    0    0  501 -0.00000000000E+00 -0.00000000000E+00 -0.62974055604E+03  0.62974055604E+03  0.00000000000E+00 0. -1.
         21    1    1    2  503  501 -0.53308414723E+02 -0.10569838338E+03 -0.13728368752E+03  0.18127533255E+03  0.00000000000E+00 0.  1.
         21    1    1    2  504  505  0.31472886429E+01 -0.46270357565E+02  0.86255271486E+02  0.97932748732E+02  0.00000000000E+00 0. -1.
         21    1    1    2  505  503 -0.44824916981E+02 -0.75453658248E+01 -0.54856079596E+02  0.71241807925E+02  0.00000000000E+00 0.  1.
         -1    1    1    2    0  502  0.94986043061E+02  0.15951410677E+03 -0.38011582824E+03  0.42303089901E+03  0.00000000000E+00 0. -1.
<scales pt_clust_3="41.07050" pt_clust_4="46.37727" pt_clust_5="41.07050" pt_clust_6="170.15809"></scales>
<clustering>
<clus scale="   41.070">  3  5 -1 -1</clus>
<clus scale="   46.377">  1  4  2 -1</clus>
<clus scale="  170.158">  2  6  1 -1</clus>
<clus scale="   46.377">  1  3  2 -1</clus>
</clustering>
</event>
<event>
 6    0  0.4017242E+002  0.8254267E+02  0.7546771E-02  0.1321987E+00
         -2   -1    0    0    0  501 -0.00000000000E+00  0.00000000000E+00  0.11336387102E+04  0.11336387102E+04  0.00000000000E+00 0. -1.
         21   -1    0    0  503  502  0.00000000000E+00 -0.00000000000E+00 -0.21611848797E+02  0.21611848797E+02  0.00000000000E+00 0. -1.
         21    1    1    2  503  505 -0.45459602607E+01 -0.31473831510E+02  0.44495377547E+02  0.54691008837E+02  0.00000000000E+00 0. -1.
         21    1    1    2  504  501  0.42519935800E+02 -0.67710039820E+02  0.30841863545E+03  0.31861363613E+03  0.00000000000E+00 0. -1.
         21    1    1    2  505  504 -0.78554997224E+02 -0.11553749582E-01  0.26805643243E+03  0.27932980273E+03  0.00000000000E+00 0. -1.
         -2    1    1    2    0  502  0.40581021685E+02  0.99195425079E+02  0.49105641596E+03  0.50261611129E+03  0.00000000000E+00 0. -1.
<scales pt_clust_3="31.80044" pt_clust_4="82.54267" pt_clust_5="80.82533" pt_clust_6="14000.00000"></scales>
<clustering>
<clus scale="   31.800">  2  3  1 -1</clus>
<clus scale="   80.825">  2  5  1 -1</clus>
<clus scale="   82.543">  1  4  2 -1</clus>
<clus scale="   31.800">  2  3  1 -1</clus>
</clustering>
</event>
<event>
 6    0  0.4017242E+002  0.1111748E+03  0.7546771E-02  0.1258410E+00
         -4   -1    0    0    0  501 -0.00000000000E+00  0.00000000000E+00  0.63900561574E+03  0.63900561574E+03  0.00000000000E+00 0.  1.
         21   -1    0    0  503  502  0.00000000000E+00 -0.00000000000E+00 -0.61518209638E+03  0.61518209638E+03  0.00000000000E+00 0.  1.
         21    1    1    2  503  501  0.21477871209E+02  0.44335221763E+02 -0.12204831326E+03  0.13161573466E+03  0.00000000000E+00 0.  1.
         21    1    1    2  504  505 -0.52752762153E+02  0.40503900444E+02  0.15770488402E+02  0.68352967532E+02  0.00000000000E+00 0.  1.
         21    1    1    2  505  502  0.73561197225E+02 -0.12394693373E+03 -0.44935623226E+03  0.47190583340E+03  0.00000000000E+00 0.  1.
         -4    1    1    2    0  504 -0.42286306280E+02  0.39107811526E+02  0.57945757648E+03  0.58231317653E+03  0.00000000000E+00 0.  1.
<scales pt_clust_3="49.26369" pt_clust_4="14000.00000" pt_clust_5="111.17482" pt_clust_6="57.64027"></scales>
<clustering>
<clus scale="   49.264">  2  3  1 -1</clus>
<clus scale="   57.640">  1  6  2 -1</clus>
<clus scale="  111.175">  2  5  1 -1</clus>
<clus scale="   49.264">  2  3  1 -1</clus>
</clustering>
</event>
<event>
 6    0  0.4017242E+002  0.7744341E+02  0.7546771E-02  0.1336467E+00
         21   -1    0    0  503  502  0.00000000000E+00  0.00000000000E+00  0.16581698748E+03  0.16581698748E+03  0.00000000000E+00 0. -1.
          2   -1    0    0  504    0 -0.00000000000E+00 -0.00000000000E+00 -0.35670091366E+03  0.35670091366E+03  0.00000000000E+00 0. -1.
         21    1    1    2  503  505 -0.84967989726E+02 -0.80801342176E+02  0.10420200189E+03  0.15686450642E+03  0.00000000000E+00 0. -1.
         21    1    1    2  504  502  0.27552764991E+02  0.36272021386E+02 -0.37516336542E+00  0.45551675509E+02  0.00000000000E+00 0. -1.
         21    1    1    2  505  501  0.84572533703E+02  0.19499914412E+02 -0.18513515472E+03  0.20446952250E+03  0.00000000000E+00 0.  1.
          2    1    1    2  501    0 -0.27157308969E+02  0.25029406378E+02 -0.10957560998E+03  0.11563219672E+03  0.00000000000E+00 0. -1.
<scales pt_clust_3="14000.00000" pt_clust_4="46.00996" pt_clust_5="77.44341" pt_clust_6="36.93224"></scales>
<clustering>
<clus scale="   36.932">  2  6  1 -1</clus>
<clus scale="   46.010">  1  4  2 -1</clus>
<clus scale="   77.443">  2  5  1 -1</clus>
<clus scale="   46.010">  1  3  2 -1</clus>
</clustering>
</event>
<event>
 6    0  0.4017242E+002  0.1358095E+03  0.7546771E-02  0.1219081E+00
         21   -1    0    0  503  502  0.00000000000E+00  0.00000000000E+00  0.13000128990E+03  0.13000128990E+03  0.00000000000E+00 0.  1.
          2   -1    0    0  505    0 -0.00000000000E+00 -0.00000000000E+00 -0.14594759207E+04  0.14594759207E+04  0.00000000000E+00 0. -1.
         21    1    1    2  503  501 -0.20374968381E+02  0.47086279198E+02 -0.37395149035E+02  0.63487433375E+02  0.00000000000E+00 0. -1.
         21    1    1    2  504  502  0.19895402408E+02 -0.23815848928E+02 -0.55374629604E+01  0.31522772613E+02  0.00000000000E+00 0. -1.
         21    1    1    2  505  504 -0.63807252985E+02 -0.14214098073E+03  0.40161311036E+02  0.16089858558E+03  0.00000000000E+00 0.  1.
          2    1    1    2  501    0  0.64286818957E+02  0.11887055046E+03 -0.13267033298E+04  0.13335684190E+04  0.00000000000E+00 0. -1.
<scales pt_clust_3="47.99758" pt_clust_4="31.03259" pt_clust_5="14000.00000" pt_clust_6="135.80950"></scales>
<clustering>
<clus scale="   31.033">  1  4  2 -1</clus>
<clus scale="   47.998">  1  3  2 -1</clus>
<clus scale="  135.809">  2  6  1 -1</clus>
<clus scale="   31.033">  1  3  2 -1</clus>
</clustering>
</event>
<event>
 6    0  0.4017242E+002  0.8594517E+02  0.7546771E-02  0.1312979E+00
          1   -1    0    0  505    0 -0.00000000000E+00  0.00000000000E+00  0.10220560346E+03  0.10220560346E+03  0.00000000000E+00 0. -1.
         21   -1    0    0  504  502  0.00000000000E+00 -0.00000000000E+00 -0.24909516840E+03  0.24909516840E+03  0.00000000000E+00 0. -1.
         21    1    1    2  503  502  0.13912923887E+02 -0.10401954623E+03 -0.12122139473E+03  0.16033796179E+03  0.00000000000E+00 0. -1.
         21    1    1    2  504  501 -0.11639457714E+02  0.35538299763E+02 -0.39377385075E+02  0.54304936988E+02  0.00000000000E+00 0. -1.
         21    1    1    2  505  503 -0.21062186663E+01 -0.33666254733E+02  0.12742736114E+01  0.33756134821E+02  0.00000000000E+00 0. -1.
          1    1    1    2  501    0 -0.16724750627E+00  0.10214750120E+03  0.12434941258E+02  0.10290173827E+03  0.00000000000E+00 0. -1.
<scales pt_clust_3="14000.00000" pt_clust_4="34.65143" pt_clust_5="33.73207" pt_clust_6="85.94517"></scales>
<clustering>
<clus scale="   33.732">  1  5  2 -1</clus>
<clus scale="   34.651">  2  4  1 -1</clus>
<clus scale="   85.945">  1  6  2 -1</clus>
<clus scale="   34.651">  2  3  1 -1</clus>
</clustering>
</event>
<event>
 6    0  0.4017242E+002  0.7195542E+02  0.7546771E-02  0.1353567E+00
         -4   -1    0    0    0  501 -0.00000000000E+00  0.00000000000E+00  0.89333232849E+03  0.89333232849E+03  0.00000000000E+00 0.  1.
         21   -1    0    0  503  502  0.00000000000E+00 -0.00000000000E+00 -0.92507593059E+02  0.92507593059E+02  0.00000000000E+00 0.  1.
         21    1    1    2  503  501  0.60130913012E+02  0.31616260765E+02 -0.27125261455E+02  0.73151175339E+02  0.00000000000E+00 0.  1.
         21    1    1    2  504  502 -0.11031246236E+03  0.41870984133E+02  0.60169979332E+02  0.13244789570E+03  0.00000000000E+00 0.  1.
         21    1    1    2  505  504  0.19337666837E+02 -0.41626225225E+02  0.90153851732E+02  0.10116523596E+03  0.00000000000E+00 0.  1.
         -4    1    1    2    0  505  0.30843882507E+02 -0.31861019672E+02  0.67762616583E+03  0.67907561455E+03  0.00000000000E+00 0.  1.
<scales pt_clust_3="14000.00000" pt_clust_4="71.95542" pt_clust_5="64.86229" pt_clust_6="44.34489"></scales>
<clustering>
<clus scale="   44.345">  1  6  2 -1</clus>
<clus scale="   64.862">  1  5  2 -1</clus>
<clus scale="   71.955">  1  4  2 -1</clus>
<clus scale="   71.955">  2  3  1 -1</clus>
</clustering>
</event>
<event>
 6    0  0.4017242E+002  0.1053336E+03  0.7546771E-02  0.1269464E+00
          2   -1    0    0  503    0 -0.00000000000E+00  0.00000000000E+00  0.25327591667E+04  0.25327591667E+04  0.00000000000E+00 0. -1.
         21   -1    0    0  504  502  0.00000000000E+00 -0.00000000000E+00 -0.75948086398E+02  0.75948086398E+02  0.00000000000E+00 0.  1.
         21    1    1    2  503  505 -0.10272274462E+03 -0.90602771988E+02  0.30935120649E+03  0.33831788825E+03  0.00000000000E+00 0.  1.
         21    1    1    2  504  501  0.13405212132E+02  0.66988322241E+02 -0.18634584805E+02  0.70812306697E+02  0.00000000000E+00 0.  1.
         21    1    1    2  505  502  0.46189691786E+02  0.27653081129E+02  0.27331358314E+02  0.60375356484E+02  0.00000000000E+00 0.  1.
          2    1    1    2  501    0  0.43127840705E+02 -0.40386313821E+01  0.21387631003E+04  0.21392017016E+04  0.00000000000E+00 0. -1.
<scales pt_clust_3="105.33364" pt_clust_4="14000.00000" pt_clust_5="57.79509" pt_clust_6="43.31652"></scales>
<clustering>
<clus scale="   43.317">  1  6  2 -1</clus>
<clus scale="   57.795">  2  5  1 -1</clus>
<clus scale="  105.334">  1  3  2 -1</clus>
<clus scale="   57.795">  2  3  1 -1</clus>
</clustering>
</event>
<event>
 6    0  0.4017242E+002  0.9820081E+02  0.7546771E-02  0.1284126E+00
          2   -1    0    0  505    0 -0.00000000000E+00  0.00000000000E+00  0.38484723925E+04  0.38484723925E+04  0.00000000000E+00 0. -1.
         21   -1    0    0  503  502  0.00000000000E+00 -0.00000000000E+00 -0.64427267185E+02  0.64427267185E+02  0.00000000000E+00 0. -1.
         21    1    1    2  503  504 -0.21238930451E+02 -0.62115550198E+02 -0.22936625803E+02  0.69537921642E+02  0.00000000000E+00 0. -1.
         21    1    1    2  504  501  0.28144458015E+02  0.60784468753E+02  0.38779470414E+03  0.39353728504E+03  0.00000000000E+00 0.  1.
         21    1    1    2  505  502 -0.69252950221E+02 -0.15051362256E+02  0.68651597840E+02  0.98668923710E+02  0.00000000000E+00 0. -1.
          2    1    1    2  501    0  0.62347422657E+02  0.16382443701E+02  0.33505354491E+04  0.33511555292E+04  0.00000000000E+00 0. -1.
<scales pt_clust_3="14000.00000" pt_clust_4="98.20081" pt_clust_5="60.04394" pt_clust_6="64.46383"></scales>
<clustering>
<clus scale="   64.464">  1  6  2 -1</clus>
<clus scale="   60.044">  2  5  1 -1</clus>
<clus scale="   98.201">  1  4  2 -1</clus>
<clus scale="   60.044">  2  3  1 -1</clus>
</clustering>
</event>
<event>
 6    0  0.4017242E+002  0.2713623E+03  0.7546771E-02  0.1100502E+00
          1   -1    0    0  504    0 -0.00000000000E+00  0.00000000000E+00  0.21618393368E+04  0.21618393368E+04  0.00000000000E+00 0. -1.
         21   -1    0    0  505  502  0.00000000000E+00 -0.00000000000E+00 -0.44037300276E+03  0.44037300276E+03  0.00000000000E+00 0. -1.
         21    1    1    2  503  501 -0.16285449999E+03 -0.92522369277E+02 -0.25771320607E+03  0.31858762306E+03  0.00000000000E+00 0. -1.
         21    1    1    2  504  502 -0.29743706361E+02  0.11456039136E+02  0.42946700562E+01  0.32161671158E+02  0.00000000000E+00 0. -1.
         21    1    1    2  505  503 -0.29520297643E+02 -0.58794440519E+02 -0.12178916039E+03  0.13842266359E+03  0.00000000000E+00 0.  1.
          1    1    1    2  501    0  0.22211850400E+03  0.13986077066E+03  0.20966740304E+04  0.21130403818E+04  0.00000000000E+00 0. -1.
<scales pt_clust_3="40.61109" pt_clust_4="31.87364" pt_clust_5="40.61109" pt_clust_6="262.11825"></scales>
<clustering>
<clus scale="   31.874">  2  4  1 -1</clus>
<clus scale="   40.611">  3  5 -1 -1</clus>
<clus scale="  262.118">  1  6  2 -1</clus>
<clus scale="   31.874">  2  3  1 -1</clus>
</clustering>
</event>
<event>
 6    0  0.4017242E+002  0.9970565E+02  0.7546771E-02  0.1280916E+00
          2   -1    0    0  505    0 -0.00000000000E+00  0.00000000000E+00  0.20163465116E+03  0.20163465116E+03  0.00000000000E+00 0. -1.
         21   -1    0    0  504  502  0.00000000000E+00 -0.00000000000E+00 -0.27400573713E+03  0.27400573713E+03  0.00000000000E+00 0. -1.
         21    1    1    2  503  501 -0.42985878816E+02 -0.10204853844E+03 -0.63063651707E+02  0.12743121338E+03  0.00000000000E+00 0. -1.
         21    1    1    2  504  503  0.54863305050E+02 -0.34224664807E+02 -0.98422338487E+02  0.11776360488E+03  0.00000000000E+00 0. -1.
         21    1    1    2  505  502 -0.31007890982E+02  0.96816264225E+02 -0.27953893299E+02  0.10543385828E+03  0.00000000000E+00 0. -1.
          2    1    1    2  501    0  0.19130464749E+02  0.39456939025E+02  0.11706879752E+03  0.12501171174E+03  0.00000000000E+00 0. -1.
<scales pt_clust_3="14000.00000" pt_clust_4="64.31795" pt_clust_5="99.70565" pt_clust_6="43.85003"></scales>
<clustering>
<clus scale="   43.850">  1  6  2 -1</clus>
<clus scale="   64.318">  2  4  1 -1</clus>
<clus scale="   99.706">  2  5  1 -1</clus>
<clus scale="   64.318">  2  3  1 -1</clus>
</clustering>
</event>
<event>
 6    0  0.4017242E+002  0.2072323E+03  0.7546771E-02  0.1143777E+00
          2   -1    0    0  504    0 -0.00000000000E+00  0.00000000000E+00  0.74935455740E+03  0.74935455740E+03  0.00000000000E+00 0. -1.
         21   -1    0    0  503  502  0.00000000000E+00 -0.00000000000E+00 -0.37134041838E+03  0.37134041838E+03  0.00000000000E+00 0.  1.
         21    1    1    2  503  505 -0.66205530733E+02  0.36941040720E+02 -0.13584167587E+03  0.15556597858E+03  0.00000000000E+00 0.  1.
         21    1    1    2  504  502  0.42836809811E+02  0.18345111109E+03 -0.13141692684E+03  0.22969482165E+03  0.00000000000E+00 0.  1.
         21    1    1    2  505  501 -0.11674627021E+02 -0.19808850257E+03  0.17876596019E+03  0.26708167344E+03  0.00000000000E+00 0.  1.
          2    1    1    2  501    0  0.35043347944E+02 -0.22303649240E+02  0.46650678154E+03  0.46835250210E+03  0.00000000000E+00 0. -1.
<scales pt_clust_3="74.36371" pt_clust_4="14000.00000" pt_clust_5="207.23231" pt_clust_6="41.53901"></scales>
<clustering>
<clus scale="   41.539">  1  6  2 -1</clus>
<clus scale="   74.364">  2  3  1 -1</clus>
<clus scale="  207.232">  1  5  2 -1</clus>
<clus scale="   74.364">  2  3  1 -1</clus>
</clustering>
</event>
<event>
 6    0  0.4017242E+002  0.1281038E+03  0.7546771E-02  0.1230297E+00
         21   -1    0    0  505  502  0.00000000000E+00  0.00000000000E+00  0.57122510726E+03  0.57122510726E+03  0.00000000000E+00 0. -1.
          1   -1    0    0  503    0 -0.00000000000E+00 -0.00000000000E+00 -0.61921318566E+03  0.61921318566E+03  0.00000000000E+00 0. -1.
         21    1    1    2  503  502  0.98044378268E+02  0.73528827754E+02 -0.42914100024E+03  0.44629719550E+03  0.00000000000E+00 0. -1.
         21    1    1    2  504  501 -0.12101916251E+02 -0.56271649069E+02 -0.50572472081E+02  0.76619382654E+02  0.00000000000E+00 0. -1.
         21    1    1    2  505  504 -0.42788009363E+02  0.10583968275E+02  0.54309539598E+03  0.54488112765E+03  0.00000000000E+00 0. -1.
          1    1    1    2  501    0 -0.43154452654E+02 -0.27841146961E+02 -0.11137000207E+03  0.12264058712E+03  0.00000000000E+00 0. -1.
<scales pt_clust_3="114.27875" pt_clust_4="56.58650" pt_clust_5="44.07759" pt_clust_6="56.58650"></scales>
<clustering>
<clus scale="   44.078">  1  5  2 -1</clus>
<clus scale="   56.587">  4  6 -1 -1</clus>
<clus scale="  114.279">  2  3  1 -1</clus>
<clus scale="   44.078">  1  3  2 -1</clus>
</clustering>
</event>
<event>
 6    0  0.4017242E+002  0.1132381E+03  0.7546771E-02  0.1254688E+00
          1   -1    0    0  503    0 -0.00000000000E+00  0.00000000000E+00  0.28690208490E+04  0.28690208490E+04  0.00000000000E+00 0.  1.
         21   -1    0    0  504  502  0.00000000000E+00 -0.00000000000E+00 -0.34971020557E+02  0.34971020557E+02  0.00000000000E+00 0. -1.
         21    1    1    2  503  505  0.12061930025E+03  0.40766174675E+02  0.67268146017E+03  0.68462489251E+03  0.00000000000E+00 0. -1.
         21    1    1    2  504  501 -0.25457721914E+02  0.16824543611E+02 -0.12962857415E+02  0.33154133153E+02  0.00000000000E+00 0. -1.
         21    1    1    2  505  502  0.14768239383E+02 -0.47478237969E+02  0.13449727167E+03  0.14339386340E+03  0.00000000000E+00 0. -1.
          1    1    1    2  501    0 -0.10992981772E+03 -0.10112480317E+02  0.20398339541E+04  0.20428189805E+04  0.00000000000E+00 0.  1.
<scales pt_clust_3="14000.00000" pt_clust_4="30.51493" pt_clust_5="41.53043" pt_clust_6="113.23808"></scales>
<clustering>
<clus scale="   30.515">  2  4  1 -1</clus>
<clus scale="   41.530">  2  5  1 -1</clus>
<clus scale="  113.238">  1  6  2 -1</clus>
<clus scale="   30.515">  2  3  1 -1</clus>
</clustering>
</event>
<event>
 6    0  0.4017242E+002  0.5718796E+02  0.7546771E-02  0.1410026E+00
         21   -1    0    0  505  502  0.00000000000E+00  0.00000000000E+00  0.68293373263E+02  0.68293373263E+02  0.00000000000E+00 0.  1.
          2   -1    0    0  503    0 -0.00000000000E+00 -0.00000000000E+00 -0.22902961220E+04  0.22902961220E+04  0.00000000000E+00 0.  1.
         21    1    1    2  503  504 -0.12972747212E+01  0.50490338348E+02 -0.12908918773E+03  0.13861809253E+03  0.00000000000E+00 0. -1.
         21    1    1    2  504  502 -0.24980720237E+02  0.20022204011E+02  0.88241873091E+01  0.33208301954E+02  0.00000000000E+00 0.  1.
         21    1    1    2  505  501  0.81137256053E+02 -0.85172797231E+02 -0.40007164452E+02  0.12425068577E+03  0.00000000000E+00 0.  1.
          2    1    1    2  501    0 -0.54859261095E+02  0.14660254872E+02 -0.20617305839E+04  0.20625124150E+04  0.00000000000E+00 0.  1.
<scales pt_clust_3="52.64651" pt_clust_4="32.01445" pt_clust_5="57.18796" pt_clust_6="14000.00000"></scales>
<clustering>
<clus scale="   32.014">  1  4  2 -1</clus>
<clus scale="   52.647">  1  3  2 -1</clus>
<clus scale="   57.188">  1  5  2 -1</clus>
<clus scale="   32.014">  1  3  2 -1</clus>
</clustering>
</event>
<event>
 6    0  0.4017242E+002  0.2004392E+03  0.7546771E-02  0.1149369E+00
          2   -1    0    0  502    0 -0.00000000000E+00  0.00000000000E+00  0.17977115435E+04  0.17977115435E+04  0.00000000000E+00 0.  1.
         21   -1    0    0  504  502  0.00000000000E+00 -0.00000000000E+00 -0.15473195028E+03  0.15473195028E+03  0.00000000000E+00 0. -1.
         21    1    1    2  503  505 -0.12234913896E+02  0.95971445963E+02 -0.19850697246E+02  0.98763666089E+02  0.00000000000E+00 0. -1.
         21    1    1    2  504  503  0.30481746790E+02  0.49454352913E+02  0.44234700507E+02  0.73017659771E+02  0.00000000000E+00 0. -1.
         21    1    1    2  505  501  0.16753699931E+03 -0.54534985241E+02  0.30079887582E+02  0.17873866507E+03  0.00000000000E+00 0. -1.
          2    1    1    2  501    0 -0.18578383221E+03 -0.90890813635E+02  0.15885157024E+04  0.16019235028E+04  0.00000000000E+00 0.  1.
<scales pt_clust_3="116.87240" pt_clust_4="58.09363" pt_clust_5="14000.00000" pt_clust_6="200.43917"></scales>
<clustering>
<clus scale="   58.094">  2  4  1 -1</clus>
<clus scale="  116.872">  2  3  1 -1</clus>
<clus scale="  200.439">  1  6  2 -1</clus>
<clus scale="   58.094">  2  3  1 -1</clus>
</clustering>
</event>
<event>
 6    0  0.4017242E+002  0.1442629E+03  0.7546771E-02  0.1207705E+00
          2   -1    0    0  504    0 -0.00000000000E+00  0.00000000000E+00  0.17692336932E+03  0.17692336932E+03  0.00000000000E+00 0.  1.
         21   -1    0    0  503  502  0.00000000000E+00 -0.00000000000E+00 -0.74722504950E+03  0.74722504950E+03  0.00000000000E+00 0. -1.
         21    1    1    2  503  501 -0.26182893244E+02  0.32616374810E+02 -0.24192827418E+03  0.24551713107E+03  0.00000000000E+00 0. -1.
         21    1    1    2  504  505  0.10722631490E+03 -0.40695516313E+02 -0.30947332343E+03  0.33004143009E+03  0.00000000000E+00 0. -1.
         21    1    1    2  505  502  0.54579392729E+02  0.11362670042E+02 -0.14994342037E+03  0.15997202784E+03  0.00000000000E+00 0. -1.
          2    1    1    2  501    0 -0.13562281439E+03 -0.32835285391E+01  0.13104333780E+03  0.18861782982E+03  0.00000000000E+00 0.  1.
<scales pt_clust_3="41.82549" pt_clust_4="31.24174" pt_clust_5="31.24174" pt_clust_6="137.12713"></scales>
<clustering>
<clus scale="   31.242">  4  5 -1 -1</clus>
<clus scale="   41.825">  2  3  1 -1</clus>
<clus scale="  137.127">  1  6  2 -1</clus>
<clus scale="   41.825">  2  3  1 -1</clus>
</clustering>
</event>
<event>
 6    0  0.4017242E+002  0.1916253E+03  0.7546771E-02  0.1157004E+00
          1   -1    0    0  504    0 -0.00000000000E+00  0.00000000000E+00  0.22433388140E+04  0.22433388140E+04  0.00000000000E+00 0. -1.
         21   -1    0    0  503  502  0.00000000000E+00 -0.00000000000E+00 -0.35436867647E+02  0.35436867647E+02  0.00000000000E+00 0. -1.
         21    1    1    2  503  505  0.94213570113E+02  0.15326291536E+02  0.24447632926E+03  0.26244955244E+03  0.00000000000E+00 0. -1.
         21    1    1    2  504  502  0.75665023951E+02 -0.56432446252E+02  0.41785428209E+03  0.42838302709E+03  0.00000000000E+00 0. -1.
         21    1    1    2  505  501  0.74513961518E+02  0.29449315516E+02  0.14060209673E+03  0.16182874359E+03  0.00000000000E+00 0. -1.
          1    1    1    2  501    0 -0.24439255558E+03  0.11656839200E+02  0.14049692383E+04  0.14261143585E+04  0.00000000000E+00 0. -1.
<scales pt_clust_3="32.42893" pt_clust_4="94.39183" pt_clust_5="32.42893" pt_clust_6="188.32793"></scales>
<clustering>
<clus scale="   32.429">  3  5 -1 -1</clus>
<clus scale="   94.392">  1  4  2 -1</clus>
<clus scale="  188.328">  1  6  2 -1</clus>
<clus scale="  191.625">  2  3  1 -1</clus>
</clustering>
</event>
<event>
 6    0  0.4017242E+002  0.6525603E+02  0.7546771E-02  0.1377011E+00
         21   -1    0    0  503  502  0.00000000000E+00  0.00000000000E+00  0.28350980873E+03  0.28350980873E+03  0.00000000000E+00 0. -1.
         -2   -1    0    0    0  501 -0.00000000000E+00 -0.00000000000E+00 -0.11101547114E+03  0.11101547114E+03  0.00000000000E+00 0. -1.
         21    1    1    2  503  505 -0.58959588853E+02 -0.36893963818E+02  0.10130004749E+03  0.12287838421E+03  0.00000000000E+00 0. -1.
         21    1    1    2  504  501  0.81433643637E+02 -0.66722227799E+02  0.35418553574E+02  0.11107550556E+03  0.00000000000E+00 0. -1.
         21    1    1    2  505  504  0.21162279953E+02  0.65761302328E+02  0.65854247277E+02  0.95441986888E+02  0.00000000000E+00 0. -1.
         -2    1    1    2    0  502 -0.43636334737E+02  0.37854889289E+02 -0.30078510755E+02  0.65129403203E+02  0.00000000000E+00 0. -1.
<scales pt_clust_3="65.25603" pt_clust_4="70.83581" pt_clust_5="14000.00000" pt_clust_6="57.76783"></scales>
<clustering>
<clus scale="   57.768">  2  6  1 -1</clus>
<clus scale="   70.836">  2  4  1 -1</clus>
<clus scale="   65.256">  1  3  2 -1</clus>
<clus scale="   65.256">  1  3  2 -1</clus>
</clustering>
</event>
<event>
 6    0  0.4017242E+002  0.1661498E+03  0.7546771E-02  0.1181924E+00
          2   -1    0    0  504    0 -0.00000000000E+00  0.00000000000E+00  0.44512347731E+03  0.44512347731E+03  0.00000000000E+00 0. -1.
         21   -1    0    0  503  502  0.00000000000E+00 -0.00000000000E+00 -0.88159396673E+02  0.88159396673E+02  0.00000000000E+00 0. -1.
         21    1    1    2  503  501  0.51183989569E+02 -0.10075456667E+02 -0.14549234528E+02  0.54157140255E+02  0.00000000000E+00 0.  1.
         21    1    1    2  504  505 -0.72140141875E+02 -0.23813572199E+02  0.22720742837E+03  0.23957149621E+03  0.00000000000E+00 0. -1.
         21    1    1    2  505  502 -0.74935494698E+02 -0.10236460841E+02  0.99252688533E+02  0.12478465321E+03  0.00000000000E+00 0.  1.
          2    1    1    2  501    0  0.95891647004E+02  0.44125489707E+02  0.45053198257E+02  0.11476958430E+03  0.00000000000E+00 0. -1.
<scales pt_clust_3="48.78136" pt_clust_4="161.79986" pt_clust_5="58.08177" pt_clust_6="48.78136"></scales>
<clustering>
<clus scale="   48.781">  3  6 -1 -1</clus>
<clus scale="   58.082">  4  5 -1 -1</clus>
<clus scale="  161.800">  1  4  2 -1</clus>
<clus scale="  166.150">  2  3  1 -1</clus>
</clustering>
</event>
<event>
 6    0  0.4017242E+002  0.1067468E+03  0.7546771E-02  0.1266716E+00
         21   -1    0    0  501  502  0.00000000000E+00  0.00000000000E+00  0.24393864645E+03  0.24393864645E+03  0.00000000000E+00 0. -1.
          2   -1    0    0  504    0 -0.00000000000E+00 -0.00000000000E+00 -0.22800046152E+04  0.22800046152E+04  0.00000000000E+00 0. -1.
         21    1    1    2  503  505 -0.86764441539E+01 -0.60230933633E+02 -0.62783041716E+02  0.87434297484E+02  0.00000000000E+00 0. -1.
         21    1    1    2  504  503 -0.22531819703E+02 -0.74627141965E+02 -0.67164325128E+03  0.67615201708E+03  0.00000000000E+00 0. -1.
         21    1    1    2  505  502  0.11394609692E+02 -0.28091058177E+02  0.22393454139E+03  0.22597704199E+03  0.00000000000E+00 0. -1.
          2    1    1    2  501    0  0.19813654165E+02  0.16294913378E+03 -0.15255742172E+04  0.15343799051E+04  0.00000000000E+00 0. -1.
<scales pt_clust_3="78.48095" pt_clust_4="14000.00000" pt_clust_5="30.31410" pt_clust_6="106.74677"></scales>
<clustering>
<clus scale="   30.314">  1  5  2 -1</clus>
<clus scale="   78.481">  1  3  2 -1</clus>
<clus scale="  106.747">  1  6  2 -1</clus>
<clus scale="   30.314">  1  3  2 -1</clus>
</clustering>
</event>
<event>
 6    0  0.4017242E+002  0.8347895E+02  0.7546771E-02  0.1319459E+00
          1   -1    0    0  504    0 -0.00000000000E+00  0.00000000000E+00  0.12954484533E+04  0.12954484533E+04  0.00000000000E+00 0.  1.
         21   -1    0    0  501  502  0.00000000000E+00 -0.00000000000E+00 -0.91328742826E+03  0.91328742826E+03  0.00000000000E+00 0. -1.
         21    1    1    2  503  505 -0.45959852636E+02  0.28863838731E+02 -0.21456399313E+03  0.22132134192E+03  0.00000000000E+00 0. -1.
         21    1    1    2  504  503 -0.62887631018E+02 -0.84048370257E+02 -0.47704795560E+02  0.11530277619E+03  0.00000000000E+00 0. -1.
         21    1    1    2  505  502  0.33226518464E+02  0.20193203505E+02 -0.61184375348E+03  0.61307792789E+03  0.00000000000E+00 0. -1.
          1    1    1    2  501    0  0.75620965191E+02  0.34991328021E+02  0.12562735672E+04  0.12590338355E+04  0.00000000000E+00 0.  1.
<scales pt_clust_3="48.69042" pt_clust_4="14000.00000" pt_clust_5="38.88145" pt_clust_6="83.47895"></scales>
<clustering>
<clus scale="   38.881">  2  5  1 -1</clus>
<clus scale="   48.690">  2  3  1 -1</clus>
<clus scale="   83.479">  1  6  2 -1</clus>
<clus scale="   38.881">  2  3  1 -1</clus>
</clustering>
</event>
<event>
 6    0  0.4017242E+002  0.1288716E+03  0.7546771E-02  0.1229140E+00
         -1   -1    0    0    0  501 -0.00000000000E+00  0.00000000000E+00  0.43872254641E+03  0.43872254641E+03  0.00000000000E+00 0.  1.
         21   -1    0    0  504  502  0.00000000000E+00 -0.00000000000E+00 -0.96663228604E+02  0.96663228604E+02  0.00000000000E+00 0. -1.
         21    1    1    2  503  501  0.21416909382E+02 -0.84711749299E+02  0.96483217627E+02  0.13016825942E+03  0.00000000000E+00 0.  1.
         21    1    1    2  504  505 -0.21531667376E+02  0.72896926276E+02  0.20059483040E+02  0.78612705209E+02  0.00000000000E+00 0. -1.
         21    1    1    2  505  503 -0.24761218361E+02  0.61139304365E+02 -0.24644714530E+02  0.70416577787E+02  0.00000000000E+00 0. -1.
         -1    1    1    2    0  502  0.24875976354E+02 -0.49324481343E+02  0.25016133167E+03  0.25618823259E+03  0.00000000000E+00 0.  1.
<scales pt_clust_3="120.53183" pt_clust_4="42.48560" pt_clust_5="42.48560" pt_clust_6="55.24236"></scales>
<clustering>
<clus scale="   42.486">  4  5 -1 -1</clus>
<clus scale="   55.242">  1  6  2 -1</clus>
<clus scale="  120.532">  1  3  2 -1</clus>
<clus scale="  128.872">  2  3  1 -1</clus>
</clustering>
</event>
<event>
 6    0  0.4017242E+002  0.9341054E+02  0.7546771E-02  0.1294797E+00
         21   -1    0    0  505  502  0.00000000000E+00  0.00000000000E+00  0.42310736640E+03  0.42310736640E+03  0.00000000000E+00 0. -1.
          4   -1    0    0  503    0 -0.00000000000E+00 -0.00000000000E+00 -0.29830521247E+03  0.29830521247E+03  0.00000000000E+00 0. -1.
         21    1    1    2  503  504 -0.85908993363E+02  0.25226937594E+02  0.40650935432E+02  0.98332355166E+02  0.00000000000E+00 0. -1.
         21    1    1    2  504  502  0.18697142443E+02 -0.61279702928E+02  0.71401801607E+02  0.95932280277E+02  0.00000000000E+00 0. -1.
         21    1    1    2  505  501  0.84525756373E+02  0.86422192041E+02  0.25335522334E+03  0.28071741657E+03  0.00000000000E+00 0. -1.
          4    1    1    2  501    0 -0.17313905453E+02 -0.50369426706E+02 -0.24060580645E+03  0.24643052686E+03  0.00000000000E+00 0. -1.
<scales pt_clust_3="93.41054" pt_clust_4="74.05425" pt_clust_5="14000.00000" pt_clust_6="53.26209"></scales>
<clustering>
<clus scale="   53.262">  2  6  1 -1</clus>
<clus scale="   74.054">  1  4  2 -1</clus>
<clus scale="   93.411">  2  3  1 -1</clus>
<clus scale="   74.054">  1  3  2 -1</clus>
</clustering>
</event>
<event>
 6    0  0.4017242E+002  0.4529897E+03  0.7546771E-02  0.1026834E+00
         21   -1    0    0  504  502  0.00000000000E+00  0.00000000000E+00  0.71178654028E+03  0.71178654028E+03  0.00000000000E+00 0. -1.
          2   -1    0    0  503    0 -0.00000000000E+00 -0.00000000000E+00 -0.11273606831E+04  0.11273606831E+04  0.00000000000E+00 0. -1.
         21    1    1    2  503  502 -0.21127297707E+02 -0.25059149500E+02  0.42903903287E+02  0.53991375231E+02  0.00000000000E+00 0.  1.
         21    1    1    2  504  505  0.33265039243E+03 -0.15007321097E+02  0.47388641794E+03  0.57918031767E+03  0.00000000000E+00 0. -1.
         21    1    1    2  505  501  0.88275712887E+02 -0.73104357290E+02  0.60550123847E+02  0.12962702665E+03  0.00000000000E+00 0. -1.
          2    1    1    2  501    0 -0.39979880761E+03  0.11317082789E+03 -0.99291458786E+03  0.10763485038E+04  0.00000000000E+00 0. -1.
<scales pt_clust_3="32.77688" pt_clust_4="107.19021" pt_clust_5="107.19021" pt_clust_6="416.36124"></scales>
<clustering>
<clus scale="   32.777">  1  3  2 -1</clus>
<clus scale="  107.190">  4  5 -1 -1</clus>
<clus scale="  416.361">  2  6  1 -1</clus>
<clus scale="   32.777">  1  3  2 -1</clus>
</clustering>
</event>
<event>
 6    0  0.4017242E+002  0.9739150E+02  0.7546771E-02  0.1285879E+00
          2   -1    0    0  505    0 -0.00000000000E+00  0.00000000000E+00  0.14878293395E+03  0.14878293395E+03  0.00000000000E+00 0.  1.
         21   -1    0    0  501  502  0.00000000000E+00 -0.00000000000E+00 -0.13882901313E+04  0.13882901313E+04  0.00000000000E+00 0. -1.
         21    1    1    2  503  502 -0.35861398411E+02 -0.52952545292E+02 -0.62149561109E+03  0.62477740560E+03  0.00000000000E+00 0. -1.
         21    1    1    2  504  503  0.38741157621E+02  0.21605314887E+01 -0.38338269851E+03  0.38534119778E+03  0.00000000000E+00 0. -1.
         21    1    1    2  505  504  0.77484599816E+02  0.31382699376E+02 -0.36397030248E+03  0.37344761094E+03  0.00000000000E+00 0. -1.
          2    1    1    2  501    0 -0.80364359026E+02  0.19409314427E+02  0.12934141478E+03  0.15350685087E+03  0.00000000000E+00 0.  1.
<scales pt_clust_3="63.95320" pt_clust_4="34.67408" pt_clust_5="34.67408" pt_clust_6="83.03452"></scales>
<clustering>
<clus scale="   34.674">  4  5 -1 -1</clus>
<clus scale="   63.953">  2  3  1 -1</clus>
<clus scale="   83.035">  1  6  2 -1</clus>
<clus scale="   63.953">  2  3  1 -1</clus>
</clustering>
</event>
<event>
 6    0  0.4017242E+002  0.2133184E+03  0.7546771E-02  0.1138965E+00
         21   -1    0    0  501  502  0.00000000000E+00  0.00000000000E+00  0.74530193987E+02  0.74530193987E+02  0.00000000000E+00 0. -1.
          1   -1    0    0  505    0 -0.00000000000E+00 -0.00000000000E+00 -0.85873868996E+03  0.85873868996E+03  0.00000000000E+00 0. -1.
         21    1    1    2  503  504  0.46269753259E+02 -0.27820234497E+02 -0.75266833603E+02  0.92628028991E+02  0.00000000000E+00 0. -1.
         21    1    1    2  504  502  0.32014634319E+02  0.87692506985E+01  0.83421254954E+01  0.34226124908E+02  0.00000000000E+00 0.  1.
         21    1    1    2  505  503  0.83142571336E+02 -0.12243931623E+03 -0.36526331350E+03  0.39410831191E+03  0.00000000000E+00 0. -1.
          1    1    1    2  501    0 -0.16142695891E+03  0.14149030003E+03 -0.35202047436E+03  0.41230641814E+03  0.00000000000E+00 0. -1.
<scales pt_clust_3="36.70741" pt_clust_4="33.19392" pt_clust_5="36.70741" pt_clust_6="204.90188"></scales>
<clustering>
<clus scale="   33.194">  1  4  2 -1</clus>
<clus scale="   36.707">  3  5 -1 -1</clus>
<clus scale="  204.902">  1  6  2 -1</clus>
<clus scale="   33.194">  1  3  2 -1</clus>
</clustering>
</event>
<event>
 6    0  0.4017242E+002  0.9675520E+02  0.7546771E-02  0.1287271E+00
         21   -1    0    0  501  502  0.00000000000E+00  0.00000000000E+00  0.18421831558E+02  0.18421831558E+02  0.00000000000E+00 0.  1.
          1   -1    0    0  504    0 -0.00000000000E+00 -0.00000000000E+00 -0.56547572183E+04  0.56547572183E+04  0.00000000000E+00 0. -1.
         21    1    1    2  503  505 -0.36809915596E+02 -0.69983971941E+02 -0.14084120987E+03  0.16152081170E+03  0.00000000000E+00 0.  1.
         21    1    1    2  504  503 -0.38835466666E+02 -0.51870403072E+02 -0.22606774993E+03  0.23517091602E+03  0.00000000000E+00 0. -1.
         21    1    1    2  505  502  0.31748502189E+02  0.50915744420E+02 -0.27970741277E+03  0.28607100024E+03  0.00000000000E+00 0.  1.
          1    1    1    2  501    0  0.43896880073E+02  0.70938630593E+02 -0.49897190142E+04  0.49904163219E+04  0.00000000000E+00 0. -1.
<scales pt_clust_3="42.18277" pt_clust_4="42.18277" pt_clust_5="60.00317" pt_clust_6="84.79469"></scales>
<clustering>
<clus scale="   42.183">  3  4 -1 -1</clus>
<clus scale="   60.003">  1  5  2 -1</clus>
<clus scale="   84.795">  2  6  1 -1</clus>
<clus scale="   60.003">  1  3  2 -1</clus>
</clustering>
</event>
<event>
 6    0  0.4017242E+002  0.1123386E+03  0.7546771E-02  0.1256299E+00
          2   -1    0    0  505    0 -0.00000000000E+00  0.00000000000E+00  0.17656885496E+04  0.17656885496E+04  0.00000000000E+00 0. -1.
         21   -1    0    0  503  502  0.00000000000E+00 -0.00000000000E+00 -0.40043268266E+02  0.40043268266E+02  0.00000000000E+00 0. -1.
         21    1    1    2  503  504 -0.10269239568E+03 -0.64559277099E+02  0.81994296673E+02  0.14641274902E+03  0.00000000000E+00 0. -1.
         21    1    1    2  504  501  0.31973483764E+02  0.90868934979E+02  0.42184207389E+03  0.43270105421E+03  0.00000000000E+00 0. -1.
         21    1    1    2  505  502  0.43720649760E+02 -0.99970673480E+01  0.23135810745E+03  0.23566503867E+03  0.00000000000E+00 0. -1.
          2    1    1    2  501    0  0.26998262152E+02 -0.16312590532E+02  0.99045080331E+03  0.99095297595E+03  0.00000000000E+00 0. -1.
<scales pt_clust_3="112.33861" pt_clust_4="14000.00000" pt_clust_5="53.95709" pt_clust_6="31.54373"></scales>
<clustering>
<clus scale="   31.544">  1  6  2 -1</clus>
<clus scale="   53.957">  1  5  2 -1</clus>
<clus scale="  112.339">  2  3  1 -1</clus>
<clus scale="  112.339">  2  3  1 -1</clus>
</clustering>
</event>
<event>
 6    0  0.4017242E+002  0.3496007E+03  0.7546771E-02  0.1062779E+00
         21   -1    0    0  501  502  0.00000000000E+00  0.00000000000E+00  0.59947588178E+03  0.59947588178E+03  0.00000000000E+00 0.  1.
          1   -1    0    0  503    0 -0.00000000000E+00 -0.00000000000E+00 -0.10165644949E+04  0.10165644949E+04  0.00000000000E+00 0.  1.
         21    1    1    2  503  504  0.46582554164E+02  0.12518874291E+02  0.26456262109E+02  0.55014456016E+02  0.00000000000E+00 0. -1.
         21    1    1    2  504  505  0.91287379040E+02 -0.47933870183E+02  0.19085118620E+03  0.21692214446E+03  0.00000000000E+00 0.  1.
         21    1    1    2  505  502  0.18234906339E+03 -0.30603694600E+02  0.30097689233E+03  0.35323484647E+03  0.00000000000E+00 0.  1.
          1    1    1    2  501    0 -0.32021899659E+03  0.66018690492E+02 -0.93537295372E+03  0.99086892969E+03  0.00000000000E+00 0.  1.
<scales pt_clust_3="46.91973" pt_clust_4="34.53744" pt_clust_5="46.91973" pt_clust_6="326.95363"></scales>
<clustering>
<clus scale="   34.537">  4  5 -1 -1</clus>
<clus scale="   46.920">  3  4 -1 -1</clus>
<clus scale="  326.954">  2  6  1 -1</clus>
<clus scale="  349.601">  1  3  2 -1</clus>
</clustering>
</event>
<event>
 6    0  0.4017242E+002  0.1274804E+03  0.7546771E-02  0.1231243E+00
         -4   -1    0    0    0  501 -0.00000000000E+00  0.00000000000E+00  0.74326938915E+03  0.74326938915E+03  0.00000000000E+00 0.  1.
         21   -1    0    0  505  502  0.00000000000E+00 -0.00000000000E+00 -0.14122131548E+03  0.14122131548E+03  0.00000000000E+00 0.  1.
         21    1    1    2  503  501  0.12649716503E+03 -0.33389623497E+02  0.17476371104E+02  0.13199175454E+03  0.00000000000E+00 0.  1.
         21    1    1    2  504  502 -0.11501137424E+03  0.46088491304E+02  0.39308133612E+02  0.12998805562E+03  0.00000000000E+00 0.  1.
         21    1    1    2  505  503 -0.12013968415E+01 -0.56184979264E+02 -0.16814476556E+02  0.58659371554E+02  0.00000000000E+00 0.  1.
         -4    1    1    2    0  504 -0.10284393952E+02  0.43486111457E+02  0.56207804551E+03  0.56385152292E+03  0.00000000000E+00 0.  1.
<scales pt_clust_3="127.48037" pt_clust_4="14000.00000" pt_clust_5="51.19492" pt_clust_6="44.68569"></scales>
<clustering>
<clus scale="   44.686">  1  6  2 -1</clus>
<clus scale="   51.195">  2  5  1 -1</clus>
<clus scale="  127.480">  1  3  2 -1</clus>
<clus scale="   51.195">  2  3  1 -1</clus>
</clustering>
</event>
<event>
 6    0  0.4017242E+002  0.7284305E+02  0.7546771E-02  0.1350684E+00
         21   -1    0    0  504  502  0.00000000000E+00  0.00000000000E+00  0.66671822836E+02  0.66671822836E+02  0.00000000000E+00 0.  1.
          1   -1    0    0  503    0 -0.00000000000E+00 -0.00000000000E+00 -0.60835221739E+03  0.60835221739E+03  0.00000000000E+00 0. -1.
         21    1    1    2  503  502  0.69709814101E+02 -0.93393014600E+02 -0.42373158294E+02  0.12400483016E+03  0.00000000000E+00 0.  1.
         21    1    1    2  504  505 -0.26112739616E+02  0.41179634255E+02 -0.11818818728E+02  0.50172920224E+02  0.00000000000E+00 0.  1.
         21    1    1    2  505  501 -0.65560670692E+01  0.69193915857E+02 -0.23401134811E+03  0.24411491362E+03  0.00000000000E+00 0. -1.
          1    1    1    2  501    0 -0.37041007416E+02 -0.16980535512E+02 -0.25347706943E+03  0.25673137623E+03  0.00000000000E+00 0. -1.
<scales pt_clust_3="14000.00000" pt_clust_4="49.37055" pt_clust_5="72.84305" pt_clust_6="40.74770"></scales>
<clustering>
<clus scale="   40.748">  2  6  1 -1</clus>
<clus scale="   49.371">  1  4  2 -1</clus>
<clus scale="   72.843">  2  5  1 -1</clus>
<clus scale="   49.371">  1  3  2 -1</clus>
</clustering>
</event>
<event>
 6    0  0.4017242E+002  0.1250920E+03  0.7546771E-02  0.1234926E+00
         21   -1    0    0  505  502  0.00000000000E+00  0.00000000000E+00  0.14013527524E+03  0.14013527524E+03  0.00000000000E+00 0. -1.
         -3   -1    0    0    0  501 -0.00000000000E+00 -0.00000000000E+00 -0.63104559425E+03  0.63104559425E+03  0.00000000000E+00 0.  1.
         21    1    1    2  503  504  0.44766101334E+02 -0.64683725653E+02 -0.40081943336E+01  0.78765816283E+02  0.00000000000E+00 0.  1.
         21    1    1    2  504  502  0.23369974861E+02 -0.66215637670E+02  0.50790895646E+02  0.86662457140E+02  0.00000000000E+00 0. -1.
         21    1    1    2  505  501 -0.51790291347E+02  0.61231032946E+02 -0.19356097447E+02  0.82499285948E+02  0.00000000000E+00 0. -1.
         -3    1    1    2    0  503 -0.16345784848E+02  0.69668330376E+02 -0.51833692287E+03  0.52325331012E+03  0.00000000000E+00 0.  1.
<scales pt_clust_3="55.09659" pt_clust_4="55.09659" pt_clust_5="110.66741" pt_clust_6="71.56019"></scales>
<clustering>
<clus scale="   55.097">  3  4 -1 -1</clus>
<clus scale="   71.560">  2  6  1 -1</clus>
<clus scale="  110.667">  1  5  2 -1</clus>
<clus scale="  110.667">  1  3  2 -1</clus>
</clustering>
</event>
<event>
 6    0  0.4017242E+002  0.1190813E+03  0.7546771E-02  0.1244620E+00
         21   -1    0    0  503  502  0.00000000000E+00  0.00000000000E+00  0.53594466419E+03  0.53594466419E+03  0.00000000000E+00 0. -1.
          2   -1    0    0  505    0 -0.00000000000E+00 -0.00000000000E+00 -0.97620304479E+03  0.97620304479E+03  0.00000000000E+00 0. -1.
         21    1    1    2  503  501 -0.46394468143E+01  0.68584734967E+02  0.49865700037E+03  0.50337281845E+03  0.00000000000E+00 0. -1.
         21    1    1    2  504  502 -0.12140603917E+02 -0.11879243143E+03 -0.61608161283E+03  0.62754728084E+03  0.00000000000E+00 0. -1.
         21    1    1    2  505  504 -0.55288057874E+02 -0.39061427454E+02 -0.46790337485E+02  0.82291555704E+02  0.00000000000E+00 0. -1.
          2    1    1    2  501    0  0.72068108605E+02  0.89269123913E+02 -0.27604343066E+03  0.29893605398E+03  0.00000000000E+00 0. -1.
<scales pt_clust_3="68.65049" pt_clust_4="119.08133" pt_clust_5="67.69464" pt_clust_6="14000.00000"></scales>
<clustering>
<clus scale="   67.695">  2  5  1 -1</clus>
<clus scale="   68.650">  1  3  2 -1</clus>
<clus scale="  119.081">  2  4  1 -1</clus>
<clus scale="   68.650">  1  3  2 -1</clus>
</clustering>
</event>
<event>
 6    0  0.4017242E+002  0.1276392E+03  0.7546771E-02  0.1231001E+00
          2   -1    0    0  505    0 -0.00000000000E+00  0.00000000000E+00  0.17290661160E+04  0.17290661160E+04  0.00000000000E+00 0.  1.
         21   -1    0    0  503  502  0.00000000000E+00 -0.00000000000E+00 -0.19684035290E+03  0.19684035290E+03  0.00000000000E+00 0.  1.
         21    1    1    2  503  504 -0.39329491223E+02 -0.14148619939E+02 -0.65122759501E+02  0.77381949646E+02  0.00000000000E+00 0.  1.
         21    1    1    2  504  501  0.76238503006E+02 -0.11645603034E+02  0.72573541657E+02  0.10590018111E+03  0.00000000000E+00 0.  1.
         21    1    1    2  505  502 -0.27162448325E+02 -0.10214209862E+03 -0.80108285865E+02  0.13262030151E+03  0.00000000000E+00 0.  1.
          2    1    1    2  501    0 -0.97465634584E+01  0.12793632159E+03  0.16048832668E+04  0.16100040366E+04  0.00000000000E+00 0.  1.
<scales pt_clust_3="41.79704" pt_clust_4="72.29615" pt_clust_5="127.63920" pt_clust_6="14000.00000"></scales>
<clustering>
<clus scale="   41.797">  2  3  1 -1</clus>
<clus scale="   72.296">  2  4  1 -1</clus>
<clus scale="  127.639">  2  5  1 -1</clus>
<clus scale="   41.797">  2  3  1 -1</clus>
</clustering>
</event>
<event>
 6    0  0.4017242E+002  0.2867261E+03  0.7546771E-02  0.1092071E+00
          2   -1    0    0  503    0 -0.00000000000E+00  0.00000000000E+00  0.14597680895E+04  0.14597680895E+04  0.00000000000E+00 0. -1.
         21   -1    0    0  504  502  0.00000000000E+00 -0.00000000000E+00 -0.34888165762E+03  0.34888165762E+03  0.00000000000E+00 0. -1.
         21    1    1    2  503  502  0.33701797214E+02  0.21480779483E+02 -0.31966382493E+02  0.51176993194E+02  0.00000000000E+00 0. -1.
         21    1    1    2  504  505  0.11702785258E+02 -0.32404228105E+02 -0.60030986286E+02  0.69214944169E+02  0.00000000000E+00 0. -1.
         21    1    1    2  505  501 -0.16728427443E+03 -0.24793922150E+03 -0.12918906653E+03  0.32580316288E+03  0.00000000000E+00 0. -1.
          2    1    1    2  501    0  0.12187969196E+03  0.25886267012E+03  0.13320728672E+04  0.13624546469E+04  0.00000000000E+00 0. -1.
<scales pt_clust_3="39.17127" pt_clust_4="34.45271" pt_clust_5="14000.00000" pt_clust_6="286.72613"></scales>
<clustering>
<clus scale="   34.453">  2  4  1 -1</clus>
<clus scale="   39.171">  2  3  1 -1</clus>
<clus scale="  286.726">  1  6  2 -1</clus>
<clus scale="   34.453">  2  3  1 -1</clus>
</clustering>
</event>
<event>
 6    0  0.4017242E+002  0.1376249E+03  0.7546771E-02  0.1216561E+00
          2   -1    0    0  504    0 -0.00000000000E+00  0.00000000000E+00  0.14202476639E+04  0.14202476639E+04  0.00000000000E+00 0. -1.
         21   -1    0    0  501  502  0.00000000000E+00 -0.00000000000E+00 -0.68557875620E+02  0.68557875620E+02  0.00000000000E+00 0. -1.
         21    1    1    2  503  502 -0.31332004964E+02  0.80428530339E+02 -0.20988738210E+02  0.88831132827E+02  0.00000000000E+00 0. -1.
         21    1    1    2  504  505  0.89901282201E+02 -0.90948610282E+02  0.82671408001E+03  0.83654650818E+03  0.00000000000E+00 0. -1.
         21    1    1    2  505  503  0.38296650689E+02  0.47297851970E+01  0.21876258022E+03  0.22213975517E+03  0.00000000000E+00 0. -1.
          2    1    1    2  501    0 -0.96865927927E+02  0.57902947461E+01  0.32720186626E+03  0.34128814334E+03  0.00000000000E+00 0. -1.
<scales pt_clust_3="86.31595" pt_clust_4="34.42199" pt_clust_5="34.42199" pt_clust_6="122.53104"></scales>
<clustering>
<clus scale="   34.422">  4  5 -1 -1</clus>
<clus scale="   86.316">  2  3  1 -1</clus>
<clus scale="  122.531">  2  6  1 -1</clus>
<clus scale="   86.316">  2  3  1 -1</clus>
</clustering>
</event>
<event>
 6    0  0.4017242E+002  0.1106900E+03  0.7546771E-02  0.1259297E+00
          1   -1    0    0  503    0 -0.00000000000E+00  0.00000000000E+00  0.78488920114E+03  0.78488920114E+03  0.00000000000E+00 0.  1.
         21   -1    0    0  505  502  0.00000000000E+00 -0.00000000000E+00 -0.62273345265E+03  0.62273345265E+03  0.00000000000E+00 0.  1.
         21    1    1    2  503  504 -0.24922378385E+02 -0.38455035291E+02  0.28989982536E+02  0.54224844592E+02  0.00000000000E+00 0. -1.
         21    1    1    2  504  502  0.43621371226E+02 -0.61003975532E+02 -0.11323785040E+03  0.13582017458E+03  0.00000000000E+00 0.  1.
         21    1    1    2  505  501  0.61032084195E+02  0.10153428939E+03 -0.47613448910E+03  0.49065077085E+03  0.00000000000E+00 0.  1.
          1    1    1    2  501    0 -0.79731077036E+02 -0.20752785685E+01  0.72253810546E+03  0.72692686377E+03  0.00000000000E+00 0.  1.
<scales pt_clust_3="45.82483" pt_clust_4="75.25315" pt_clust_5="14000.00000" pt_clust_6="110.69004"></scales>
<clustering>
<clus scale="   45.825">  1  3  2 -1</clus>
<clus scale="   75.253">  2  4  1 -1</clus>
<clus scale="  110.690">  1  6  2 -1</clus>
<clus scale="   75.253">  2  3  1 -1</clus>
</clustering>
</event>
<event>
 6    0  0.4017242E+002  0.2050999E+03  0.7546771E-02  0.1145506E+00
         21   -1    0    0  503  502  0.00000000000E+00  0.00000000000E+00  0.48677756604E+03  0.48677756604E+03  0.00000000000E+00 0. -1.
          2   -1    0    0  504    0 -0.00000000000E+00 -0.00000000000E+00 -0.14644228528E+04  0.14644228528E+04  0.00000000000E+00 0. -1.
         21    1    1    2  503  501  0.81796743058E+01  0.53104217663E+02  0.11711462362E+03  0.12885185319E+03  0.00000000000E+00 0. -1.
         21    1    1    2  504  505 -0.82123410514E+02 -0.68802179554E+02  0.19253643983E+03  0.22033673123E+03  0.00000000000E+00 0. -1.
         21    1    1    2  505  502 -0.10641067444E+03 -0.62684665693E+02  0.12521735544E+03  0.17587491308E+03  0.00000000000E+00 0. -1.
          2    1    1    2  501    0  0.18035441065E+03  0.78382627584E+02 -0.14125137056E+04  0.14261369213E+04  0.00000000000E+00 0. -1.
<scales pt_clust_3="53.73048" pt_clust_4="52.54134" pt_clust_5="52.54134" pt_clust_6="197.18945"></scales>
<clustering>
<clus scale="   52.541">  4  5 -1 -1</clus>
<clus scale="   53.730">  1  3  2 -1</clus>
<clus scale="  197.189">  2  6  1 -1</clus>
<clus scale="   53.730">  1  3  2 -1</clus>
</clustering>
</event>
<event>
 6    0  0.4017242E+002  0.1608378E+03  0.7546771E-02  0.1187754E+00
          1   -1    0    0  502    0 -0.00000000000E+00  0.00000000000E+00  0.15092861915E+04  0.15092861915E+04  0.00000000000E+00 0. -1.
         21   -1    0    0  505  502  0.00000000000E+00 -0.00000000000E+00 -0.35028121867E+03  0.35028121867E+03  0.00000000000E+00 0.  1.
         21    1    1    2  503  504 -0.42518942937E+02  0.15889589841E+02 -0.10308180112E+02  0.46546730831E+02  0.00000000000E+00 0.  1.
         21    1    1    2  504  501 -0.59201018258E+02 -0.13382370738E+02  0.22595116781E+02  0.64764092765E+02  0.00000000000E+00 0.  1.
         21    1    1    2  505  503  0.17743149421E+03 -0.13114131343E+01 -0.27350337689E+03  0.32601802421E+03  0.00000000000E+00 0.  1.
          1    1    1    2  501    0 -0.75711533010E+02 -0.11958059685E+01  0.14202214130E+04  0.14222385623E+04  0.00000000000E+00 0. -1.
<scales pt_clust_3="37.55501" pt_clust_4="37.55501" pt_clust_5="154.86419" pt_clust_6="75.72098"></scales>
<clustering>
<clus scale="   37.555">  3  4 -1 -1</clus>
<clus scale="   75.721">  1  6  2 -1</clus>
<clus scale="  154.864">  2  5  1 -1</clus>
<clus scale="  154.864">  2  3  1 -1</clus>
</clustering>
</event>
<event>
 6    0  0.4017242E+002  0.6217322E+02  0.7546771E-02  0.1388932E+00
         21   -1    0    0  504  502  0.00000000000E+00  0.00000000000E+00  0.81579530843E+02  0.81579530843E+02  0.00000000000E+00 0. -1.
          2   -1    0    0  505    0 -0.00000000000E+00 -0.00000000000E+00 -0.86079245341E+03  0.86079245341E+03  0.00000000000E+00 0. -1.
         21    1    1    2  503  502 -0.51710819706E+02  0.43474506770E+01  0.38265982653E+02  0.64476310615E+02  0.00000000000E+00 0. -1.
         21    1    1    2  504  501  0.64659990539E+02 -0.12792402101E+02 -0.87646413095E+02  0.10966518890E+03  0.00000000000E+00 0. -1.
         21    1    1    2  505  503 -0.46885756102E+02  0.59298462385E+02 -0.62451295762E+02  0.98054811758E+02  0.00000000000E+00 0.  1.
          2    1    1    2  501    0  0.33936585269E+02 -0.50853510961E+02 -0.66738119636E+03  0.67017567298E+03  0.00000000000E+00 0. -1.
<scales pt_clust_3="51.89325" pt_clust_4="47.16512" pt_clust_5="14000.00000" pt_clust_6="62.17322"></scales>
<clustering>
<clus scale="   51.893">  1  3  2 -1</clus>
<clus scale="   47.165">  1  4  2 -1</clus>
<clus scale="   62.173">  2  6  1 -1</clus>
<clus scale="   51.893">  1  3  2 -1</clus>
</clustering>
</event>
<event>
 6    0  0.4017242E+002  0.9941779E+02  0.7546771E-02  0.1281525E+00
         21   -1    0    0  504  502  0.00000000000E+00  0.00000000000E+00  0.12365418419E+04  0.12365418419E+04  0.00000000000E+00 0. -1.
          2   -1    0    0  505    0 -0.00000000000E+00 -0.00000000000E+00 -0.51595464554E+03  0.51595464554E+03  0.00000000000E+00 0. -1.
         21    1    1    2  503  502  0.22515863059E+02 -0.59709982408E+02  0.84986229176E+03  0.85225475126E+03  0.00000000000E+00 0. -1.
         21    1    1    2  504  501  0.39898707311E+02 -0.30822762323E+02  0.16037631627E+03  0.16811458100E+03  0.00000000000E+00 0. -1.
         21    1    1    2  505  503 -0.11114430848E+03  0.48996370467E+02  0.20233371943E+03  0.23599287202E+03  0.00000000000E+00 0. -1.
          2    1    1    2  501    0  0.48729738108E+02  0.41536374264E+02 -0.49198513107E+03  0.49613428319E+03  0.00000000000E+00 0. -1.
<scales pt_clust_3="99.41779" pt_clust_4="50.41775" pt_clust_5="14000.00000" pt_clust_6="64.05027"></scales>
<clustering>
<clus scale="   50.418">  1  4  2 -1</clus>
<clus scale="   64.050">  2  6  1 -1</clus>
<clus scale="   99.418">  1  3  2 -1</clus>
<clus scale="   50.418">  1  3  2 -1</clus>
</clustering>
</event>
<event>
 6    0  0.4017242E+002  0.7085767E+02  0.7546771E-02  0.1357201E+00
         21   -1    0    0  504  502  0.00000000000E+00  0.00000000000E+00  0.15347129391E+04  0.15347129391E+04  0.00000000000E+00 0. -1.
          1   -1    0    0  503    0 -0.00000000000E+00 -0.00000000000E+00 -0.20326261518E+03  0.20326261518E+03  0.00000000000E+00 0. -1.
         21    1    1    2  503  502  0.13259354055E+03 -0.26458051059E+02  0.37415213364E+02  0.14028889355E+03  0.00000000000E+00 0. -1.
         21    1    1    2  504  505 -0.68047974560E+02 -0.16365041746E+02  0.14296294588E+04  0.14313415843E+04  0.00000000000E+00 0. -1.
         21    1    1    2  505  501 -0.34388440991E+02  0.43200248718E+02 -0.46182486915E+02  0.71983668014E+02  0.00000000000E+00 0. -1.
          1    1    1    2  501    0 -0.30157124999E+02 -0.37715591233E+00 -0.89411861382E+02  0.94361408375E+02  0.00000000000E+00 0. -1.
<scales pt_clust_3="70.85767" pt_clust_4="14000.00000" pt_clust_5="66.24042" pt_clust_6="30.15948"></scales>
<clustering>
<clus scale="   30.159">  2  6  1 -1</clus>
<clus scale="   66.240">  2  5  1 -1</clus>
<clus scale="   70.858">  2  3  1 -1</clus>
<clus scale="   70.858">  1  3  2 -1</clus>
</clustering>
</event>
<event>
 6    0  0.4017242E+002  0.1391879E+03  0.7546771E-02  0.1214426E+00
         21   -1    0    0  503  502  0.00000000000E+00  0.00000000000E+00  0.92130858766E+02  0.92130858766E+02  0.00000000000E+00 0. -1.
          2   -1    0    0  504    0 -0.00000000000E+00 -0.00000000000E+00 -0.25209963497E+04  0.25209963497E+04  0.00000000000E+00 0.  1.
         21    1    1    2  503  501 -0.23465338160E+02  0.73259139969E+02 -0.10601036607E+02  0.77652467193E+02  0.00000000000E+00 0. -1.
         21    1    1    2  504  505  0.13813520047E+03 -0.82618928270E+02 -0.10462239064E+03  0.19197152273E+03  0.00000000000E+00 0. -1.
         21    1    1    2  505  502  0.24297775218E+02  0.22242084946E+02 -0.83395887928E+01  0.33980008307E+02  0.00000000000E+00 0. -1.
          2    1    1    2  501    0 -0.13896763753E+03 -0.12882296645E+02 -0.23053024749E+04  0.23095232102E+04  0.00000000000E+00 0.  1.
<scales pt_clust_3="83.70759" pt_clust_4="139.18785" pt_clust_5="32.94074" pt_clust_6="14000.00000"></scales>
<clustering>
<clus scale="   32.941">  1  5  2 -1</clus>
<clus scale="   83.708">  1  3  2 -1</clus>
<clus scale="  139.188">  1  4  2 -1</clus>
<clus scale="   32.941">  1  3  2 -1</clus>
</clustering>
</event>
<event>
 6    0  0.4017242E+002  0.7565911E+02  0.7546771E-02  0.1341842E+00
          2   -1    0    0  505    0 -0.00000000000E+00  0.00000000000E+00  0.28253973504E+04  0.28253973504E+04  0.00000000000E+00 0.  1.
         21   -1    0    0  501  502  0.00000000000E+00 -0.00000000000E+00 -0.92567284242E+03  0.92567284242E+03  0.00000000000E+00 0.  1.
         21    1    1    2  503  502 -0.12341753266E+02  0.51291652238E+02 -0.71226173337E+03  0.71421280392E+03  0.00000000000E+00 0.  1.
         21    1    1    2  504  503  0.76326263112E+02 -0.11021837521E+02 -0.19846595057E+03  0.21292231654E+03  0.00000000000E+00 0. -1.
         21    1    1    2  505  504 -0.63164213193E+02 -0.85068108001E+02  0.42318545193E+03  0.43624789690E+03  0.00000000000E+00 0. -1.
          2    1    1    2  501    0 -0.82029665329E+00  0.44798293285E+02  0.23872667400E+04  0.23876871754E+04  0.00000000000E+00 0.  1.
<scales pt_clust_3="52.85305" pt_clust_4="75.65911" pt_clust_5="14000.00000" pt_clust_6="44.80580"></scales>
<clustering>
<clus scale="   44.806">  1  6  2 -1</clus>
<clus scale="   52.853">  2  3  1 -1</clus>
<clus scale="   75.659">  2  4  1 -1</clus>
<clus scale="   52.853">  2  3  1 -1</clus>
</clustering>
</event>
<event>
 6    0  0.4017242E+002  0.9181336E+02  0.7546771E-02  0.1298519E+00
          2   -1    0    0  503    0 -0.00000000000E+00  0.00000000000E+00  0.16475144266E+04  0.16475144266E+04  0.00000000000E+00 0. -1.
         21   -1    0    0  505  502  0.00000000000E+00 -0.00000000000E+00 -0.30393689293E+02  0.30393689293E+02  0.00000000000E+00 0. -1.
         21    1    1    2  503  504 -0.72416062897E+02  0.29243962124E+02  0.73617096147E+02  0.10732554370E+03  0.00000000000E+00 0. -1.
         21    1    1    2  504  502  0.11501041410E+02  0.30012181500E+02  0.31115845783E+02  0.44734783454E+02  0.00000000000E+00 0. -1.
         21    1    1    2  505  501 -0.29515465705E+02 -0.36993252787E+02  0.10261516724E+03  0.11300237172E+03  0.00000000000E+00 0.  1.
          2    1    1    2  501    0  0.90430487193E+02 -0.22262890837E+02  0.14097726282E+04  0.14128454170E+04  0.00000000000E+00 0. -1.
<scales pt_clust_3="91.81336" pt_clust_4="32.14040" pt_clust_5="40.63575" pt_clust_6="14000.00000"></scales>
<clustering>
<clus scale="   32.140">  2  4  1 -1</clus>
<clus scale="   40.636">  2  5  1 -1</clus>
<clus scale="   91.813">  2  3  1 -1</clus>
<clus scale="   32.140">  2  3  1 -1</clus>
</clustering>
</event>
<event>
 6    0  0.4017242E+002  0.1868709E+03  0.7546771E-02  0.1161314E+00
         21   -1    0    0  504  502  0.00000000000E+00  0.00000000000E+00  0.59941818524E+02  0.59941818524E+02  0.00000000000E+00 0. -1.
          2   -1    0    0  505    0 -0.00000000000E+00 -0.00000000000E+00 -0.83169849690E+03  0.83169849690E+03  0.00000000000E+00 0. -1.
         21    1    1    2  503  502  0.53486836716E+02  0.15279011627E+02 -0.91367403652E+02  0.10696865124E+03  0.00000000000E+00 0. -1.
         21    1    1    2  504  501 -0.13557629577E+02 -0.35806116846E+02 -0.45265655726E+02  0.59286313021E+02  0.00000000000E+00 0.  1.
         21    1    1    2  505  503  0.16091925757E+02  0.15368262478E+03 -0.13623720112E+03  0.20600454899E+03  0.00000000000E+00 0. -1.
          2    1    1    2  501    0 -0.56021132897E+02 -0.13315551957E+03 -0.49888641788E+03  0.51938080217E+03  0.00000000000E+00 0. -1.
<scales pt_clust_3="55.62634" pt_clust_4="37.70790" pt_clust_5="171.91811" pt_clust_6="37.70790"></scales>
<clustering>
<clus scale="   37.708">  4  6 -1 -1</clus>
<clus scale="   55.626">  1  3  2 -1</clus>
<clus scale="  171.918">  1  5  2 -1</clus>
<clus scale="   55.626">  1  3  2 -1</clus>
</clustering>
</event>
<event>
 6    0  0.4017242E+002  0.8740065E+02  0.7546771E-02  0.1309271E+00
         21   -1    0    0  504  502  0.00000000000E+00  0.00000000000E+00  0.47994725277E+03  0.47994725277E+03  0.00000000000E+00 0. -1.
          2   -1    0    0  505    0 -0.00000000000E+00 -0.00000000000E+00 -0.32593782596E+04  0.32593782596E+04  0.00000000000E+00 0.  1.
         21    1    1    2  503  501 -0.53566392057E+02  0.27269852893E+02  0.30528401719E+02  0.67416515383E+02  0.00000000000E+00 0. -1.
         21    1    1    2  504  503  0.97955194213E+02  0.13244950247E+02  0.41496846651E+03  0.42657880512E+03  0.00000000000E+00 0. -1.
         21    1    1    2  505  502 -0.40704193145E+02  0.38950452664E+02 -0.72108600234E+02  0.91507482372E+02  0.00000000000E+00 0. -1.
          2    1    1    2  501    0 -0.36846090106E+01 -0.79465255804E+02 -0.31528192749E+04  0.31538227095E+04  0.00000000000E+00 0.  1.
<scales pt_clust_3="87.40065" pt_clust_4="14000.00000" pt_clust_5="56.33799" pt_clust_6="60.07086"></scales>
<clustering>
<clus scale="   56.338">  2  5  1 -1</clus>
<clus scale="   60.071">  2  6  1 -1</clus>
<clus scale="   87.401">  2  3  1 -1</clus>
<clus scale="   87.401">  1  3  2 -1</clus>
</clustering>
</event>
<event>
 6    0  0.4017242E+002  0.1880399E+03  0.7546771E-02  0.1160241E+00
         21   -1    0    0  503  502  0.00000000000E+00  0.00000000000E+00  0.71078919841E+03  0.71078919841E+03  0.00000000000E+00 0. -1.
          3   -1    0    0  505    0 -0.00000000000E+00 -0.00000000000E+00 -0.18085447787E+04  0.18085447787E+04  0.00000000000E+00 0.  1.
         21    1    1    2  503  501 -0.73325613377E+02 -0.48042763116E+02  0.35291659193E+03  0.36364113288E+03  0.00000000000E+00 0. -1.
         21    1    1    2  504  502  0.30162353089E+02  0.38321003762E+00  0.99460834084E+01  0.31762225504E+02  0.00000000000E+00 0. -1.
         21    1    1    2  505  504  0.10191303207E+03 -0.13147187339E+03  0.30546093526E+03  0.34781820333E+03  0.00000000000E+00 0. -1.
          3    1    1    2  501    0 -0.58749771783E+02  0.17913142647E+03 -0.17660791909E+04  0.17761124154E+04  0.00000000000E+00 0.  1.
<scales pt_clust_3="74.92656" pt_clust_4="30.16479" pt_clust_5="188.03987" pt_clust_6="14000.00000"></scales>
<clustering>
<clus scale="   30.165">  1  4  2 -1</clus>
<clus scale="   74.927">  1  3  2 -1</clus>
<clus scale="  188.040">  1  5  2 -1</clus>
<clus scale="   30.165">  1  3  2 -1</clus>
</clustering>
</event>
<event>
 6    0  0.4017242E+002  0.1199011E+03  0.7546771E-02  0.1243260E+00
         21   -1    0    0  504  502  0.00000000000E+00  0.00000000000E+00  0.80825958514E+03  0.80825958514E+03  0.00000000000E+00 0. -1.
          2   -1    0    0  503    0 -0.00000000000E+00 -0.00000000000E+00 -0.11270639175E+04  0.11270639175E+04  0.00000000000E+00 0.  1.
         21    1    1    2  503  505 -0.60336783899E+02 -0.41608963587E+01  0.15306540886E+03  0.16458086140E+03  0.00000000000E+00 0. -1.
         21    1    1    2  504  501  0.11683843665E+03  0.13934457881E+03  0.44024081878E+03  0.47631933662E+03  0.00000000000E+00 0. -1.
         21    1    1    2  505  502  0.25436633912E+02 -0.48247520865E+02  0.18395295709E+03  0.19186853842E+03  0.00000000000E+00 0. -1.
          2    1    1    2  501    0 -0.81938286660E+02 -0.86936161583E+02 -0.10960635171E+04  0.11025547662E+04  0.00000000000E+00 0.  1.
<scales pt_clust_3="56.30063" pt_clust_4="119.90111" pt_clust_5="54.54215" pt_clust_6="14000.00000"></scales>
<clustering>
<clus scale="   54.542">  1  5  2 -1</clus>
<clus scale="   56.301">  1  3  2 -1</clus>
<clus scale="  119.901">  1  4  2 -1</clus>
<clus scale="   54.542">  1  3  2 -1</clus>
</clustering>
</event>
<event>
 6    0  0.4017242E+002  0.7332221E+02  0.7546771E-02  0.1349147E+00
         21   -1    0    0  504  502  0.00000000000E+00  0.00000000000E+00  0.79084050279E+02  0.79084050279E+02  0.00000000000E+00 0.  1.
          4   -1    0    0  505    0 -0.00000000000E+00 -0.00000000000E+00 -0.59124824037E+03  0.59124824037E+03  0.00000000000E+00 0.  1.
         21    1    1    2  503  502  0.25316724638E+02 -0.24000549323E+02 -0.60585642412E+00  0.34890256179E+02  0.00000000000E+00 0. -1.
         21    1    1    2  504  501 -0.45273726510E+02 -0.31038760847E+02 -0.13106662891E+02  0.56434914718E+02  0.00000000000E+00 0.  1.
         21    1    1    2  505  503 -0.43207678480E+02  0.90711724663E+02 -0.29839928231E+02  0.10481384349E+03  0.00000000000E+00 0.  1.
          4    1    1    2  501    0  0.63164680353E+02 -0.35672414492E+02 -0.46861174254E+03  0.47419327626E+03  0.00000000000E+00 0.  1.
<scales pt_clust_3="34.88500" pt_clust_4="53.67789" pt_clust_5="14000.00000" pt_clust_6="73.32221"></scales>
<clustering>
<clus scale="   34.885">  1  3  2 -1</clus>
<clus scale="   53.678">  1  4  2 -1</clus>
<clus scale="   73.322">  2  6  1 -1</clus>
<clus scale="   34.885">  1  3  2 -1</clus>
</clustering>
</event>
<event>
 6    0  0.4017242E+002  0.1956368E+03  0.7546771E-02  0.1153473E+00
         21   -1    0    0  505  502  0.00000000000E+00  0.00000000000E+00  0.25003566442E+03  0.25003566442E+03  0.00000000000E+00 0.  1.
          2   -1    0    0  504    0 -0.00000000000E+00 -0.00000000000E+00 -0.11787804977E+04  0.11787804977E+04  0.00000000000E+00 0.  1.
         21    1    1    2  503  502  0.17448429532E+02  0.38319514909E+02  0.28070087183E+02  0.50603979196E+02  0.00000000000E+00 0.  1.
         21    1    1    2  504  503 -0.46541327858E+02 -0.20806733699E+00 -0.38191521437E+02  0.60205737272E+02  0.00000000000E+00 0. -1.
         21    1    1    2  505  501 -0.14103281500E+03 -0.13526352408E+03  0.14065080946E+03  0.24076778450E+03  0.00000000000E+00 0.  1.
          2    1    1    2  501    0  0.17012571333E+03  0.97152076507E+02 -0.10592742085E+04  0.10772386612E+04  0.00000000000E+00 0.  1.
<scales pt_clust_3="42.10502" pt_clust_4="45.66505" pt_clust_5="195.63683" pt_clust_6="14000.00000"></scales>
<clustering>
<clus scale="   42.105">  1  3  2 -1</clus>
<clus scale="   45.665">  1  4  2 -1</clus>
<clus scale="  195.637">  1  5  2 -1</clus>
<clus scale="   42.105">  1  3  2 -1</clus>
</clustering>
</event>
<event>
 6    0  0.4017242E+002  0.9931646E+02  0.7546771E-02  0.1281740E+00
          2   -1    0    0  503    0 -0.00000000000E+00  0.00000000000E+00  0.34698506782E+03  0.34698506782E+03  0.00000000000E+00 0. -1.
         21   -1    0    0  505  502  0.00000000000E+00 -0.00000000000E+00 -0.37786450955E+03  0.37786450955E+03  0.00000000000E+00 0. -1.
         21    1    1    2  503  504 -0.26147021691E+02  0.45900056016E+02 -0.99748866436E+02  0.11287301821E+03  0.00000000000E+00 0. -1.
         21    1    1    2  504  502 -0.39276984163E+02  0.29669413149E+02 -0.16318251109E+03  0.17044496908E+03  0.00000000000E+00 0. -1.
         21    1    1    2  505  501  0.54791668182E+02  0.17454030380E+02 -0.89635460881E+02  0.10649547373E+03  0.00000000000E+00 0. -1.
          2    1    1    2  501    0  0.10632337673E+02 -0.93023499545E+02  0.32168739667E+03  0.33503611633E+03  0.00000000000E+00 0. -1.
<scales pt_clust_3="32.66581" pt_clust_4="32.66581" pt_clust_5="57.50452" pt_clust_6="93.37362"></scales>
<clustering>
<clus scale="   32.666">  3  4 -1 -1</clus>
<clus scale="   57.505">  2  5  1 -1</clus>
<clus scale="   93.374">  1  6  2 -1</clus>
<clus scale="   57.505">  2  3  1 -1</clus>
</clustering>
</event>
<event>
 6    0  0.4017242E+002  0.6885990E+02  0.7546771E-02  0.1364013E+00
          2   -1    0    0  505    0 -0.00000000000E+00  0.00000000000E+00  0.88711981940E+03  0.88711981940E+03  0.00000000000E+00 0.  1.
         21   -1    0    0  503  502  0.00000000000E+00 -0.00000000000E+00 -0.58393353503E+03  0.58393353503E+03  0.00000000000E+00 0. -1.
         21    1    1    2  503  504 -0.37976508210E+02 -0.57040650675E+02 -0.48979832943E+03  0.49456875611E+03  0.00000000000E+00 0. -1.
         21    1    1    2  504  501 -0.71971486794E+02 -0.18383070595E+02 -0.37139334560E+02  0.83049156332E+02  0.00000000000E+00 0. -1.
         21    1    1    2  505  502  0.66542825473E+02  0.47173721249E+02  0.23133357931E+02  0.84784785472E+02  0.00000000000E+00 0. -1.
          2    1    1    2  501    0  0.43405169531E+02  0.28250000021E+02  0.80699059043E+03  0.80865065652E+03  0.00000000000E+00 0.  1.
<scales pt_clust_3="14000.00000" pt_clust_4="60.27712" pt_clust_5="68.85990" pt_clust_6="51.78872"></scales>
<clustering>
<clus scale="   51.789">  1  6  2 -1</clus>
<clus scale="   60.277">  1  4  2 -1</clus>
<clus scale="   68.860">  1  5  2 -1</clus>
<clus scale="   68.860">  2  3  1 -1</clus>
</clustering>
</event>
<event>
 6    0  0.4017242E+002  0.1766977E+03  0.7546771E-02  0.1171038E+00
         21   -1    0    0  504  502  0.00000000000E+00  0.00000000000E+00  0.26020861001E+03  0.26020861001E+03  0.00000000000E+00 0.  1.
          2   -1    0    0  505    0 -0.00000000000E+00 -0.00000000000E+00 -0.17246823884E+04  0.17246823884E+04  0.00000000000E+00 0. -1.
         21    1    1    2  503  502  0.84830887829E+02  0.12911523876E+03  0.17450284171E+03  0.23306279449E+03  0.00000000000E+00 0.  1.
         21    1    1    2  504  501  0.59911642291E+02 -0.18820264239E+02  0.22854852319E+02  0.66827774933E+02  0.00000000000E+00 0.  1.
         21    1    1    2  505  503 -0.92485410865E+02 -0.12111319257E+02 -0.22093610413E+03  0.23981867605E+03  0.00000000000E+00 0.  1.
          2    1    1    2  501    0 -0.52257119254E+02 -0.98183655263E+02 -0.14408953683E+04  0.14451817530E+04  0.00000000000E+00 0. -1.
<scales pt_clust_3="14000.00000" pt_clust_4="62.79815" pt_clust_5="90.78540" pt_clust_6="176.69769"></scales>
<clustering>
<clus scale="   62.798">  1  4  2 -1</clus>
<clus scale="   90.785">  2  5  1 -1</clus>
<clus scale="  176.698">  2  6  1 -1</clus>
<clus scale="   62.798">  1  3  2 -1</clus>
</clustering>
</event>
<event>
 6    0  0.4017242E+002  0.1105368E+03  0.7546771E-02  0.1259579E+00
         21   -1    0    0  503  502  0.00000000000E+00  0.00000000000E+00  0.10194828341E+04  0.10194828341E+04  0.00000000000E+00 0. -1.
         -1   -1    0    0    0  501 -0.00000000000E+00 -0.00000000000E+00 -0.22367716032E+03  0.22367716032E+03  0.00000000000E+00 0. -1.
         21    1    1    2  503  505  0.65171826773E+02  0.32042392236E+02  0.17742449209E+03  0.19171210785E+03  0.00000000000E+00 0. -1.
         21    1    1    2  504  502  0.56498957292E+02 -0.29705179536E+01  0.80186308758E+03  0.80385655896E+03  0.00000000000E+00 0. -1.
         21    1    1    2  505  501 -0.62454474352E+02 -0.12282637634E+02 -0.11179267864E+02  0.64625077050E+02  0.00000000000E+00 0. -1.
         -1    1    1    2    0  504 -0.59216309713E+02 -0.16789236649E+02 -0.17230263798E+03  0.18296625060E+03  0.00000000000E+00 0. -1.
<scales pt_clust_3="110.53683" pt_clust_4="56.57699" pt_clust_5="56.90826" pt_clust_6="14000.00000"></scales>
<clustering>
<clus scale="   56.577">  1  4  2 -1</clus>
<clus scale="   56.908">  2  5  1 -1</clus>
<clus scale="  110.537">  1  3  2 -1</clus>
<clus scale="   56.577">  1  3  2 -1</clus>
</clustering>
</event>
<event>
 6    0  0.4017242E+002  0.3152465E+03  0.7546771E-02  0.1077858E+00
          2   -1    0    0  505    0 -0.00000000000E+00  0.00000000000E+00  0.53937315208E+03  0.53937315208E+03  0.00000000000E+00 0. -1.
         21   -1    0    0  504  502  0.00000000000E+00 -0.00000000000E+00 -0.52251897229E+03  0.52251897229E+03  0.00000000000E+00 0. -1.
         21    1    1    2  503  502  0.89155560838E+02 -0.23037336059E+03 -0.75442363953E+02  0.25828695200E+03  0.00000000000E+00 0. -1.
         21    1    1    2  504  501 -0.92846069561E+02  0.29342102685E+03 -0.20274952419E+03  0.36854261788E+03  0.00000000000E+00 0. -1.
         21    1    1    2  505  503  0.35930780922E+02 -0.53789281157E+02 -0.54088668516E+02  0.84320174613E+02  0.00000000000E+00 0. -1.
          2    1    1    2  501    0 -0.32240272199E+02 -0.92583851106E+01  0.34913473645E+03  0.35074237987E+03  0.00000000000E+00 0. -1.
<scales pt_clust_3="33.18866" pt_clust_4="308.50282" pt_clust_5="33.18866" pt_clust_6="33.54330"></scales>
<clustering>
<clus scale="   33.189">  3  5 -1 -1</clus>
<clus scale="   33.543">  1  6  2 -1</clus>
<clus scale="  308.503">  2  4  1 -1</clus>
<clus scale="  308.503">  2  3  1 -1</clus>
</clustering>
</event>
<event>
 6    0  0.4017242E+002  0.8758244E+02  0.7546771E-02  0.1308814E+00
         21   -1    0    0  505  502  0.00000000000E+00  0.00000000000E+00  0.25084130129E+04  0.25084130129E+04  0.00000000000E+00 0.  1.
          2   -1    0    0  504    0 -0.00000000000E+00 -0.00000000000E+00 -0.26590171720E+02  0.26590171720E+02  0.00000000000E+00 0.  1.
         21    1    1    2  503  502  0.48444673724E+02  0.44179432151E+02  0.20623708199E+03  0.21640804658E+03  0.00000000000E+00 0.  1.
         21    1    1    2  504  503  0.31825159628E+02 -0.12102422053E+02  0.84757221626E+02  0.91340549718E+02  0.00000000000E+00 0.  1.
         21    1    1    2  505  501  0.12345534644E+02  0.35330463573E+02  0.20270345673E+04  0.20273800312E+04  0.00000000000E+00 0.  1.
          2    1    1    2  501    0 -0.92615367996E+02 -0.67407473671E+02  0.16379397035E+03  0.19987455721E+03  0.00000000000E+00 0.  1.
<scales pt_clust_3="87.58244" pt_clust_4="34.04863" pt_clust_5="37.41929" pt_clust_6="14000.00000"></scales>
<clustering>
<clus scale="   34.049">  2  4  1 -1</clus>
<clus scale="   37.419">  1  5  2 -1</clus>
<clus scale="   87.582">  1  3  2 -1</clus>
<clus scale="   37.419">  1  3  2 -1</clus>
</clustering>
</event>
<event>
 6    0  0.4017242E+002  0.1363799E+03  0.7546771E-02  0.1218285E+00
          2   -1    0    0  504    0 -0.00000000000E+00  0.00000000000E+00  0.40285119724E+03  0.40285119724E+03  0.00000000000E+00 0. -1.
         21   -1    0    0  501  502  0.00000000000E+00 -0.00000000000E+00 -0.87808740662E+03  0.87808740662E+03  0.00000000000E+00 0.  1.
         21    1    1    2  503  505  0.20461353871E+02 -0.75019020318E+02 -0.51057810376E+02  0.93023762621E+02  0.00000000000E+00 0.  1.
         21    1    1    2  504  503  0.36784517598E+02 -0.57292004963E+02  0.63048057166E+01  0.68375618043E+02  0.00000000000E+00 0.  1.
         21    1    1    2  505  502  0.27042890195E+02  0.43402632789E+02 -0.76323727141E+03  0.76494852043E+03  0.00000000000E+00 0.  1.
          2    1    1    2  501    0 -0.84288761664E+02  0.88908392492E+02  0.33275406668E+03  0.35459070277E+03  0.00000000000E+00 0. -1.
<scales pt_clust_3="55.87117" pt_clust_4="55.87117" pt_clust_5="51.13811" pt_clust_6="123.83798"></scales>
<clustering>
<clus scale="   51.138">  2  5  1 -1</clus>
<clus scale="   55.871">  3  4 -1 -1</clus>
<clus scale="  123.838">  1  6  2 -1</clus>
<clus scale="   51.138">  2  3  1 -1</clus>
</clustering>
</event>
<event>
 6    0  0.4017242E+002  0.1473018E+03  0.7546771E-02  0.1203828E+00
          1   -1    0    0  504    0 -0.00000000000E+00  0.00000000000E+00  0.94596522120E+03  0.94596522120E+03  0.00000000000E+00 0.  1.
         21   -1    0    0  503  502  0.00000000000E+00 -0.00000000000E+00 -0.23376499125E+04  0.23376499125E+04  0.00000000000E+00 0.  1.
         21    1    1    2  503  505 -0.12544695456E+03 -0.76920232759E+02 -0.23061292815E+04  0.23108193186E+04  0.00000000000E+00 0.  1.
         21    1    1    2  504  502  0.28998923585E+02 -0.33904643596E+02  0.27828442893E+02  0.52582170556E+02  0.00000000000E+00 0.  1.
         21    1    1    2  505  501  0.14866786491E+03  0.11180228520E+03  0.57758704106E+03  0.60680200645E+03  0.00000000000E+00 0.  1.
          1    1    1    2  501    0 -0.52219833935E+02 -0.97740884555E+00  0.30902910621E+03  0.31341163805E+03  0.00000000000E+00 0.  1.
<scales pt_clust_3="147.30184" pt_clust_4="44.61460" pt_clust_5="14000.00000" pt_clust_6="44.10207"></scales>
<clustering>
<clus scale="   44.615">  1  4  2 -1</clus>
<clus scale="   44.102">  1  6  2 -1</clus>
<clus scale="  147.302">  2  3  1 -1</clus>
<clus scale="  147.302">  2  3  1 -1</clus>
</clustering>
</event>
<event>
 6    0  0.4017242E+002  0.1312225E+03  0.7546771E-02  0.1225653E+00
          1   -1    0    0  503    0 -0.00000000000E+00  0.00000000000E+00  0.33079261397E+04  0.33079261397E+04  0.00000000000E+00 0.  1.
         21   -1    0    0  504  502  0.00000000000E+00 -0.00000000000E+00 -0.76489343637E+02  0.76489343637E+02  0.00000000000E+00 0.  1.
         21    1    1    2  503  505 -0.18504759938E+02 -0.37172450121E+02  0.23254477879E+03  0.23622296953E+03  0.00000000000E+00 0.  1.
         21    1    1    2  504  501  0.75927198708E+02 -0.44756508568E+02  0.13286372896E+04  0.13315574084E+04  0.00000000000E+00 0.  1.
         21    1    1    2  505  502 -0.59138100812E+02  0.12008747502E+03 -0.11586821628E+02  0.13435985658E+03  0.00000000000E+00 0.  1.
          1    1    1    2  501    0  0.17156620420E+01 -0.38158516332E+02  0.16818415493E+04  0.16822752489E+04  0.00000000000E+00 0.  1.
<scales pt_clust_3="46.41496" pt_clust_4="131.22249" pt_clust_5="14000.00000" pt_clust_6="38.19707"></scales>
<clustering>
<clus scale="   38.197">  1  6  2 -1</clus>
<clus scale="   46.415">  1  3  2 -1</clus>
<clus scale="  131.222">  1  4  2 -1</clus>
<clus scale="  131.222">  2  3  1 -1</clus>
</clustering>
</event>
<event>
 6    0  0.4017242E+002  0.8168316E+02  0.7546771E-02  0.1324342E+00
         21   -1    0    0  501  502  0.00000000000E+00  0.00000000000E+00  0.38832235966E+02  0.38832235966E+02  0.00000000000E+00 0. -1.
          2   -1    0    0  504    0 -0.00000000000E+00 -0.00000000000E+00 -0.17530395091E+04  0.17530395091E+04  0.00000000000E+00 0. -1.
         21    1    1    2  503  502  0.26005257782E+02  0.15008378687E+02  0.10690646970E+02  0.31871849582E+02  0.00000000000E+00 0. -1.
         21    1    1    2  504  505  0.21013453622E+02 -0.41319923381E+02 -0.26682696002E+03  0.27082379492E+03  0.00000000000E+00 0. -1.
         21    1    1    2  505  503 -0.51876609208E+02 -0.83568103948E+02 -0.16989972963E+03  0.19631792763E+03  0.00000000000E+00 0. -1.
          2    1    1    2  501    0  0.48578978040E+01  0.10987964864E+03 -0.12881712305E+04  0.12928581729E+04  0.00000000000E+00 0. -1.
<scales pt_clust_3="30.02540" pt_clust_4="46.30129" pt_clust_5="81.68316" pt_clust_6="14000.00000"></scales>
<clustering>
<clus scale="   30.025">  1  3  2 -1</clus>
<clus scale="   46.301">  2  4  1 -1</clus>
<clus scale="   81.683">  1  5  2 -1</clus>
<clus scale="   30.025">  1  3  2 -1</clus>
</clustering>
</event>
<event>
 6    0  0.4017242E+002  0.1600097E+03  0.7546771E-02  0.1188686E+00
         21   -1    0    0  503  502  0.00000000000E+00  0.00000000000E+00  0.95815667384E+02  0.95815667384E+02  0.00000000000E+00 0.  1.
          1   -1    0    0  505    0 -0.00000000000E+00 -0.00000000000E+00 -0.21888224420E+04  0.21888224420E+04  0.00000000000E+00 0. -1.
         21    1    1    2  503  501  0.67080445686E+02 -0.12531266456E+03 -0.60587460966E+02  0.15451178116E+03  0.00000000000E+00 0.  1.
         21    1    1    2  504  502 -0.49076920967E+02  0.66061046303E+02 -0.16414667619E+03  0.18362117883E+03  0.00000000000E+00 0. -1.
         21    1    1    2  505  504  0.13342314189E+03  0.11007287755E+03 -0.17619652431E+03  0.24690684142E+03  0.00000000000E+00 0.  1.
          1    1    1    2  501    0 -0.15142666660E+03 -0.50821259301E+02 -0.16920761132E+04  0.16995983080E+04  0.00000000000E+00 0. -1.
<scales pt_clust_3="97.94853" pt_clust_4="82.29584" pt_clust_5="160.00969" pt_clust_6="14000.00000"></scales>
<clustering>
<clus scale="   82.296">  1  4  2 -1</clus>
<clus scale="   97.949">  1  3  2 -1</clus>
<clus scale="  160.010">  1  5  2 -1</clus>
<clus scale="   82.296">  1  3  2 -1</clus>
</clustering>
</event>
<event>
 6    0  0.4017242E+002  0.1243406E+03  0.7546771E-02  0.1236103E+00
          2   -1    0    0  504    0 -0.00000000000E+00  0.00000000000E+00  0.35379325962E+04  0.35379325962E+04  0.00000000000E+00 0. -1.
         21   -1    0    0  505  502  0.00000000000E+00 -0.00000000000E+00 -0.12461958205E+02  0.12461958205E+02  0.00000000000E+00 0.  1.
         21    1    1    2  503  502 -0.25975226580E+02  0.15220804246E+02  0.67098840122E+02  0.73543453981E+02  0.00000000000E+00 0.  1.
         21    1    1    2  504  503 -0.72093381641E+02  0.11069218462E+03  0.84201899117E+03  0.85231813128E+03  0.00000000000E+00 0.  1.
         21    1    1    2  505  501  0.80706857217E+01 -0.42215607986E+02  0.17916045599E+03  0.18424375842E+03  0.00000000000E+00 0.  1.
          2    1    1    2  501    0  0.89997922499E+02 -0.83697380884E+02  0.24371923508E+04  0.24402892108E+04  0.00000000000E+00 0. -1.
<scales pt_clust_3="30.10623" pt_clust_4="124.34055" pt_clust_5="38.03991" pt_clust_6="14000.00000"></scales>
<clustering>
<clus scale="   30.106">  2  3  1 -1</clus>
<clus scale="   38.040">  2  5  1 -1</clus>
<clus scale="  124.341">  2  4  1 -1</clus>
<clus scale="   30.106">  2  3  1 -1</clus>
</clustering>
</event>
<event>
 6    0  0.4017242E+002  0.1700727E+03  0.7546771E-02  0.1177772E+00
         21   -1    0    0  504  502  0.00000000000E+00  0.00000000000E+00  0.93242938443E+02  0.93242938443E+02  0.00000000000E+00 0. -1.
          1   -1    0    0  502    0 -0.00000000000E+00 -0.00000000000E+00 -0.14499049399E+04  0.14499049399E+04  0.00000000000E+00 0. -1.
         21    1    1    2  503  505 -0.74674695005E+02  0.98344230686E+02 -0.23464981253E+03  0.26515737272E+03  0.00000000000E+00 0. -1.
         21    1    1    2  504  503  0.45083551524E+02 -0.15216084713E+03 -0.31169702653E+02  0.16173125975E+03  0.00000000000E+00 0. -1.
         21    1    1    2  505  501 -0.21355108965E+02  0.52062906067E+02 -0.53437401311E+02  0.77602465978E+02  0.00000000000E+00 0. -1.
          1    1    1    2  501    0  0.50946252445E+02  0.17537103725E+01 -0.10374050849E+04  0.10386567799E+04  0.00000000000E+00 0. -1.
<scales pt_clust_3="34.72507" pt_clust_4="162.10705" pt_clust_5="34.72507" pt_clust_6="50.97643"></scales>
<clustering>
<clus scale="   34.725">  3  5 -1 -1</clus>
<clus scale="   50.976">  2  6  1 -1</clus>
<clus scale="  162.107">  1  4  2 -1</clus>
<clus scale="  162.107">  1  3  2 -1</clus>
</clustering>
</event>
<event>
 6    0  0.4017242E+002  0.1074188E+03  0.7546771E-02  0.1265426E+00
          2   -1    0    0  504    0 -0.00000000000E+00  0.00000000000E+00  0.24369863786E+04  0.24369863786E+04  0.00000000000E+00 0.  1.
         21   -1    0    0  505  502  0.00000000000E+00 -0.00000000000E+00 -0.82630801791E+02  0.82630801791E+02  0.00000000000E+00 0. -1.
         21    1    1    2  503  501 -0.21717104738E+02  0.50988974617E+02  0.87723144789E+02  0.10376347287E+03  0.00000000000E+00 0. -1.
         21    1    1    2  504  502  0.89271514876E+02 -0.76864122808E+02 -0.19811333166E+02  0.11945704527E+03  0.00000000000E+00 0. -1.
         21    1    1    2  505  503  0.33679576021E+02 -0.99063690754E+01  0.80264832563E+02  0.87606468571E+02  0.00000000000E+00 0.  1.
          2    1    1    2  501    0 -0.10123398616E+03  0.35781517266E+02  0.22061789326E+04  0.22087901936E+04  0.00000000000E+00 0.  1.
<scales pt_clust_3="53.22618" pt_clust_4="107.41876" pt_clust_5="35.10627" pt_clust_6="14000.00000"></scales>
<clustering>
<clus scale="   35.106">  2  5  1 -1</clus>
<clus scale="   53.226">  2  3  1 -1</clus>
<clus scale="  107.419">  2  4  1 -1</clus>
<clus scale="   35.106">  2  3  1 -1</clus>
</clustering>
</event>
<event>
 6    0  0.4017242E+002  0.1303317E+03  0.7546771E-02  0.1226964E+00
         -1   -1    0    0    0  501 -0.00000000000E+00  0.00000000000E+00  0.15567699583E+04  0.15567699583E+04  0.00000000000E+00 0. -1.
         21   -1    0    0  505  502  0.00000000000E+00 -0.00000000000E+00 -0.37564209591E+02  0.37564209591E+02  0.00000000000E+00 0.  1.
         21    1    1    2  503  504  0.43574710407E+02 -0.30098699333E+02  0.67297231221E+02  0.85636466640E+02  0.00000000000E+00 0.  1.
         21    1    1    2  504  502  0.49532041121E+02 -0.57748020823E+02  0.34582818358E+02  0.83571695760E+02  0.00000000000E+00 0.  1.
         21    1    1    2  505  501 -0.29430189076E+02  0.40126398023E+02  0.23948074250E+03  0.24459617715E+03  0.00000000000E+00 0.  1.
         -1    1    1    2    0  503 -0.63676562452E+02  0.47720322133E+02  0.11778449567E+04  0.11805298284E+04  0.00000000000E+00 0. -1.
<scales pt_clust_3="36.03989" pt_clust_4="36.03989" pt_clust_5="49.76207" pt_clust_6="122.96508"></scales>
<clustering>
<clus scale="   36.040">  3  4 -1 -1</clus>
<clus scale="   49.762">  1  5  2 -1</clus>
<clus scale="  122.965">  1  6  2 -1</clus>
<clus scale="  130.332">  2  3  1 -1</clus>
</clustering>
</event>
<event>
 6    0  0.4017242E+002  0.7329659E+02  0.7546771E-02  0.1349229E+00
          2   -1    0    0  505    0 -0.00000000000E+00  0.00000000000E+00  0.27155516956E+04  0.27155516956E+04  0.00000000000E+00 0. -1.
         21   -1    0    0  501  502  0.00000000000E+00 -0.00000000000E+00 -0.38080153111E+03  0.38080153111E+03  0.00000000000E+00 0. -1.
         21    1    1    2  503  502 -0.50220301174E+02  0.42605267734E+02 -0.84849384263E+02  0.10740905687E+03  0.00000000000E+00 0. -1.
         21    1    1    2  504  503  0.76933824226E+02  0.24520700794E+02 -0.23423107884E+03  0.24775850414E+03  0.00000000000E+00 0. -1.
         21    1    1    2  505  504  0.98883863911E+01 -0.82533073572E+02 -0.38460885483E+01  0.83212263614E+02  0.00000000000E+00 0. -1.
          2    1    1    2  501    0 -0.36601909443E+02  0.15407105044E+02  0.26576767162E+04  0.26579734021E+04  0.00000000000E+00 0. -1.
<scales pt_clust_3="73.29659" pt_clust_4="14000.00000" pt_clust_5="69.39019" pt_clust_6="39.71245"></scales>
<clustering>
<clus scale="   39.712">  1  6  2 -1</clus>
<clus scale="   73.297">  2  3  1 -1</clus>
<clus scale="   69.390">  1  5  2 -1</clus>
<clus scale="   73.297">  2  3  1 -1</clus>
</clustering>
</event>
<event>
 6    0  0.4017242E+002  0.6003043E+02  0.7546771E-02  0.1397704E+00
          2   -1    0    0  504    0 -0.00000000000E+00  0.00000000000E+00  0.35630064709E+03  0.35630064709E+03  0.00000000000E+00 0.  1.
         21   -1    0    0  503  502  0.00000000000E+00 -0.00000000000E+00 -0.43052426752E+03  0.43052426752E+03  0.00000000000E+00 0.  1.
         21    1    1    2  503  505 -0.84672032067E+01 -0.57439098785E+02 -0.46794802322E+02  0.74570081962E+02  0.00000000000E+00 0.  1.
         21    1    1    2  504  502 -0.66249086448E+02 -0.89254259705E+01 -0.30696453199E+03  0.31415892250E+03  0.00000000000E+00 0.  1.
         21    1    1    2  505  501  0.14751018728E+02  0.65418909054E+02 -0.36547327662E+02  0.76373643193E+02  0.00000000000E+00 0.  1.
          2    1    1    2  501    0  0.59965270927E+02  0.94561570175E+00  0.31608304154E+03  0.32172226696E+03  0.00000000000E+00 0.  1.
<scales pt_clust_3="58.05983" pt_clust_4="14000.00000" pt_clust_5="58.22691" pt_clust_6="60.03043"></scales>
<clustering>
<clus scale="   58.060">  2  3  1 -1</clus>
<clus scale="   58.227">  2  5  1 -1</clus>
<clus scale="   60.030">  1  6  2 -1</clus>
<clus scale="   58.060">  2  3  1 -1</clus>
</clustering>
</event>
<event>
 6    0  0.4017242E+002  0.2599907E+03  0.7546771E-02  0.1107149E+00
          1   -1    0    0  505    0 -0.00000000000E+00  0.00000000000E+00  0.20987806033E+04  0.20987806033E+04  0.00000000000E+00 0.  1.
         21   -1    0    0  504  502  0.00000000000E+00 -0.00000000000E+00 -0.73463226694E+02  0.73463226694E+02  0.00000000000E+00 0.  1.
         21    1    1    2  503  502 -0.27373246699E+03  0.92348397805E+02  0.81347675451E+03  0.86325090222E+03  0.00000000000E+00 0.  1.
         21    1    1    2  504  501  0.22497435671E+03  0.98548785265E+01  0.25975614549E+03  0.34377875869E+03  0.00000000000E+00 0.  1.
         21    1    1    2  505  503 -0.33177151563E+02 -0.86925967139E+01  0.19751352307E+03  0.20046914081E+03  0.00000000000E+00 0. -1.
          1    1    1    2  501    0  0.81935261842E+02 -0.93510679618E+02  0.75457095355E+03  0.76474502828E+03  0.00000000000E+00 0.  1.
<scales pt_clust_3="31.21465" pt_clust_4="243.69654" pt_clust_5="31.21465" pt_clust_6="124.32873"></scales>
<clustering>
<clus scale="   31.215">  3  5 -1 -1</clus>
<clus scale="  124.329">  1  6  2 -1</clus>
<clus scale="  243.697">  2  4  1 -1</clus>
<clus scale="  243.697">  2  3  1 -1</clus>
</clustering>
</event>
<event>
 6    0  0.4017242E+002  0.9844811E+02  0.7546771E-02  0.1283594E+00
         21   -1    0    0  505  502  0.00000000000E+00  0.00000000000E+00  0.58147276192E+02  0.58147276192E+02  0.00000000000E+00 0.  1.
          2   -1    0    0  504    0 -0.00000000000E+00 -0.00000000000E+00 -0.39404133092E+04  0.39404133092E+04  0.00000000000E+00 0. -1.
         21    1    1    2  503  502 -0.12794600863E+02 -0.96220801571E+02 -0.24407161733E+02  0.10008923024E+03  0.00000000000E+00 0.  1.
         21    1    1    2  504  503 -0.36874955578E+02 -0.19215668447E+02 -0.27505859539E+02  0.49855557080E+02  0.00000000000E+00 0.  1.
         21    1    1    2  505  501  0.46400932001E+02  0.40359521405E+02 -0.99264772553E+02  0.11677085479E+03  0.00000000000E+00 0.  1.
          2    1    1    2  501    0  0.32686244403E+01  0.75076948612E+02 -0.37310882392E+04  0.37318449433E+04  0.00000000000E+00 0. -1.
<scales pt_clust_3="41.37284" pt_clust_4="41.37284" pt_clust_5="61.49746" pt_clust_6="75.47316"></scales>
<clustering>
<clus scale="   41.373">  3  4 -1 -1</clus>
<clus scale="   61.497">  1  5  2 -1</clus>
<clus scale="   75.473">  2  6  1 -1</clus>
<clus scale="   61.497">  1  3  2 -1</clus>
</clustering>
</event>
<event>
 6    0  0.4017242E+002  0.9453734E+02  0.7546771E-02  0.1292222E+00
          2   -1    0    0  505    0 -0.00000000000E+00  0.00000000000E+00  0.29097817090E+04  0.29097817090E+04  0.00000000000E+00 0.  1.
         21   -1    0    0  503  502  0.00000000000E+00 -0.00000000000E+00 -0.14462773577E+02  0.14462773577E+02  0.00000000000E+00 0.  1.
         21    1    1    2  503  501 -0.74846817983E+02  0.68622451967E+02  0.30286626095E+03  0.31943553199E+03  0.00000000000E+00 0.  1.
         21    1    1    2  504  502  0.70774865190E+01 -0.33162119152E+02  0.78906387483E+02  0.85883845674E+02  0.00000000000E+00 0.  1.
         21    1    1    2  505  504 -0.27563833093E+02 -0.25539677381E+02  0.20666357059E+03  0.21005206836E+03  0.00000000000E+00 0. -1.
          2    1    1    2  501    0  0.95333164557E+02 -0.99206554337E+01  0.23068827164E+04  0.23088730365E+04  0.00000000000E+00 0.  1.
<scales pt_clust_3="14000.00000" pt_clust_4="33.90895" pt_clust_5="40.50587" pt_clust_6="94.53734"></scales>
<clustering>
<clus scale="   33.909">  2  4  1 -1</clus>
<clus scale="   40.506">  2  5  1 -1</clus>
<clus scale="   94.537">  1  6  2 -1</clus>
<clus scale="   33.909">  2  3  1 -1</clus>
</clustering>
</event>
<event>
 6    0  0.4284616E+002  0.1186699E+03  0.7546771E-02  0.1245307E+00
          2   -1    0    0  504    0 -0.00000000000E+00  0.00000000000E+00  0.10098522697E+04  0.10098522697E+04  0.00000000000E+00 0. -1.
         21   -1    0    0  501  502  0.00000000000E+00 -0.00000000000E+00 -0.14548296691E+04  0.14548296691E+04  0.00000000000E+00 0. -1.
         21    1    1    2  503  502  0.11184316724E+02  0.52820497737E+02 -0.10384753103E+04  0.10398779082E+04  0.00000000000E+00 0. -1.
         21    1    1    2  504  505  0.42396081660E+02 -0.60503216162E+02 -0.99875730410E+02  0.12423054548E+03  0.00000000000E+00 0.  1.
         21    1    1    2  505  503  0.45725443936E+02 -0.60178931098E+02 -0.29519383892E+03  0.30471580613E+03  0.00000000000E+00 0.  1.
          2    1    1    2  501    0 -0.99305842320E+02  0.67861649523E+02  0.98856748018E+03  0.99585767892E+03  0.00000000000E+00 0. -1.
<scales pt_clust_3="53.99161" pt_clust_4="118.66994" pt_clust_5="58.14436" pt_clust_6="14000.00000"></scales>
<clustering>
<clus scale="   53.992">  2  3  1 -1</clus>
<clus scale="   58.144">  2  5  1 -1</clus>
<clus scale="  118.670">  2  4  1 -1</clus>
<clus scale="   53.992">  2  3  1 -1</clus>
</clustering>
</event>
<event>
 6    0  0.4017242E+002  0.3478262E+03  0.7546771E-02  0.1063511E+00
         21   -1    0    0  501  502  0.00000000000E+00  0.00000000000E+00  0.50834308016E+03  0.50834308016E+03  0.00000000000E+00 0.  1.
          2   -1    0    0  504    0 -0.00000000000E+00 -0.00000000000E+00 -0.90507484220E+03  0.90507484220E+03  0.00000000000E+00 0. -1.
         21    1    1    2  503  502  0.12842774594E+02 -0.43417935746E+02  0.94304849373E+02  0.10461098709E+03  0.00000000000E+00 0.  1.
         21    1    1    2  504  505  0.63669109609E+02  0.32768195409E+02  0.72267961289E+02  0.10173577727E+03  0.00000000000E+00 0.  1.
         21    1    1    2  505  503  0.14300959985E+03  0.26152822365E+03  0.21023513346E+03  0.36475686252E+03  0.00000000000E+00 0.  1.
          2    1    1    2  501    0 -0.21952148405E+03 -0.25087848332E+03 -0.77353970616E+03  0.84231429547E+03  0.00000000000E+00 0. -1.
<scales pt_clust_3="45.27752" pt_clust_4="45.13725" pt_clust_5="45.13725" pt_clust_6="335.41338"></scales>
<clustering>
<clus scale="   45.137">  4  5 -1 -1</clus>
<clus scale="   45.278">  1  3  2 -1</clus>
<clus scale="  335.413">  2  6  1 -1</clus>
<clus scale="   45.278">  1  3  2 -1</clus>
</clustering>
</event>
<event>
 6    0  0.4017242E+002  0.7130639E+03  0.7546771E-02  0.9695148E-01
         -2   -1    0    0    0  501 -0.00000000000E+00  0.00000000000E+00  0.20934744519E+04  0.20934744519E+04  0.00000000000E+00 0. -1.
         21   -1    0    0  503  502  0.00000000000E+00 -0.00000000000E+00 -0.13924754635E+04  0.13924754635E+04  0.00000000000E+00 0. -1.
         21    1    1    2  503  505  0.52101398059E+02  0.73928660299E+02 -0.10677910699E+03  0.13993491409E+03  0.00000000000E+00 0. -1.
         21    1    1    2  504  502 -0.56120461145E+03 -0.27676675829E+03  0.73717860229E+02  0.63006728000E+03  0.00000000000E+00 0.  1.
         21    1    1    2  505  501  0.56311880821E+03  0.32647262914E+03 -0.88093670734E+03  0.10953249071E+04  0.00000000000E+00 0. -1.
         -2    1    1    2    0  504 -0.54015594819E+02 -0.12363453115E+03  0.16149969424E+04  0.16206228142E+04  0.00000000000E+00 0. -1.
<scales pt_clust_3="39.91680" pt_clust_4="704.97726" pt_clust_5="39.91680" pt_clust_6="134.91917"></scales>
<clustering>
<clus scale="   39.917">  3  5 -1 -1</clus>
<clus scale="  134.919">  1  6  2 -1</clus>
<clus scale="  704.977">  1  4  2 -1</clus>
<clus scale="  713.064">  2  3  1 -1</clus>
</clustering>
</event>
<event>
 6    0  0.4017242E+002  0.8636880E+02  0.7546771E-02  0.1311891E+00
         -1   -1    0    0    0  501 -0.00000000000E+00  0.00000000000E+00  0.49305180948E+03  0.49305180948E+03  0.00000000000E+00 0. -1.
         21   -1    0    0  503  502  0.00000000000E+00 -0.00000000000E+00 -0.72864355453E+02  0.72864355453E+02  0.00000000000E+00 0. -1.
         21    1    1    2  503  505 -0.18028668695E+02 -0.39213307799E+02  0.26118817406E+01  0.43238158260E+02  0.00000000000E+00 0. -1.
         21    1    1    2  504  502  0.78047217369E+02  0.59431381418E+02  0.47825768981E+02  0.10913643486E+03  0.00000000000E+00 0. -1.
         21    1    1    2  505  501 -0.99325666723E+02 -0.11703741449E+02  0.10223156580E+03  0.14301698738E+03  0.00000000000E+00 0. -1.
         -1    1    1    2    0  504  0.39307118048E+02 -0.85143321695E+01  0.26751823751E+03  0.27052458443E+03  0.00000000000E+00 0. -1.
<scales pt_clust_3="42.46118" pt_clust_4="14000.00000" pt_clust_5="86.36880" pt_clust_6="40.21869"></scales>
<clustering>
<clus scale="   40.219">  1  6  2 -1</clus>
<clus scale="   42.461">  2  3  1 -1</clus>
<clus scale="   86.369">  1  5  2 -1</clus>
<clus scale="   42.461">  2  3  1 -1</clus>
</clustering>
</event>
<event>
 6    0  0.4017242E+002  0.8658753E+02  0.7546771E-02  0.1311332E+00
         21   -1    0    0  503  502  0.00000000000E+00  0.00000000000E+00  0.15465882327E+04  0.15465882327E+04  0.00000000000E+00 0. -1.
          3   -1    0    0  504    0 -0.00000000000E+00 -0.00000000000E+00 -0.11331407960E+03  0.11331407960E+03  0.00000000000E+00 0. -1.
         21    1    1    2  503  501  0.29909083992E+02 -0.84407521154E+02  0.13741110336E+03  0.16401522570E+03  0.00000000000E+00 0. -1.
         21    1    1    2  504  505  0.70284274260E+02  0.40428570518E+01  0.16145447528E+03  0.17613566217E+03  0.00000000000E+00 0. -1.
         21    1    1    2  505  502 -0.44584295213E+02  0.13652209411E+02  0.12061815913E+04  0.12070825048E+04  0.00000000000E+00 0. -1.
          3    1    1    2  501    0 -0.55609063038E+02  0.66712454691E+02 -0.71773016849E+02  0.11266891963E+03  0.00000000000E+00 0. -1.
<scales pt_clust_3="86.58753" pt_clust_4="49.34840" pt_clust_5="46.62770" pt_clust_6="14000.00000"></scales>
<clustering>
<clus scale="   46.628">  1  5  2 -1</clus>
<clus scale="   49.348">  1  4  2 -1</clus>
<clus scale="   86.588">  1  3  2 -1</clus>
<clus scale="   46.628">  1  3  2 -1</clus>
</clustering>
</event>
<event>
 6    0  0.4017242E+002  0.1414823E+03  0.7546771E-02  0.1211348E+00
          1   -1    0    0  504    0 -0.00000000000E+00  0.00000000000E+00  0.12139579610E+04  0.12139579610E+04  0.00000000000E+00 0.  1.
         21   -1    0    0  505  502  0.00000000000E+00 -0.00000000000E+00 -0.65901996751E+02  0.65901996751E+02  0.00000000000E+00 0.  1.
         21    1    1    2  503  502 -0.10476988778E+02  0.28469243924E+02 -0.29954028706E+01  0.30483398463E+02  0.00000000000E+00 0. -1.
         21    1    1    2  504  503 -0.23519692044E+02  0.41625815511E+02  0.65451573311E+02  0.81054258862E+02  0.00000000000E+00 0.  1.
         21    1    1    2  505  501 -0.90921283624E+02  0.12802204778E+02  0.22276224785E+02  0.94481778422E+02  0.00000000000E+00 0.  1.
          1    1    1    2  501    0  0.12491796445E+03 -0.82897264214E+02  0.10633235690E+04  0.10738405220E+04  0.00000000000E+00 0.  1.
<scales pt_clust_3="30.33587" pt_clust_4="52.56769" pt_clust_5="14000.00000" pt_clust_6="141.48225"></scales>
<clustering>
<clus scale="   30.336">  2  3  1 -1</clus>
<clus scale="   52.568">  2  4  1 -1</clus>
<clus scale="  141.482">  1  6  2 -1</clus>
<clus scale="   30.336">  2  3  1 -1</clus>
</clustering>
</event>
<event>
 6    0  0.4017242E+002  0.1968343E+03  0.7546771E-02  0.1152438E+00
          2   -1    0    0  505    0 -0.00000000000E+00  0.00000000000E+00  0.19565240741E+04  0.19565240741E+04  0.00000000000E+00 0.  1.
         21   -1    0    0  504  502  0.00000000000E+00 -0.00000000000E+00 -0.32988571274E+02  0.32988571274E+02  0.00000000000E+00 0.  1.
         21    1    1    2  503  502 -0.12714994119E+03 -0.11594592020E+03  0.93647796114E+03  0.95215625590E+03  0.00000000000E+00 0.  1.
         21    1    1    2  504  501  0.20641201366E+02  0.46323710880E+02  0.63540338198E+02  0.81297724210E+02  0.00000000000E+00 0.  1.
         21    1    1    2  505  503 -0.20584709348E+01 -0.32288736811E+02  0.58910528391E+03  0.58999308078E+03  0.00000000000E+00 0.  1.
          2    1    1    2  501    0  0.10856721076E+03  0.10191094613E+03  0.33441191960E+03  0.36606558451E+03  0.00000000000E+00 0.  1.
<scales pt_clust_3="188.79658" pt_clust_4="32.63014" pt_clust_5="32.35429" pt_clust_6="32.63014"></scales>
<clustering>
<clus scale="   32.354">  1  5  2 -1</clus>
<clus scale="   32.630">  4  6 -1 -1</clus>
<clus scale="  188.797">  1  3  2 -1</clus>
<clus scale="  196.834">  2  3  1 -1</clus>
</clustering>
</event>
<event>
 6    0  0.4017242E+002  0.2475287E+03  0.7546771E-02  0.1114877E+00
          2   -1    0    0  505    0 -0.00000000000E+00  0.00000000000E+00  0.33149971605E+03  0.33149971605E+03  0.00000000000E+00 0. -1.
         21   -1    0    0  503  502  0.00000000000E+00 -0.00000000000E+00 -0.72053693199E+03  0.72053693199E+03  0.00000000000E+00 0. -1.
         21    1    1    2  503  504 -0.24242018150E+03 -0.13063448305E+03 -0.26314713977E+03  0.38089280609E+03  0.00000000000E+00 0. -1.
         21    1    1    2  504  501  0.49131305385E+02  0.12801117779E+02  0.14690624361E+02  0.52854216760E+02  0.00000000000E+00 0. -1.
         21    1    1    2  505  502  0.21536322651E+03  0.84745081991E+02 -0.34201728387E+03  0.41296352226E+03  0.00000000000E+00 0. -1.
          2    1    1    2  501    0 -0.22074350391E+02  0.33088283283E+02  0.20143658335E+03  0.20532610293E+03  0.00000000000E+00 0. -1.
<scales pt_clust_3="247.52870" pt_clust_4="48.36548" pt_clust_5="14000.00000" pt_clust_6="39.77576"></scales>
<clustering>
<clus scale="   39.776">  1  6  2 -1</clus>
<clus scale="   48.365">  1  4  2 -1</clus>
<clus scale="  247.529">  1  3  2 -1</clus>
<clus scale="  247.529">  2  3  1 -1</clus>
</clustering>
</event>
<event>
 6    0  0.4017242E+002  0.9875324E+02  0.7546771E-02  0.1282940E+00
         21   -1    0    0  505  502  0.00000000000E+00  0.00000000000E+00  0.32238134161E+03  0.32238134161E+03  0.00000000000E+00 0.  1.
          4   -1    0    0  503    0 -0.00000000000E+00 -0.00000000000E+00 -0.78528444031E+03  0.78528444031E+03  0.00000000000E+00 0. -1.
         21    1    1    2  503  504 -0.47609610913E+02 -0.25281350379E+02 -0.37107255229E+02  0.65442876763E+02  0.00000000000E+00 0. -1.
         21    1    1    2  504  502  0.48050232290E+02 -0.20914592002E+02  0.16925682777E+03  0.17718385573E+03  0.00000000000E+00 0.  1.
         21    1    1    2  505  501 -0.43729546424E+02 -0.43737358234E+02  0.12427779629E+03  0.13881714731E+03  0.00000000000E+00 0.  1.
          4    1    1    2  501    0  0.43288925047E+02  0.89933300615E+02 -0.71933046754E+03  0.72622190212E+03  0.00000000000E+00 0. -1.
<scales pt_clust_3="50.95552" pt_clust_4="52.40463" pt_clust_5="98.75324" pt_clust_6="14000.00000"></scales>
<clustering>
<clus scale="   52.405">  1  4  2 -1</clus>
<clus scale="   50.956">  1  3  2 -1</clus>
<clus scale="   98.753">  1  5  2 -1</clus>
<clus scale="   52.405">  1  3  2 -1</clus>
</clustering>
</event>
<event>
 6    0  0.4017242E+002  0.1603255E+03  0.7546771E-02  0.1188330E+00
         21   -1    0    0  504  502  0.00000000000E+00  0.00000000000E+00  0.41858187263E+03  0.41858187263E+03  0.00000000000E+00 0.  1.
          2   -1    0    0  503    0 -0.00000000000E+00 -0.00000000000E+00 -0.79001482980E+03  0.79001482980E+03  0.00000000000E+00 0.  1.
         21    1    1    2  503  502  0.11793395399E+03 -0.94340448566E+02  0.37536117184E+03  0.40460418567E+03  0.00000000000E+00 0.  1.
         21    1    1    2  504  505 -0.75671210392E+02  0.96722166249E+02 -0.14032409531E+03  0.18647295045E+03  0.00000000000E+00 0.  1.
         21    1    1    2  505  501 -0.34744778798E+02  0.34077130370E+02 -0.11812090278E+03  0.12775366195E+03  0.00000000000E+00 0.  1.
          2    1    1    2  501    0 -0.75179647996E+01 -0.36458848054E+02 -0.48834913091E+03  0.48976590435E+03  0.00000000000E+00 0.  1.
<scales pt_clust_3="151.85476" pt_clust_4="32.37203" pt_clust_5="32.37203" pt_clust_6="37.22590"></scales>
<clustering>
<clus scale="   32.372">  4  5 -1 -1</clus>
<clus scale="   37.226">  2  6  1 -1</clus>
<clus scale="  151.855">  1  3  2 -1</clus>
<clus scale="  151.855">  1  3  2 -1</clus>
</clustering>
</event>
<event>
 6    0  0.4017242E+002  0.1568814E+03  0.7546771E-02  0.1192263E+00
         21   -1    0    0  504  502  0.00000000000E+00  0.00000000000E+00  0.50813507399E+03  0.50813507399E+03  0.00000000000E+00 0.  1.
          2   -1    0    0  503    0 -0.00000000000E+00 -0.00000000000E+00 -0.12735907676E+04  0.12735907676E+04  0.00000000000E+00 0.  1.
         21    1    1    2  503  502  0.62396568872E+02 -0.12602945251E+03  0.28550014447E+03  0.31825632311E+03  0.00000000000E+00 0.  1.
         21    1    1    2  504  505  0.33311764970E+02 -0.15580001788E+01  0.13653936525E+03  0.14055283459E+03  0.00000000000E+00 0.  1.
         21    1    1    2  505  501  0.37939399653E+02  0.44266763029E+02  0.49167773802E+02  0.76265420314E+02  0.00000000000E+00 0.  1.
          2    1    1    2  501    0 -0.13364773349E+03  0.83320689657E+02 -0.12366629771E+04  0.12466512635E+04  0.00000000000E+00 0.  1.
<scales pt_clust_3="156.88136" pt_clust_4="33.34818" pt_clust_5="61.93938" pt_clust_6="14000.00000"></scales>
<clustering>
<clus scale="   33.348">  1  4  2 -1</clus>
<clus scale="   61.939">  1  5  2 -1</clus>
<clus scale="  156.881">  1  3  2 -1</clus>
<clus scale="   33.348">  1  3  2 -1</clus>
</clustering>
</event>
<event>
 6    0  0.4017242E+002  0.2368763E+03  0.7546771E-02  0.1121891E+00
         21   -1    0    0  504  502  0.00000000000E+00  0.00000000000E+00  0.46238108544E+03  0.46238108544E+03  0.00000000000E+00 0.  1.
          2   -1    0    0  505    0 -0.00000000000E+00 -0.00000000000E+00 -0.40039700672E+03  0.40039700672E+03  0.00000000000E+00 0.  1.
         21    1    1    2  503  502  0.42952672920E+02  0.64147523201E+02  0.18988619071E+02  0.79500971680E+02  0.00000000000E+00 0.  1.
         21    1    1    2  504  501 -0.30126261680E+02 -0.22927904053E+02  0.24665646467E+03  0.24954496987E+03  0.00000000000E+00 0.  1.
         21    1    1    2  505  503  0.13594700359E+01  0.18034748355E+03  0.59046334666E+02  0.18977231784E+03  0.00000000000E+00 0.  1.
          2    1    1    2  501    0 -0.14185881276E+02 -0.22156710270E+03 -0.26270733969E+03  0.34395983276E+03  0.00000000000E+00 0.  1.
<scales pt_clust_3="43.86258" pt_clust_4="37.85869" pt_clust_5="43.86258" pt_clust_6="226.78865"></scales>
<clustering>
<clus scale="   37.859">  1  4  2 -1</clus>
<clus scale="   43.863">  3  5 -1 -1</clus>
<clus scale="  226.789">  2  6  1 -1</clus>
<clus scale="   37.859">  1  3  2 -1</clus>
</clustering>
</event>
<event>
 6    0  0.4017242E+002  0.1097492E+03  0.7546771E-02  0.1261035E+00
         21   -1    0    0  504  502  0.00000000000E+00  0.00000000000E+00  0.19192384617E+03  0.19192384617E+03  0.00000000000E+00 0.  1.
          2   -1    0    0  503    0 -0.00000000000E+00 -0.00000000000E+00 -0.34618360561E+03  0.34618360561E+03  0.00000000000E+00 0.  1.
         21    1    1    2  503  505  0.29304755109E+02  0.45060817558E+02  0.18801666626E+02  0.56945136921E+02  0.00000000000E+00 0.  1.
         21    1    1    2  504  501 -0.10053187615E+03 -0.26873516699E+02  0.53188679829E+02  0.11686693152E+03  0.00000000000E+00 0.  1.
         21    1    1    2  505  502  0.48465472849E+02  0.22090737164E+02  0.56580283649E+02  0.77706056551E+02  0.00000000000E+00 0.  1.
          2    1    1    2  501    0  0.22761648191E+02 -0.40278038024E+02 -0.28283038954E+03  0.28658932678E+03  0.00000000000E+00 0.  1.
<scales pt_clust_3="43.28693" pt_clust_4="100.76662" pt_clust_5="43.28693" pt_clust_6="46.26460"></scales>
<clustering>
<clus scale="   43.287">  3  5 -1 -1</clus>
<clus scale="   46.265">  2  6  1 -1</clus>
<clus scale="  100.767">  2  4  1 -1</clus>
<clus scale="  109.749">  1  3  2 -1</clus>
</clustering>
</event>
<event>
 6    0  0.4017242E+002  0.1985076E+03  0.7546771E-02  0.1151004E+00
         21   -1    0    0  504  502  0.00000000000E+00  0.00000000000E+00  0.40258100613E+03  0.40258100613E+03  0.00000000000E+00 0. -1.
          2   -1    0    0  505    0 -0.00000000000E+00 -0.00000000000E+00 -0.96135839256E+03  0.96135839256E+03  0.00000000000E+00 0.  1.
         21    1    1    2  503  502 -0.43045415040E+02 -0.48439918271E+01 -0.44324585062E+01  0.43543296857E+02  0.00000000000E+00 0.  1.
         21    1    1    2  504  501 -0.17821107662E+02 -0.43234437738E+02  0.85911899153E+02  0.97814430944E+02  0.00000000000E+00 0. -1.
         21    1    1    2  505  503  0.17894703668E+03 -0.11157966910E+03  0.24041495674E+03  0.31979902426E+03  0.00000000000E+00 0. -1.
          2    1    1    2  501    0 -0.11808051398E+03  0.15965809867E+03 -0.88067178381E+03  0.90278264663E+03  0.00000000000E+00 0.  1.
<scales pt_clust_3="43.31711" pt_clust_4="52.56576" pt_clust_5="198.50758" pt_clust_6="14000.00000"></scales>
<clustering>
<clus scale="   43.317">  1  3  2 -1</clus>
<clus scale="   52.566">  1  4  2 -1</clus>
<clus scale="  198.508">  1  5  2 -1</clus>
<clus scale="   43.317">  1  3  2 -1</clus>
</clustering>
</event>
<event>
 6    0  0.4017242E+002  0.8290084E+02  0.7546771E-02  0.1321015E+00
          1   -1    0    0  505    0 -0.00000000000E+00  0.00000000000E+00  0.99851544646E+03  0.99851544646E+03  0.00000000000E+00 0. -1.
         21   -1    0    0  501  502  0.00000000000E+00 -0.00000000000E+00 -0.58489834325E+02  0.58489834325E+02  0.00000000000E+00 0. -1.
         21    1    1    2  503  502  0.92130395560E-01  0.34244576655E+02  0.65973452787E+02  0.74331662103E+02  0.00000000000E+00 0. -1.
         21    1    1    2  504  503  0.38112874128E+02 -0.20610704939E+02  0.66820699980E+02  0.79639175524E+02  0.00000000000E+00 0.  1.
         21    1    1    2  505  504 -0.83480501264E+02  0.55281864353E+02  0.89708994183E+01  0.10052639282E+03  0.00000000000E+00 0. -1.
          1    1    1    2  501    0  0.45275496740E+02 -0.68915736069E+02  0.79826055995E+03  0.80250805033E+03  0.00000000000E+00 0. -1.
<scales pt_clust_3="34.24470" pt_clust_4="41.56883" pt_clust_5="82.90084" pt_clust_6="14000.00000"></scales>
<clustering>
<clus scale="   34.245">  2  3  1 -1</clus>
<clus scale="   41.569">  2  4  1 -1</clus>
<clus scale="   82.901">  2  5  1 -1</clus>
<clus scale="   34.245">  2  3  1 -1</clus>
</clustering>
</event>
<event>
 6    0  0.4017242E+002  0.1155786E+03  0.7546771E-02  0.1250574E+00
          2   -1    0    0  505    0 -0.00000000000E+00  0.00000000000E+00  0.28366494819E+03  0.28366494819E+03  0.00000000000E+00 0. -1.
         21   -1    0    0  503  502  0.00000000000E+00 -0.00000000000E+00 -0.49257847277E+03  0.49257847277E+03  0.00000000000E+00 0.  1.
         21    1    1    2  503  501 -0.79943219651E+01 -0.38451280793E+02 -0.62517806007E+02  0.73830117475E+02  0.00000000000E+00 0.  1.
         21    1    1    2  504  502  0.50225655040E+02  0.37596022660E+02 -0.26933462659E+03  0.27654514717E+03  0.00000000000E+00 0.  1.
         21    1    1    2  505  504  0.66231030669E+02 -0.48181115570E+02 -0.12580184335E+03  0.15011353407E+03  0.00000000000E+00 0. -1.
          2    1    1    2  501    0 -0.10846236374E+03  0.49036373703E+02  0.24874075136E+03  0.27575462224E+03  0.00000000000E+00 0. -1.
<scales pt_clust_3="39.27353" pt_clust_4="46.88472" pt_clust_5="14000.00000" pt_clust_6="115.57863"></scales>
<clustering>
<clus scale="   39.274">  2  3  1 -1</clus>
<clus scale="   46.885">  2  4  1 -1</clus>
<clus scale="  115.579">  1  6  2 -1</clus>
<clus scale="   39.274">  2  3  1 -1</clus>
</clustering>
</event>
<event>
 6    0  0.4017242E+002  0.1530921E+03  0.7546771E-02  0.1196724E+00
         21   -1    0    0  503  502  0.00000000000E+00  0.00000000000E+00  0.18649240547E+03  0.18649240547E+03  0.00000000000E+00 0.  1.
          2   -1    0    0  502    0 -0.00000000000E+00 -0.00000000000E+00 -0.23370816084E+04  0.23370816084E+04  0.00000000000E+00 0.  1.
         21    1    1    2  503  504  0.62276282875E+02 -0.15172074623E+02  0.26022564937E+02  0.69178762225E+02  0.00000000000E+00 0.  1.
         21    1    1    2  504  505  0.77800779410E+02  0.18156804699E+02  0.49643725560E+02  0.94059185204E+02  0.00000000000E+00 0.  1.
         21    1    1    2  505  501 -0.17092238930E+03  0.41844123053E+02 -0.49361417493E+02  0.18276198547E+03  0.00000000000E+00 0.  1.
          2    1    1    2  501    0  0.30845327011E+02 -0.44828853129E+02 -0.21768940759E+04  0.21775740810E+04  0.00000000000E+00 0.  1.
<scales pt_clust_3="32.18047" pt_clust_4="32.18047" pt_clust_5="148.81685" pt_clust_6="54.41563"></scales>
<clustering>
<clus scale="   32.180">  3  4 -1 -1</clus>
<clus scale="   54.416">  2  6  1 -1</clus>
<clus scale="  148.817">  2  5  1 -1</clus>
<clus scale="  153.092">  1  3  2 -1</clus>
</clustering>
</event>
<event>
 6    0  0.4017242E+002  0.1159096E+03  0.7546771E-02  0.1250002E+00
          4   -1    0    0  505    0 -0.00000000000E+00  0.00000000000E+00  0.62270520925E+03  0.62270520925E+03  0.00000000000E+00 0.  1.
         21   -1    0    0  504  502  0.00000000000E+00 -0.00000000000E+00 -0.71868776917E+03  0.71868776917E+03  0.00000000000E+00 0.  1.
         21    1    1    2  503  502 -0.26969306000E+01  0.62402111064E+02 -0.19169536923E+03  0.20161451209E+03  0.00000000000E+00 0.  1.
         21    1    1    2  504  501 -0.27256793785E+02 -0.29663952136E+02 -0.25490408179E+02  0.47672253700E+02  0.00000000000E+00 0. -1.
         21    1    1    2  505  503  0.91970993160E+02  0.65342960340E+02 -0.47320930503E+03  0.48647241692E+03  0.00000000000E+00 0.  1.
          4    1    1    2  501    0 -0.62017268775E+02 -0.98081119269E+02  0.59441252252E+03  0.60563379571E+03  0.00000000000E+00 0.  1.
<scales pt_clust_3="54.87456" pt_clust_4="40.28502" pt_clust_5="115.90957" pt_clust_6="14000.00000"></scales>
<clustering>
<clus scale="   40.285">  2  4  1 -1</clus>
<clus scale="   54.875">  2  3  1 -1</clus>
<clus scale="  115.910">  2  5  1 -1</clus>
<clus scale="   40.285">  2  3  1 -1</clus>
</clustering>
</event>
<event>
 6    0  0.4017242E+002  0.1029223E+03  0.7546771E-02  0.1274268E+00
         21   -1    0    0  503  502  0.00000000000E+00  0.00000000000E+00  0.46298175276E+03  0.46298175276E+03  0.00000000000E+00 0. -1.
          1   -1    0    0  505    0 -0.00000000000E+00 -0.00000000000E+00 -0.10888708803E+04  0.10888708803E+04  0.00000000000E+00 0. -1.
         21    1    1    2  503  504  0.70003492279E+01 -0.74017993544E+02  0.16603693464E+03  0.18192287356E+03  0.00000000000E+00 0. -1.
         21    1    1    2  504  501  0.47658704591E+02 -0.46612208732E+02  0.17916895265E+03  0.19116894026E+03  0.00000000000E+00 0. -1.
         21    1    1    2  505  502 -0.50198934791E+01  0.45801179810E+02  0.96742499542E+02  0.10715436818E+03  0.00000000000E+00 0.  1.
          1    1    1    2  501    0 -0.49639160339E+02  0.74829022466E+02 -0.10678375144E+04  0.10716064511E+04  0.00000000000E+00 0. -1.
<scales pt_clust_3="49.19747" pt_clust_4="49.19747" pt_clust_5="46.07545" pt_clust_6="90.01037"></scales>
<clustering>
<clus scale="   46.075">  1  5  2 -1</clus>
<clus scale="   49.197">  3  4 -1 -1</clus>
<clus scale="   90.010">  2  6  1 -1</clus>
<clus scale="   46.075">  1  3  2 -1</clus>
</clustering>
</event>
<event>
 6    0  0.4017242E+002  0.1260454E+03  0.7546771E-02  0.1233444E+00
         21   -1    0    0  503  502  0.00000000000E+00  0.00000000000E+00  0.84351538719E+02  0.84351538719E+02  0.00000000000E+00 0.  1.
         -1   -1    0    0    0  501 -0.00000000000E+00 -0.00000000000E+00 -0.91419392083E+03  0.91419392083E+03  0.00000000000E+00 0. -1.
         21    1    1    2  503  505 -0.21328542500E+02  0.47794062260E+02  0.17056510436E+02  0.55046377362E+02  0.00000000000E+00 0.  1.
         21    1    1    2  504  502  0.76376552493E+02 -0.72232570348E+02 -0.22711403219E+03  0.25026327259E+03  0.00000000000E+00 0. -1.
         21    1    1    2  505  501 -0.13027845525E+03  0.35287993756E+02 -0.10014822621E+03  0.16806958564E+03  0.00000000000E+00 0. -1.
         -1    1    1    2    0  504  0.75230445255E+02 -0.10849485667E+02 -0.51963663415E+03  0.52516622395E+03  0.00000000000E+00 0. -1.
<scales pt_clust_3="52.33717" pt_clust_4="14000.00000" pt_clust_5="126.04545" pt_clust_6="74.45298"></scales>
<clustering>
<clus scale="   52.337">  1  3  2 -1</clus>
<clus scale="   74.453">  2  6  1 -1</clus>
<clus scale="  126.045">  1  5  2 -1</clus>
<clus scale="   52.337">  1  3  2 -1</clus>
</clustering>
</event>
<event>
 6    0  0.4017242E+002  0.1148994E+03  0.7546771E-02  0.1251757E+00
          2   -1    0    0  503    0 -0.00000000000E+00  0.00000000000E+00  0.11051042312E+04  0.11051042312E+04  0.00000000000E+00 0.  1.
         21   -1    0    0  505  502  0.00000000000E+00 -0.00000000000E+00 -0.71015196640E+03  0.71015196640E+03  0.00000000000E+00 0. -1.
         21    1    1    2  503  504  0.77201551076E+02  0.87442736314E+02 -0.42955244373E+02  0.12430392046E+03  0.00000000000E+00 0.  1.
         21    1    1    2  504  502 -0.96696021016E+02 -0.22809293163E+02 -0.27581640434E+03  0.29316390167E+03  0.00000000000E+00 0. -1.
         21    1    1    2  505  501 -0.24659257954E+02 -0.18573972649E+02 -0.34036899109E+03  0.34176617966E+03  0.00000000000E+00 0. -1.
          2    1    1    2  501    0  0.44153727894E+02 -0.46059470502E+02  0.10540929046E+04  0.10560221958E+04  0.00000000000E+00 0.  1.
<scales pt_clust_3="114.89940" pt_clust_4="14000.00000" pt_clust_5="30.87186" pt_clust_6="63.79509"></scales>
<clustering>
<clus scale="   30.872">  2  5  1 -1</clus>
<clus scale="   63.795">  1  6  2 -1</clus>
<clus scale="  114.899">  1  3  2 -1</clus>
<clus scale="   30.872">  2  3  1 -1</clus>
</clustering>
</event>
<event>
 6    0  0.4017242E+002  0.1101291E+03  0.7546771E-02  0.1260331E+00
         21   -1    0    0  504  502  0.00000000000E+00  0.00000000000E+00  0.22569048674E+03  0.22569048674E+03  0.00000000000E+00 0. -1.
          2   -1    0    0  503    0 -0.00000000000E+00 -0.00000000000E+00 -0.25539431854E+04  0.25539431854E+04  0.00000000000E+00 0. -1.
         21    1    1    2  503  505  0.32187224144E+02  0.94459317729E+02  0.48066098860E+02  0.11076520195E+03  0.00000000000E+00 0. -1.
         21    1    1    2  504  501  0.20393610213E+01 -0.42186055025E+02  0.31877164250E+02  0.52914797860E+02  0.00000000000E+00 0. -1.
         21    1    1    2  505  502 -0.54498554902E+02  0.56334242366E+02  0.87695189750E+02  0.11761838995E+03  0.00000000000E+00 0. -1.
          2    1    1    2  501    0  0.20271969736E+02 -0.10860750507E+03 -0.24958911516E+04  0.24983352824E+04  0.00000000000E+00 0. -1.
<scales pt_clust_3="14000.00000" pt_clust_4="42.23532" pt_clust_5="62.58332" pt_clust_6="110.12908"></scales>
<clustering>
<clus scale="   42.235">  1  4  2 -1</clus>
<clus scale="   62.583">  1  5  2 -1</clus>
<clus scale="  110.129">  2  6  1 -1</clus>
<clus scale="   42.235">  1  3  2 -1</clus>
</clustering>
</event>
<event>
 6    0  0.4017242E+002  0.1096854E+03  0.7546771E-02  0.1261154E+00
          2   -1    0    0  503    0 -0.00000000000E+00  0.00000000000E+00  0.28615799949E+04  0.28615799949E+04  0.00000000000E+00 0. -1.
         21   -1    0    0  504  502  0.00000000000E+00 -0.00000000000E+00 -0.69322343711E+01  0.69322343711E+01  0.00000000000E+00 0. -1.
         21    1    1    2  503  502 -0.20445905828E+01 -0.43483657824E+02  0.18365435643E+03  0.18874303029E+03  0.00000000000E+00 0. -1.
         21    1    1    2  504  505 -0.27098886295E+02  0.80691934550E+02  0.85476300717E+03  0.85899088258E+03  0.00000000000E+00 0. -1.
         21    1    1    2  505  501 -0.25115836729E+02  0.30049080950E+02  0.76512316996E+03  0.76612480558E+03  0.00000000000E+00 0. -1.
          2    1    1    2  501    0  0.54259313607E+02 -0.67257357676E+02  0.10511072269E+04  0.10546535108E+04  0.00000000000E+00 0. -1.
<scales pt_clust_3="43.53170" pt_clust_4="30.18105" pt_clust_5="30.18105" pt_clust_6="100.25498"></scales>
<clustering>
<clus scale="   30.181">  4  5 -1 -1</clus>
<clus scale="   43.532">  2  3  1 -1</clus>
<clus scale="  100.255">  1  6  2 -1</clus>
<clus scale="   43.532">  2  3  1 -1</clus>
</clustering>
</event>
<event>
 6    0  0.4017242E+002  0.8660172E+02  0.7546771E-02  0.1311296E+00
          2   -1    0    0  503    0 -0.00000000000E+00  0.00000000000E+00  0.39976675190E+03  0.39976675190E+03  0.00000000000E+00 0. -1.
         21   -1    0    0  504  502  0.00000000000E+00 -0.00000000000E+00 -0.21403446507E+03  0.21403446507E+03  0.00000000000E+00 0. -1.
         21    1    1    2  503  502  0.24023083834E+02 -0.34642303197E+02 -0.49338154945E+02  0.64895695243E+02  0.00000000000E+00 0. -1.
         21    1    1    2  504  505 -0.19340664750E+01  0.31209695326E+02 -0.69788454864E+02  0.76473617200E+02  0.00000000000E+00 0. -1.
         21    1    1    2  505  501 -0.22842180317E+02  0.89797100776E+02 -0.51327722659E+02  0.10592364997E+03  0.00000000000E+00 0. -1.
          2    1    1    2  501    0  0.75316295814E+00 -0.86364492905E+02  0.35618661930E+03  0.36650825456E+03  0.00000000000E+00 0. -1.
<scales pt_clust_3="31.99472" pt_clust_4="31.26957" pt_clust_5="14000.00000" pt_clust_6="86.60172"></scales>
<clustering>
<clus scale="   31.270">  2  4  1 -1</clus>
<clus scale="   31.995">  2  3  1 -1</clus>
<clus scale="   86.602">  1  6  2 -1</clus>
<clus scale="   31.270">  2  3  1 -1</clus>
</clustering>
</event>
<event>
 6    0  0.4017242E+002  0.9058761E+02  0.7546771E-02  0.1301435E+00
          2   -1    0    0  504    0 -0.00000000000E+00  0.00000000000E+00  0.12508999286E+04  0.12508999286E+04  0.00000000000E+00 0.  1.
         21   -1    0    0  501  502  0.00000000000E+00 -0.00000000000E+00 -0.91859212904E+03  0.91859212904E+03  0.00000000000E+00 0.  1.
         21    1    1    2  503  502 -0.38413088744E+02 -0.26054552357E+02 -0.88799115521E+03  0.88920340576E+03  0.00000000000E+00 0.  1.
         21    1    1    2  504  505  0.29457471546E+02  0.51255490015E+02  0.69202344175E+02  0.91015560899E+02  0.00000000000E+00 0.  1.
         21    1    1    2  505  503  0.63607582799E+02  0.28848234747E+02  0.50969577903E+02  0.86464114575E+02  0.00000000000E+00 0.  1.
          2    1    1    2  501    0 -0.54651965602E+02 -0.54049172405E+02  0.11001270327E+04  0.11028089764E+04  0.00000000000E+00 0.  1.
<scales pt_clust_3="46.41557" pt_clust_4="40.93834" pt_clust_5="40.93834" pt_clust_6="78.90552"></scales>
<clustering>
<clus scale="   40.938">  4  5 -1 -1</clus>
<clus scale="   46.416">  2  3  1 -1</clus>
<clus scale="   78.906">  1  6  2 -1</clus>
<clus scale="   46.416">  2  3  1 -1</clus>
</clustering>
</event>
<event>
 6    0  0.4017242E+002  0.8593227E+02  0.7546771E-02  0.1313012E+00
         21   -1    0    0  505  502  0.00000000000E+00  0.00000000000E+00  0.23814809975E+02  0.23814809975E+02  0.00000000000E+00 0.  1.
          1   -1    0    0  504    0 -0.00000000000E+00 -0.00000000000E+00 -0.16612950583E+04  0.16612950583E+04  0.00000000000E+00 0. -1.
         21    1    1    2  503  501  0.13347442435E+02 -0.34072131687E+02 -0.13354353534E+03  0.13846638656E+03  0.00000000000E+00 0.  1.
         21    1    1    2  504  502  0.24492951678E+01  0.65185013336E+02 -0.47658564885E+02  0.80786284834E+02  0.00000000000E+00 0.  1.
         21    1    1    2  505  503 -0.32852879432E+02 -0.85782196513E+02 -0.53723501799E+03  0.54503152338E+03  0.00000000000E+00 0.  1.
          1    1    1    2  501    0  0.17056141829E+02  0.54669314864E+02 -0.91904313010E+03  0.92082567348E+03  0.00000000000E+00 0. -1.
<scales pt_clust_3="31.43170" pt_clust_4="70.03108" pt_clust_5="31.43170" pt_clust_6="57.26819"></scales>
<clustering>
<clus scale="   31.432">  3  5 -1 -1</clus>
<clus scale="   57.268">  2  6  1 -1</clus>
<clus scale="   70.031">  1  4  2 -1</clus>
<clus scale="   70.031">  1  3  2 -1</clus>
</clustering>
</event>
<event>
 6    0  0.4017242E+002  0.9873890E+02  0.7546771E-02  0.1282970E+00
         -4   -1    0    0    0  501 -0.00000000000E+00  0.00000000000E+00  0.13220536717E+04  0.13220536717E+04  0.00000000000E+00 0.  1.
         21   -1    0    0  503  502  0.00000000000E+00 -0.00000000000E+00 -0.95331750640E+02  0.95331750640E+02  0.00000000000E+00 0.  1.
         21    1    1    2  503  504  0.31253531668E+02 -0.51566212627E+02 -0.33011547621E+02  0.68743143678E+02  0.00000000000E+00 0.  1.
         21    1    1    2  504  501  0.60846321851E+01 -0.39644400611E+02  0.13009088075E+03  0.13613353189E+03  0.00000000000E+00 0.  1.
         21    1    1    2  505  502 -0.25412040032E+02  0.14937801346E+03  0.10087968386E+03  0.18203371473E+03  0.00000000000E+00 0.  1.
         -4    1    1    2    0  505 -0.11926123821E+02 -0.58167400221E+02  0.10287629041E+04  0.10304750321E+04  0.00000000000E+00 0.  1.
<scales pt_clust_3="60.85535" pt_clust_4="40.10862" pt_clust_5="98.73890" pt_clust_6="14000.00000"></scales>
<clustering>
<clus scale="   40.109">  1  4  2 -1</clus>
<clus scale="   60.855">  2  3  1 -1</clus>
<clus scale="   98.739">  2  5  1 -1</clus>
<clus scale="   60.855">  2  3  1 -1</clus>
</clustering>
</event>
<event>
 6    0  0.4017242E+002  0.1472314E+03  0.7546771E-02  0.1203917E+00
         21   -1    0    0  503  502  0.00000000000E+00  0.00000000000E+00  0.49787268664E+03  0.49787268664E+03  0.00000000000E+00 0. -1.
         -4   -1    0    0    0  501 -0.00000000000E+00 -0.00000000000E+00 -0.28998337213E+03  0.28998337213E+03  0.00000000000E+00 0.  1.
         21    1    1    2  503  505  0.25612795181E+02 -0.48891032068E+02  0.40830989280E+03  0.41202344212E+03  0.00000000000E+00 0. -1.
         21    1    1    2  504  501  0.68653078544E+02 -0.32492500765E+02 -0.77147430244E+01  0.76344777552E+02  0.00000000000E+00 0.  1.
         21    1    1    2  505  504  0.40257736885E+02  0.20317471973E+02  0.12350824625E+02  0.46754977440E+02  0.00000000000E+00 0. -1.
         -4    1    1    2    0  502 -0.13452361061E+03  0.61066060859E+02 -0.20505665989E+03  0.25273286167E+03  0.00000000000E+00 0.  1.
<scales pt_clust_3="55.19373" pt_clust_4="43.05459" pt_clust_5="43.05459" pt_clust_6="136.21606"></scales>
<clustering>
<clus scale="   43.055">  4  5 -1 -1</clus>
<clus scale="   55.194">  1  3  2 -1</clus>
<clus scale="  136.216">  2  6  1 -1</clus>
<clus scale="   55.194">  1  3  2 -1</clus>
</clustering>
</event>
<event>
 6    0  0.4017242E+002  0.5756819E+03  0.7546771E-02  0.9957184E-01
         21   -1    0    0  503  502  0.00000000000E+00  0.00000000000E+00  0.26693486904E+04  0.26693486904E+04  0.00000000000E+00 0.  1.
          2   -1    0    0  502    0 -0.00000000000E+00 -0.00000000000E+00 -0.53866070185E+04  0.53866070185E+04  0.00000000000E+00 0.  1.
         21    1    1    2  503  505  0.65502693622E+02  0.16445003677E+02  0.52542680451E+03  0.52974934443E+03  0.00000000000E+00 0.  1.
         21    1    1    2  504  501  0.58847434033E+01 -0.80891590124E+02  0.20711354657E+03  0.22242774271E+03  0.00000000000E+00 0.  1.
         21    1    1    2  505  504  0.38231009972E+02 -0.49562829563E+03  0.18794401787E+04  0.19440690325E+04  0.00000000000E+00 0.  1.
          2    1    1    2  501    0 -0.10961844700E+03  0.56007488207E+03 -0.53292388579E+04  0.53597095893E+04  0.00000000000E+00 0.  1.
<scales pt_clust_3="67.53548" pt_clust_4="30.44346" pt_clust_5="30.44346" pt_clust_6="570.72690"></scales>
<clustering>
<clus scale="   30.443">  4  5 -1 -1</clus>
<clus scale="   67.535">  1  3  2 -1</clus>
<clus scale="  570.727">  2  6  1 -1</clus>
<clus scale="   67.535">  1  3  2 -1</clus>
</clustering>
</event>
<event>
 6    0  0.4017242E+002  0.1245844E+03  0.7546771E-02  0.1235720E+00
          2   -1    0    0  504    0 -0.00000000000E+00  0.00000000000E+00  0.29102606830E+04  0.29102606830E+04  0.00000000000E+00 0. -1.
         21   -1    0    0  501  502  0.00000000000E+00 -0.00000000000E+00 -0.47763988168E+03  0.47763988168E+03  0.00000000000E+00 0. -1.
         21    1    1    2  503  502 -0.10883746984E+03  0.61688149431E+02 -0.46246104138E+03  0.47908374781E+03  0.00000000000E+00 0. -1.
         21    1    1    2  504  505 -0.23509260528E+01  0.33817897852E+02  0.16489600842E+03  0.16834449994E+03  0.00000000000E+00 0.  1.
         21    1    1    2  505  503  0.98955510729E+02  0.25914934340E+02  0.81362250395E+03  0.82002765554E+03  0.00000000000E+00 0. -1.
          2    1    1    2  501    0  0.12232885160E+02 -0.12142098162E+03  0.19165633303E+04  0.19204446614E+04  0.00000000000E+00 0. -1.
<scales pt_clust_3="14000.00000" pt_clust_4="33.89951" pt_clust_5="124.58442" pt_clust_6="98.34538"></scales>
<clustering>
<clus scale="   33.900">  1  4  2 -1</clus>
<clus scale="   98.345">  1  6  2 -1</clus>
<clus scale="  124.584">  1  5  2 -1</clus>
<clus scale="  124.584">  2  3  1 -1</clus>
</clustering>
</event>
<event>
 6    0  0.4017242E+002  0.1270697E+03  0.7546771E-02  0.1231870E+00
         -2   -1    0    0    0  501 -0.00000000000E+00  0.00000000000E+00  0.15015235852E+04  0.15015235852E+04  0.00000000000E+00 0. -1.
         21   -1    0    0  504  502  0.00000000000E+00 -0.00000000000E+00 -0.30198932084E+02  0.30198932084E+02  0.00000000000E+00 0. -1.
         21    1    1    2  503  502  0.54183712636E+02  0.78080274110E+02  0.24126059297E+03  0.25930498962E+03  0.00000000000E+00 0. -1.
         21    1    1    2  504  501 -0.83148888506E+02 -0.44213732022E+02  0.24275390911E+03  0.26038059096E+03  0.00000000000E+00 0. -1.
         21    1    1    2  505  503  0.49720928208E+02  0.46679202076E+02  0.10122127041E+03  0.12205271071E+03  0.00000000000E+00 0. -1.
         -2    1    1    2    0  505 -0.20755752338E+02 -0.80545744165E+02  0.88608888068E+03  0.88998422605E+03  0.00000000000E+00 0. -1.
<scales pt_clust_3="35.72713" pt_clust_4="119.86638" pt_clust_5="35.72713" pt_clust_6="83.17703"></scales>
<clustering>
<clus scale="   35.727">  3  5 -1 -1</clus>
<clus scale="   83.177">  1  6  2 -1</clus>
<clus scale="  119.866">  2  4  1 -1</clus>
<clus scale="  119.866">  2  3  1 -1</clus>
</clustering>
</event>
<event>
 6    0  0.4017242E+002  0.1731083E+03  0.7546771E-02  0.1174645E+00
         21   -1    0    0  504  502  0.00000000000E+00  0.00000000000E+00  0.61021218433E+02  0.61021218433E+02  0.00000000000E+00 0. -1.
          1   -1    0    0  505    0 -0.00000000000E+00 -0.00000000000E+00 -0.15926589024E+04  0.15926589024E+04  0.00000000000E+00 0. -1.
         21    1    1    2  503  502 -0.15225567975E+03 -0.76384691606E+02 -0.13652018654E+03  0.21829836111E+03  0.00000000000E+00 0. -1.
         21    1    1    2  504  501  0.18969673708E+03  0.17448306192E+02 -0.48855782542E+03  0.52438348966E+03  0.00000000000E+00 0. -1.
         21    1    1    2  505  503 -0.39871942664E+01  0.32887544140E+02 -0.16873498141E+03  0.17195633815E+03  0.00000000000E+00 0. -1.
          1    1    1    2  501    0 -0.33453863065E+02  0.26048841274E+02 -0.73782469062E+03  0.73904193194E+03  0.00000000000E+00 0. -1.
<scales pt_clust_3="173.10826" pt_clust_4="14000.00000" pt_clust_5="33.12836" pt_clust_6="55.87101"></scales>
<clustering>
<clus scale="   33.128">  2  5  1 -1</clus>
<clus scale="   55.871">  2  6  1 -1</clus>
<clus scale="  173.108">  1  3  2 -1</clus>
<clus scale="  173.108">  1  3  2 -1</clus>
</clustering>
</event>
<event>
 6    0  0.4017242E+002  0.1836634E+03  0.7546771E-02  0.1164304E+00
         21   -1    0    0  504  502  0.00000000000E+00  0.00000000000E+00  0.30914504282E+03  0.30914504282E+03  0.00000000000E+00 0. -1.
          1   -1    0    0  503    0 -0.00000000000E+00 -0.00000000000E+00 -0.10104870087E+04  0.10104870087E+04  0.00000000000E+00 0.  1.
         21    1    1    2  503  502 -0.91012923294E+01  0.77897083290E+02  0.17377214451E+03  0.19065032734E+03  0.00000000000E+00 0. -1.
         21    1    1    2  504  505 -0.12132596861E+03 -0.54213032088E+02  0.53404010890E+02  0.14321673047E+03  0.00000000000E+00 0. -1.
         21    1    1    2  505  501 -0.45152145915E+02  0.11527187031E+01 -0.50761821482E+01  0.45451211935E+02  0.00000000000E+00 0. -1.
          1    1    1    2  501    0  0.17557940685E+03 -0.24836769906E+02 -0.92344193913E+03  0.94031378177E+03  0.00000000000E+00 0.  1.
<scales pt_clust_3="78.42697" pt_clust_4="30.45944" pt_clust_5="30.45944" pt_clust_6="176.07555"></scales>
<clustering>
<clus scale="   30.459">  4  5 -1 -1</clus>
<clus scale="   78.427">  1  3  2 -1</clus>
<clus scale="  176.076">  2  6  1 -1</clus>
<clus scale="   78.427">  1  3  2 -1</clus>
</clustering>
</event>
<event>
 6    0  0.4017242E+002  0.7963933E+02  0.7546771E-02  0.1330078E+00
          2   -1    0    0  503    0 -0.00000000000E+00  0.00000000000E+00  0.21061940677E+04  0.21061940677E+04  0.00000000000E+00 0.  1.
         21   -1    0    0  505  502  0.00000000000E+00 -0.00000000000E+00 -0.53752061825E+02  0.53752061825E+02  0.00000000000E+00 0.  1.
         21    1    1    2  503  504 -0.62181064942E+02  0.87320792851E+01  0.95495402364E+02  0.11428957047E+03  0.00000000000E+00 0.  1.
         21    1    1    2  504  502 -0.46765429508E+02 -0.61814450977E+02 -0.22239799422E+00  0.77511813342E+02  0.00000000000E+00 0.  1.
         21    1    1    2  505  501  0.28390332719E+02  0.40660408707E+02  0.12967583803E+03  0.13883480398E+03  0.00000000000E+00 0. -1.
          2    1    1    2  501    0  0.80556161732E+02  0.12421962985E+02  0.18274931634E+04  0.18293099417E+04  0.00000000000E+00 0.  1.
<scales pt_clust_3="79.63933" pt_clust_4="38.37119" pt_clust_5="49.59113" pt_clust_6="14000.00000"></scales>
<clustering>
<clus scale="   49.591">  2  5  1 -1</clus>
<clus scale="   38.371">  2  4  1 -1</clus>
<clus scale="   79.639">  2  3  1 -1</clus>
<clus scale="   49.591">  2  3  1 -1</clus>
</clustering>
</event>
<event>
 6    0  0.4017242E+002  0.1155769E+03  0.7546771E-02  0.1250577E+00
          1   -1    0    0  505    0 -0.00000000000E+00  0.00000000000E+00  0.26291644543E+03  0.26291644543E+03  0.00000000000E+00 0.  1.
         21   -1    0    0  504  502  0.00000000000E+00 -0.00000000000E+00 -0.10490486021E+03  0.10490486021E+03  0.00000000000E+00 0.  1.
         21    1    1    2  503  502  0.32054854551E+02  0.18978512734E+02 -0.36390003664E+01  0.37429132631E+02  0.00000000000E+00 0.  1.
         21    1    1    2  504  501 -0.10328226127E+03 -0.14825928536E+02  0.46295612001E+02  0.11415041542E+03  0.00000000000E+00 0.  1.
         21    1    1    2  505  503  0.71130977053E+02 -0.34656970291E+02 -0.16565639921E+02  0.80840224593E+02  0.00000000000E+00 0.  1.
          1    1    1    2  501    0  0.96429669419E-01  0.30504386093E+02  0.13192061351E+03  0.13540153300E+03  0.00000000000E+00 0.  1.
<scales pt_clust_3="37.30608" pt_clust_4="103.30407" pt_clust_5="37.30608" pt_clust_6="30.50454"></scales>
<clustering>
<clus scale="   30.505">  1  6  2 -1</clus>
<clus scale="   37.306">  3  5 -1 -1</clus>
<clus scale="  103.304">  1  4  2 -1</clus>
<clus scale="  115.577">  2  3  1 -1</clus>
</clustering>
</event>
<event>
 6    0  0.4017242E+002  0.1596059E+03  0.7546771E-02  0.1189142E+00
         21   -1    0    0  501  502  0.00000000000E+00  0.00000000000E+00  0.14203319469E+03  0.14203319469E+03  0.00000000000E+00 0. -1.
          2   -1    0    0  503    0 -0.00000000000E+00 -0.00000000000E+00 -0.38151519160E+04  0.38151519160E+04  0.00000000000E+00 0. -1.
         21    1    1    2  503  504  0.40338074802E+01 -0.88448666812E+02 -0.10611106686E+04  0.10647982388E+04  0.00000000000E+00 0. -1.
         21    1    1    2  504  505 -0.10123649720E+02  0.10005682017E+03  0.76854282512E+02  0.12657186214E+03  0.00000000000E+00 0. -1.
         21    1    1    2  505  502 -0.30275791043E+02  0.49777310158E+02  0.15677689709E+02  0.60334020954E+02  0.00000000000E+00 0. -1.
          2    1    1    2  501    0  0.36365633283E+02 -0.61385463514E+02 -0.27045400249E+04  0.27054809888E+04  0.00000000000E+00 0. -1.
<scales pt_clust_3="152.26552" pt_clust_4="36.41744" pt_clust_5="36.41744" pt_clust_6="71.34868"></scales>
<clustering>
<clus scale="   36.417">  4  5 -1 -1</clus>
<clus scale="   71.349">  2  6  1 -1</clus>
<clus scale="  152.266">  2  3  1 -1</clus>
<clus scale="  159.606">  1  3  2 -1</clus>
</clustering>
</event>
<event>
 6    0  0.4017242E+002  0.1338253E+03  0.7546771E-02  0.1221888E+00
         21   -1    0    0  503  502  0.00000000000E+00  0.00000000000E+00  0.16411509333E+04  0.16411509333E+04  0.00000000000E+00 0.  1.
          2   -1    0    0  505    0 -0.00000000000E+00 -0.00000000000E+00 -0.13410735486E+04  0.13410735486E+04  0.00000000000E+00 0. -1.
         21    1    1    2  503  504  0.41413723174E+02 -0.26336478043E+02  0.93394005201E+03  0.93522870320E+03  0.00000000000E+00 0.  1.
         21    1    1    2  504  501  0.39250589307E+02 -0.71847452329E+02  0.46830008880E+03  0.47540260658E+03  0.00000000000E+00 0.  1.
         21    1    1    2  505  502  0.46792249695E+02  0.55684509779E+02  0.22560768527E+03  0.23704241585E+03  0.00000000000E+00 0.  1.
          2    1    1    2  501    0 -0.12745656218E+03  0.42499420593E+02 -0.13277704414E+04  0.13345507563E+04  0.00000000000E+00 0. -1.
<scales pt_clust_3="49.07858" pt_clust_4="14000.00000" pt_clust_5="76.53147" pt_clust_6="133.82531"></scales>
<clustering>
<clus scale="   49.079">  1  3  2 -1</clus>
<clus scale="   76.531">  1  5  2 -1</clus>
<clus scale="  133.825">  2  6  1 -1</clus>
<clus scale="   49.079">  1  3  2 -1</clus>
</clustering>
</event>
<event>
 6    0  0.4276386E+002  0.1275519E+03  0.7546771E-02  0.1231134E+00
         21   -1    0    0  505  502  0.00000000000E+00  0.00000000000E+00  0.21654197487E+03  0.21654197487E+03  0.00000000000E+00 0. -1.
          1   -1    0    0  503    0 -0.00000000000E+00 -0.00000000000E+00 -0.15104617702E+04  0.15104617702E+04  0.00000000000E+00 0. -1.
         21    1    1    2  503  504 -0.12987671073E+02  0.31213661007E+02 -0.22120134982E+02  0.40401393602E+02  0.00000000000E+00 0.  1.
         21    1    1    2  504  502 -0.32079780159E+02  0.28443115565E+01  0.60431062071E+01  0.32767690427E+02  0.00000000000E+00 0. -1.
         21    1    1    2  505  501 -0.68491823461E+02  0.25843640527E+02  0.17793540754E+03  0.19240590660E+03  0.00000000000E+00 0. -1.
          1    1    1    2  501    0  0.11355927469E+03 -0.59901613090E+02 -0.14557781741E+04  0.14614287545E+04  0.00000000000E+00 0. -1.
<scales pt_clust_3="34.52640" pt_clust_4="32.20563" pt_clust_5="127.55190" pt_clust_6="14000.00000"></scales>
<clustering>
<clus scale="   32.206">  1  4  2 -1</clus>
<clus scale="   34.526">  1  3  2 -1</clus>
<clus scale="  127.552">  1  5  2 -1</clus>
<clus scale="   32.206">  1  3  2 -1</clus>
</clustering>
</event>
<event>
 6    0  0.4017242E+002  0.2374820E+03  0.7546771E-02  0.1121482E+00
         21   -1    0    0  504  502  0.00000000000E+00  0.00000000000E+00  0.44537635191E+03  0.44537635191E+03  0.00000000000E+00 0. -1.
          2   -1    0    0  502    0 -0.00000000000E+00 -0.00000000000E+00 -0.84894284825E+03  0.84894284825E+03  0.00000000000E+00 0. -1.
         21    1    1    2  503  501  0.13457115645E+03 -0.64124387099E+02 -0.19061578927E+02  0.15028199147E+03  0.00000000000E+00 0.  1.
         21    1    1    2  504  505 -0.11418565961E+03  0.21546794821E+03  0.27817479384E+03  0.36992704348E+03  0.00000000000E+00 0. -1.
         21    1    1    2  505  503  0.14676663346E+02 -0.22108174241E+03 -0.18086927693E+03  0.28601789561E+03  0.00000000000E+00 0. -1.
          2    1    1    2  501    0 -0.35062160187E+02  0.69738181294E+02 -0.48181043433E+03  0.48809226959E+03  0.00000000000E+00 0. -1.
<scales pt_clust_3="135.18631" pt_clust_4="14000.00000" pt_clust_5="237.48198" pt_clust_6="78.05619"></scales>
<clustering>
<clus scale="   78.056">  2  6  1 -1</clus>
<clus scale="  135.186">  2  3  1 -1</clus>
<clus scale="  237.482">  2  5  1 -1</clus>
<clus scale="  237.482">  1  3  2 -1</clus>
</clustering>
</event>
<event>
 6    0  0.4017242E+002  0.1438483E+03  0.7546771E-02  0.1208243E+00
         -1   -1    0    0    0  501 -0.00000000000E+00  0.00000000000E+00  0.93839751523E+02  0.93839751523E+02  0.00000000000E+00 0.  1.
         21   -1    0    0  504  502  0.00000000000E+00 -0.00000000000E+00 -0.11546243611E+04  0.11546243611E+04  0.00000000000E+00 0.  1.
         21    1    1    2  503  502 -0.24247942946E+02 -0.26590261364E+02 -0.30900643171E+03  0.31109480802E+03  0.00000000000E+00 0. -1.
         21    1    1    2  504  501  0.39168381845E+02 -0.13152829126E+03 -0.48114459121E+03  0.50033385972E+03  0.00000000000E+00 0.  1.
         21    1    1    2  505  503  0.17036074673E+02  0.15026032588E+03 -0.33344028484E+03  0.36612950841E+03  0.00000000000E+00 0. -1.
         -1    1    1    2    0  505 -0.31956513573E+02  0.78582267478E+01  0.62806698193E+02  0.70905936460E+02  0.00000000000E+00 0.  1.
<scales pt_clust_3="36.61183" pt_clust_4="143.84828" pt_clust_5="14000.00000" pt_clust_6="32.90852"></scales>
<clustering>
<clus scale="   32.909">  1  6  2 -1</clus>
<clus scale="   36.612">  2  3  1 -1</clus>
<clus scale="  143.848">  2  4  1 -1</clus>
<clus scale="   36.612">  2  3  1 -1</clus>
</clustering>
</event>
<event>
 6    0  0.4017242E+002  0.7268741E+02  0.7546771E-02  0.1351186E+00
          2   -1    0    0  504    0 -0.00000000000E+00  0.00000000000E+00  0.22875084576E+04  0.22875084576E+04  0.00000000000E+00 0.  1.
         21   -1    0    0  503  502  0.00000000000E+00 -0.00000000000E+00 -0.14836663194E+02  0.14836663194E+02  0.00000000000E+00 0. -1.
         21    1    1    2  503  501 -0.27866632738E+02  0.61917928072E+02  0.18471536311E+03  0.19679975713E+03  0.00000000000E+00 0. -1.
         21    1    1    2  504  505  0.50791283109E+02  0.47341334616E+02  0.24851432403E+03  0.25803163692E+03  0.00000000000E+00 0. -1.
         21    1    1    2  505  502 -0.33873273294E+02 -0.36433771328E+02  0.18925358905E+03  0.19568275168E+03  0.00000000000E+00 0. -1.
          2    1    1    2  501    0  0.10948622924E+02 -0.72825491359E+02  0.16501885182E+04  0.16518309750E+04  0.00000000000E+00 0.  1.
<scales pt_clust_3="14000.00000" pt_clust_4="49.13768" pt_clust_5="49.74755" pt_clust_6="72.68741"></scales>
<clustering>
<clus scale="   49.748">  2  5  1 -1</clus>
<clus scale="   49.138">  2  4  1 -1</clus>
<clus scale="   72.687">  1  6  2 -1</clus>
<clus scale="   49.748">  2  3  1 -1</clus>
</clustering>
</event>
<event>
 6    0  0.4017242E+002  0.6095762E+02  0.7546771E-02  0.1393856E+00
          4   -1    0    0  505    0 -0.00000000000E+00  0.00000000000E+00  0.41983759395E+03  0.41983759395E+03  0.00000000000E+00 0.  1.
         21   -1    0    0  503  502  0.00000000000E+00 -0.00000000000E+00 -0.29556693978E+03  0.29556693978E+03  0.00000000000E+00 0. -1.
         21    1    1    2  503  504 -0.40981157340E+02  0.62751576010E+02 -0.12953089489E+03  0.14965115529E+03  0.00000000000E+00 0. -1.
         21    1    1    2  504  501  0.90053481590E+02 -0.21770746161E+02 -0.11919478928E+03  0.15096685970E+03  0.00000000000E+00 0. -1.
         21    1    1    2  505  502  0.11102263368E+02 -0.34927174952E+02 -0.27219636337E+00  0.36650264568E+02  0.00000000000E+00 0. -1.
          4    1    1    2  501    0 -0.60174587618E+02 -0.60536548970E+01  0.37326853469E+03  0.37813625418E+03  0.00000000000E+00 0.  1.
<scales pt_clust_3="57.37166" pt_clust_4="14000.00000" pt_clust_5="36.64925" pt_clust_6="60.95762"></scales>
<clustering>
<clus scale="   36.649">  2  5  1 -1</clus>
<clus scale="   57.372">  2  3  1 -1</clus>
<clus scale="   60.958">  1  6  2 -1</clus>
<clus scale="   36.649">  2  3  1 -1</clus>
</clustering>
</event>
<event>
 6    0  0.4017242E+002  0.3624756E+03  0.7546771E-02  0.1057608E+00
         -4   -1    0    0    0  501 -0.00000000000E+00  0.00000000000E+00  0.70317935915E+03  0.70317935915E+03  0.00000000000E+00 0. -1.
         21   -1    0    0  504  502  0.00000000000E+00 -0.00000000000E+00 -0.58362351585E+03  0.58362351585E+03  0.00000000000E+00 0. -1.
         21    1    1    2  503  505  0.26696272054E+03  0.27321017977E+03 -0.34913998473E+03  0.51750519362E+03  0.00000000000E+00 0. -1.
         21    1    1    2  504  501 -0.50202594487E+02 -0.59809015332E+01 -0.49299713774E+02  0.70615391060E+02  0.00000000000E+00 0. -1.
         21    1    1    2  505  502  0.62705571113E+02 -0.39999081490E+02  0.86910853913E+01  0.74882909492E+02  0.00000000000E+00 0.  1.
         -4    1    1    2    0  503 -0.27946569717E+03 -0.22723019675E+03  0.50930445641E+03  0.62379938083E+03  0.00000000000E+00 0. -1.
<scales pt_clust_3="14000.00000" pt_clust_4="50.55761" pt_clust_5="71.93369" pt_clust_6="362.47557"></scales>
<clustering>
<clus scale="   50.558">  2  4  1 -1</clus>
<clus scale="   71.934">  2  5  1 -1</clus>
<clus scale="  362.476">  1  6  2 -1</clus>
<clus scale="   50.558">  2  3  1 -1</clus>
</clustering>
</event>
<event>
 6    0  0.4017242E+002  0.1419521E+03  0.7546771E-02  0.1210726E+00
         21   -1    0    0  505  502  0.00000000000E+00  0.00000000000E+00  0.28000909316E+03  0.28000909316E+03  0.00000000000E+00 0. -1.
          1   -1    0    0  502    0 -0.00000000000E+00 -0.00000000000E+00 -0.27196280878E+04  0.27196280878E+04  0.00000000000E+00 0.  1.
         21    1    1    2  503  501 -0.35430915489E+02 -0.37342054439E+02 -0.42308161932E+03  0.42620163703E+03  0.00000000000E+00 0. -1.
         21    1    1    2  504  503 -0.59478916619E+02 -0.22524139308E+02 -0.19747940988E+03  0.20746854147E+03  0.00000000000E+00 0. -1.
         21    1    1    2  505  504  0.84659800080E+02  0.96204149195E+02  0.25825961064E+03  0.28830634152E+03  0.00000000000E+00 0. -1.
          1    1    1    2  501    0  0.10250032027E+02 -0.36337955448E+02 -0.20773175761E+04  0.20776606610E+04  0.00000000000E+00 0.  1.
<scales pt_clust_3="61.11855" pt_clust_4="61.11855" pt_clust_5="127.67274" pt_clust_6="37.75593"></scales>
<clustering>
<clus scale="   37.756">  2  6  1 -1</clus>
<clus scale="   61.119">  3  4 -1 -1</clus>
<clus scale="  127.673">  1  5  2 -1</clus>
<clus scale="  127.673">  1  3  2 -1</clus>
</clustering>
</event>
<event>
 6    0  0.4017242E+002  0.1998093E+03  0.7546771E-02  0.1149900E+00
         21   -1    0    0  501  502  0.00000000000E+00  0.00000000000E+00  0.28362589678E+03  0.28362589678E+03  0.00000000000E+00 0.  1.
          2   -1    0    0  504    0 -0.00000000000E+00 -0.00000000000E+00 -0.17215500445E+04  0.17215500445E+04  0.00000000000E+00 0. -1.
         21    1    1    2  503  502  0.42540962541E+02  0.16568050408E+03  0.24064709122E+03  0.29524699057E+03  0.00000000000E+00 0.  1.
         21    1    1    2  504  505  0.21736556142E+02 -0.34696989833E+02 -0.13109798010E+03  0.13734278052E+03  0.00000000000E+00 0.  1.
         21    1    1    2  505  503 -0.73608051391E+02 -0.16045785695E+03 -0.15228890778E+04  0.15330870857E+04  0.00000000000E+00 0. -1.
          2    1    1    2  501    0  0.93305327085E+01  0.29474342699E+02 -0.24584181046E+02  0.39499084494E+02  0.00000000000E+00 0. -1.
<scales pt_clust_3="14000.00000" pt_clust_4="40.71784" pt_clust_5="199.80928" pt_clust_6="30.91595"></scales>
<clustering>
<clus scale="   30.916">  1  6  2 -1</clus>
<clus scale="   40.718">  2  4  1 -1</clus>
<clus scale="  199.809">  2  5  1 -1</clus>
<clus scale="   30.916">  1  3  2 -1</clus>
</clustering>
</event>
<event>
 6    0  0.4017242E+002  0.2099283E+03  0.7546771E-02  0.1141623E+00
         21   -1    0    0  504  502  0.00000000000E+00  0.00000000000E+00  0.20022730074E+03  0.20022730074E+03  0.00000000000E+00 0. -1.
          1   -1    0    0  503    0 -0.00000000000E+00 -0.00000000000E+00 -0.37074974403E+04  0.37074974403E+04  0.00000000000E+00 0.  1.
         21    1    1    2  503  502  0.43392569471E+02 -0.23559733043E+01 -0.12297487876E+02  0.45162970491E+02  0.00000000000E+00 0.  1.
         21    1    1    2  504  505  0.74823949132E+02 -0.15428548062E+02  0.80165684725E+02  0.11073933568E+03  0.00000000000E+00 0. -1.
         21    1    1    2  505  501 -0.39090246537E+02 -0.17895983377E+03 -0.13283266266E+02  0.18366032407E+03  0.00000000000E+00 0. -1.
          1    1    1    2  501    0 -0.79126272066E+02  0.19674435513E+03 -0.35618550701E+04  0.35681621108E+04  0.00000000000E+00 0.  1.
<scales pt_clust_3="43.45648" pt_clust_4="98.77340" pt_clust_5="14000.00000" pt_clust_6="209.92831"></scales>
<clustering>
<clus scale="   43.456">  1  3  2 -1</clus>
<clus scale="   98.773">  1  4  2 -1</clus>
<clus scale="  209.928">  2  6  1 -1</clus>
<clus scale="   43.456">  1  3  2 -1</clus>
</clustering>
</event>
<event>
 6    0  0.4017242E+002  0.1440607E+03  0.7546771E-02  0.1207967E+00
          2   -1    0    0  505    0 -0.00000000000E+00  0.00000000000E+00  0.10056072500E+04  0.10056072500E+04  0.00000000000E+00 0. -1.
         21   -1    0    0  504  502  0.00000000000E+00 -0.00000000000E+00 -0.10345366019E+03  0.10345366019E+03  0.00000000000E+00 0. -1.
         21    1    1    2  503  501  0.92356254033E+02  0.93247856692E+01  0.12269829667E+02  0.93633209957E+02  0.00000000000E+00 0. -1.
         21    1    1    2  504  503  0.13557548829E+02  0.35868933322E+02  0.53372873051E+02  0.65719487868E+02  0.00000000000E+00 0. -1.
         21    1    1    2  505  502 -0.67434813295E+02  0.10232803040E+03  0.26380374451E+02  0.12535710592E+03  0.00000000000E+00 0. -1.
          2    1    1    2  501    0 -0.38478989568E+02 -0.14752174939E+03  0.81013051259E+03  0.82435110639E+03  0.00000000000E+00 0. -1.
<scales pt_clust_3="100.99887" pt_clust_4="38.34563" pt_clust_5="144.06069" pt_clust_6="14000.00000"></scales>
<clustering>
<clus scale="   38.346">  2  4  1 -1</clus>
<clus scale="  100.999">  2  3  1 -1</clus>
<clus scale="  144.061">  2  5  1 -1</clus>
<clus scale="   38.346">  2  3  1 -1</clus>
</clustering>
</event>
<event>
 6    0  0.4017242E+002  0.9000597E+02  0.7546771E-02  0.1302837E+00
          2   -1    0    0  504    0 -0.00000000000E+00  0.00000000000E+00  0.17786313123E+04  0.17786313123E+04  0.00000000000E+00 0.  1.
         21   -1    0    0  503  502  0.00000000000E+00 -0.00000000000E+00 -0.71372761219E+02  0.71372761219E+02  0.00000000000E+00 0. -1.
         21    1    1    2  503  501 -0.16205519829E+01 -0.32316423880E+02  0.40076349203E+02  0.51508166407E+02  0.00000000000E+00 0. -1.
         21    1    1    2  504  505  0.11363740248E+03  0.44034577354E+02  0.38299089473E+03  0.40191358362E+03  0.00000000000E+00 0. -1.
         21    1    1    2  505  502 -0.33290857888E+02  0.21392499543E+02 -0.47687598304E+02  0.61967953715E+02  0.00000000000E+00 0. -1.
          2    1    1    2  501    0 -0.78725992608E+02 -0.33110653016E+02  0.13318789054E+04  0.13346143698E+04  0.00000000000E+00 0.  1.
<scales pt_clust_3="32.35703" pt_clust_4="90.00597" pt_clust_5="35.09282" pt_clust_6="14000.00000"></scales>
<clustering>
<clus scale="   32.357">  2  3  1 -1</clus>
<clus scale="   35.093">  2  5  1 -1</clus>
<clus scale="   90.006">  2  4  1 -1</clus>
<clus scale="   32.357">  2  3  1 -1</clus>
</clustering>
</event>
<event>
 6    0  0.4017242E+002  0.1249813E+03  0.7546771E-02  0.1235098E+00
          2   -1    0    0  504    0 -0.00000000000E+00  0.00000000000E+00  0.13291497501E+03  0.13291497501E+03  0.00000000000E+00 0. -1.
         21   -1    0    0  501  502  0.00000000000E+00 -0.00000000000E+00 -0.21639980986E+04  0.21639980986E+04  0.00000000000E+00 0.  1.
         21    1    1    2  503  505  0.32485666386E+02 -0.85004492864E+00 -0.92472254235E+02  0.98016115513E+02  0.00000000000E+00 0.  1.
         21    1    1    2  504  503  0.35254022930E+02 -0.59499075196E+02 -0.34976934058E+03  0.35654113043E+03  0.00000000000E+00 0.  1.
         21    1    1    2  505  502 -0.86081691514E+02  0.85005892184E+02 -0.17115690287E+04  0.17158393279E+04  0.00000000000E+00 0.  1.
          2    1    1    2  501    0  0.18342002197E+02 -0.24656772060E+02  0.12272749995E+03  0.12651649970E+03  0.00000000000E+00 0. -1.
<scales pt_clust_3="36.97699" pt_clust_4="36.97699" pt_clust_5="113.16517" pt_clust_6="30.73086"></scales>
<clustering>
<clus scale="   30.731">  1  6  2 -1</clus>
<clus scale="   36.977">  3  4 -1 -1</clus>
<clus scale="  113.165">  2  5  1 -1</clus>
<clus scale="  113.165">  2  3  1 -1</clus>
</clustering>
</event>
<event>
 6    0  0.4017242E+002  0.1535306E+03  0.7546771E-02  0.1196201E+00
         21   -1    0    0  504  502  0.00000000000E+00  0.00000000000E+00  0.11078401935E+04  0.11078401935E+04  0.00000000000E+00 0.  1.
          4   -1    0    0  503    0 -0.00000000000E+00 -0.00000000000E+00 -0.91783939823E+02  0.91783939823E+02  0.00000000000E+00 0.  1.
         21    1    1    2  503  505  0.51035861647E+02 -0.89618824910E+02  0.30539269485E+03  0.32233661135E+03  0.00000000000E+00 0.  1.
         21    1    1    2  504  501 -0.65705343480E+02  0.92554591421E+02  0.80198891543E+01  0.11378867772E+03  0.00000000000E+00 0.  1.
         21    1    1    2  505  502  0.49980652832E+01 -0.49428636913E+02  0.71313681229E+03  0.71486522076E+03  0.00000000000E+00 0.  1.
          4    1    1    2  501    0  0.96714165498E+01  0.46492870401E+02 -0.10493142582E+02  0.48633623528E+02  0.00000000000E+00 0.  1.
<scales pt_clust_3="140.25243" pt_clust_4="40.39853" pt_clust_5="49.68069" pt_clust_6="40.39853"></scales>
<clustering>
<clus scale="   40.399">  4  6 -1 -1</clus>
<clus scale="   49.681">  1  5  2 -1</clus>
<clus scale="  140.252">  1  3  2 -1</clus>
<clus scale="   49.681">  1  3  2 -1</clus>
</clustering>
</event>
<event>
 6    0  0.4017242E+002  0.7525416E+02  0.7546771E-02  0.1343086E+00
         21   -1    0    0  503  502  0.00000000000E+00  0.00000000000E+00  0.47771315072E+03  0.47771315072E+03  0.00000000000E+00 0.  1.
         -3   -1    0    0    0  501 -0.00000000000E+00 -0.00000000000E+00 -0.10839934699E+04  0.10839934699E+04  0.00000000000E+00 0.  1.
         21    1    1    2  503  501 -0.19715871885E+02 -0.11889391732E+03 -0.13638214057E+03  0.18200155892E+03  0.00000000000E+00 0. -1.
         21    1    1    2  504  502 -0.31056484641E+02 -0.13950711495E+02  0.24781586776E+03  0.25014362255E+03  0.00000000000E+00 0.  1.
         21    1    1    2  505  504  0.53232086084E+02  0.80778008648E+02  0.19377596377E+03  0.21658223797E+03  0.00000000000E+00 0.  1.
         -3    1    1    2    0  505 -0.24597295581E+01  0.52066620170E+02 -0.91149001013E+03  0.91297920117E+03  0.00000000000E+00 0.  1.
<scales pt_clust_3="75.25416" pt_clust_4="34.04596" pt_clust_5="14000.00000" pt_clust_6="52.08420"></scales>
<clustering>
<clus scale="   34.046">  1  4  2 -1</clus>
<clus scale="   52.084">  2  6  1 -1</clus>
<clus scale="   75.254">  2  3  1 -1</clus>
<clus scale="   34.046">  1  3  2 -1</clus>
</clustering>
</event>
<event>
 6    0  0.4017242E+002  0.6461512E+02  0.7546771E-02  0.1379425E+00
         -4   -1    0    0    0  501 -0.00000000000E+00  0.00000000000E+00  0.94157527784E+03  0.94157527784E+03  0.00000000000E+00 0.  1.
         21   -1    0    0  505  502  0.00000000000E+00 -0.00000000000E+00 -0.18118958610E+02  0.18118958610E+02  0.00000000000E+00 0. -1.
         21    1    1    2  503  502 -0.34457186889E+02 -0.44424545078E+02  0.14666136555E+03  0.15706811923E+03  0.00000000000E+00 0. -1.
         21    1    1    2  504  501 -0.12938193158E+02  0.30751796891E+02  0.16165222454E+03  0.16505911533E+03  0.00000000000E+00 0. -1.
         21    1    1    2  505  504  0.46855118810E+02  0.80939706561E+02  0.26494749967E+03  0.28096942153E+03  0.00000000000E+00 0. -1.
         -4    1    1    2    0  503  0.54026123720E+00 -0.67266958374E+02  0.35019522947E+03  0.35659758036E+03  0.00000000000E+00 0.  1.
<scales pt_clust_3="53.32949" pt_clust_4="33.36270" pt_clust_5="14000.00000" pt_clust_6="64.61512"></scales>
<clustering>
<clus scale="   33.363">  1  4  2 -1</clus>
<clus scale="   53.329">  2  3  1 -1</clus>
<clus scale="   64.615">  1  6  2 -1</clus>
<clus scale="   53.329">  2  3  1 -1</clus>
</clustering>
</event>
<event>
 6    0  0.4017242E+002  0.1306920E+03  0.7546771E-02  0.1226433E+00
          4   -1    0    0  505    0 -0.00000000000E+00  0.00000000000E+00  0.53730451895E+03  0.53730451895E+03  0.00000000000E+00 0. -1.
         21   -1    0    0  504  502  0.00000000000E+00 -0.00000000000E+00 -0.11032378011E+04  0.11032378011E+04  0.00000000000E+00 0. -1.
         21    1    1    2  503  501  0.19832147818E+02  0.12361705167E+03 -0.13194003949E+03  0.18188640293E+03  0.00000000000E+00 0.  1.
         21    1    1    2  504  503 -0.30867311211E+02  0.91919504863E+01 -0.15622136202E+02  0.35795725927E+02  0.00000000000E+00 0.  1.
         21    1    1    2  505  502  0.58691350794E+02 -0.13989462690E+03 -0.91318770165E+03  0.92570349451E+03  0.00000000000E+00 0. -1.
          4    1    1    2  501    0 -0.47656187402E+02  0.70856247434E+01  0.49481659515E+03  0.49715669673E+03  0.00000000000E+00 0. -1.
<scales pt_clust_3="130.69197" pt_clust_4="32.20688" pt_clust_5="14000.00000" pt_clust_6="48.21468"></scales>
<clustering>
<clus scale="   32.207">  2  4  1 -1</clus>
<clus scale="   48.215">  1  6  2 -1</clus>
<clus scale="  130.692">  1  3  2 -1</clus>
<clus scale="   32.207">  2  3  1 -1</clus>
</clustering>
</event>
<event>
 6    0  0.4017242E+002  0.1332242E+03  0.7546771E-02  0.1222749E+00
          2   -1    0    0  505    0 -0.00000000000E+00  0.00000000000E+00  0.59671394951E+03  0.59671394951E+03  0.00000000000E+00 0. -1.
         21   -1    0    0  503  502  0.00000000000E+00 -0.00000000000E+00 -0.11292775222E+03  0.11292775222E+03  0.00000000000E+00 0. -1.
         21    1    1    2  503  501  0.62757138877E+02  0.84748641986E+02 -0.44320710922E+01  0.10554825462E+03  0.00000000000E+00 0. -1.
         21    1    1    2  504  502 -0.10456155060E+02  0.31910964640E+02  0.15278084876E+02  0.36892556436E+02  0.00000000000E+00 0. -1.
         21    1    1    2  505  504 -0.11987946491E+03  0.23747362585E+02  0.84238548107E+02  0.14842896053E+03  0.00000000000E+00 0. -1.
          2    1    1    2  501    0  0.67578481094E+02 -0.14040696921E+03  0.38870163540E+03  0.41877193014E+03  0.00000000000E+00 0. -1.
<scales pt_clust_3="116.84871" pt_clust_4="33.58036" pt_clust_5="14000.00000" pt_clust_6="133.22420"></scales>
<clustering>
<clus scale="   33.580">  2  4  1 -1</clus>
<clus scale="  116.849">  2  3  1 -1</clus>
<clus scale="  133.224">  1  6  2 -1</clus>
<clus scale="   33.580">  2  3  1 -1</clus>
</clustering>
</event>
<event>
 6    0  0.4017242E+002  0.7217589E+02  0.7546771E-02  0.1352846E+00
          2   -1    0    0  504    0 -0.00000000000E+00  0.00000000000E+00  0.11373262639E+04  0.11373262639E+04  0.00000000000E+00 0.  1.
         21   -1    0    0  501  502  0.00000000000E+00 -0.00000000000E+00 -0.76465047572E+02  0.76465047572E+02  0.00000000000E+00 0.  1.
         21    1    1    2  503  505 -0.33116032047E+02 -0.69171471727E+02  0.27028600020E+03  0.28095530958E+03  0.00000000000E+00 0.  1.
         21    1    1    2  504  503 -0.23548375423E+02  0.47201434558E+02  0.66838116279E+03  0.67045945454E+03  0.00000000000E+00 0. -1.
         21    1    1    2  505  502 -0.48489126658E+01 -0.45441829874E+02 -0.49849591030E+02  0.67627313877E+02  0.00000000000E+00 0.  1.
          2    1    1    2  501    0  0.61513320136E+02  0.67411867044E+02  0.17204364442E+03  0.19474923352E+03  0.00000000000E+00 0.  1.
<scales pt_clust_3="72.17589" pt_clust_4="50.51328" pt_clust_5="45.69980" pt_clust_6="14000.00000"></scales>
<clustering>
<clus scale="   45.700">  2  5  1 -1</clus>
<clus scale="   50.513">  1  4  2 -1</clus>
<clus scale="   72.176">  1  3  2 -1</clus>
<clus scale="   45.700">  2  3  1 -1</clus>
</clustering>
</event>
<event>
 6    0  0.4017242E+002  0.1422006E+03  0.7546771E-02  0.1210398E+00
         21   -1    0    0  504  502  0.00000000000E+00  0.00000000000E+00  0.31939351257E+03  0.31939351257E+03  0.00000000000E+00 0. -1.
          2   -1    0    0  503    0 -0.00000000000E+00 -0.00000000000E+00 -0.17884696391E+03  0.17884696391E+03  0.00000000000E+00 0.  1.
         21    1    1    2  503  505  0.13136305643E+02  0.41764974930E+02 -0.24270144069E+02  0.50059120547E+02  0.00000000000E+00 0. -1.
         21    1    1    2  504  501  0.32813750870E+02 -0.39554074550E+02 -0.11322867063E+00  0.51393383624E+02  0.00000000000E+00 0. -1.
         21    1    1    2  505  502 -0.77501261564E+02  0.10239345537E+03  0.23442947731E+03  0.26729767130E+03  0.00000000000E+00 0. -1.
          2    1    1    2  501    0  0.31551205051E+02 -0.10460435575E+03 -0.69499555911E+02  0.12949030100E+03  0.00000000000E+00 0.  1.
<scales pt_clust_3="43.78214" pt_clust_4="37.24109" pt_clust_5="131.42508" pt_clust_6="37.24109"></scales>
<clustering>
<clus scale="   37.241">  4  6 -1 -1</clus>
<clus scale="   43.782">  2  3  1 -1</clus>
<clus scale="  131.425">  1  5  2 -1</clus>
<clus scale="  131.425">  1  3  2 -1</clus>
</clustering>
</event>
<event>
 6    0  0.4017242E+002  0.1666523E+03  0.7546771E-02  0.1181385E+00
         -3   -1    0    0    0  501 -0.00000000000E+00  0.00000000000E+00  0.14009529041E+04  0.14009529041E+04  0.00000000000E+00 0.  1.
         21   -1    0    0  505  502  0.00000000000E+00 -0.00000000000E+00 -0.66991689262E+02  0.66991689262E+02  0.00000000000E+00 0. -1.
         21    1    1    2  503  502 -0.27431012116E+02 -0.22413800437E+02  0.73033987011E+02  0.81171436691E+02  0.00000000000E+00 0. -1.
         21    1    1    2  504  503 -0.95797745699E+02 -0.96465747278E+02  0.43155045781E+02  0.14263662382E+03  0.00000000000E+00 0. -1.
         21    1    1    2  505  501 -0.42133442767E+02  0.23225291962E+02  0.11069696916E+03  0.12069987641E+03  0.00000000000E+00 0. -1.
         -3    1    1    2    0  504  0.16536220058E+03  0.95654255753E+02  0.11070752129E+04  0.11234366564E+04  0.00000000000E+00 0.  1.
<scales pt_clust_3="35.42370" pt_clust_4="14000.00000" pt_clust_5="49.22953" pt_clust_6="166.65226"></scales>
<clustering>
<clus scale="   35.424">  2  3  1 -1</clus>
<clus scale="   49.230">  1  5  2 -1</clus>
<clus scale="  166.652">  1  6  2 -1</clus>
<clus scale="   35.424">  2  3  1 -1</clus>
</clustering>
</event>
<event>
 6    0  0.4017242E+002  0.1948091E+03  0.7546771E-02  0.1154194E+00
         21   -1    0    0  501  502  0.00000000000E+00  0.00000000000E+00  0.11021012840E+04  0.11021012840E+04  0.00000000000E+00 0.  1.
          2   -1    0    0  504    0 -0.00000000000E+00 -0.00000000000E+00 -0.13225405831E+04  0.13225405831E+04  0.00000000000E+00 0.  1.
         21    1    1    2  503  502  0.47951422995E+02  0.29235545736E+02  0.24264782134E+03  0.24906228399E+03  0.00000000000E+00 0.  1.
         21    1    1    2  504  505 -0.15507578446E+03 -0.34555616275E+02  0.24258038694E+00  0.15887935167E+03  0.00000000000E+00 0. -1.
         21    1    1    2  505  503  0.14100423727E+03  0.18021450288E+01  0.77004745982E+03  0.78285281697E+03  0.00000000000E+00 0.  1.
          2    1    1    2  501    0 -0.33879875808E+02  0.35179255108E+01 -0.12333771606E+04  0.12338474145E+04  0.00000000000E+00 0.  1.
<scales pt_clust_3="32.36064" pt_clust_4="187.93915" pt_clust_5="32.36064" pt_clust_6="34.06203"></scales>
<clustering>
<clus scale="   32.361">  3  5 -1 -1</clus>
<clus scale="   34.062">  2  6  1 -1</clus>
<clus scale="  187.939">  2  4  1 -1</clus>
<clus scale="  194.809">  1  3  2 -1</clus>
</clustering>
</event>
<event>
 6    0  0.4017242E+002  0.8114193E+02  0.7546771E-02  0.1325842E+00
         -2   -1    0    0    0  501 -0.00000000000E+00  0.00000000000E+00  0.22530415260E+03  0.22530415260E+03  0.00000000000E+00 0. -1.
         21   -1    0    0  505  502  0.00000000000E+00 -0.00000000000E+00 -0.35550225289E+03  0.35550225289E+03  0.00000000000E+00 0. -1.
         21    1    1    2  503  501 -0.67648862271E+02  0.64237623523E+02 -0.41541296350E+02  0.10212012605E+03  0.00000000000E+00 0. -1.
         21    1    1    2  504  502  0.15082432146E+02  0.51199775221E+02 -0.69694371794E+02  0.87784977085E+02  0.00000000000E+00 0. -1.
         21    1    1    2  505  503  0.18737875371E+02 -0.10516586112E+03 -0.18906938920E+03  0.21715938905E+03  0.00000000000E+00 0. -1.
         -2    1    1    2    0  504  0.33828554754E+02 -0.10271537629E+02  0.17010695706E+03  0.17374191331E+03  0.00000000000E+00 0. -1.
<scales pt_clust_3="14000.00000" pt_clust_4="53.66070" pt_clust_5="81.14193" pt_clust_6="35.35358"></scales>
<clustering>
<clus scale="   35.354">  1  6  2 -1</clus>
<clus scale="   53.661">  2  4  1 -1</clus>
<clus scale="   81.142">  2  5  1 -1</clus>
<clus scale="   53.661">  2  3  1 -1</clus>
</clustering>
</event>
<event>
 6    0  0.4017242E+002  0.1051306E+03  0.7546771E-02  0.1269863E+00
          2   -1    0    0  502    0 -0.00000000000E+00  0.00000000000E+00  0.25087923731E+04  0.25087923731E+04  0.00000000000E+00 0.  1.
         21   -1    0    0  505  502  0.00000000000E+00 -0.00000000000E+00 -0.10269970191E+04  0.10269970191E+04  0.00000000000E+00 0.  1.
         21    1    1    2  503  504  0.49871950937E+02  0.46266949644E+02 -0.55195444617E+03  0.55613087737E+03  0.00000000000E+00 0.  1.
         21    1    1    2  504  501  0.63286723478E+02  0.35584149548E+02 -0.21644009185E+03  0.22829313268E+03  0.00000000000E+00 0.  1.
         21    1    1    2  505  503 -0.28056833919E+02 -0.19844944190E+02 -0.24829538166E+03  0.25066233122E+03  0.00000000000E+00 0.  1.
          2    1    1    2  501    0 -0.85101840496E+02 -0.62006155002E+02  0.24984852736E+04  0.25007030509E+04  0.00000000000E+00 0.  1.
<scales pt_clust_3="43.87302" pt_clust_4="14000.00000" pt_clust_5="34.36579" pt_clust_6="105.13055"></scales>
<clustering>
<clus scale="   34.366">  2  5  1 -1</clus>
<clus scale="   43.873">  2  3  1 -1</clus>
<clus scale="  105.131">  1  6  2 -1</clus>
<clus scale="   34.366">  2  3  1 -1</clus>
</clustering>
</event>
<event>
 6    0  0.4017242E+002  0.1108966E+03  0.7546771E-02  0.1258918E+00
         21   -1    0    0  504  502  0.00000000000E+00  0.00000000000E+00  0.17310236065E+03  0.17310236065E+03  0.00000000000E+00 0. -1.
          1   -1    0    0  505    0 -0.00000000000E+00 -0.00000000000E+00 -0.98941601462E+03  0.98941601462E+03  0.00000000000E+00 0.  1.
         21    1    1    2  503  501  0.31206013247E+02  0.88833354047E+02  0.28447478788E+02  0.98358726626E+02  0.00000000000E+00 0. -1.
         21    1    1    2  504  503 -0.19238527485E+02  0.36482885006E+02  0.11672505593E+02  0.42864545081E+02  0.00000000000E+00 0. -1.
         21    1    1    2  505  502  0.17261681370E+02 -0.86284348793E+02  0.58111460426E+02  0.10545091902E+03  0.00000000000E+00 0. -1.
          1    1    1    2  501    0 -0.29229167132E+02 -0.39031890260E+02 -0.91454509878E+03  0.91584418455E+03  0.00000000000E+00 0.  1.
<scales pt_clust_3="33.00665" pt_clust_4="33.00665" pt_clust_5="99.05067" pt_clust_6="48.76303"></scales>
<clustering>
<clus scale="   33.007">  3  4 -1 -1</clus>
<clus scale="   48.763">  2  6  1 -1</clus>
<clus scale="   99.051">  1  5  2 -1</clus>
<clus scale="   99.051">  1  3  2 -1</clus>
</clustering>
</event>
<event>
 6    0  0.4017242E+002  0.9550809E+02  0.7546771E-02  0.1290036E+00
          2   -1    0    0  503    0 -0.00000000000E+00  0.00000000000E+00  0.30419126526E+04  0.30419126526E+04  0.00000000000E+00 0. -1.
         21   -1    0    0  504  502  0.00000000000E+00 -0.00000000000E+00 -0.82031309628E+02  0.82031309628E+02  0.00000000000E+00 0. -1.
         21    1    1    2  503  505  0.29306083051E+02  0.17720275755E+02  0.12775944518E+03  0.13226991536E+03  0.00000000000E+00 0.  1.
         21    1    1    2  504  501  0.13347223195E+02 -0.41979502494E+02  0.46446181397E+02  0.64013082749E+02  0.00000000000E+00 0.  1.
         21    1    1    2  505  502 -0.10912184596E+03  0.45832508478E+02 -0.20923854684E+02  0.12019152962E+03  0.00000000000E+00 0. -1.
          2    1    1    2  501    0  0.66468539711E+02 -0.21573281739E+02  0.28065995710E+04  0.28074694344E+04  0.00000000000E+00 0. -1.
<scales pt_clust_3="34.24697" pt_clust_4="43.90294" pt_clust_5="95.50809" pt_clust_6="14000.00000"></scales>
<clustering>
<clus scale="   34.247">  1  3  2 -1</clus>
<clus scale="   43.903">  2  4  1 -1</clus>
<clus scale="   95.508">  2  5  1 -1</clus>
<clus scale="   43.903">  2  3  1 -1</clus>
</clustering>
</event>
<event>
 6    0  0.4017242E+002  0.1338208E+03  0.7546771E-02  0.1221894E+00
         21   -1    0    0  503  502  0.00000000000E+00  0.00000000000E+00  0.44237763114E+03  0.44237763114E+03  0.00000000000E+00 0. -1.
         -1   -1    0    0    0  501 -0.00000000000E+00 -0.00000000000E+00 -0.10129370747E+04  0.10129370747E+04  0.00000000000E+00 0.  1.
         21    1    1    2  503  505 -0.42690661384E+02 -0.19689748485E+02  0.23202861550E+03  0.23674344167E+03  0.00000000000E+00 0. -1.
         21    1    1    2  504  502 -0.25059882186E+02  0.47560768927E+02  0.33118975071E+02  0.63141831981E+02  0.00000000000E+00 0. -1.
         21    1    1    2  505  501 -0.54880922020E+02 -0.84946183928E+02  0.13871325243E+03  0.17166576876E+03  0.00000000000E+00 0. -1.
         -1    1    1    2    0  504  0.12263146559E+03  0.57075163485E+02 -0.97442028657E+03  0.98376366345E+03  0.00000000000E+00 0.  1.
<scales pt_clust_3="47.01254" pt_clust_4="55.40847" pt_clust_5="133.82082" pt_clust_6="14000.00000"></scales>
<clustering>
<clus scale="   47.013">  1  3  2 -1</clus>
<clus scale="   55.408">  1  4  2 -1</clus>
<clus scale="  133.821">  1  5  2 -1</clus>
<clus scale="   47.013">  1  3  2 -1</clus>
</clustering>
</event>
<event>
 6    0  0.4017242E+002  0.1261597E+03  0.7546771E-02  0.1233268E+00
         21   -1    0    0  505  502  0.00000000000E+00  0.00000000000E+00  0.29931150818E+03  0.29931150818E+03  0.00000000000E+00 0. -1.
          2   -1    0    0  503    0 -0.00000000000E+00 -0.00000000000E+00 -0.61896312204E+03  0.61896312204E+03  0.00000000000E+00 0.  1.
         21    1    1    2  503  502 -0.42063840013E+02 -0.25408878227E+02  0.74083645568E+02  0.88900867657E+02  0.00000000000E+00 0. -1.
         21    1    1    2  504  501 -0.25429205185E+02  0.48965703844E+02  0.12773792573E+03  0.13914475304E+03  0.00000000000E+00 0. -1.
         21    1    1    2  505  504 -0.45074542516E+02  0.17463227659E+02  0.70928076526E+02  0.85833971964E+02  0.00000000000E+00 0.  1.
          2    1    1    2  501    0  0.11256758771E+03 -0.41020053276E+02 -0.59240126168E+03  0.60439503755E+03  0.00000000000E+00 0.  1.
<scales pt_clust_3="49.14242" pt_clust_4="39.30850" pt_clust_5="39.30850" pt_clust_6="118.96471"></scales>
<clustering>
<clus scale="   39.308">  4  5 -1 -1</clus>
<clus scale="   49.142">  1  3  2 -1</clus>
<clus scale="  118.965">  2  6  1 -1</clus>
<clus scale="   49.142">  1  3  2 -1</clus>
</clustering>
</event>
<event>
 6    0  0.4017242E+002  0.2384689E+03  0.7546771E-02  0.1120817E+00
          2   -1    0    0  504    0 -0.00000000000E+00  0.00000000000E+00  0.25489006448E+04  0.25489006448E+04  0.00000000000E+00 0.  1.
         21   -1    0    0  501  502  0.00000000000E+00 -0.00000000000E+00 -0.60575812379E+02  0.60575812379E+02  0.00000000000E+00 0.  1.
         21    1    1    2  503  505 -0.72019085304E+02 -0.87601944096E+02  0.12396895808E+03  0.16801533211E+03  0.00000000000E+00 0.  1.
         21    1    1    2  504  503 -0.20598737263E+02 -0.25951947303E+02  0.11844894363E+03  0.12299578771E+03  0.00000000000E+00 0.  1.
         21    1    1    2  505  502  0.25229166367E+01 -0.12044208261E+03  0.96149149669E+02  0.15413409537E+03  0.00000000000E+00 0.  1.
          2    1    1    2  501    0  0.90094905931E+02  0.23399597401E+03  0.21497577811E+04  0.21643312420E+04  0.00000000000E+00 0.  1.
<scales pt_clust_3="82.68958" pt_clust_4="33.13324" pt_clust_5="82.68958" pt_clust_6="222.82542"></scales>
<clustering>
<clus scale="   33.133">  1  4  2 -1</clus>
<clus scale="   82.690">  3  5 -1 -1</clus>
<clus scale="  222.825">  1  6  2 -1</clus>
<clus scale="  238.469">  2  3  1 -1</clus>
</clustering>
</event>
<event>
 6    0  0.4017242E+002  0.1340020E+03  0.7546771E-02  0.1221635E+00
         21   -1    0    0  504  502  0.00000000000E+00  0.00000000000E+00  0.52434574555E+03  0.52434574555E+03  0.00000000000E+00 0.  1.
          2   -1    0    0  505    0 -0.00000000000E+00 -0.00000000000E+00 -0.84532542906E+03  0.84532542906E+03  0.00000000000E+00 0.  1.
         21    1    1    2  503  502 -0.15405450443E+02  0.10172983971E+03  0.38075432150E+03  0.39441113261E+03  0.00000000000E+00 0.  1.
         21    1    1    2  504  501 -0.20924510167E+02 -0.90442812825E+02 -0.14358188825E+03  0.17097805751E+03  0.00000000000E+00 0.  1.
         21    1    1    2  505  503  0.25277710218E+02  0.20624210279E+02  0.12047553778E+03  0.12481456600E+03  0.00000000000E+00 0.  1.
          2    1    1    2  501    0  0.11052250393E+02 -0.31911237165E+02 -0.67862765453E+03  0.67946741849E+03  0.00000000000E+00 0.  1.
<scales pt_clust_3="32.32767" pt_clust_4="121.08077" pt_clust_5="32.32767" pt_clust_6="33.77098"></scales>
<clustering>
<clus scale="   32.328">  3  5 -1 -1</clus>
<clus scale="   33.771">  2  6  1 -1</clus>
<clus scale="  121.081">  2  4  1 -1</clus>
<clus scale="  134.002">  1  3  2 -1</clus>
</clustering>
</event>
<event>
 6    0  0.4017242E+002  0.1549820E+03  0.7546771E-02  0.1194481E+00
         21   -1    0    0  501  502  0.00000000000E+00  0.00000000000E+00  0.15750967766E+04  0.15750967766E+04  0.00000000000E+00 0.  1.
          1   -1    0    0  503    0 -0.00000000000E+00 -0.00000000000E+00 -0.19874686450E+03  0.19874686450E+03  0.00000000000E+00 0. -1.
         21    1    1    2  503  504  0.38296929623E+02  0.57647441839E+02  0.28930293110E+02  0.75012293849E+02  0.00000000000E+00 0. -1.
         21    1    1    2  504  505 -0.40411690542E+02 -0.96771314967E+02  0.33137349875E+03  0.34757184553E+03  0.00000000000E+00 0. -1.
         21    1    1    2  505  502  0.18516765058E+02 -0.76644790928E+02  0.11617604472E+04  0.11644331802E+04  0.00000000000E+00 0.  1.
          1    1    1    2  501    0 -0.16402004138E+02  0.11576866406E+03 -0.14571432696E+03  0.18682632148E+03  0.00000000000E+00 0. -1.
<scales pt_clust_3="69.20898" pt_clust_4="14000.00000" pt_clust_5="78.49299" pt_clust_6="154.98195"></scales>
<clustering>
<clus scale="   69.209">  2  3  1 -1</clus>
<clus scale="   78.493">  1  5  2 -1</clus>
<clus scale="  154.982">  2  6  1 -1</clus>
<clus scale="   78.493">  1  3  2 -1</clus>
</clustering>
</event>
<event>
 6    0  0.4017242E+002  0.1240751E+03  0.7546771E-02  0.1236522E+00
         21   -1    0    0  505  502  0.00000000000E+00  0.00000000000E+00  0.63733588903E+03  0.63733588903E+03  0.00000000000E+00 0.  1.
         -1   -1    0    0    0  501 -0.00000000000E+00 -0.00000000000E+00 -0.84676522768E+02  0.84676522768E+02  0.00000000000E+00 0.  1.
         21    1    1    2  503  502  0.48313361448E+02  0.10419660671E+02  0.70264464758E+02  0.85906025578E+02  0.00000000000E+00 0.  1.
         21    1    1    2  504  501 -0.12599110747E+03 -0.13442295116E+03  0.33337686615E+03  0.38089818042E+03  0.00000000000E+00 0.  1.
         21    1    1    2  505  504  0.19955365173E+02  0.87532990950E+02  0.16246242254E+03  0.18561864088E+03  0.00000000000E+00 0.  1.
         -1    1    1    2    0  503  0.57722380848E+02  0.36470299544E+02 -0.13444387186E+02  0.69589564924E+02  0.00000000000E+00 0.  1.
<scales pt_clust_3="49.42419" pt_clust_4="14000.00000" pt_clust_5="124.07508" pt_clust_6="70.61328"></scales>
<clustering>
<clus scale="   49.424">  1  3  2 -1</clus>
<clus scale="   70.613">  2  6  1 -1</clus>
<clus scale="  124.075">  1  5  2 -1</clus>
<clus scale="   49.424">  1  3  2 -1</clus>
</clustering>
</event>
<event>
 6    0  0.4017242E+002  0.9376809E+02  0.7546771E-02  0.1293975E+00
         21   -1    0    0  504  502  0.00000000000E+00  0.00000000000E+00  0.34679521206E+02  0.34679521206E+02  0.00000000000E+00 0. -1.
          2   -1    0    0  503    0 -0.00000000000E+00 -0.00000000000E+00 -0.97670866792E+03  0.97670866792E+03  0.00000000000E+00 0. -1.
         21    1    1    2  503  505  0.10360728258E+02  0.79006970840E+02 -0.18630112212E+03  0.20262663753E+03  0.00000000000E+00 0. -1.
         21    1    1    2  504  501 -0.61888008844E+02  0.31347304598E+02 -0.72206547521E+02  0.10013273515E+03  0.00000000000E+00 0. -1.
         21    1    1    2  505  502  0.52323215395E+02 -0.91483332661E+01 -0.75925529618E+02  0.92661194243E+02  0.00000000000E+00 0. -1.
          2    1    1    2  501    0 -0.79593480843E+00 -0.10120594217E+03 -0.60759594746E+03  0.61596762221E+03  0.00000000000E+00 0. -1.
<scales pt_clust_3="93.76809" pt_clust_4="43.19839" pt_clust_5="53.11695" pt_clust_6="14000.00000"></scales>
<clustering>
<clus scale="   53.117">  1  5  2 -1</clus>
<clus scale="   43.198">  1  4  2 -1</clus>
<clus scale="   93.768">  1  3  2 -1</clus>
<clus scale="   53.117">  1  3  2 -1</clus>
</clustering>
</event>
<event>
 6    0  0.4017242E+002  0.2671619E+03  0.7546771E-02  0.1102915E+00
         21   -1    0    0  503  502  0.00000000000E+00  0.00000000000E+00  0.14299483945E+03  0.14299483945E+03  0.00000000000E+00 0.  1.
          2   -1    0    0  504    0 -0.00000000000E+00 -0.00000000000E+00 -0.15465635705E+04  0.15465635705E+04  0.00000000000E+00 0.  1.
         21    1    1    2  503  505 -0.33107377820E+02 -0.23432148856E+02  0.16991007854E+02  0.43975657062E+02  0.00000000000E+00 0.  1.
         21    1    1    2  504  502 -0.22524700822E+03 -0.20879759647E+03 -0.21410747123E+03  0.37439906549E+03  0.00000000000E+00 0.  1.
         21    1    1    2  505  501  0.28619694057E+02  0.10907741751E+03 -0.18212607504E+03  0.21421222446E+03  0.00000000000E+00 0. -1.
          2    1    1    2  501    0  0.22973469198E+03  0.12315232782E+03 -0.10243261927E+04  0.10569714630E+04  0.00000000000E+00 0.  1.
<scales pt_clust_3="40.56062" pt_clust_4="267.16193" pt_clust_5="108.40343" pt_clust_6="14000.00000"></scales>
<clustering>
<clus scale="   40.561">  1  3  2 -1</clus>
<clus scale="  108.403">  1  5  2 -1</clus>
<clus scale="  267.162">  1  4  2 -1</clus>
<clus scale="   40.561">  1  3  2 -1</clus>
</clustering>
</event>
<event>
 6    0  0.4017242E+002  0.7518147E+02  0.7546771E-02  0.1343310E+00
         21   -1    0    0  505  502  0.00000000000E+00  0.00000000000E+00  0.29539180488E+04  0.29539180488E+04  0.00000000000E+00 0.  1.
         -4   -1    0    0    0  501 -0.00000000000E+00 -0.00000000000E+00 -0.57833155182E+02  0.57833155182E+02  0.00000000000E+00 0.  1.
         21    1    1    2  503  501  0.24784322352E+02 -0.64218716685E+02  0.40710869802E+03  0.41288714949E+03  0.00000000000E+00 0. -1.
         21    1    1    2  504  503  0.22452235592E+02  0.89274596786E+02  0.10409333362E+04  0.10449958215E+04  0.00000000000E+00 0. -1.
         21    1    1    2  505  504 -0.29735672392E+02 -0.62289618090E+02  0.14920379785E+04  0.14936336686E+04  0.00000000000E+00 0.  1.
         -4    1    1    2    0  502 -0.17500885551E+02  0.37233737988E+02 -0.43995119118E+02  0.60234564378E+02  0.00000000000E+00 0.  1.
<scales pt_clust_3="48.12331" pt_clust_4="75.18147" pt_clust_5="14000.00000" pt_clust_6="41.14161"></scales>
<clustering>
<clus scale="   41.142">  2  6  1 -1</clus>
<clus scale="   48.123">  2  3  1 -1</clus>
<clus scale="   75.181">  2  4  1 -1</clus>
<clus scale="   75.181">  1  3  2 -1</clus>
</clustering>
</event>
<event>
 6    0  0.4017242E+002  0.1027722E+03  0.7546771E-02  0.1274572E+00
         -3   -1    0    0    0  501 -0.00000000000E+00  0.00000000000E+00  0.12397683852E+04  0.12397683852E+04  0.00000000000E+00 0.  1.
         21   -1    0    0  501  502  0.00000000000E+00 -0.00000000000E+00 -0.10494782398E+03  0.10494782398E+03  0.00000000000E+00 0.  1.
         21    1    1    2  503  505 -0.11872902824E+02  0.59461574303E+02  0.51651536622E+02  0.79652532135E+02  0.00000000000E+00 0.  1.
         21    1    1    2  504  503 -0.11817555351E+03 -0.22205059445E+01  0.64759675010E+02  0.13477465490E+03  0.00000000000E+00 0.  1.
         21    1    1    2  505  502  0.35097096072E+02 -0.19172848852E+02 -0.46012003370E+02  0.60963175277E+02  0.00000000000E+00 0.  1.
         -3    1    1    2    0  504  0.94951360266E+02 -0.38068219507E+02  0.10644213530E+04  0.10693258469E+04  0.00000000000E+00 0.  1.
<scales pt_clust_3="54.29509" pt_clust_4="102.77222" pt_clust_5="39.99255" pt_clust_6="14000.00000"></scales>
<clustering>
<clus scale="   39.993">  2  5  1 -1</clus>
<clus scale="   54.295">  2  3  1 -1</clus>
<clus scale="  102.772">  2  4  1 -1</clus>
<clus scale="   39.993">  2  3  1 -1</clus>
</clustering>
</event>
<event>
 6    0  0.4017242E+002  0.1488353E+03  0.7546771E-02  0.1201911E+00
         21   -1    0    0  505  502  0.00000000000E+00  0.00000000000E+00  0.24316130591E+02  0.24316130591E+02  0.00000000000E+00 0. -1.
          1   -1    0    0  502    0 -0.00000000000E+00 -0.00000000000E+00 -0.28148072198E+04  0.28148072198E+04  0.00000000000E+00 0. -1.
         21    1    1    2  503  501 -0.10735511957E+03  0.38449815302E+02 -0.31909378316E+03  0.33885742200E+03  0.00000000000E+00 0. -1.
         21    1    1    2  504  503 -0.32022264425E+02  0.43223929328E+02 -0.23836475439E+03  0.24435934527E+03  0.00000000000E+00 0. -1.
         21    1    1    2  505  504  0.14480948862E+02 -0.33593046913E+02 -0.26142808214E+02  0.44962618942E+02  0.00000000000E+00 0. -1.
          1    1    1    2  501    0  0.12489643513E+03 -0.48080697717E+02 -0.22068897434E+04  0.22109439641E+04  0.00000000000E+00 0. -1.
<scales pt_clust_3="39.33298" pt_clust_4="39.33298" pt_clust_5="36.58129" pt_clust_6="137.35658"></scales>
<clustering>
<clus scale="   36.581">  1  5  2 -1</clus>
<clus scale="   39.333">  3  4 -1 -1</clus>
<clus scale="  137.357">  2  6  1 -1</clus>
<clus scale="   36.581">  1  3  2 -1</clus>
</clustering>
</event>
<event>
 6    0  0.4017242E+002  0.7780474E+02  0.7546771E-02  0.1335399E+00
         21   -1    0    0  504  502  0.00000000000E+00  0.00000000000E+00  0.77921568086E+02  0.77921568086E+02  0.00000000000E+00 0. -1.
          2   -1    0    0  503    0 -0.00000000000E+00 -0.00000000000E+00 -0.20072166479E+04  0.20072166479E+04  0.00000000000E+00 0.  1.
         21    1    1    2  503  502 -0.40953687880E+02  0.11952703803E+03 -0.15634847717E+03  0.20101931172E+03  0.00000000000E+00 0. -1.
         21    1    1    2  504  505 -0.85222615204E+01 -0.36010720795E+02  0.37570591803E+02  0.52734716478E+02  0.00000000000E+00 0. -1.
         21    1    1    2  505  501 -0.19495649557E+02 -0.48717348335E+02 -0.62270319151E+02  0.81431277944E+02  0.00000000000E+00 0.  1.
          2    1    1    2  501    0  0.68971598958E+02 -0.34798968895E+02 -0.17482468753E+04  0.17499529098E+04  0.00000000000E+00 0.  1.
<scales pt_clust_3="14000.00000" pt_clust_4="37.00542" pt_clust_5="63.19401" pt_clust_6="77.80474"></scales>
<clustering>
<clus scale="   37.005">  1  4  2 -1</clus>
<clus scale="   63.194">  1  5  2 -1</clus>
<clus scale="   77.805">  2  6  1 -1</clus>
<clus scale="   37.005">  1  3  2 -1</clus>
</clustering>
</event>
<event>
 6    0  0.4017242E+002  0.1424787E+03  0.7546771E-02  0.1210032E+00
         -1   -1    0    0    0  501 -0.00000000000E+00  0.00000000000E+00  0.33824885862E+02  0.33824885862E+02  0.00000000000E+00 0.  1.
         21   -1    0    0  504  502  0.00000000000E+00 -0.00000000000E+00 -0.29646696271E+04  0.29646696271E+04  0.00000000000E+00 0. -1.
         21    1    1    2  503  502  0.29010438467E+02 -0.18575450832E+03 -0.16177937579E+04  0.16286813642E+04  0.00000000000E+00 0. -1.
         21    1    1    2  504  505 -0.52303194586E+02  0.21925028303E+02 -0.58958505428E+03  0.59230639643E+03  0.00000000000E+00 0. -1.
         21    1    1    2  505  501  0.44081478674E+02  0.10511718204E+03 -0.70265115517E+03  0.71183666987E+03  0.00000000000E+00 0.  1.
         -1    1    1    2    0  503 -0.20788722556E+02  0.58712297978E+02 -0.20814773878E+02  0.65670082465E+02  0.00000000000E+00 0.  1.
<scales pt_clust_3="14000.00000" pt_clust_4="56.71271" pt_clust_5="142.47872" pt_clust_6="62.98324"></scales>
<clustering>
<clus scale="   56.713">  2  4  1 -1</clus>
<clus scale="   62.983">  1  6  2 -1</clus>
<clus scale="  142.479">  1  5  2 -1</clus>
<clus scale="   56.713">  2  3  1 -1</clus>
</clustering>
</event>
<event>
 6    0  0.4017242E+002  0.1593495E+03  0.7546771E-02  0.1189433E+00
         21   -1    0    0  504  502  0.00000000000E+00  0.00000000000E+00  0.83010615395E+03  0.83010615395E+03  0.00000000000E+00 0. -1.
          1   -1    0    0  505    0 -0.00000000000E+00 -0.00000000000E+00 -0.91921057303E+03  0.91921057303E+03  0.00000000000E+00 0. -1.
         21    1    1    2  503  502 -0.29661792975E+02 -0.46129830127E+01  0.53112087531E+03  0.53196850072E+03  0.00000000000E+00 0. -1.
         21    1    1    2  504  501 -0.30881259506E+02  0.46907734656E+02  0.19768293079E+03  0.20550554466E+03  0.00000000000E+00 0. -1.
         21    1    1    2  505  503  0.15492867114E+01  0.11088479585E+03  0.54894500493E+02  0.12373861331E+03  0.00000000000E+00 0.  1.
          1    1    1    2  501    0  0.58993765770E+02 -0.15317954749E+03 -0.87280272567E+03  0.88810406829E+03  0.00000000000E+00 0. -1.
<scales pt_clust_3="30.01835" pt_clust_4="67.15353" pt_clust_5="159.34947" pt_clust_6="14000.00000"></scales>
<clustering>
<clus scale="   30.018">  1  3  2 -1</clus>
<clus scale="   67.154">  1  4  2 -1</clus>
<clus scale="  159.349">  1  5  2 -1</clus>
<clus scale="   30.018">  1  3  2 -1</clus>
</clustering>
</event>
<event>
 6    0  0.4017242E+002  0.1037807E+03  0.7546771E-02  0.1272541E+00
         -1   -1    0    0    0  501 -0.00000000000E+00  0.00000000000E+00  0.51670040139E+03  0.51670040139E+03  0.00000000000E+00 0. -1.
         21   -1    0    0  505  502  0.00000000000E+00 -0.00000000000E+00 -0.20202420873E+03  0.20202420873E+03  0.00000000000E+00 0. -1.
         21    1    1    2  503  502 -0.10421518686E+03  0.73730529013E+02 -0.25406532779E+02  0.13016331276E+03  0.00000000000E+00 0. -1.
         21    1    1    2  504  501  0.28774390326E+02 -0.11634547135E+02  0.24248668195E+02  0.39386877700E+02  0.00000000000E+00 0. -1.
         21    1    1    2  505  504  0.44396120341E+02 -0.87599456283E+02 -0.94848222215E+02  0.13653155496E+03  0.00000000000E+00 0. -1.
         -1    1    1    2    0  503  0.31044676190E+02  0.25503474405E+02  0.41068227946E+03  0.41264286470E+03  0.00000000000E+00 0. -1.
<scales pt_clust_3="14000.00000" pt_clust_4="31.03753" pt_clust_5="103.78070" pt_clust_6="57.63269"></scales>
<clustering>
<clus scale="   31.038">  1  4  2 -1</clus>
<clus scale="   57.633">  1  6  2 -1</clus>
<clus scale="  103.781">  2  5  1 -1</clus>
<clus scale="  103.781">  2  3  1 -1</clus>
</clustering>
</event>
<event>
 6    0  0.4017242E+002  0.2507849E+03  0.7546771E-02  0.1112810E+00
          2   -1    0    0  505    0 -0.00000000000E+00  0.00000000000E+00  0.46266846155E+04  0.46266846155E+04  0.00000000000E+00 0.  1.
         21   -1    0    0  504  502  0.00000000000E+00 -0.00000000000E+00 -0.33218811775E+03  0.33218811775E+03  0.00000000000E+00 0. -1.
         21    1    1    2  503  501  0.12459591141E+03  0.13661514563E+03 -0.16483297948E+03  0.24770496620E+03  0.00000000000E+00 0. -1.
         21    1    1    2  504  503 -0.30983128581E+02  0.12315632994E+03 -0.50996963029E+02  0.13685074388E+03  0.00000000000E+00 0. -1.
         21    1    1    2  505  502 -0.31199634550E+02 -0.15342551920E+02 -0.17875024538E+02  0.39093830686E+02  0.00000000000E+00 0. -1.
          2    1    1    2  501    0 -0.62413148281E+02 -0.24442892366E+03  0.45282014648E+04  0.45352231925E+04  0.00000000000E+00 0.  1.
<scales pt_clust_3="250.78490" pt_clust_4="125.18879" pt_clust_5="34.76796" pt_clust_6="14000.00000"></scales>
<clustering>
<clus scale="   34.768">  2  5  1 -1</clus>
<clus scale="  125.189">  2  4  1 -1</clus>
<clus scale="  250.785">  2  3  1 -1</clus>
<clus scale="   34.768">  2  3  1 -1</clus>
</clustering>
</event>
<event>
 6    0  0.4017242E+002  0.1183837E+03  0.7546771E-02  0.1245787E+00
          2   -1    0    0  503    0 -0.00000000000E+00  0.00000000000E+00  0.19489233251E+04  0.19489233251E+04  0.00000000000E+00 0. -1.
         21   -1    0    0  505  502  0.00000000000E+00 -0.00000000000E+00 -0.12253744606E+03  0.12253744606E+03  0.00000000000E+00 0. -1.
         21    1    1    2  503  504 -0.42831174934E+02 -0.41039931566E+02  0.20065602592E+03  0.20924059422E+03  0.00000000000E+00 0. -1.
         21    1    1    2  504  502  0.78232880235E+02  0.36425387499E+02 -0.76919776759E+02  0.11560209540E+03  0.00000000000E+00 0. -1.
         21    1    1    2  505  501  0.44468286248E+02 -0.36008625574E+02  0.18571510348E+02  0.60157714337E+02  0.00000000000E+00 0. -1.
          2    1    1    2  501    0 -0.79869991549E+02  0.40623169642E+02  0.16840781195E+04  0.16864603672E+04  0.00000000000E+00 0. -1.
<scales pt_clust_3="59.06436" pt_clust_4="14000.00000" pt_clust_5="57.21931" pt_clust_6="118.38373"></scales>
<clustering>
<clus scale="   57.219">  2  5  1 -1</clus>
<clus scale="   59.064">  1  3  2 -1</clus>
<clus scale="  118.384">  1  6  2 -1</clus>
<clus scale="   57.219">  2  3  1 -1</clus>
</clustering>
</event>
<event>
 6    0  0.4017242E+002  0.7882365E+02  0.7546771E-02  0.1332423E+00
         21   -1    0    0  504  502  0.00000000000E+00  0.00000000000E+00  0.85554153228E+02  0.85554153228E+02  0.00000000000E+00 0.  1.
         -1   -1    0    0    0  501 -0.00000000000E+00 -0.00000000000E+00 -0.12360290773E+04  0.12360290773E+04  0.00000000000E+00 0.  1.
         21    1    1    2  503  501 -0.47416582592E+02  0.45027359408E+02 -0.16700879368E+03  0.17935365223E+03  0.00000000000E+00 0.  1.
         21    1    1    2  504  505  0.37237480814E+02 -0.14178356443E+02  0.61550998919E+02  0.73322447018E+02  0.00000000000E+00 0.  1.
         21    1    1    2  505  503 -0.71094969320E+02 -0.65349549242E+01 -0.11729679696E+03  0.13731620034E+03  0.00000000000E+00 0.  1.
         -1    1    1    2    0  502  0.81274071099E+02 -0.24314048041E+02 -0.92772033237E+03  0.93159093097E+03  0.00000000000E+00 0.  1.
<scales pt_clust_3="78.82365" pt_clust_4="39.84540" pt_clust_5="52.52509" pt_clust_6="14000.00000"></scales>
<clustering>
<clus scale="   39.845">  1  4  2 -1</clus>
<clus scale="   52.525">  1  5  2 -1</clus>
<clus scale="   78.824">  1  3  2 -1</clus>
<clus scale="   39.845">  1  3  2 -1</clus>
</clustering>
</event>
<event>
 6    0  0.4017242E+002  0.1996580E+03  0.7546771E-02  0.1150028E+00
         21   -1    0    0  503  502  0.00000000000E+00  0.00000000000E+00  0.74931220342E+03  0.74931220342E+03  0.00000000000E+00 0.  1.
          4   -1    0    0  504    0 -0.00000000000E+00 -0.00000000000E+00 -0.64801966054E+03  0.64801966054E+03  0.00000000000E+00 0. -1.
         21    1    1    2  503  501  0.21275888405E+02  0.41590880416E+02  0.73348200592E+02  0.86962194609E+02  0.00000000000E+00 0. -1.
         21    1    1    2  504  505  0.64749448022E+02  0.27948230515E+01  0.28533584291E+03  0.29260356338E+03  0.00000000000E+00 0.  1.
         21    1    1    2  505  502  0.10937152000E+03 -0.35505408425E+02  0.35591208236E+03  0.37402696932E+03  0.00000000000E+00 0.  1.
          4    1    1    2  501    0 -0.19539685643E+03 -0.88802950422E+01 -0.61330358298E+03  0.64373913664E+03  0.00000000000E+00 0. -1.
<scales pt_clust_3="46.71686" pt_clust_4="31.93313" pt_clust_5="31.93313" pt_clust_6="195.07444"></scales>
<clustering>
<clus scale="   31.933">  4  5 -1 -1</clus>
<clus scale="   46.717">  1  3  2 -1</clus>
<clus scale="  195.074">  2  6  1 -1</clus>
<clus scale="   46.717">  1  3  2 -1</clus>
</clustering>
</event>
<event>
 6    0  0.4017242E+002  0.8321189E+02  0.7546771E-02  0.1320176E+00
         21   -1    0    0  503  502  0.00000000000E+00  0.00000000000E+00  0.11344695345E+03  0.11344695345E+03  0.00000000000E+00 0.  1.
          2   -1    0    0  504    0 -0.00000000000E+00 -0.00000000000E+00 -0.30376997757E+04  0.30376997757E+04  0.00000000000E+00 0.  1.
         21    1    1    2  503  505 -0.17424283295E+02  0.47388902252E+02  0.99459797853E+02  0.11154176390E+03  0.00000000000E+00 0.  1.
         21    1    1    2  504  502  0.74767493758E+02  0.67830306160E+01 -0.32581985402E+03  0.33435724144E+03  0.00000000000E+00 0. -1.
         21    1    1    2  505  501 -0.80155544325E+02 -0.84109486430E+02 -0.96833567525E+03  0.97528113739E+03  0.00000000000E+00 0. -1.
          2    1    1    2  501    0  0.22812333862E+02  0.29937553562E+02 -0.17295570909E+04  0.17299665865E+04  0.00000000000E+00 0.  1.
<scales pt_clust_3="50.58436" pt_clust_4="83.21189" pt_clust_5="14000.00000" pt_clust_6="37.63854"></scales>
<clustering>
<clus scale="   37.639">  2  6  1 -1</clus>
<clus scale="   50.584">  1  3  2 -1</clus>
<clus scale="   83.212">  1  4  2 -1</clus>
<clus scale="   50.584">  1  3  2 -1</clus>
</clustering>
</event>
<event>
 6    0  0.4017242E+002  0.1094287E+03  0.7546771E-02  0.1261631E+00
         21   -1    0    0  504  502  0.00000000000E+00  0.00000000000E+00  0.19750073115E+03  0.19750073115E+03  0.00000000000E+00 0.  1.
          1   -1    0    0  503    0 -0.00000000000E+00 -0.00000000000E+00 -0.10843485983E+04  0.10843485983E+04  0.00000000000E+00 0.  1.
         21    1    1    2  503  505 -0.72061750284E+02  0.14423186002E+02  0.79780174013E+02  0.10847027387E+03  0.00000000000E+00 0.  1.
         21    1    1    2  504  501 -0.27601892291E+02  0.24565122413E+02 -0.55637974794E+01  0.37366636718E+02  0.00000000000E+00 0. -1.
         21    1    1    2  505  502 -0.10883810687E+02 -0.42647376713E+02  0.78812375463E+02  0.90269854335E+02  0.00000000000E+00 0.  1.
          1    1    1    2  501    0  0.11054745326E+03  0.36590682980E+01 -0.10398766191E+04  0.10457425645E+04  0.00000000000E+00 0.  1.
<scales pt_clust_3="109.42874" pt_clust_4="36.95010" pt_clust_5="39.21009" pt_clust_6="14000.00000"></scales>
<clustering>
<clus scale="   36.950">  1  4  2 -1</clus>
<clus scale="   39.210">  1  5  2 -1</clus>
<clus scale="  109.429">  1  3  2 -1</clus>
<clus scale="   36.950">  1  3  2 -1</clus>
</clustering>
</event>
<event>
 6    0  0.4017242E+002  0.1218750E+03  0.7546771E-02  0.1240036E+00
         -1   -1    0    0    0  501 -0.00000000000E+00  0.00000000000E+00  0.15006835925E+04  0.15006835925E+04  0.00000000000E+00 0.  1.
         21   -1    0    0  504  502  0.00000000000E+00 -0.00000000000E+00 -0.42945502615E+02  0.42945502615E+02  0.00000000000E+00 0. -1.
         21    1    1    2  503  502  0.53430142619E+01 -0.78321076361E+02  0.25097366697E+02  0.82417332030E+02  0.00000000000E+00 0. -1.
         21    1    1    2  504  505 -0.55996327002E+02  0.25812587173E+02  0.21026717017E+03  0.21912133886E+03  0.00000000000E+00 0. -1.
         21    1    1    2  505  501 -0.55657401446E+02  0.76504741326E+02  0.33679382987E+03  0.34982968087E+03  0.00000000000E+00 0.  1.
         -1    1    1    2    0  503  0.10631071419E+03 -0.23996252138E+02  0.88557972311E+03  0.89226074331E+03  0.00000000000E+00 0.  1.
<scales pt_clust_3="78.50311" pt_clust_4="31.20541" pt_clust_5="31.20541" pt_clust_6="115.58278"></scales>
<clustering>
<clus scale="   31.205">  4  5 -1 -1</clus>
<clus scale="   78.503">  2  3  1 -1</clus>
<clus scale="  115.583">  1  6  2 -1</clus>
<clus scale="   78.503">  2  3  1 -1</clus>
</clustering>
</event>
<event>
 6    0  0.4017242E+002  0.6412626E+02  0.7546771E-02  0.1381289E+00
          2   -1    0    0  503    0 -0.00000000000E+00  0.00000000000E+00  0.10428340732E+04  0.10428340732E+04  0.00000000000E+00 0.  1.
         21   -1    0    0  505  502  0.00000000000E+00 -0.00000000000E+00 -0.99577017539E+02  0.99577017539E+02  0.00000000000E+00 0.  1.
         21    1    1    2  503  504  0.35705609970E+02  0.37871106332E+02 -0.23515411129E+01  0.52102217071E+02  0.00000000000E+00 0.  1.
         21    1    1    2  504  502  0.22547695242E+02 -0.37545557114E+02 -0.27438536274E+02  0.51681144459E+02  0.00000000000E+00 0.  1.
         21    1    1    2  505  501 -0.99430241918E+02  0.47163499267E+02  0.63789384104E+02  0.12720005580E+03  0.00000000000E+00 0.  1.
          2    1    1    2  501    0  0.41176936706E+02 -0.47489048485E+02  0.90925774892E+03  0.91142767339E+03  0.00000000000E+00 0.  1.
<scales pt_clust_3="50.44019" pt_clust_4="43.79575" pt_clust_5="14000.00000" pt_clust_6="64.12626"></scales>
<clustering>
<clus scale="   43.796">  2  4  1 -1</clus>
<clus scale="   50.440">  2  3  1 -1</clus>
<clus scale="   64.126">  1  6  2 -1</clus>
<clus scale="   43.796">  2  3  1 -1</clus>
</clustering>
</event>
<event>
 6    0  0.4017242E+002  0.1281468E+03  0.7546771E-02  0.1230232E+00
         21   -1    0    0  501  502  0.00000000000E+00  0.00000000000E+00  0.22616703932E+03  0.22616703932E+03  0.00000000000E+00 0. -1.
          2   -1    0    0  503    0 -0.00000000000E+00 -0.00000000000E+00 -0.42987167238E+03  0.42987167238E+03  0.00000000000E+00 0. -1.
         21    1    1    2  503  504 -0.49933449242E+02 -0.48674716095E+02 -0.62444359719E+02  0.93604889833E+02  0.00000000000E+00 0. -1.
         21    1    1    2  504  505  0.26251188314E+01 -0.13435780468E+03 -0.14702835233E+03  0.19918897388E+03  0.00000000000E+00 0. -1.
         21    1    1    2  505  502  0.34340891702E+02  0.90537557691E+02  0.15760875560E+03  0.18497801501E+03  0.00000000000E+00 0. -1.
          2    1    1    2  501    0  0.12967438708E+02  0.92494963086E+02 -0.15184067661E+03  0.17826683297E+03  0.00000000000E+00 0. -1.
<scales pt_clust_3="56.30932" pt_clust_4="56.30932" pt_clust_5="101.54386" pt_clust_6="93.39953"></scales>
<clustering>
<clus scale="   56.309">  3  4 -1 -1</clus>
<clus scale="   93.400">  2  6  1 -1</clus>
<clus scale="  101.544">  1  5  2 -1</clus>
<clus scale="  101.544">  1  3  2 -1</clus>
</clustering>
</event>
<event>
 6    0  0.4017242E+002  0.1012937E+03  0.7546771E-02  0.1277599E+00
          1   -1    0    0  503    0 -0.00000000000E+00  0.00000000000E+00  0.44142300170E+03  0.44142300170E+03  0.00000000000E+00 0. -1.
         21   -1    0    0  504  502  0.00000000000E+00 -0.00000000000E+00 -0.54955915257E+03  0.54955915257E+03  0.00000000000E+00 0. -1.
         21    1    1    2  503  505 -0.42694276898E+02 -0.50455871470E+02  0.87641833252E+01  0.66673886605E+02  0.00000000000E+00 0. -1.
         21    1    1    2  504  501  0.24255853508E+02 -0.36136334460E+02 -0.15827466789E+03  0.16414947942E+03  0.00000000000E+00 0. -1.
         21    1    1    2  505  502  0.79814071618E+02  0.24801502534E+02 -0.34967694324E+03  0.35952658482E+03  0.00000000000E+00 0. -1.
          1    1    1    2  501    0 -0.61375648229E+02  0.61790703396E+02  0.39105127695E+03  0.40063220343E+03  0.00000000000E+00 0. -1.
<scales pt_clust_3="67.05660" pt_clust_4="43.52219" pt_clust_5="14000.00000" pt_clust_6="101.29371"></scales>
<clustering>
<clus scale="   43.522">  2  4  1 -1</clus>
<clus scale="   67.057">  1  3  2 -1</clus>
<clus scale="  101.294">  1  6  2 -1</clus>
<clus scale="   43.522">  2  3  1 -1</clus>
</clustering>
</event>
<event>
 6    0  0.4017242E+002  0.2966758E+03  0.7546771E-02  0.1086914E+00
          2   -1    0    0  505    0 -0.00000000000E+00  0.00000000000E+00  0.83499676952E+03  0.83499676952E+03  0.00000000000E+00 0.  1.
         21   -1    0    0  503  502  0.00000000000E+00 -0.00000000000E+00 -0.24267251172E+03  0.24267251172E+03  0.00000000000E+00 0.  1.
         21    1    1    2  503  504  0.17415898874E+03 -0.26779577967E+01  0.24595477082E+03  0.30138393140E+03  0.00000000000E+00 0.  1.
         21    1    1    2  504  501  0.12141027983E+03 -0.57586784043E+02  0.20482852990E+03  0.24497228497E+03  0.00000000000E+00 0. -1.
         21    1    1    2  505  502 -0.27211676319E+03  0.91507492424E+02 -0.86587239612E+02  0.29986414264E+03  0.00000000000E+00 0.  1.
          2    1    1    2  501    0 -0.23452505380E+02 -0.31242750584E+02  0.22812819669E+03  0.23144892222E+03  0.00000000000E+00 0.  1.
<scales pt_clust_3="58.85438" pt_clust_4="58.85438" pt_clust_5="289.32681" pt_clust_6="39.06571"></scales>
<clustering>
<clus scale="   39.066">  1  6  2 -1</clus>
<clus scale="   58.854">  3  4 -1 -1</clus>
<clus scale="  289.327">  2  5  1 -1</clus>
<clus scale="  289.327">  2  3  1 -1</clus>
</clustering>
</event>
<event>
 6    0  0.4017242E+002  0.3244930E+03  0.7546771E-02  0.1073600E+00
          2   -1    0    0  505    0 -0.00000000000E+00  0.00000000000E+00  0.26876963606E+04  0.26876963606E+04  0.00000000000E+00 0. -1.
         21   -1    0    0  503  502  0.00000000000E+00 -0.00000000000E+00 -0.13067611726E+04  0.13067611726E+04  0.00000000000E+00 0.  1.
         21    1    1    2  503  501  0.11289739384E+03  0.19918023177E+03  0.17944477635E+03  0.29089347539E+03  0.00000000000E+00 0. -1.
         21    1    1    2  504  502 -0.98899383292E+02 -0.31915428398E+03 -0.12155657496E+04  0.12606508781E+04  0.00000000000E+00 0.  1.
         21    1    1    2  505  504 -0.71574149085E+02  0.20487231705E+02  0.10901113440E+03  0.13200762441E+03  0.00000000000E+00 0. -1.
          2    1    1    2  501    0  0.57576138533E+02  0.99486820500E+02  0.23080450269E+04  0.23109055553E+04  0.00000000000E+00 0. -1.
<scales pt_clust_3="14000.00000" pt_clust_4="324.49302" pt_clust_5="74.44854" pt_clust_6="118.11406"></scales>
<clustering>
<clus scale="   74.449">  1  5  2 -1</clus>
<clus scale="  118.114">  1  6  2 -1</clus>
<clus scale="  324.493">  2  4  1 -1</clus>
<clus scale="  324.493">  2  3  1 -1</clus>
</clustering>
</event>
<event>
 6    0  0.4017242E+002  0.1096209E+03  0.7546771E-02  0.1261274E+00
          1   -1    0    0  504    0 -0.00000000000E+00  0.00000000000E+00  0.67730182632E+03  0.67730182632E+03  0.00000000000E+00 0.  1.
         21   -1    0    0  505  502  0.00000000000E+00 -0.00000000000E+00 -0.14910150166E+03  0.14910150166E+03  0.00000000000E+00 0.  1.
         21    1    1    2  503  502  0.60879515016E+01  0.51025548920E+02  0.63681386958E+02  0.81829021997E+02  0.00000000000E+00 0. -1.
         21    1    1    2  504  503 -0.64634079774E+01 -0.13103001742E+03  0.17874500697E+03  0.22172148887E+03  0.00000000000E+00 0.  1.
         21    1    1    2  505  501 -0.40865616617E+02 -0.16160207203E+02 -0.10737417824E+03  0.11601881344E+03  0.00000000000E+00 0.  1.
          1    1    1    2  501    0  0.41241073093E+02  0.96164675704E+02  0.39314810897E+03  0.40683400368E+03  0.00000000000E+00 0.  1.
<scales pt_clust_3="47.26043" pt_clust_4="109.62087" pt_clust_5="43.94486" pt_clust_6="14000.00000"></scales>
<clustering>
<clus scale="   43.945">  2  5  1 -1</clus>
<clus scale="   47.260">  2  3  1 -1</clus>
<clus scale="  109.621">  2  4  1 -1</clus>
<clus scale="   43.945">  2  3  1 -1</clus>
</clustering>
</event>
<event>
 6    0  0.4017242E+002  0.1690466E+03  0.7546771E-02  0.1178846E+00
         -2   -1    0    0    0  501 -0.00000000000E+00  0.00000000000E+00  0.27862324997E+03  0.27862324997E+03  0.00000000000E+00 0.  1.
         21   -1    0    0  505  502  0.00000000000E+00 -0.00000000000E+00 -0.24002257429E+03  0.24002257429E+03  0.00000000000E+00 0. -1.
         21    1    1    2  503  502 -0.10992207262E+02  0.11532182742E+03 -0.14679938328E+03  0.18700270434E+03  0.00000000000E+00 0. -1.
         21    1    1    2  504  503  0.31424895178E+02 -0.11910639878E+03  0.12335147295E+03  0.17432568413E+03  0.00000000000E+00 0.  1.
         21    1    1    2  505  501 -0.67367802561E+02  0.34550197426E+02  0.28769146977E+01  0.75765517238E+02  0.00000000000E+00 0. -1.
         -2    1    1    2    0  504  0.46935114645E+02 -0.30765626066E+02  0.59171671318E+02  0.81551918558E+02  0.00000000000E+00 0.  1.
<scales pt_clust_3="158.17721" pt_clust_4="40.25406" pt_clust_5="75.71088" pt_clust_6="40.25406"></scales>
<clustering>
<clus scale="   40.254">  4  6 -1 -1</clus>
<clus scale="   75.711">  2  5  1 -1</clus>
<clus scale="  158.177">  2  3  1 -1</clus>
<clus scale="   75.711">  2  3  1 -1</clus>
</clustering>
</event>
<event>
 6    0  0.4017242E+002  0.1713715E+03  0.7546771E-02  0.1176425E+00
         21   -1    0    0  503  502  0.00000000000E+00  0.00000000000E+00  0.23286154723E+03  0.23286154723E+03  0.00000000000E+00 0. -1.
         -3   -1    0    0    0  501 -0.00000000000E+00 -0.00000000000E+00 -0.19812749759E+04  0.19812749759E+04  0.00000000000E+00 0. -1.
         21    1    1    2  503  505 -0.33858278298E+02 -0.15549200629E+03  0.19746730150E+03  0.25360891583E+03  0.00000000000E+00 0. -1.
         21    1    1    2  504  501  0.51408377456E+02  0.13548318088E+03 -0.11976785041E+04  0.12064129942E+04  0.00000000000E+00 0. -1.
         21    1    1    2  505  504 -0.13439260200E+02  0.52684871193E+02 -0.31464054170E+03  0.31930389889E+03  0.00000000000E+00 0.  1.
         -3    1    1    2    0  502 -0.41108389578E+01 -0.32676045787E+02 -0.43356168438E+03  0.43481071413E+03  0.00000000000E+00 0. -1.
<scales pt_clust_3="159.73081" pt_clust_4="39.29757" pt_clust_5="39.29757" pt_clust_6="32.93361"></scales>
<clustering>
<clus scale="   32.934">  2  6  1 -1</clus>
<clus scale="   39.298">  4  5 -1 -1</clus>
<clus scale="  159.731">  1  3  2 -1</clus>
<clus scale="  159.731">  1  3  2 -1</clus>
</clustering>
</event>
<event>
 6    0  0.4017242E+002  0.1209397E+03  0.7546771E-02  0.1241555E+00
          2   -1    0    0  505    0 -0.00000000000E+00  0.00000000000E+00  0.99600937238E+03  0.99600937238E+03  0.00000000000E+00 0.  1.
         21   -1    0    0  501  502  0.00000000000E+00 -0.00000000000E+00 -0.68573288793E+02  0.68573288793E+02  0.00000000000E+00 0.  1.
         21    1    1    2  503  502  0.18239580494E+02 -0.28779325891E+02  0.44200463008E+02  0.55808716393E+02  0.00000000000E+00 0. -1.
         21    1    1    2  504  503 -0.35739897959E+02 -0.47680558790E+02 -0.16260052916E+02  0.61767024483E+02  0.00000000000E+00 0.  1.
         21    1    1    2  505  504 -0.93631283106E+02  0.22586821855E+01  0.10233511069E+03  0.13872416409E+03  0.00000000000E+00 0. -1.
          2    1    1    2  501    0  0.11113160057E+03  0.74201202495E+02  0.79716056280E+03  0.80828275621E+03  0.00000000000E+00 0.  1.
<scales pt_clust_3="34.07245" pt_clust_4="69.96206" pt_clust_5="14000.00000" pt_clust_6="120.93966"></scales>
<clustering>
<clus scale="   34.072">  2  3  1 -1</clus>
<clus scale="   69.962">  2  4  1 -1</clus>
<clus scale="  120.940">  1  6  2 -1</clus>
<clus scale="   34.072">  2  3  1 -1</clus>
</clustering>
</event>
<event>
 6    0  0.4017242E+002  0.9162819E+02  0.7546771E-02  0.1298956E+00
          2   -1    0    0  505    0 -0.00000000000E+00  0.00000000000E+00  0.15040166683E+04  0.15040166683E+04  0.00000000000E+00 0. -1.
         21   -1    0    0  503  502  0.00000000000E+00 -0.00000000000E+00 -0.44114376600E+02  0.44114376600E+02  0.00000000000E+00 0. -1.
         21    1    1    2  503  501 -0.60618855114E+02  0.16021230807E+02  0.12237249505E+03  0.13750037446E+03  0.00000000000E+00 0.  1.
         21    1    1    2  504  502  0.23954706852E+02  0.40352013109E+02 -0.33245200217E+00  0.46927853846E+02  0.00000000000E+00 0. -1.
         21    1    1    2  505  504  0.45969546277E+02  0.42585948991E+02  0.78592217719E+02  0.10051616249E+03  0.00000000000E+00 0. -1.
          2    1    1    2  501    0 -0.93053980147E+01 -0.98959192907E+02  0.12592700309E+04  0.12631866541E+04  0.00000000000E+00 0. -1.
<scales pt_clust_3="60.30444" pt_clust_4="46.92668" pt_clust_5="91.62819" pt_clust_6="14000.00000"></scales>
<clustering>
<clus scale="   46.927">  2  4  1 -1</clus>
<clus scale="   60.304">  2  3  1 -1</clus>
<clus scale="   91.628">  2  5  1 -1</clus>
<clus scale="   46.927">  2  3  1 -1</clus>
</clustering>
</event>
<event>
 6    0  0.4017242E+002  0.9579790E+02  0.7546771E-02  0.1289389E+00
          2   -1    0    0  503    0 -0.00000000000E+00  0.00000000000E+00  0.25268347545E+04  0.25268347545E+04  0.00000000000E+00 0. -1.
         21   -1    0    0  505  502  0.00000000000E+00 -0.00000000000E+00 -0.70862823683E+03  0.70862823683E+03  0.00000000000E+00 0.  1.
         21    1    1    2  503  504 -0.48506630227E+02 -0.31786955800E+01  0.16858782008E+03  0.17545612090E+03  0.00000000000E+00 0. -1.
         21    1    1    2  504  502  0.29787346071E+02 -0.84793007719E+01 -0.65428943572E+03  0.65502202270E+03  0.00000000000E+00 0.  1.
         21    1    1    2  505  501  0.12449827957E+02  0.10704445538E+03  0.90595227141E+01  0.10814614461E+03  0.00000000000E+00 0.  1.
          2    1    1    2  501    0  0.62694561985E+01 -0.95386459024E+02  0.22948486106E+04  0.22968387032E+04  0.00000000000E+00 0. -1.
<scales pt_clust_3="46.75939" pt_clust_4="30.97070" pt_clust_5="95.79790" pt_clust_6="14000.00000"></scales>
<clustering>
<clus scale="   30.971">  2  4  1 -1</clus>
<clus scale="   46.759">  2  3  1 -1</clus>
<clus scale="   95.798">  2  5  1 -1</clus>
<clus scale="   30.971">  2  3  1 -1</clus>
</clustering>
</event>
<event>
 6    0  0.4017242E+002  0.1832767E+03  0.7546771E-02  0.1164669E+00
         21   -1    0    0  504  502  0.00000000000E+00  0.00000000000E+00  0.12918807327E+04  0.12918807327E+04  0.00000000000E+00 0. -1.
         -2   -1    0    0    0  501 -0.00000000000E+00 -0.00000000000E+00 -0.60102041669E+03  0.60102041669E+03  0.00000000000E+00 0. -1.
         21    1    1    2  503  502  0.29709735878E+02  0.13313431771E+02  0.57595155744E+03  0.57687096685E+03  0.00000000000E+00 0. -1.
         21    1    1    2  504  505  0.95738059217E+02 -0.18072366236E+01  0.14824971696E+03  0.17648518540E+03  0.00000000000E+00 0.  1.
         21    1    1    2  505  501 -0.23309856290E+03 -0.15701377716E+03  0.50151320015E+03  0.57489456091E+03  0.00000000000E+00 0.  1.
         -2    1    1    2    0  503  0.10765076781E+03  0.14550758201E+03 -0.53485415854E+03  0.56465043623E+03  0.00000000000E+00 0. -1.
<scales pt_clust_3="32.55635" pt_clust_4="102.48753" pt_clust_5="14000.00000" pt_clust_6="183.27672"></scales>
<clustering>
<clus scale="   32.556">  1  3  2 -1</clus>
<clus scale="  102.488">  1  4  2 -1</clus>
<clus scale="  183.277">  2  6  1 -1</clus>
<clus scale="   32.556">  1  3  2 -1</clus>
</clustering>
</event>
<event>
 6    0  0.4017242E+002  0.1329716E+03  0.7546771E-02  0.1223112E+00
          2   -1    0    0  504    0 -0.00000000000E+00  0.00000000000E+00  0.14719186347E+04  0.14719186347E+04  0.00000000000E+00 0.  1.
         21   -1    0    0  505  502  0.00000000000E+00 -0.00000000000E+00 -0.50178667123E+03  0.50178667123E+03  0.00000000000E+00 0. -1.
         21    1    1    2  503  502  0.10205660360E+03 -0.67502559862E+02 -0.46245621883E+03  0.47837004532E+03  0.00000000000E+00 0. -1.
         21    1    1    2  504  503 -0.14746160590E+03  0.67918221325E+02  0.33108926858E+03  0.36875183223E+03  0.00000000000E+00 0.  1.
         21    1    1    2  505  501  0.20838666392E+02  0.21589281323E+02  0.60144571517E+01  0.30602627009E+02  0.00000000000E+00 0. -1.
          2    1    1    2  501    0  0.24566335914E+02 -0.22004942786E+02  0.10954844566E+04  0.10959808014E+04  0.00000000000E+00 0.  1.
<scales pt_clust_3="14000.00000" pt_clust_4="132.97159" pt_clust_5="30.00578" pt_clust_6="32.98121"></scales>
<clustering>
<clus scale="   30.006">  2  5  1 -1</clus>
<clus scale="   32.981">  1  6  2 -1</clus>
<clus scale="  132.972">  1  4  2 -1</clus>
<clus scale="   30.006">  2  3  1 -1</clus>
</clustering>
</event>
<event>
 6    0  0.4017242E+002  0.8092057E+02  0.7546771E-02  0.1326459E+00
         21   -1    0    0  503  502  0.00000000000E+00  0.00000000000E+00  0.44034522111E+03  0.44034522111E+03  0.00000000000E+00 0.  1.
          2   -1    0    0  504    0 -0.00000000000E+00 -0.00000000000E+00 -0.18157848882E+04  0.18157848882E+04  0.00000000000E+00 0. -1.
         21    1    1    2  503  501  0.74271041199E+02 -0.72377353776E+02 -0.19548399691E+01  0.10372314255E+03  0.00000000000E+00 0. -1.
         21    1    1    2  504  505 -0.20390112584E+02  0.75717727030E+02  0.26057147973E+01  0.78458400617E+02  0.00000000000E+00 0. -1.
         21    1    1    2  505  502 -0.46500702998E+02  0.32296695797E+02  0.34643894738E+03  0.35103466524E+03  0.00000000000E+00 0.  1.
          2    1    1    2  501    0 -0.73802256172E+01 -0.35637069051E+02 -0.17225294893E+04  0.17229139009E+04  0.00000000000E+00 0. -1.
<scales pt_clust_3="14000.00000" pt_clust_4="80.92057" pt_clust_5="56.26997" pt_clust_6="36.39325"></scales>
<clustering>
<clus scale="   36.393">  2  6  1 -1</clus>
<clus scale="   56.270">  1  5  2 -1</clus>
<clus scale="   80.921">  2  4  1 -1</clus>
<clus scale="   56.270">  1  3  2 -1</clus>
</clustering>
</event>
<event>
 6    0  0.4017242E+002  0.8152718E+02  0.7546771E-02  0.1324773E+00
          2   -1    0    0  504    0 -0.00000000000E+00  0.00000000000E+00  0.29838247562E+04  0.29838247562E+04  0.00000000000E+00 0.  1.
         21   -1    0    0  501  502  0.00000000000E+00 -0.00000000000E+00 -0.29266934846E+03  0.29266934846E+03  0.00000000000E+00 0.  1.
         21    1    1    2  503  505 -0.57847769964E+02  0.59066716266E+02  0.39205004907E+02  0.91500130437E+02  0.00000000000E+00 0.  1.
         21    1    1    2  504  503  0.22391927009E+02 -0.55788345401E+02  0.61567190228E+00  0.60117525977E+02  0.00000000000E+00 0.  1.
         21    1    1    2  505  502  0.84101219587E+02  0.17978170811E+01 -0.22908507604E+03  0.24404142957E+03  0.00000000000E+00 0.  1.
          2    1    1    2  501    0 -0.48645376633E+02 -0.50761879464E+01  0.28804198070E+04  0.28808350187E+04  0.00000000000E+00 0.  1.
<scales pt_clust_3="14000.00000" pt_clust_4="57.84879" pt_clust_5="81.52718" pt_clust_6="48.90951"></scales>
<clustering>
<clus scale="   48.910">  1  6  2 -1</clus>
<clus scale="   57.849">  1  4  2 -1</clus>
<clus scale="   81.527">  2  5  1 -1</clus>
<clus scale="   81.527">  2  3  1 -1</clus>
</clustering>
</event>
<event>
 6    0  0.4017242E+002  0.1066119E+03  0.7546771E-02  0.1266976E+00
         21   -1    0    0  504  502  0.00000000000E+00  0.00000000000E+00  0.19687212865E+03  0.19687212865E+03  0.00000000000E+00 0.  1.
          2   -1    0    0  503    0 -0.00000000000E+00 -0.00000000000E+00 -0.11632454354E+03  0.11632454354E+03  0.00000000000E+00 0.  1.
         21    1    1    2  503  505  0.30575367240E+02  0.12024475426E+03  0.83548771175E+02  0.14957958141E+03  0.00000000000E+00 0.  1.
         21    1    1    2  504  501 -0.28206052085E+02 -0.35087001911E+02 -0.14739896131E+02  0.47370281984E+02  0.00000000000E+00 0.  1.
         21    1    1    2  505  502 -0.10680593757E+02 -0.31300887877E+02  0.42357263815E+02  0.53739728905E+02  0.00000000000E+00 0. -1.
          2    1    1    2  501    0  0.83112786029E+01 -0.53856864474E+02 -0.30618553747E+02  0.62507079891E+02  0.00000000000E+00 0.  1.
<scales pt_clust_3="98.27142" pt_clust_4="37.89092" pt_clust_5="33.07296" pt_clust_6="37.89092"></scales>
<clustering>
<clus scale="   33.073">  1  5  2 -1</clus>
<clus scale="   37.891">  4  6 -1 -1</clus>
<clus scale="   98.271">  1  3  2 -1</clus>
<clus scale="   33.073">  1  3  2 -1</clus>
</clustering>
</event>
<event>
 6    0  0.4017242E+002  0.1269248E+03  0.7546771E-02  0.1232091E+00
         21   -1    0    0  503  502  0.00000000000E+00  0.00000000000E+00  0.91271018325E+02  0.91271018325E+02  0.00000000000E+00 0.  1.
          1   -1    0    0  504    0 -0.00000000000E+00 -0.00000000000E+00 -0.78371859008E+03  0.78371859008E+03  0.00000000000E+00 0.  1.
         21    1    1    2  503  501 -0.15874025305E+02  0.15385955657E+03 -0.67351590741E+02  0.16870383695E+03  0.00000000000E+00 0.  1.
         21    1    1    2  504  505 -0.45437592764E+02 -0.88883663057E+02 -0.13584316831E+03  0.16857712411E+03  0.00000000000E+00 0.  1.
         21    1    1    2  505  502  0.35033296074E+02  0.16147281471E+02  0.24625850538E+01  0.38653988900E+02  0.00000000000E+00 0.  1.
          1    1    1    2  501    0  0.26278321995E+02 -0.81123174986E+02 -0.49171539776E+03  0.49905465845E+03  0.00000000000E+00 0.  1.
<scales pt_clust_3="126.92484" pt_clust_4="14000.00000" pt_clust_5="38.57547" pt_clust_6="85.05952"></scales>
<clustering>
<clus scale="   38.575">  1  5  2 -1</clus>
<clus scale="   85.060">  2  6  1 -1</clus>
<clus scale="  126.925">  1  3  2 -1</clus>
<clus scale="   38.575">  1  3  2 -1</clus>
</clustering>
</event>
<event>
 6    0  0.4017242E+002  0.1630961E+03  0.7546771E-02  0.1185245E+00
          2   -1    0    0  504    0 -0.00000000000E+00  0.00000000000E+00  0.26387248204E+04  0.26387248204E+04  0.00000000000E+00 0. -1.
         21   -1    0    0  503  502  0.00000000000E+00 -0.00000000000E+00 -0.13001739405E+03  0.13001739405E+03  0.00000000000E+00 0.  1.
         21    1    1    2  503  505 -0.21137360031E+02  0.58099667156E+02  0.52357699500E+02  0.81016590953E+02  0.00000000000E+00 0.  1.
         21    1    1    2  504  502 -0.44588099723E+02  0.28233839661E+01  0.93173222438E+02  0.10333111590E+03  0.00000000000E+00 0.  1.
         21    1    1    2  505  501 -0.96672400677E+02 -0.86973024683E+02 -0.68626655458E+02  0.14703563485E+03  0.00000000000E+00 0.  1.
          2    1    1    2  501    0  0.16239786043E+03  0.26049973560E+02  0.24318031599E+04  0.24373588727E+04  0.00000000000E+00 0. -1.
<scales pt_clust_3="64.05023" pt_clust_4="44.67740" pt_clust_5="14000.00000" pt_clust_6="163.09606"></scales>
<clustering>
<clus scale="   44.677">  2  4  1 -1</clus>
<clus scale="   64.050">  2  3  1 -1</clus>
<clus scale="  163.096">  1  6  2 -1</clus>
<clus scale="   44.677">  2  3  1 -1</clus>
</clustering>
</event>
<event>
 6    0  0.4017242E+002  0.9382045E+02  0.7546771E-02  0.1293855E+00
         -2   -1    0    0    0  501 -0.00000000000E+00  0.00000000000E+00  0.74221176496E+02  0.74221176496E+02  0.00000000000E+00 0.  1.
         21   -1    0    0  505  502  0.00000000000E+00 -0.00000000000E+00 -0.89793970517E+03  0.89793970517E+03  0.00000000000E+00 0. -1.
         21    1    1    2  503  501 -0.47138371245E+02 -0.28661067018E+01 -0.54968125360E+02  0.72468858255E+02  0.00000000000E+00 0. -1.
         21    1    1    2  504  502  0.10572333691E+03  0.27457553325E+02 -0.17647262085E+03  0.20754259108E+03  0.00000000000E+00 0. -1.
         21    1    1    2  505  503 -0.76329565629E+02 -0.50573367642E+02 -0.63361709172E+03  0.64019878712E+03  0.00000000000E+00 0. -1.
         -2    1    1    2    0  504  0.17744599962E+02  0.25981921019E+02  0.41339309262E+02  0.51950645211E+02  0.00000000000E+00 0.  1.
<scales pt_clust_3="41.85473" pt_clust_4="93.82045" pt_clust_5="14000.00000" pt_clust_6="31.46317"></scales>
<clustering>
<clus scale="   31.463">  1  6  2 -1</clus>
<clus scale="   41.855">  1  3  2 -1</clus>
<clus scale="   93.820">  1  4  2 -1</clus>
<clus scale="   93.820">  2  3  1 -1</clus>
</clustering>
</event>
<event>
 6    0  0.4017242E+002  0.1093468E+03  0.7546771E-02  0.1261784E+00
         21   -1    0    0  505  502  0.00000000000E+00  0.00000000000E+00  0.92414777239E+02  0.92414777239E+02  0.00000000000E+00 0. -1.
          2   -1    0    0  504    0 -0.00000000000E+00 -0.00000000000E+00 -0.55279899660E+03  0.55279899660E+03  0.00000000000E+00 0. -1.
         21    1    1    2  503  501  0.10785694529E+02  0.35652767312E+02  0.29277132050E+02  0.47377225378E+02  0.00000000000E+00 0. -1.
         21    1    1    2  504  502 -0.11800827299E+02  0.65322567427E+02 -0.25049983076E+02  0.70949270555E+02  0.00000000000E+00 0. -1.
         21    1    1    2  505  503 -0.21911680112E+02  0.21103861233E+02  0.13223523415E+02  0.33171618226E+02  0.00000000000E+00 0. -1.
          2    1    1    2  501    0  0.22926812882E+02 -0.12207919597E+03 -0.47783489175E+03  0.49371565968E+03  0.00000000000E+00 0. -1.
<scales pt_clust_3="47.35764" pt_clust_4="14000.00000" pt_clust_5="30.42194" pt_clust_6="109.34678"></scales>
<clustering>
<clus scale="   30.422">  1  5  2 -1</clus>
<clus scale="   47.358">  1  3  2 -1</clus>
<clus scale="  109.347">  2  6  1 -1</clus>
<clus scale="   30.422">  1  3  2 -1</clus>
</clustering>
</event>
<event>
 6    0  0.4017242E+002  0.8398071E+02  0.7546771E-02  0.1318120E+00
          1   -1    0    0  504    0 -0.00000000000E+00  0.00000000000E+00  0.82939119532E+02  0.82939119532E+02  0.00000000000E+00 0.  1.
         21   -1    0    0  503  502  0.00000000000E+00 -0.00000000000E+00 -0.19247259014E+04  0.19247259014E+04  0.00000000000E+00 0.  1.
         21    1    1    2  503  501  0.54102480953E+02 -0.89778251242E+01 -0.12912057090E+03  0.14028471627E+03  0.00000000000E+00 0.  1.
         21    1    1    2  504  505 -0.52688714316E+02  0.74848512246E+02 -0.71635322124E+03  0.72217749756E+03  0.00000000000E+00 0.  1.
         21    1    1    2  505  502  0.31934847488E+02 -0.74074152045E+02 -0.10651893642E+04  0.10682392972E+04  0.00000000000E+00 0.  1.
          1    1    1    2  501    0 -0.33348614124E+02  0.82034649233E+01  0.68876374454E+02  0.76963509917E+02  0.00000000000E+00 0.  1.
<scales pt_clust_3="35.79504" pt_clust_4="14000.00000" pt_clust_5="83.98071" pt_clust_6="34.34279"></scales>
<clustering>
<clus scale="   34.343">  1  6  2 -1</clus>
<clus scale="   35.795">  1  3  2 -1</clus>
<clus scale="   83.981">  2  5  1 -1</clus>
<clus scale="   83.981">  2  3  1 -1</clus>
</clustering>
</event>
<event>
 6    0  0.4017242E+002  0.8160442E+02  0.7546771E-02  0.1324559E+00
         21   -1    0    0  504  502  0.00000000000E+00  0.00000000000E+00  0.17483955960E+04  0.17483955960E+04  0.00000000000E+00 0. -1.
          1   -1    0    0  505    0 -0.00000000000E+00 -0.00000000000E+00 -0.17342818511E+03  0.17342818511E+03  0.00000000000E+00 0. -1.
         21    1    1    2  503  501  0.31493969628E+02 -0.90817360155E+02  0.11824263796E+04  0.11863270233E+04  0.00000000000E+00 0. -1.
         21    1    1    2  504  503 -0.21350602257E+01  0.37362596759E+02  0.29404876903E+03  0.29642064821E+03  0.00000000000E+00 0.  1.
         21    1    1    2  505  502 -0.48618126362E+02 -0.25850031850E+02  0.25590707898E+03  0.26176397657E+03  0.00000000000E+00 0.  1.
          1    1    1    2  501    0  0.19259216960E+02  0.79304795246E+02 -0.15741481674E+03  0.17731213302E+03  0.00000000000E+00 0. -1.
<scales pt_clust_3="81.60442" pt_clust_4="37.42355" pt_clust_5="52.62409" pt_clust_6="14000.00000"></scales>
<clustering>
<clus scale="   37.424">  1  4  2 -1</clus>
<clus scale="   52.624">  1  5  2 -1</clus>
<clus scale="   81.604">  1  3  2 -1</clus>
<clus scale="   37.424">  1  3  2 -1</clus>
</clustering>
</event>
<event>
 6    0  0.4017242E+002  0.9317059E+02  0.7546771E-02  0.1295350E+00
          1   -1    0    0  505    0 -0.00000000000E+00  0.00000000000E+00  0.91252054796E+03  0.91252054796E+03  0.00000000000E+00 0.  1.
         21   -1    0    0  503  502  0.00000000000E+00 -0.00000000000E+00 -0.52053143028E+03  0.52053143028E+03  0.00000000000E+00 0.  1.
         21    1    1    2  503  501  0.15563078282E+02  0.36754109110E+02 -0.61504717749E+02  0.73320558150E+02  0.00000000000E+00 0.  1.
         21    1    1    2  504  502  0.36937578238E+02  0.41462643244E+02 -0.31258558139E+03  0.31747957598E+03  0.00000000000E+00 0.  1.
         21    1    1    2  505  504 -0.48817976611E+02 -0.12999126580E+03 -0.10220676383E+03  0.17241562167E+03  0.00000000000E+00 0. -1.
          1    1    1    2  501    0 -0.36826799090E+01  0.51774513447E+02  0.86828618064E+03  0.86983622244E+03  0.00000000000E+00 0.  1.
<scales pt_clust_3="39.91333" pt_clust_4="14000.00000" pt_clust_5="93.17059" pt_clust_6="51.96615"></scales>
<clustering>
<clus scale="   39.913">  2  3  1 -1</clus>
<clus scale="   51.966">  1  6  2 -1</clus>
<clus scale="   93.171">  1  5  2 -1</clus>
<clus scale="   39.913">  2  3  1 -1</clus>
</clustering>
</event>
<event>
 6    0  0.4017242E+002  0.2507223E+03  0.7546771E-02  0.1112849E+00
         -1   -1    0    0    0  501 -0.00000000000E+00  0.00000000000E+00  0.27844673706E+03  0.27844673706E+03  0.00000000000E+00 0. -1.
         21   -1    0    0  504  502  0.00000000000E+00 -0.00000000000E+00 -0.84049227787E+03  0.84049227787E+03  0.00000000000E+00 0. -1.
         21    1    1    2  503  505 -0.14594404238E+03  0.13433861309E+03 -0.22081397918E+03  0.29682543670E+03  0.00000000000E+00 0. -1.
         21    1    1    2  504  503  0.19745702046E+03 -0.13945574064E+03 -0.53774602606E+03  0.58958287549E+03  0.00000000000E+00 0. -1.
         21    1    1    2  505  501 -0.24140802527E+02  0.22326209479E+02 -0.49481539928E+00  0.32885906078E+02  0.00000000000E+00 0. -1.
         -1    1    1    2    0  502 -0.27372175558E+02 -0.17209081937E+02  0.19700927983E+03  0.19964479666E+03  0.00000000000E+00 0. -1.
<scales pt_clust_3="32.21183" pt_clust_4="237.91262" pt_clust_5="32.21183" pt_clust_6="32.33247"></scales>
<clustering>
<clus scale="   32.212">  3  5 -1 -1</clus>
<clus scale="   32.332">  1  6  2 -1</clus>
<clus scale="  237.913">  2  4  1 -1</clus>
<clus scale="  237.913">  2  3  1 -1</clus>
</clustering>
</event>
<event>
 6    0  0.4017242E+002  0.1389789E+03  0.7546771E-02  0.1214710E+00
         21   -1    0    0  505  502  0.00000000000E+00  0.00000000000E+00  0.93721854954E+02  0.93721854954E+02  0.00000000000E+00 0.  1.
          1   -1    0    0  504    0 -0.00000000000E+00 -0.00000000000E+00 -0.84007722221E+03  0.84007722221E+03  0.00000000000E+00 0. -1.
         21    1    1    2  503  502  0.43883377852E+01  0.81719106736E+02 -0.60414199822E+02  0.10172091945E+03  0.00000000000E+00 0.  1.
         21    1    1    2  504  503 -0.29931764515E+02  0.50485708178E+02 -0.76412404327E+01  0.59187040918E+02  0.00000000000E+00 0.  1.
         21    1    1    2  505  501 -0.55236564012E+02 -0.32819328168E+02  0.16540548858E+02  0.66345882026E+02  0.00000000000E+00 0.  1.
          1    1    1    2  501    0  0.80779990742E+02 -0.99385486746E+02 -0.69484047586E+03  0.70654523477E+03  0.00000000000E+00 0. -1.
<scales pt_clust_3="47.37334" pt_clust_4="47.37334" pt_clust_5="64.25096" pt_clust_6="127.22378"></scales>
<clustering>
<clus scale="   47.373">  3  4 -1 -1</clus>
<clus scale="   64.251">  1  5  2 -1</clus>
<clus scale="  127.224">  2  6  1 -1</clus>
<clus scale="   64.251">  1  3  2 -1</clus>
</clustering>
</event>
<event>
 6    0  0.4017242E+002  0.1693031E+03  0.7546771E-02  0.1178577E+00
          2   -1    0    0  504    0 -0.00000000000E+00  0.00000000000E+00  0.28372558073E+03  0.28372558073E+03  0.00000000000E+00 0.  1.
         21   -1    0    0  503  502  0.00000000000E+00 -0.00000000000E+00 -0.16745396145E+04  0.16745396145E+04  0.00000000000E+00 0. -1.
         21    1    1    2  503  505 -0.10462362394E+03  0.91542482868E+02 -0.77778716328E+03  0.79011328315E+03  0.00000000000E+00 0. -1.
         21    1    1    2  504  502  0.38270293795E+02  0.32601395482E+01 -0.56675875205E+03  0.56805873545E+03  0.00000000000E+00 0. -1.
         21    1    1    2  505  501 -0.57347164138E+02  0.65467497189E+01 -0.29708103305E+03  0.30263624595E+03  0.00000000000E+00 0. -1.
          2    1    1    2  501    0  0.12370049429E+03 -0.10134937213E+03  0.25081291456E+03  0.29745693071E+03  0.00000000000E+00 0.  1.
<scales pt_clust_3="34.72270" pt_clust_4="38.40890" pt_clust_5="34.72270" pt_clust_6="160.49826"></scales>
<clustering>
<clus scale="   34.723">  3  5 -1 -1</clus>
<clus scale="   38.409">  2  4  1 -1</clus>
<clus scale="  160.498">  1  6  2 -1</clus>
<clus scale="   38.409">  2  3  1 -1</clus>
</clustering>
</event>
<event>
 6    0  0.4017242E+002  0.1148396E+03  0.7546771E-02  0.1251861E+00
         21   -1    0    0  504  502  0.00000000000E+00  0.00000000000E+00  0.37918058084E+03  0.37918058084E+03  0.00000000000E+00 0.  1.
          2   -1    0    0  503    0 -0.00000000000E+00 -0.00000000000E+00 -0.15006611236E+03  0.15006611236E+03  0.00000000000E+00 0. -1.
         21    1    1    2  503  505  0.54824640183E+02 -0.60014343234E+01  0.60686054232E+02  0.82003387512E+02  0.00000000000E+00 0.  1.
         21    1    1    2  504  501 -0.12118125449E+03 -0.34706139213E+02  0.23473041613E+03  0.26643532198E+03  0.00000000000E+00 0.  1.
         21    1    1    2  505  502  0.26979194924E+02  0.29121716779E+02  0.46281817287E+02  0.60975060134E+02  0.00000000000E+00 0.  1.
          2    1    1    2  501    0  0.39377419385E+02  0.11585856757E+02 -0.11258381917E+03  0.11983292358E+03  0.00000000000E+00 0. -1.
<scales pt_clust_3="35.73696" pt_clust_4="106.83553" pt_clust_5="35.73696" pt_clust_6="41.04648"></scales>
<clustering>
<clus scale="   35.737">  3  5 -1 -1</clus>
<clus scale="   41.046">  2  6  1 -1</clus>
<clus scale="  106.836">  1  4  2 -1</clus>
<clus scale="  106.836">  1  3  2 -1</clus>
</clustering>
</event>
<event>
 6    0  0.4017242E+002  0.8924581E+02  0.7546771E-02  0.1304688E+00
         21   -1    0    0  504  502  0.00000000000E+00  0.00000000000E+00  0.34988741539E+03  0.34988741539E+03  0.00000000000E+00 0. -1.
          1   -1    0    0  503    0 -0.00000000000E+00 -0.00000000000E+00 -0.10855065714E+04  0.10855065714E+04  0.00000000000E+00 0.  1.
         21    1    1    2  503  505  0.38452422034E+02 -0.27326294500E+02 -0.11331840621E+03  0.12274516820E+03  0.00000000000E+00 0.  1.
         21    1    1    2  504  501  0.66661401131E+02  0.87801773253E+02 -0.18409551536E+03  0.21457877939E+03  0.00000000000E+00 0.  1.
         21    1    1    2  505  502 -0.78191856016E+02  0.70726583098E+01  0.32350563551E+03  0.33289620762E+03  0.00000000000E+00 0. -1.
          1    1    1    2  501    0 -0.26921967148E+02 -0.67548137063E+02 -0.76171086990E+03  0.76517383153E+03  0.00000000000E+00 0.  1.
<scales pt_clust_3="47.17325" pt_clust_4="89.24581" pt_clust_5="78.31336" pt_clust_6="14000.00000"></scales>
<clustering>
<clus scale="   47.173">  2  3  1 -1</clus>
<clus scale="   78.313">  1  5  2 -1</clus>
<clus scale="   89.246">  1  4  2 -1</clus>
<clus scale="   78.313">  1  3  2 -1</clus>
</clustering>
</event>
<event>
 6    0  0.4017242E+002  0.3531152E+03  0.7546771E-02  0.1061344E+00
         -1   -1    0    0    0  501 -0.00000000000E+00  0.00000000000E+00  0.63513393887E+03  0.63513393887E+03  0.00000000000E+00 0. -1.
         21   -1    0    0  503  502  0.00000000000E+00 -0.00000000000E+00 -0.62277252390E+03  0.62277252390E+03  0.00000000000E+00 0. -1.
         21    1    1    2  503  504  0.90141940472E+02 -0.24982816722E+03 -0.26862057686E+03  0.37775216330E+03  0.00000000000E+00 0. -1.
         21    1    1    2  504  501 -0.61548282329E+02 -0.11186617786E+03 -0.11008515375E+03  0.16858521253E+03  0.00000000000E+00 0.  1.
         21    1    1    2  505  502  0.73315726694E+02  0.63902654428E+02 -0.92743496126E+02  0.13438787556E+03  0.00000000000E+00 0. -1.
         -1    1    1    2    0  505 -0.10190938484E+03  0.29779169065E+03  0.48381064171E+03  0.57718121138E+03  0.00000000000E+00 0. -1.
<scales pt_clust_3="98.29843" pt_clust_4="98.29843" pt_clust_5="97.25608" pt_clust_6="318.22048"></scales>
<clustering>
<clus scale="   97.256">  2  5  1 -1</clus>
<clus scale="   98.298">  3  4 -1 -1</clus>
<clus scale="  318.220">  1  6  2 -1</clus>
<clus scale="   97.256">  2  3  1 -1</clus>
</clustering>
</event>
<event>
 6    0  0.4017242E+002  0.9056245E+02  0.7546771E-02  0.1301495E+00
         21   -1    0    0  505  502  0.00000000000E+00  0.00000000000E+00  0.28492133137E+03  0.28492133137E+03  0.00000000000E+00 0. -1.
         -2   -1    0    0    0  501 -0.00000000000E+00 -0.00000000000E+00 -0.85950272988E+03  0.85950272988E+03  0.00000000000E+00 0.  1.
         21    1    1    2  503  504 -0.46081726756E+02 -0.38761346252E+02 -0.23108871296E+02  0.64497964593E+02  0.00000000000E+00 0.  1.
         21    1    1    2  504  502 -0.11489578588E+02  0.34542661392E+02  0.17477695799E+03  0.17852784353E+03  0.00000000000E+00 0. -1.
         21    1    1    2  505  501  0.10913304243E+03  0.77316331683E+02  0.32301701913E+02  0.13759082833E+03  0.00000000000E+00 0. -1.
         -2    1    1    2    0  503 -0.51561737087E+02 -0.73097646823E+02 -0.75855118711E+03  0.76380742479E+03  0.00000000000E+00 0.  1.
<scales pt_clust_3="58.00812" pt_clust_4="36.40338" pt_clust_5="14000.00000" pt_clust_6="90.56245"></scales>
<clustering>
<clus scale="   36.403">  1  4  2 -1</clus>
<clus scale="   58.008">  1  3  2 -1</clus>
<clus scale="   90.562">  2  6  1 -1</clus>
<clus scale="   36.403">  1  3  2 -1</clus>
</clustering>
</event>
<event>
 6    0  0.4017242E+002  0.7467329E+02  0.7546771E-02  0.1344886E+00
         21   -1    0    0  505  502  0.00000000000E+00  0.00000000000E+00  0.79914283700E+03  0.79914283700E+03  0.00000000000E+00 0. -1.
         -1   -1    0    0    0  501 -0.00000000000E+00 -0.00000000000E+00 -0.10491504826E+03  0.10491504826E+03  0.00000000000E+00 0. -1.
         21    1    1    2  503  501  0.55330256182E+02 -0.51280259093E+02  0.11811799251E+03  0.14015335307E+03  0.00000000000E+00 0. -1.
         21    1    1    2  504  503  0.63103087743E+02 -0.45897957195E+00  0.18349782211E+03  0.19404551287E+03  0.00000000000E+00 0. -1.
         21    1    1    2  505  504 -0.81969525152E+02  0.12846249960E+02  0.46923483721E+03  0.47651375808E+03  0.00000000000E+00 0. -1.
         -1    1    1    2    0  502 -0.36463818773E+02  0.38892988705E+02 -0.76622863084E+02  0.93345261246E+02  0.00000000000E+00 0. -1.
<scales pt_clust_3="46.08738" pt_clust_4="14000.00000" pt_clust_5="74.67329" pt_clust_6="53.31299"></scales>
<clustering>
<clus scale="   53.313">  2  6  1 -1</clus>
<clus scale="   46.087">  2  3  1 -1</clus>
<clus scale="   74.673">  1  5  2 -1</clus>
<clus scale="   74.673">  1  3  2 -1</clus>
</clustering>
</event>
<event>
 6    0  0.4017242E+002  0.1169172E+03  0.7546771E-02  0.1248271E+00
          1   -1    0    0  504    0 -0.00000000000E+00  0.00000000000E+00  0.10451004779E+04  0.10451004779E+04  0.00000000000E+00 0.  1.
         21   -1    0    0  503  502  0.00000000000E+00 -0.00000000000E+00 -0.20770521217E+02  0.20770521217E+02  0.00000000000E+00 0.  1.
         21    1    1    2  503  501  0.27361002546E+02  0.23333859291E+02  0.43154993520E+02  0.56173364822E+02  0.00000000000E+00 0.  1.
         21    1    1    2  504  505 -0.65404835303E+02 -0.28508321653E+02  0.30488524434E+03  0.31312222709E+03  0.00000000000E+00 0.  1.
         21    1    1    2  505  502 -0.62397257941E+02  0.26170529599E+01  0.18952723719E+03  0.19955159834E+03  0.00000000000E+00 0.  1.
          1    1    1    2  501    0  0.10044109070E+03  0.25574094019E+01  0.48676248161E+03  0.49702380883E+03  0.00000000000E+00 0.  1.
<scales pt_clust_3="35.95961" pt_clust_4="34.84367" pt_clust_5="34.84367" pt_clust_6="110.82697"></scales>
<clustering>
<clus scale="   34.844">  4  5 -1 -1</clus>
<clus scale="   35.960">  2  3  1 -1</clus>
<clus scale="  110.827">  1  6  2 -1</clus>
<clus scale="   35.960">  2  3  1 -1</clus>
</clustering>
</event>
<event>
 6    0  0.4017242E+002  0.8668443E+02  0.7546771E-02  0.1311085E+00
          1   -1    0    0  503    0 -0.00000000000E+00  0.00000000000E+00  0.18341300996E+04  0.18341300996E+04  0.00000000000E+00 0.  1.
         21   -1    0    0  504  502  0.00000000000E+00 -0.00000000000E+00 -0.13108508827E+03  0.13108508827E+03  0.00000000000E+00 0. -1.
         21    1    1    2  503  505 -0.87571904232E+01  0.33562707436E+02  0.86239943329E+02  0.92954136756E+02  0.00000000000E+00 0. -1.
         21    1    1    2  504  501 -0.14595834019E+02 -0.35930977079E+02 -0.11618189745E+03  0.12248390417E+03  0.00000000000E+00 0. -1.
         21    1    1    2  505  502  0.94177295110E+02  0.42667986495E+02  0.36488492113E+03  0.37925047878E+03  0.00000000000E+00 0.  1.
          1    1    1    2  501    0 -0.70824270668E+02 -0.40299716852E+02  0.13681020443E+04  0.13705266681E+04  0.00000000000E+00 0.  1.
<scales pt_clust_3="34.68636" pt_clust_4="38.73219" pt_clust_5="86.68443" pt_clust_6="14000.00000"></scales>
<clustering>
<clus scale="   34.686">  1  3  2 -1</clus>
<clus scale="   38.732">  2  4  1 -1</clus>
<clus scale="   86.684">  2  5  1 -1</clus>
<clus scale="   38.732">  2  3  1 -1</clus>
</clustering>
</event>
<event>
 6    0  0.4017242E+002  0.1006723E+03  0.7546771E-02  0.1278889E+00
          1   -1    0    0  505    0 -0.00000000000E+00  0.00000000000E+00  0.55853196611E+03  0.55853196611E+03  0.00000000000E+00 0. -1.
         21   -1    0    0  504  502  0.00000000000E+00 -0.00000000000E+00 -0.98256112808E+03  0.98256112808E+03  0.00000000000E+00 0. -1.
         21    1    1    2  503  501  0.13515842246E+02 -0.70131689587E+02 -0.23550719724E+03  0.24609910977E+03  0.00000000000E+00 0. -1.
         21    1    1    2  504  503  0.57145714572E+02  0.20088234041E+02 -0.15984492634E+03  0.17093732863E+03  0.00000000000E+00 0. -1.
         21    1    1    2  505  502 -0.11469347329E+02  0.13148319790E+03 -0.56405711704E+03  0.57929250690E+03  0.00000000000E+00 0. -1.
          1    1    1    2  501    0 -0.59192209489E+02 -0.81439742350E+02  0.53538007866E+03  0.54476414890E+03  0.00000000000E+00 0. -1.
<scales pt_clust_3="71.02570" pt_clust_4="60.57367" pt_clust_5="100.67225" pt_clust_6="14000.00000"></scales>
<clustering>
<clus scale="   60.574">  2  4  1 -1</clus>
<clus scale="   71.026">  2  3  1 -1</clus>
<clus scale="  100.672">  2  5  1 -1</clus>
<clus scale="   60.574">  2  3  1 -1</clus>
</clustering>
</event>
<event>
 6    0  0.4017242E+002  0.1314722E+03  0.7546771E-02  0.1225287E+00
          2   -1    0    0  504    0 -0.00000000000E+00  0.00000000000E+00  0.63648213897E+03  0.63648213897E+03  0.00000000000E+00 0.  1.
         21   -1    0    0  503  502  0.00000000000E+00 -0.00000000000E+00 -0.12279602150E+03  0.12279602150E+03  0.00000000000E+00 0.  1.
         21    1    1    2  503  501 -0.36398140988E+02 -0.13578547560E+02  0.17250910680E+02  0.42506417639E+02  0.00000000000E+00 0.  1.
         21    1    1    2  504  505  0.30910719228E+02  0.33273316755E+01  0.33225688301E+02  0.45502637972E+02  0.00000000000E+00 0. -1.
         21    1    1    2  505  502 -0.23082565724E+02 -0.10932068545E+03 -0.64782643519E+02  0.12915342817E+03  0.00000000000E+00 0.  1.
          2    1    1    2  501    0  0.28569987483E+02  0.11957190133E+03  0.52799216200E+03  0.54211567669E+03  0.00000000000E+00 0.  1.
<scales pt_clust_3="37.34307" pt_clust_4="31.08929" pt_clust_5="131.47223" pt_clust_6="14000.00000"></scales>
<clustering>
<clus scale="   31.089">  1  4  2 -1</clus>
<clus scale="   37.343">  2  3  1 -1</clus>
<clus scale="  131.472">  2  5  1 -1</clus>
<clus scale="   37.343">  2  3  1 -1</clus>
</clustering>
</event>
<event>
 6    0  0.4017242E+002  0.1842156E+03  0.7546771E-02  0.1163784E+00
         21   -1    0    0  503  502  0.00000000000E+00  0.00000000000E+00  0.15216990280E+04  0.15216990280E+04  0.00000000000E+00 0. -1.
          2   -1    0    0  504    0 -0.00000000000E+00 -0.00000000000E+00 -0.10250414576E+04  0.10250414576E+04  0.00000000000E+00 0.  1.
         21    1    1    2  503  505 -0.60239966764E+02 -0.82480898844E+02  0.78780997751E+03  0.79440324328E+03  0.00000000000E+00 0. -1.
         21    1    1    2  504  502  0.20156088403E+02  0.67674254213E+02  0.16165035907E+03  0.17639986160E+03  0.00000000000E+00 0. -1.
         21    1    1    2  505  501 -0.58740967342E+02 -0.11995424916E+03  0.54658831449E+03  0.56267069292E+03  0.00000000000E+00 0. -1.
          2    1    1    2  501    0  0.98824845704E+02  0.13476089379E+03 -0.99939108067E+03  0.10132666879E+04  0.00000000000E+00 0.  1.
<scales pt_clust_3="67.13762" pt_clust_4="70.61213" pt_clust_5="67.13762" pt_clust_6="167.45436"></scales>
<clustering>
<clus scale="   67.138">  3  5 -1 -1</clus>
<clus scale="   70.612">  1  4  2 -1</clus>
<clus scale="  167.454">  2  6  1 -1</clus>
<clus scale="   70.612">  1  3  2 -1</clus>
</clustering>
</event>
<event>
 6    0  0.4017242E+002  0.1501762E+03  0.7546771E-02  0.1200257E+00
          1   -1    0    0  503    0 -0.00000000000E+00  0.00000000000E+00  0.20158952801E+04  0.20158952801E+04  0.00000000000E+00 0. -1.
         21   -1    0    0  505  502  0.00000000000E+00 -0.00000000000E+00 -0.32186964432E+03  0.32186964432E+03  0.00000000000E+00 0. -1.
         21    1    1    2  503  502 -0.18544668622E+03  0.11847941084E+03 -0.10086575153E+03  0.24207797102E+03  0.00000000000E+00 0. -1.
         21    1    1    2  504  501  0.11203427155E+03  0.21124988625E+02  0.35304493759E+02  0.11934969806E+03  0.00000000000E+00 0.  1.
         21    1    1    2  505  504  0.10439331134E+03 -0.55338289945E+02 -0.74744066281E+02  0.13981046181E+03  0.00000000000E+00 0. -1.
          1    1    1    2  501    0 -0.30980896679E+02 -0.84266109522E+02  0.18343309599E+04  0.18365267936E+04  0.00000000000E+00 0. -1.
<scales pt_clust_3="150.17618" pt_clust_4="99.88933" pt_clust_5="14000.00000" pt_clust_6="89.78081"></scales>
<clustering>
<clus scale="   89.781">  1  6  2 -1</clus>
<clus scale="   99.889">  1  4  2 -1</clus>
<clus scale="  150.176">  1  3  2 -1</clus>
<clus scale="  150.176">  2  3  1 -1</clus>
</clustering>
</event>
<event>
 6    0  0.4017242E+002  0.8855418E+02  0.7546771E-02  0.1306391E+00
          2   -1    0    0  505    0 -0.00000000000E+00  0.00000000000E+00  0.58035540102E+03  0.58035540102E+03  0.00000000000E+00 0.  1.
         21   -1    0    0  504  502  0.00000000000E+00 -0.00000000000E+00 -0.25315304175E+03  0.25315304175E+03  0.00000000000E+00 0.  1.
         21    1    1    2  503  501 -0.37225546528E+02  0.10230805158E+03 -0.50404011475E+02  0.11997184297E+03  0.00000000000E+00 0.  1.
         21    1    1    2  504  503 -0.47456940558E+02 -0.20508264303E+01 -0.13505033161E+03  0.14316060619E+03  0.00000000000E+00 0.  1.
         21    1    1    2  505  502  0.37210721242E+02 -0.26418072362E+02 -0.44683705251E+01  0.45853229525E+02  0.00000000000E+00 0.  1.
          2    1    1    2  501    0  0.47471765844E+02 -0.73839152786E+02  0.51712507289E+03  0.52452276409E+03  0.00000000000E+00 0.  1.
<scales pt_clust_3="14000.00000" pt_clust_4="30.70602" pt_clust_5="45.63499" pt_clust_6="88.55418"></scales>
<clustering>
<clus scale="   45.635">  2  5  1 -1</clus>
<clus scale="   30.706">  2  4  1 -1</clus>
<clus scale="   88.554">  1  6  2 -1</clus>
<clus scale="   45.635">  2  3  1 -1</clus>
</clustering>
</event>
<event>
 6    0  0.4017242E+002  0.1411877E+03  0.7546771E-02  0.1211740E+00
         21   -1    0    0  504  502  0.00000000000E+00  0.00000000000E+00  0.10930354433E+04  0.10930354433E+04  0.00000000000E+00 0. -1.
          2   -1    0    0  503    0 -0.00000000000E+00 -0.00000000000E+00 -0.19775667671E+04  0.19775667671E+04  0.00000000000E+00 0. -1.
         21    1    1    2  503  505  0.66236954394E+02 -0.16225152011E+03 -0.34902373850E+02  0.17869265683E+03  0.00000000000E+00 0. -1.
         21    1    1    2  504  501 -0.48285343631E+02  0.12615953981E+03  0.71305618025E+03  0.72573880983E+03  0.00000000000E+00 0. -1.
         21    1    1    2  505  502 -0.29020556013E+02 -0.98637013866E+01  0.30066390946E+03  0.30222222243E+03  0.00000000000E+00 0. -1.
          2    1    1    2  501    0  0.11068945250E+02  0.45955681692E+02 -0.18633490397E+04  0.18639485213E+04  0.00000000000E+00 0. -1.
<scales pt_clust_3="14000.00000" pt_clust_4="141.18767" pt_clust_5="30.65102" pt_clust_6="47.26373"></scales>
<clustering>
<clus scale="   30.651">  1  5  2 -1</clus>
<clus scale="   47.264">  2  6  1 -1</clus>
<clus scale="  141.188">  1  4  2 -1</clus>
<clus scale="   30.651">  1  3  2 -1</clus>
</clustering>
</event>
<event>
 6    0  0.4017242E+002  0.3311944E+03  0.7546771E-02  0.1070610E+00
          2   -1    0    0  502    0 -0.00000000000E+00  0.00000000000E+00  0.14906741644E+04  0.14906741644E+04  0.00000000000E+00 0. -1.
         21   -1    0    0  503  502  0.00000000000E+00 -0.00000000000E+00 -0.32414890190E+03  0.32414890190E+03  0.00000000000E+00 0.  1.
         21    1    1    2  503  505  0.10721476423E+03 -0.11718832150E+03  0.82644149166E+02  0.17904793703E+03  0.00000000000E+00 0. -1.
         21    1    1    2  504  501 -0.21329901121E+03  0.71421896881E+02 -0.42092317594E+02  0.22884343717E+03  0.00000000000E+00 0.  1.
         21    1    1    2  505  504 -0.21190112913E+03  0.80345939104E+02 -0.99428457449E+01  0.22684007283E+03  0.00000000000E+00 0.  1.
          2    1    1    2  501    0  0.31798537611E+03 -0.34579514485E+02  0.11359162766E+04  0.11800916192E+04  0.00000000000E+00 0. -1.
<scales pt_clust_3="158.83359" pt_clust_4="33.21017" pt_clust_5="33.21017" pt_clust_6="329.51263"></scales>
<clustering>
<clus scale="   33.210">  4  5 -1 -1</clus>
<clus scale="  158.834">  2  3  1 -1</clus>
<clus scale="  329.513">  1  6  2 -1</clus>
<clus scale="  158.834">  2  3  1 -1</clus>
</clustering>
</event>
<event>
 6    0  0.4017242E+002  0.1807375E+03  0.7546771E-02  0.1167091E+00
          1   -1    0    0  503    0 -0.00000000000E+00  0.00000000000E+00  0.35117369855E+03  0.35117369855E+03  0.00000000000E+00 0. -1.
         21   -1    0    0  505  502  0.00000000000E+00 -0.00000000000E+00 -0.54802092547E+03  0.54802092547E+03  0.00000000000E+00 0.  1.
         21    1    1    2  503  502 -0.30197286851E+02  0.20821854348E+02 -0.22659272652E+01  0.36749968408E+02  0.00000000000E+00 0. -1.
         21    1    1    2  504  501  0.70425939858E+02  0.13017881598E+03 -0.56065764008E+02  0.15827099238E+03  0.00000000000E+00 0. -1.
         21    1    1    2  505  504 -0.12729260392E+03 -0.15008697223E+03 -0.39065443784E+03  0.43742473186E+03  0.00000000000E+00 0.  1.
          1    1    1    2  501    0  0.87063950912E+02 -0.91369809785E+00  0.25213890218E+03  0.26674893137E+03  0.00000000000E+00 0. -1.
<scales pt_clust_3="36.68005" pt_clust_4="14000.00000" pt_clust_5="180.73755" pt_clust_6="65.40842"></scales>
<clustering>
<clus scale="   36.680">  1  3  2 -1</clus>
<clus scale="   65.408">  1  6  2 -1</clus>
<clus scale="  180.738">  2  5  1 -1</clus>
<clus scale="  180.738">  2  3  1 -1</clus>
</clustering>
</event>
<event>
 6    0  0.4017242E+002  0.1342937E+03  0.7546771E-02  0.1221220E+00
          1   -1    0    0  504    0 -0.00000000000E+00  0.00000000000E+00  0.20040687270E+04  0.20040687270E+04  0.00000000000E+00 0. -1.
         21   -1    0    0  501  502  0.00000000000E+00 -0.00000000000E+00 -0.29325631953E+03  0.29325631953E+03  0.00000000000E+00 0. -1.
         21    1    1    2  503  505  0.20264015192E+02 -0.11605371220E+03  0.94254246940E+02  0.15087397885E+03  0.00000000000E+00 0. -1.
         21    1    1    2  504  503  0.23916949396E+02  0.39639078640E+02  0.95407531572E+03  0.95519787745E+03  0.00000000000E+00 0. -1.
         21    1    1    2  505  502  0.35298113306E+02 -0.15443579211E+02 -0.25897410462E+03  0.26182445991E+03  0.00000000000E+00 0. -1.
          1    1    1    2  501    0 -0.79479077894E+02  0.91858212772E+02  0.92145694939E+03  0.92942873028E+03  0.00000000000E+00 0. -1.
<scales pt_clust_3="14000.00000" pt_clust_4="46.38576" pt_clust_5="38.52870" pt_clust_6="134.29373"></scales>
<clustering>
<clus scale="   38.529">  2  5  1 -1</clus>
<clus scale="   46.386">  1  4  2 -1</clus>
<clus scale="  134.294">  1  6  2 -1</clus>
<clus scale="   38.529">  2  3  1 -1</clus>
</clustering>
</event>
<event>
 6    0  0.4017242E+002  0.1409954E+03  0.7546771E-02  0.1211996E+00
         21   -1    0    0  503  502  0.00000000000E+00  0.00000000000E+00  0.48340703394E+03  0.48340703394E+03  0.00000000000E+00 0. -1.
          1   -1    0    0  504    0 -0.00000000000E+00 -0.00000000000E+00 -0.24163132009E+03  0.24163132009E+03  0.00000000000E+00 0.  1.
         21    1    1    2  503  501 -0.52641437420E+02 -0.10055975701E+03  0.94403690599E+02  0.14763279603E+03  0.00000000000E+00 0. -1.
         21    1    1    2  504  505  0.38868119285E+02  0.22603634070E+01  0.52117128724E+02  0.65054093229E+02  0.00000000000E+00 0. -1.
         21    1    1    2  505  502  0.91334590604E+02  0.71846061251E+02  0.28385305224E+03  0.30671879502E+03  0.00000000000E+00 0. -1.
          1    1    1    2  501    0 -0.77561272469E+02  0.26453332356E+02 -0.18859815770E+03  0.20563266975E+03  0.00000000000E+00 0.  1.
<scales pt_clust_3="130.32687" pt_clust_4="31.14181" pt_clust_5="31.14181" pt_clust_6="81.94834"></scales>
<clustering>
<clus scale="   31.142">  4  5 -1 -1</clus>
<clus scale="   81.948">  2  6  1 -1</clus>
<clus scale="  130.327">  2  3  1 -1</clus>
<clus scale="  140.995">  1  3  2 -1</clus>
</clustering>
</event>
<event>
 6    0  0.4017242E+002  0.1023372E+03  0.7546771E-02  0.1275457E+00
         21   -1    0    0  501  502  0.00000000000E+00  0.00000000000E+00  0.77357051972E+02  0.77357051972E+02  0.00000000000E+00 0. -1.
          2   -1    0    0  504    0 -0.00000000000E+00 -0.00000000000E+00 -0.13372578300E+04  0.13372578300E+04  0.00000000000E+00 0.  1.
         21    1    1    2  503  505 -0.82672067465E+01 -0.77717822657E+02  0.13520577683E+02  0.79317165146E+02  0.00000000000E+00 0. -1.
         21    1    1    2  504  503  0.58751416278E+02  0.10513427185E+03 -0.13172225620E+03  0.17848164278E+03  0.00000000000E+00 0. -1.
         21    1    1    2  505  502  0.85802083929E+01 -0.39098042934E+02 -0.52821176767E+02  0.66274834231E+02  0.00000000000E+00 0. -1.
          2    1    1    2  501    0 -0.59064417924E+02  0.11681593744E+02 -0.10888779228E+04  0.10905412399E+04  0.00000000000E+00 0.  1.
<scales pt_clust_3="102.33718" pt_clust_4="14000.00000" pt_clust_5="40.02845" pt_clust_6="60.02164"></scales>
<clustering>
<clus scale="   40.028">  1  5  2 -1</clus>
<clus scale="   60.022">  2  6  1 -1</clus>
<clus scale="  102.337">  1  3  2 -1</clus>
<clus scale="   40.028">  1  3  2 -1</clus>
</clustering>
</event>
<event>
 6    0  0.4017242E+002  0.1363579E+03  0.7546771E-02  0.1218315E+00
         21   -1    0    0  505  502  0.00000000000E+00  0.00000000000E+00  0.87075052349E+02  0.87075052349E+02  0.00000000000E+00 0. -1.
         -4   -1    0    0    0  501 -0.00000000000E+00 -0.00000000000E+00 -0.43839239371E+03  0.43839239371E+03  0.00000000000E+00 0. -1.
         21    1    1    2  503  502  0.89381772656E+02  0.41238126781E+02 -0.89392125922E+02  0.13296855478E+03  0.00000000000E+00 0. -1.
         21    1    1    2  504  501 -0.10157224746E+03 -0.34796590410E+02 -0.62869426368E+01  0.10755114972E+03  0.00000000000E+00 0. -1.
         21    1    1    2  505  504 -0.36561994249E+02 -0.28465411751E+02 -0.35416452157E+02  0.58321386927E+02  0.00000000000E+00 0. -1.
         -4    1    1    2    0  503  0.48752469055E+02  0.22023875380E+02 -0.22022182064E+03  0.22662635463E+03  0.00000000000E+00 0. -1.
<scales pt_clust_3="126.10348" pt_clust_4="34.08099" pt_clust_5="34.08099" pt_clust_6="53.49630"></scales>
<clustering>
<clus scale="   34.081">  4  5 -1 -1</clus>
<clus scale="   53.496">  2  6  1 -1</clus>
<clus scale="  126.103">  2  3  1 -1</clus>
<clus scale="  136.358">  1  3  2 -1</clus>
</clustering>
</event>
<event>
 6    0  0.4017242E+002  0.1068243E+03  0.7546771E-02  0.1266566E+00
          2   -1    0    0  503    0 -0.00000000000E+00  0.00000000000E+00  0.22317182994E+03  0.22317182994E+03  0.00000000000E+00 0. -1.
         21   -1    0    0  505  502  0.00000000000E+00 -0.00000000000E+00 -0.39640759575E+03  0.39640759575E+03  0.00000000000E+00 0. -1.
         21    1    1    2  503  504  0.82632896507E+02 -0.13638947727E+02  0.48728776346E+02  0.96895356568E+02  0.00000000000E+00 0.  1.
         21    1    1    2  504  502  0.12390998182E+01 -0.33636330157E+02 -0.24618793785E+03  0.24847824617E+03  0.00000000000E+00 0.  1.
         21    1    1    2  505  501  0.48192018691E+02 -0.69014000996E+01 -0.82625066273E+02  0.95900998772E+02  0.00000000000E+00 0. -1.
          2    1    1    2  501    0 -0.13206401502E+03  0.54176677983E+02  0.10684846197E+03  0.17830482418E+03  0.00000000000E+00 0. -1.
<scales pt_clust_3="106.82430" pt_clust_4="33.65915" pt_clust_5="55.90898" pt_clust_6="14000.00000"></scales>
<clustering>
<clus scale="   33.659">  2  4  1 -1</clus>
<clus scale="   55.909">  2  5  1 -1</clus>
<clus scale="  106.824">  1  3  2 -1</clus>
<clus scale="   33.659">  2  3  1 -1</clus>
</clustering>
</event>
<event>
 6    0  0.4017242E+002  0.2349915E+03  0.7546771E-02  0.1123175E+00
         21   -1    0    0  505  502  0.00000000000E+00  0.00000000000E+00  0.40562610843E+03  0.40562610843E+03  0.00000000000E+00 0. -1.
         -1   -1    0    0    0  501 -0.00000000000E+00 -0.00000000000E+00 -0.77336801786E+03  0.77336801786E+03  0.00000000000E+00 0. -1.
         21    1    1    2  503  502  0.44815992636E+02 -0.15054001624E+03 -0.50235581137E+02  0.16490719602E+03  0.00000000000E+00 0.  1.
         21    1    1    2  504  501 -0.15752175802E+03  0.33343814126E+03  0.16539691920E+03  0.40416610345E+03  0.00000000000E+00 0. -1.
         21    1    1    2  505  504  0.25660136570E+02  0.23576122282E+02  0.32666417567E+02  0.47763699473E+02  0.00000000000E+00 0.  1.
         -1    1    1    2    0  503  0.87045628815E+02 -0.20647424730E+03 -0.51556966506E+03  0.56215712735E+03  0.00000000000E+00 0. -1.
<scales pt_clust_3="154.75067" pt_clust_4="234.99153" pt_clust_5="34.84647" pt_clust_6="14000.00000"></scales>
<clustering>
<clus scale="   34.846">  1  5  2 -1</clus>
<clus scale="  154.751">  1  3  2 -1</clus>
<clus scale="  234.992">  1  4  2 -1</clus>
<clus scale="   34.846">  1  3  2 -1</clus>
</clustering>
</event>
<event>
 6    0  0.4017242E+002  0.1381501E+03  0.7546771E-02  0.1215840E+00
         21   -1    0    0  505  502  0.00000000000E+00  0.00000000000E+00  0.15714646635E+03  0.15714646635E+03  0.00000000000E+00 0. -1.
          2   -1    0    0  503    0 -0.00000000000E+00 -0.00000000000E+00 -0.37956570103E+04  0.37956570103E+04  0.00000000000E+00 0.  1.
         21    1    1    2  503  502  0.40858383228E+02  0.20623331823E+02 -0.20337689829E+04  0.20342839047E+04  0.00000000000E+00 0.  1.
         21    1    1    2  504  501  0.11321364482E+00  0.52081366324E+02 -0.52787288446E+03  0.53043591854E+03  0.00000000000E+00 0.  1.
         21    1    1    2  505  504  0.55276486635E+01 -0.12810299881E+03  0.12792348016E+03  0.18112247233E+03  0.00000000000E+00 0. -1.
          2    1    1    2  501    0 -0.46499245536E+02  0.55398300666E+02 -0.12047921567E+04  0.12069611810E+04  0.00000000000E+00 0.  1.
<scales pt_clust_3="45.76821" pt_clust_4="44.23201" pt_clust_5="127.93924" pt_clust_6="44.23201"></scales>
<clustering>
<clus scale="   44.232">  4  6 -1 -1</clus>
<clus scale="   45.768">  2  3  1 -1</clus>
<clus scale="  127.939">  1  5  2 -1</clus>
<clus scale="  127.939">  1  3  2 -1</clus>
</clustering>
</event>
<event>
 6    0  0.4017242E+002  0.8071087E+02  0.7546771E-02  0.1327046E+00
         21   -1    0    0  503  502  0.00000000000E+00  0.00000000000E+00  0.65400829783E+03  0.65400829783E+03  0.00000000000E+00 0.  1.
          3   -1    0    0  505    0 -0.00000000000E+00 -0.00000000000E+00 -0.10482380144E+03  0.10482380144E+03  0.00000000000E+00 0.  1.
         21    1    1    2  503  501 -0.29851003531E+02  0.60484955129E+02  0.33449039017E+03  0.34122328954E+03  0.00000000000E+00 0.  1.
         21    1    1    2  504  502 -0.81138559971E+01 -0.54358496289E+02  0.88719325986E+02  0.10436378482E+03  0.00000000000E+00 0.  1.
         21    1    1    2  505  504  0.10316817430E+03 -0.48169121909E+02  0.18398936507E+03  0.21637010643E+03  0.00000000000E+00 0.  1.
          3    1    1    2  501    0 -0.65203314775E+02  0.42042663069E+02 -0.58014584840E+02  0.96874918476E+02  0.00000000000E+00 0.  1.
<scales pt_clust_3="44.35460" pt_clust_4="54.96072" pt_clust_5="80.71087" pt_clust_6="14000.00000"></scales>
<clustering>
<clus scale="   54.961">  1  4  2 -1</clus>
<clus scale="   44.355">  1  3  2 -1</clus>
<clus scale="   80.711">  1  5  2 -1</clus>
<clus scale="   54.961">  1  3  2 -1</clus>
</clustering>
</event>
<event>
 6    0  0.4017242E+002  0.1798560E+03  0.7546771E-02  0.1167943E+00
          1   -1    0    0  505    0 -0.00000000000E+00  0.00000000000E+00  0.96656774924E+03  0.96656774924E+03  0.00000000000E+00 0. -1.
         21   -1    0    0  504  502  0.00000000000E+00 -0.00000000000E+00 -0.30038244035E+03  0.30038244035E+03  0.00000000000E+00 0.  1.
         21    1    1    2  503  502 -0.20629385176E+02  0.19587859433E+03 -0.12516356433E+03  0.23336647807E+03  0.00000000000E+00 0.  1.
         21    1    1    2  504  501  0.22534575232E+01 -0.34365122560E+02 -0.37453941614E+02  0.50880619708E+02  0.00000000000E+00 0.  1.
         21    1    1    2  505  503 -0.61725603379E+00 -0.18986963928E+03  0.41108620876E+02  0.19426986291E+03  0.00000000000E+00 0. -1.
          1    1    1    2  501    0  0.18993183686E+02  0.28356167507E+02  0.78769419396E+03  0.78843322891E+03  0.00000000000E+00 0. -1.
<scales pt_clust_3="14000.00000" pt_clust_4="33.43067" pt_clust_5="179.85596" pt_clust_6="34.12936"></scales>
<clustering>
<clus scale="   34.129">  1  6  2 -1</clus>
<clus scale="   33.431">  2  4  1 -1</clus>
<clus scale="  179.856">  1  5  2 -1</clus>
<clus scale="   33.431">  2  3  1 -1</clus>
</clustering>
</event>
<event>
 6    0  0.4017242E+002  0.1286436E+03  0.7546771E-02  0.1229482E+00
          2   -1    0    0  503    0 -0.00000000000E+00  0.00000000000E+00  0.20791117327E+04  0.20791117327E+04  0.00000000000E+00 0. -1.
         21   -1    0    0  505  502  0.00000000000E+00 -0.00000000000E+00 -0.24357687311E+03  0.24357687311E+03  0.00000000000E+00 0.  1.
         21    1    1    2  503  504 -0.17918973208E+02  0.12046864673E+03 -0.95210579164E+02  0.15459249280E+03  0.00000000000E+00 0.  1.
         21    1    1    2  504  502  0.54293892031E+02  0.25334682934E+02 -0.79661321883E+02  0.99677475266E+02  0.00000000000E+00 0.  1.
         21    1    1    2  505  501 -0.60337971802E+02 -0.19294112655E+02  0.10309480907E+02  0.64181142253E+02  0.00000000000E+00 0.  1.
          2    1    1    2  501    0  0.23963052979E+02 -0.12650921701E+03  0.20000972798E+04  0.20042374955E+04  0.00000000000E+00 0. -1.
<scales pt_clust_3="128.64365" pt_clust_4="59.91388" pt_clust_5="52.96326" pt_clust_6="14000.00000"></scales>
<clustering>
<clus scale="   59.914">  2  4  1 -1</clus>
<clus scale="   52.963">  2  5  1 -1</clus>
<clus scale="  128.644">  2  3  1 -1</clus>
<clus scale="   59.914">  2  3  1 -1</clus>
</clustering>
</event>
<event>
 6    0  0.4017242E+002  0.1592623E+03  0.7546771E-02  0.1189532E+00
         -2   -1    0    0    0  501 -0.00000000000E+00  0.00000000000E+00  0.14681086009E+04  0.14681086009E+04  0.00000000000E+00 0. -1.
         21   -1    0    0  505  502  0.00000000000E+00 -0.00000000000E+00 -0.75667570008E+02  0.75667570008E+02  0.00000000000E+00 0. -1.
         21    1    1    2  503  501 -0.38095643341E+02  0.27902055283E+02  0.72830424066E+02  0.86799040318E+02  0.00000000000E+00 0. -1.
         21    1    1    2  504  502  0.15960843493E+03 -0.44141317166E+02  0.16190605445E+03  0.23159637055E+03  0.00000000000E+00 0. -1.
         21    1    1    2  505  503 -0.23878941598E+02  0.11416551796E+03  0.86306544764E+02  0.14509579254E+03  0.00000000000E+00 0. -1.
         -2    1    1    2    0  504 -0.97633849993E+02 -0.97926256082E+02  0.10713980076E+04  0.10802849675E+04  0.00000000000E+00 0. -1.
<scales pt_clust_3="42.33359" pt_clust_4="144.69931" pt_clust_5="42.33359" pt_clust_6="138.28203"></scales>
<clustering>
<clus scale="   42.334">  3  5 -1 -1</clus>
<clus scale="  138.282">  1  6  2 -1</clus>
<clus scale="  144.699">  1  4  2 -1</clus>
<clus scale="  159.262">  2  3  1 -1</clus>
</clustering>
</event>
<event>
 6    0  0.4017242E+002  0.9316288E+02  0.7546771E-02  0.1295368E+00
         21   -1    0    0  505  502  0.00000000000E+00  0.00000000000E+00  0.64881706983E+02  0.64881706983E+02  0.00000000000E+00 0.  1.
          2   -1    0    0  503    0 -0.00000000000E+00 -0.00000000000E+00 -0.26961421868E+04  0.26961421868E+04  0.00000000000E+00 0.  1.
         21    1    1    2  503  502 -0.22203319260E+02 -0.26273686555E+02 -0.11654427301E+03  0.12151486149E+03  0.00000000000E+00 0.  1.
         21    1    1    2  504  501  0.13007683878E+03  0.98002980496E+01 -0.43240998619E+03  0.45165742104E+03  0.00000000000E+00 0.  1.
         21    1    1    2  505  504 -0.87791764462E+02 -0.19915823610E+02  0.14025040003E+02  0.91108373296E+02  0.00000000000E+00 0.  1.
          2    1    1    2  501    0 -0.20081755061E+02  0.36389212116E+02 -0.20963312607E+04  0.20967432380E+04  0.00000000000E+00 0.  1.
<scales pt_clust_3="34.39904" pt_clust_4="93.16288" pt_clust_5="14000.00000" pt_clust_6="40.99346"></scales>
<clustering>
<clus scale="   34.399">  2  3  1 -1</clus>
<clus scale="   40.993">  2  6  1 -1</clus>
<clus scale="   93.163">  2  4  1 -1</clus>
<clus scale="   93.163">  1  3  2 -1</clus>
</clustering>
</event>
<event>
 6    0  0.4017242E+002  0.1441778E+03  0.7546771E-02  0.1207815E+00
          1   -1    0    0  504    0 -0.00000000000E+00  0.00000000000E+00  0.95784207168E+03  0.95784207168E+03  0.00000000000E+00 0.  1.
         21   -1    0    0  503  502  0.00000000000E+00 -0.00000000000E+00 -0.17756867172E+03  0.17756867172E+03  0.00000000000E+00 0.  1.
         21    1    1    2  503  505  0.47427378882E+02  0.11802882475E+02  0.44719790421E+01  0.49078130556E+02  0.00000000000E+00 0.  1.
         21    1    1    2  504  502  0.22820041281E+02  0.19774006017E+03 -0.50225081836E+02  0.20529112140E+03  0.00000000000E+00 0.  1.
         21    1    1    2  505  501 -0.42314966950E+02 -0.70898166164E+02  0.59989647104E+02  0.10205814104E+03  0.00000000000E+00 0. -1.
          1    1    1    2  501    0 -0.27932453212E+02 -0.13864477649E+03  0.76603685564E+03  0.77898335040E+03  0.00000000000E+00 0.  1.
<scales pt_clust_3="48.87396" pt_clust_4="144.17780" pt_clust_5="78.04140" pt_clust_6="14000.00000"></scales>
<clustering>
<clus scale="   48.874">  2  3  1 -1</clus>
<clus scale="   78.041">  2  5  1 -1</clus>
<clus scale="  144.178">  2  4  1 -1</clus>
<clus scale="   48.874">  2  3  1 -1</clus>
</clustering>
</event>
<event>
 6    0  0.4017242E+002  0.1749399E+03  0.7546771E-02  0.1172792E+00
          1   -1    0    0  505    0 -0.00000000000E+00  0.00000000000E+00  0.18482363086E+04  0.18482363086E+04  0.00000000000E+00 0.  1.
         21   -1    0    0  504  502  0.00000000000E+00 -0.00000000000E+00 -0.12591104655E+03  0.12591104655E+03  0.00000000000E+00 0. -1.
         21    1    1    2  503  501  0.90087185026E+02 -0.43100286642E+02 -0.24166314420E+02  0.10274894825E+03  0.00000000000E+00 0. -1.
         21    1    1    2  504  503  0.38937098244E+02  0.44269159180E+01 -0.44871115473E+02  0.59574425788E+02  0.00000000000E+00 0. -1.
         21    1    1    2  505  502  0.15149554137E+02 -0.43560238277E+02  0.79309891527E+02  0.91744548848E+02  0.00000000000E+00 0. -1.
          1    1    1    2  501    0 -0.14417383741E+03  0.82233609002E+02  0.17120528004E+04  0.17200794323E+04  0.00000000000E+00 0.  1.
<scales pt_clust_3="36.73954" pt_clust_4="36.73954" pt_clust_5="46.11945" pt_clust_6="164.81556"></scales>
<clustering>
<clus scale="   36.740">  3  4 -1 -1</clus>
<clus scale="   46.119">  2  5  1 -1</clus>
<clus scale="  164.816">  1  6  2 -1</clus>
<clus scale="   46.119">  2  3  1 -1</clus>
</clustering>
</event>
<event>
 6    0  0.4017242E+002  0.1130244E+03  0.7546771E-02  0.1255070E+00
          1   -1    0    0  503    0 -0.00000000000E+00  0.00000000000E+00  0.35274860056E+03  0.35274860056E+03  0.00000000000E+00 0. -1.
         21   -1    0    0  505  502  0.00000000000E+00 -0.00000000000E+00 -0.19243285658E+03  0.19243285658E+03  0.00000000000E+00 0.  1.
         21    1    1    2  503  504  0.20137179985E+02 -0.30778471158E+02  0.20490454392E+02  0.42103194959E+02  0.00000000000E+00 0.  1.
         21    1    1    2  504  502 -0.30249911800E+02 -0.11087391816E+03 -0.97810034232E+02  0.15091350400E+03  0.00000000000E+00 0.  1.
         21    1    1    2  505  501  0.50766807210E+02  0.98284942092E+02  0.35808662949E+01  0.11067981370E+03  0.00000000000E+00 0.  1.
          1    1    1    2  501    0 -0.40654075395E+02  0.43367447226E+02  0.23405445753E+03  0.24148494449E+03  0.00000000000E+00 0. -1.
<scales pt_clust_3="36.78071" pt_clust_4="113.02440" pt_clust_5="14000.00000" pt_clust_6="32.98408"></scales>
<clustering>
<clus scale="   36.781">  1  3  2 -1</clus>
<clus scale="   32.984">  1  6  2 -1</clus>
<clus scale="  113.024">  2  4  1 -1</clus>
<clus scale="  113.024">  2  3  1 -1</clus>
</clustering>
</event>
<event>
 6    0  0.4017242E+002  0.8803893E+02  0.7546771E-02  0.1307671E+00
         21   -1    0    0  505  502  0.00000000000E+00  0.00000000000E+00  0.17361889647E+03  0.17361889647E+03  0.00000000000E+00 0.  1.
          2   -1    0    0  504    0 -0.00000000000E+00 -0.00000000000E+00 -0.22642469743E+04  0.22642469743E+04  0.00000000000E+00 0. -1.
         21    1    1    2  503  502  0.36994668759E+02 -0.25286737311E+02  0.90267616087E+02  0.10077830677E+03  0.00000000000E+00 0.  1.
         21    1    1    2  504  503 -0.41149766174E+02  0.93963987909E+02 -0.28068919919E+03  0.29884604870E+03  0.00000000000E+00 0. -1.
         21    1    1    2  505  501 -0.31083645275E+02 -0.65086324342E+02  0.49968093788E+02  0.87745273472E+02  0.00000000000E+00 0.  1.
          2    1    1    2  501    0  0.35238742689E+02 -0.35909262561E+01 -0.19501745885E+04  0.19504962418E+04  0.00000000000E+00 0. -1.
<scales pt_clust_3="45.33284" pt_clust_4="88.03893" pt_clust_5="14000.00000" pt_clust_6="35.42123"></scales>
<clustering>
<clus scale="   35.421">  2  6  1 -1</clus>
<clus scale="   45.333">  1  3  2 -1</clus>
<clus scale="   88.039">  2  4  1 -1</clus>
<clus scale="   45.333">  1  3  2 -1</clus>
</clustering>
</event>
<event>
 6    0  0.4017242E+002  0.9778726E+02  0.7546771E-02  0.1285019E+00
         21   -1    0    0  505  502  0.00000000000E+00  0.00000000000E+00  0.84730340426E+03  0.84730340426E+03  0.00000000000E+00 0. -1.
         -2   -1    0    0    0  501 -0.00000000000E+00 -0.00000000000E+00 -0.12686413204E+03  0.12686413204E+03  0.00000000000E+00 0.  1.
         21    1    1    2  503  502 -0.72790563897E+02  0.27334743685E+02  0.12396986760E+03  0.14633585506E+03  0.00000000000E+00 0.  1.
         21    1    1    2  504  501 -0.33968423216E+02 -0.80261102264E+02  0.16289041078E+03  0.18474031567E+03  0.00000000000E+00 0. -1.
         21    1    1    2  505  504  0.69611555797E+02  0.77729384609E+02  0.52822637955E+03  0.53843359292E+03  0.00000000000E+00 0. -1.
         -2    1    1    2    0  503  0.37147431316E+02 -0.24803026030E+02 -0.94647385702E+02  0.10465777264E+03  0.00000000000E+00 0.  1.
<scales pt_clust_3="60.02396" pt_clust_4="14000.00000" pt_clust_5="97.78726" pt_clust_6="44.66679"></scales>
<clustering>
<clus scale="   44.667">  2  6  1 -1</clus>
<clus scale="   60.024">  2  3  1 -1</clus>
<clus scale="   97.787">  1  5  2 -1</clus>
<clus scale="   97.787">  1  3  2 -1</clus>
</clustering>
</event>
<event>
 6    0  0.4017242E+002  0.8947616E+02  0.7546771E-02  0.1304125E+00
          1   -1    0    0  502    0 -0.00000000000E+00  0.00000000000E+00  0.33578944745E+03  0.33578944745E+03  0.00000000000E+00 0.  1.
         21   -1    0    0  505  502  0.00000000000E+00 -0.00000000000E+00 -0.20184354104E+03  0.20184354104E+03  0.00000000000E+00 0. -1.
         21    1    1    2  503  504 -0.96744937437E+02  0.22972178591E+02 -0.80560461126E+02  0.12797379343E+03  0.00000000000E+00 0. -1.
         21    1    1    2  504  501  0.83277640188E+02 -0.17232916810E+02  0.10983846863E+02  0.85748374147E+02  0.00000000000E+00 0. -1.
         21    1    1    2  505  503  0.21831819566E+02  0.26931122001E+02 -0.54010104063E+02  0.64179475058E+02  0.00000000000E+00 0. -1.
          1    1    1    2  501    0 -0.83645223167E+01 -0.32670383782E+02  0.25753262474E+03  0.25973134585E+03  0.00000000000E+00 0.  1.
<scales pt_clust_3="14000.00000" pt_clust_4="89.47616" pt_clust_5="32.66221" pt_clust_6="33.72416"></scales>
<clustering>
<clus scale="   33.724">  1  6  2 -1</clus>
<clus scale="   32.662">  2  5  1 -1</clus>
<clus scale="   89.476">  1  4  2 -1</clus>
<clus scale="   32.662">  2  3  1 -1</clus>
</clustering>
</event>
<event>
 6    0  0.4017242E+002  0.2864645E+03  0.7546771E-02  0.1092210E+00
          2   -1    0    0  504    0 -0.00000000000E+00  0.00000000000E+00  0.44566312753E+03  0.44566312753E+03  0.00000000000E+00 0. -1.
         21   -1    0    0  501  502  0.00000000000E+00 -0.00000000000E+00 -0.52863768841E+03  0.52863768841E+03  0.00000000000E+00 0. -1.
         21    1    1    2  503  502 -0.51896287882E+02  0.43645735028E+02 -0.30110767461E+03  0.30864867826E+03  0.00000000000E+00 0. -1.
         21    1    1    2  504  505  0.20832946495E+03 -0.11798684266E+02  0.16476304282E+03  0.26587071143E+03  0.00000000000E+00 0. -1.
         21    1    1    2  505  503  0.81302868831E+02  0.29755194369E+02  0.11750712866E+03  0.14595702572E+03  0.00000000000E+00 0. -1.
          2    1    1    2  501    0 -0.23773604590E+03 -0.61602245132E+02 -0.64137057752E+02  0.25382440053E+03  0.00000000000E+00 0. -1.
<scales pt_clust_3="67.80984" pt_clust_4="48.70072" pt_clust_5="48.70072" pt_clust_6="276.30702"></scales>
<clustering>
<clus scale="   48.701">  4  5 -1 -1</clus>
<clus scale="   67.810">  2  3  1 -1</clus>
<clus scale="  276.307">  2  6  1 -1</clus>
<clus scale="   67.810">  2  3  1 -1</clus>
</clustering>
</event>
<event>
 6    0  0.4017242E+002  0.1482227E+03  0.7546771E-02  0.1202674E+00
         21   -1    0    0  505  502  0.00000000000E+00  0.00000000000E+00  0.85825381876E+03  0.85825381876E+03  0.00000000000E+00 0.  1.
          4   -1    0    0  503    0 -0.00000000000E+00 -0.00000000000E+00 -0.59733193589E+02  0.59733193589E+02  0.00000000000E+00 0. -1.
         21    1    1    2  503  502 -0.34805957064E+02 -0.68922384367E+01  0.78093721039E+02  0.85776377072E+02  0.00000000000E+00 0.  1.
         21    1    1    2  504  501 -0.24575799780E+02  0.13870207289E+03  0.33184134453E+03  0.36050091941E+03  0.00000000000E+00 0.  1.
         21    1    1    2  505  504  0.40585688315E+02  0.18351875406E+02  0.28466934390E+03  0.28813299843E+03  0.00000000000E+00 0.  1.
          4    1    1    2  501    0  0.18796068529E+02 -0.15016170985E+03  0.10391621570E+03  0.18357671743E+03  0.00000000000E+00 0. -1.
<scales pt_clust_3="35.48179" pt_clust_4="14000.00000" pt_clust_5="31.93298" pt_clust_6="148.22269"></scales>
<clustering>
<clus scale="   35.482">  1  3  2 -1</clus>
<clus scale="   31.933">  1  5  2 -1</clus>
<clus scale="  148.223">  2  6  1 -1</clus>
<clus scale="   35.482">  1  3  2 -1</clus>
</clustering>
</event>
<event>
 6    0  0.4017242E+002  0.9116498E+02  0.7546771E-02  0.1300055E+00
         21   -1    0    0  505  502  0.00000000000E+00  0.00000000000E+00  0.34726364273E+02  0.34726364273E+02  0.00000000000E+00 0.  1.
          2   -1    0    0  503    0 -0.00000000000E+00 -0.00000000000E+00 -0.70758700737E+03  0.70758700737E+03  0.00000000000E+00 0.  1.
         21    1    1    2  503  504  0.42327837286E+02  0.36688628938E+02 -0.13347743546E+03  0.14475471350E+03  0.00000000000E+00 0.  1.
         21    1    1    2  504  502  0.19053245304E+02  0.64770226940E+02 -0.12026287532E+03  0.13791797430E+03  0.00000000000E+00 0.  1.
         21    1    1    2  505  501 -0.65147558748E+02 -0.37275666146E+02 -0.63678565614E+02  0.98430886495E+02  0.00000000000E+00 0.  1.
          2    1    1    2  501    0  0.37664761580E+01 -0.64183189732E+02 -0.35544176670E+03  0.36120979735E+03  0.00000000000E+00 0.  1.
<scales pt_clust_3="34.78227" pt_clust_4="34.78227" pt_clust_5="82.78216" pt_clust_6="64.29361"></scales>
<clustering>
<clus scale="   34.782">  3  4 -1 -1</clus>
<clus scale="   64.294">  2  6  1 -1</clus>
<clus scale="   82.782">  1  5  2 -1</clus>
<clus scale="   82.782">  1  3  2 -1</clus>
</clustering>
</event>
<event>
 6    0  0.4017242E+002  0.9203173E+02  0.7546771E-02  0.1298005E+00
         21   -1    0    0  503  502  0.00000000000E+00  0.00000000000E+00  0.22273722420E+03  0.22273722420E+03  0.00000000000E+00 0. -1.
          2   -1    0    0  505    0 -0.00000000000E+00 -0.00000000000E+00 -0.73230079659E+03  0.73230079659E+03  0.00000000000E+00 0. -1.
         21    1    1    2  503  501 -0.56064236701E+02  0.54857103180E+02  0.15926684443E+03  0.17753430131E+03  0.00000000000E+00 0. -1.
         21    1    1    2  504  502 -0.34264799528E+02 -0.22687967862E+02  0.18158338056E+02  0.44928227356E+02  0.00000000000E+00 0. -1.
         21    1    1    2  505  504  0.11016420732E+03  0.53164974529E+02 -0.17723690025E+03  0.21534991502E+03  0.00000000000E+00 0. -1.
          2    1    1    2  501    0 -0.19835171093E+02 -0.85334109848E+02 -0.50975185463E+03  0.51722557711E+03  0.00000000000E+00 0. -1.
<scales pt_clust_3="92.03173" pt_clust_4="41.09526" pt_clust_5="14000.00000" pt_clust_6="88.19431"></scales>
<clustering>
<clus scale="   41.095">  1  4  2 -1</clus>
<clus scale="   88.194">  2  6  1 -1</clus>
<clus scale="   92.032">  1  3  2 -1</clus>
<clus scale="   41.095">  1  3  2 -1</clus>
</clustering>
</event>
<event>
 6    0  0.4017242E+002  0.2040455E+03  0.7546771E-02  0.1146370E+00
          2   -1    0    0  502    0 -0.00000000000E+00  0.00000000000E+00  0.19054123074E+04  0.19054123074E+04  0.00000000000E+00 0. -1.
         21   -1    0    0  505  502  0.00000000000E+00 -0.00000000000E+00 -0.68322679206E+02  0.68322679206E+02  0.00000000000E+00 0.  1.
         21    1    1    2  503  504  0.32103332661E+02 -0.19510737630E+02  0.55318954918E+01  0.37972288824E+02  0.00000000000E+00 0.  1.
         21    1    1    2  504  501 -0.34196830089E+02 -0.66936044995E+01  0.14204063149E+03  0.14625241373E+03  0.00000000000E+00 0.  1.
         21    1    1    2  505  503  0.15578133897E+03  0.50281390122E+02  0.98790295249E+02  0.19119509983E+03  0.00000000000E+00 0.  1.
          2    1    1    2  501    0 -0.15368784155E+03 -0.24077047993E+02  0.15907268060E+04  0.15983151842E+04  0.00000000000E+00 0. -1.
<scales pt_clust_3="35.16120" pt_clust_4="32.74102" pt_clust_5="35.16120" pt_clust_6="202.56631"></scales>
<clustering>
<clus scale="   32.741">  4  6 -1 -1</clus>
<clus scale="   35.161">  3  5 -1 -1</clus>
<clus scale="  202.566">  1  4  2 -1</clus>
<clus scale="  204.046">  2  3  1 -1</clus>
</clustering>
</event>
<event>
 6    0  0.4017242E+002  0.1285445E+03  0.7546771E-02  0.1229632E+00
          2   -1    0    0  503    0 -0.00000000000E+00  0.00000000000E+00  0.84977434524E+03  0.84977434524E+03  0.00000000000E+00 0. -1.
         21   -1    0    0  504  502  0.00000000000E+00 -0.00000000000E+00 -0.91770274921E+02  0.91770274921E+02  0.00000000000E+00 0. -1.
         21    1    1    2  503  505  0.43684441492E+02 -0.81488342811E+02  0.16495960117E+02  0.93919098924E+02  0.00000000000E+00 0. -1.
         21    1    1    2  504  501  0.41872016886E+02  0.71570222618E+01  0.45677456543E+02  0.62377229836E+02  0.00000000000E+00 0. -1.
         21    1    1    2  505  502 -0.37469595973E+02 -0.51344744022E+02 -0.12047068790E+02  0.64694553306E+02  0.00000000000E+00 0.  1.
          2    1    1    2  501    0 -0.48086862405E+02  0.12567606457E+03  0.70787772245E+03  0.72055373809E+03  0.00000000000E+00 0. -1.
<scales pt_clust_3="14000.00000" pt_clust_4="42.47927" pt_clust_5="51.38736" pt_clust_6="128.54450"></scales>
<clustering>
<clus scale="   42.479">  2  4  1 -1</clus>
<clus scale="   51.387">  2  5  1 -1</clus>
<clus scale="  128.545">  1  6  2 -1</clus>
<clus scale="   42.479">  2  3  1 -1</clus>
</clustering>
</event>
<event>
 6    0  0.4017242E+002  0.1459951E+03  0.7546771E-02  0.1205482E+00
          2   -1    0    0  503    0 -0.00000000000E+00  0.00000000000E+00  0.16330862284E+04  0.16330862284E+04  0.00000000000E+00 0.  1.
         21   -1    0    0  501  502  0.00000000000E+00 -0.00000000000E+00 -0.27399511407E+02  0.27399511407E+02  0.00000000000E+00 0. -1.
         21    1    1    2  503  505 -0.60585178442E+02  0.48277989764E+02  0.22769732605E+03  0.24051486530E+03  0.00000000000E+00 0.  1.
         21    1    1    2  504  502  0.30091377161E+02  0.10665622666E+01  0.33242305016E+02  0.44851748876E+02  0.00000000000E+00 0. -1.
         21    1    1    2  505  504 -0.58200666831E+02  0.53291610446E+02  0.12481794582E+03  0.14767136812E+03  0.00000000000E+00 0. -1.
          2    1    1    2  501    0  0.88694468113E+02 -0.10263616248E+03  0.12199291401E+04  0.12274477575E+04  0.00000000000E+00 0.  1.
<scales pt_clust_3="43.88738" pt_clust_4="30.11027" pt_clust_5="43.88738" pt_clust_6="138.99458"></scales>
<clustering>
<clus scale="   30.110">  2  4  1 -1</clus>
<clus scale="   43.887">  3  5 -1 -1</clus>
<clus scale="  138.995">  1  6  2 -1</clus>
<clus scale="   30.110">  2  3  1 -1</clus>
</clustering>
</event>
<event>
 6    0  0.4017242E+002  0.1773256E+03  0.7546771E-02  0.1170417E+00
          2   -1    0    0  502    0 -0.00000000000E+00  0.00000000000E+00  0.20400117492E+04  0.20400117492E+04  0.00000000000E+00 0.  1.
         21   -1    0    0  503  502  0.00000000000E+00 -0.00000000000E+00 -0.60747596405E+02  0.60747596405E+02  0.00000000000E+00 0. -1.
         21    1    1    2  503  504  0.98363907328E+01 -0.36751292514E+02 -0.21427917027E+02  0.43664261269E+02  0.00000000000E+00 0. -1.
         21    1    1    2  504  505  0.90274597232E+02  0.38639113981E+02  0.13248544470E+03  0.16490869320E+03  0.00000000000E+00 0. -1.
         21    1    1    2  505  501  0.71525307028E+02  0.18589292949E+02  0.17212015333E+03  0.18731465117E+03  0.00000000000E+00 0. -1.
          2    1    1    2  501    0 -0.17163629499E+03 -0.20477114416E+02  0.16960864718E+04  0.17048717400E+04  0.00000000000E+00 0.  1.
<scales pt_clust_3="38.04487" pt_clust_4="37.03420" pt_clust_5="37.03420" pt_clust_6="172.11029"></scales>
<clustering>
<clus scale="   37.034">  4  5 -1 -1</clus>
<clus scale="   38.045">  2  3  1 -1</clus>
<clus scale="  172.110">  1  6  2 -1</clus>
<clus scale="   38.045">  2  3  1 -1</clus>
</clustering>
</event>
<event>
 6    0  0.4017242E+002  0.1372517E+03  0.7546771E-02  0.1217076E+00
         21   -1    0    0  505  502  0.00000000000E+00  0.00000000000E+00  0.15965040708E+04  0.15965040708E+04  0.00000000000E+00 0. -1.
          2   -1    0    0  503    0 -0.00000000000E+00 -0.00000000000E+00 -0.63329416302E+03  0.63329416302E+03  0.00000000000E+00 0.  1.
         21    1    1    2  503  504  0.16115601748E+03  0.48194186039E+02  0.73605808635E+03  0.75503340854E+03  0.00000000000E+00 0. -1.
         21    1    1    2  504  502  0.58597069619E+02  0.28392186583E+01  0.85020399650E+02  0.10329639920E+03  0.00000000000E+00 0.  1.
         21    1    1    2  505  501 -0.13044068702E+03 -0.10168145877E+02  0.74715524187E+03  0.75852430382E+03  0.00000000000E+00 0. -1.
          2    1    1    2  501    0 -0.89312400080E+02 -0.40865258821E+02 -0.60502382007E+03  0.61294412228E+03  0.00000000000E+00 0.  1.
<scales pt_clust_3="14000.00000" pt_clust_4="58.66581" pt_clust_5="137.25169" pt_clust_6="98.07393"></scales>
<clustering>
<clus scale="   58.666">  1  4  2 -1</clus>
<clus scale="   98.074">  2  6  1 -1</clus>
<clus scale="  137.252">  1  5  2 -1</clus>
<clus scale="   58.666">  1  3  2 -1</clus>
</clustering>
</event>
<event>
 6    0  0.4017242E+002  0.8220117E+02  0.7546771E-02  0.1322918E+00
         21   -1    0    0  503  502  0.00000000000E+00  0.00000000000E+00  0.53101558384E+02  0.53101558384E+02  0.00000000000E+00 0.  1.
          2   -1    0    0  505    0 -0.00000000000E+00 -0.00000000000E+00 -0.54332198826E+03  0.54332198826E+03  0.00000000000E+00 0.  1.
         21    1    1    2  503  501  0.31627567330E+01  0.65140017719E+02 -0.25562418524E+02  0.70047570831E+02  0.00000000000E+00 0.  1.
         21    1    1    2  504  502  0.23052943775E+02 -0.28260849831E+02 -0.86377604445E+01  0.37479657888E+02  0.00000000000E+00 0.  1.
         21    1    1    2  505  504 -0.82109757328E+02 -0.72842892857E+02 -0.28005093174E+03  0.30079332382E+03  0.00000000000E+00 0.  1.
          2    1    1    2  501    0  0.55894056820E+02  0.35963724970E+02 -0.17596931917E+03  0.18810299410E+03  0.00000000000E+00 0.  1.
<scales pt_clust_3="51.57256" pt_clust_4="36.47073" pt_clust_5="82.20117" pt_clust_6="14000.00000"></scales>
<clustering>
<clus scale="   36.471">  1  4  2 -1</clus>
<clus scale="   51.573">  1  3  2 -1</clus>
<clus scale="   82.201">  1  5  2 -1</clus>
<clus scale="   36.471">  1  3  2 -1</clus>
</clustering>
</event>
<event>
 6    0  0.4017242E+002  0.1275795E+03  0.7546771E-02  0.1231092E+00
         21   -1    0    0  503  502  0.00000000000E+00  0.00000000000E+00  0.34971168087E+03  0.34971168087E+03  0.00000000000E+00 0.  1.
          2   -1    0    0  505    0 -0.00000000000E+00 -0.00000000000E+00 -0.20912756877E+04  0.20912756877E+04  0.00000000000E+00 0. -1.
         21    1    1    2  503  504 -0.76056825153E+01  0.32301881554E+02  0.63397290071E+02  0.71557489802E+02  0.00000000000E+00 0. -1.
         21    1    1    2  504  501 -0.11005165679E+03  0.17539625141E+02  0.24549108626E+03  0.26960133353E+03  0.00000000000E+00 0.  1.
         21    1    1    2  505  502  0.14845287820E+03 -0.21125398922E+02 -0.20547544690E+03  0.25437118313E+03  0.00000000000E+00 0. -1.
          2    1    1    2  501    0 -0.30795538897E+02 -0.28716107773E+02 -0.18449769362E+04  0.18454573621E+04  0.00000000000E+00 0. -1.
<scales pt_clust_3="33.18521" pt_clust_4="127.57946" pt_clust_5="14000.00000" pt_clust_6="42.09276"></scales>
<clustering>
<clus scale="   33.185">  1  3  2 -1</clus>
<clus scale="   42.093">  2  6  1 -1</clus>
<clus scale="  127.579">  1  4  2 -1</clus>
<clus scale="   33.185">  1  3  2 -1</clus>
</clustering>
</event>
<event>
 6    0  0.4017242E+002  0.1470600E+03  0.7546771E-02  0.1204133E+00
         21   -1    0    0  501  502  0.00000000000E+00  0.00000000000E+00  0.57045447345E+03  0.57045447345E+03  0.00000000000E+00 0.  1.
          1   -1    0    0  504    0 -0.00000000000E+00 -0.00000000000E+00 -0.16789421633E+04  0.16789421633E+04  0.00000000000E+00 0. -1.
         21    1    1    2  503  502 -0.12967550440E+03  0.70184032794E+02  0.55296620651E+03  0.57228765533E+03  0.00000000000E+00 0.  1.
         21    1    1    2  504  505  0.35012666723E+02 -0.46836988174E+01 -0.75700748289E+02  0.83536980776E+02  0.00000000000E+00 0.  1.
         21    1    1    2  505  503  0.82959125131E+01 -0.38041904580E+02 -0.15031779192E+03  0.15527861165E+03  0.00000000000E+00 0.  1.
          1    1    1    2  501    0  0.86366925163E+02 -0.27458429396E+02 -0.14354353562E+04  0.14382933890E+04  0.00000000000E+00 0. -1.
<scales pt_clust_3="147.05996" pt_clust_4="35.32455" pt_clust_5="40.21126" pt_clust_6="14000.00000"></scales>
<clustering>
<clus scale="   35.325">  2  4  1 -1</clus>
<clus scale="   40.211">  2  5  1 -1</clus>
<clus scale="  147.060">  1  3  2 -1</clus>
<clus scale="  147.060">  1  3  2 -1</clus>
</clustering>
</event>
<event>
 6    0  0.4017242E+002  0.1493596E+03  0.7546771E-02  0.1201262E+00
         21   -1    0    0  504  502  0.00000000000E+00  0.00000000000E+00  0.35798167922E+03  0.35798167922E+03  0.00000000000E+00 0.  1.
          2   -1    0    0  505    0 -0.00000000000E+00 -0.00000000000E+00 -0.26865368379E+03  0.26865368379E+03  0.00000000000E+00 0.  1.
         21    1    1    2  503  502  0.36699311155E+01 -0.41339748446E+02  0.25858694938E+02  0.48899031686E+02  0.00000000000E+00 0.  1.
         21    1    1    2  504  501 -0.10125864168E+03  0.80784474864E+02  0.38395853080E+02  0.13510620055E+03  0.00000000000E+00 0.  1.
         21    1    1    2  505  503  0.13804083575E+03 -0.68925835316E+02  0.20459996290E+03  0.25625609832E+03  0.00000000000E+00 0.  1.
          2    1    1    2  501    0 -0.40452125183E+02  0.29481108898E+02 -0.17952651548E+03  0.18637403246E+03  0.00000000000E+00 0.  1.
<scales pt_clust_3="41.50233" pt_clust_4="149.35956" pt_clust_5="14000.00000" pt_clust_6="49.76450"></scales>
<clustering>
<clus scale="   41.502">  1  3  2 -1</clus>
<clus scale="   49.765">  2  6  1 -1</clus>
<clus scale="  149.360">  2  4  1 -1</clus>
<clus scale="   41.502">  1  3  2 -1</clus>
</clustering>
</event>
<event>
 6    0  0.4017242E+002  0.1654634E+03  0.7546771E-02  0.1182663E+00
          1   -1    0    0  504    0 -0.00000000000E+00  0.00000000000E+00  0.23661348632E+04  0.23661348632E+04  0.00000000000E+00 0. -1.
         21   -1    0    0  505  502  0.00000000000E+00 -0.00000000000E+00 -0.23152709004E+02  0.23152709004E+02  0.00000000000E+00 0.  1.
         21    1    1    2  503  501  0.46637156463E+02 -0.38392488748E+02  0.46234190505E+03  0.46627142817E+03  0.00000000000E+00 0.  1.
         21    1    1    2  504  502 -0.27553550270E+02  0.70693408542E+02  0.35460142890E+03  0.36262781129E+03  0.00000000000E+00 0.  1.
         21    1    1    2  505  503 -0.46979344472E+02  0.81994253510E+02  0.13731522938E+03  0.16669009759E+03  0.00000000000E+00 0.  1.
          1    1    1    2  501    0  0.27895738278E+02 -0.11429517330E+03  0.13887235909E+04  0.13936982352E+04  0.00000000000E+00 0. -1.
<scales pt_clust_3="46.29945" pt_clust_4="75.87329" pt_clust_5="152.32571" pt_clust_6="46.29945"></scales>
<clustering>
<clus scale="   46.299">  3  6 -1 -1</clus>
<clus scale="   75.873">  2  4  1 -1</clus>
<clus scale="  152.326">  2  5  1 -1</clus>
<clus scale="   75.873">  2  3  1 -1</clus>
</clustering>
</event>
<event>
 6    0  0.4017242E+002  0.1153091E+03  0.7546771E-02  0.1251043E+00
         21   -1    0    0  504  502  0.00000000000E+00  0.00000000000E+00  0.52605498491E+03  0.52605498491E+03  0.00000000000E+00 0.  1.
          2   -1    0    0  503    0 -0.00000000000E+00 -0.00000000000E+00 -0.73012474805E+02  0.73012474805E+02  0.00000000000E+00 0.  1.
         21    1    1    2  503  502 -0.27846029321E+02 -0.56600800169E+02  0.31761224717E+03  0.32381567516E+03  0.00000000000E+00 0.  1.
         21    1    1    2  504  505 -0.48316778518E+02  0.30365462159E+02  0.31675899580E+02  0.65268177488E+02  0.00000000000E+00 0. -1.
         21    1    1    2  505  501 -0.22002766904E+02  0.60690230271E+02  0.80840614055E+02  0.10345351943E+03  0.00000000000E+00 0.  1.
          2    1    1    2  501    0  0.98165574743E+02 -0.34454892261E+02  0.22913749306E+02  0.10653008764E+03  0.00000000000E+00 0.  1.
<scales pt_clust_3="63.07973" pt_clust_4="47.67382" pt_clust_5="47.67382" pt_clust_6="103.56212"></scales>
<clustering>
<clus scale="   47.674">  4  5 -1 -1</clus>
<clus scale="   63.080">  1  3  2 -1</clus>
<clus scale="  103.562">  2  6  1 -1</clus>
<clus scale="   63.080">  1  3  2 -1</clus>
</clustering>
</event>
<event>
 6    0  0.4017242E+002  0.6377557E+02  0.7546771E-02  0.1382637E+00
          1   -1    0    0  504    0 -0.00000000000E+00  0.00000000000E+00  0.14556593987E+04  0.14556593987E+04  0.00000000000E+00 0. -1.
         21   -1    0    0  505  502  0.00000000000E+00 -0.00000000000E+00 -0.40604101065E+02  0.40604101065E+02  0.00000000000E+00 0. -1.
         21    1    1    2  503  502  0.73662128475E+01  0.63320473182E+02  0.15760559084E+03  0.17000960467E+03  0.00000000000E+00 0. -1.
         21    1    1    2  504  503 -0.53749061553E+02 -0.57100153108E+02  0.18315583820E+03  0.19923717065E+03  0.00000000000E+00 0. -1.
         21    1    1    2  505  501  0.45262227554E+02 -0.51489517679E+02  0.19532348752E+02  0.71283604859E+02  0.00000000000E+00 0. -1.
          1    1    1    2  501    0  0.11206211513E+01  0.45269197604E+02  0.10547615198E+04  0.10557331196E+04  0.00000000000E+00 0. -1.
<scales pt_clust_3="63.77557" pt_clust_4="63.95976" pt_clust_5="14000.00000" pt_clust_6="45.28307"></scales>
<clustering>
<clus scale="   45.283">  1  6  2 -1</clus>
<clus scale="   63.960">  1  4  2 -1</clus>
<clus scale="   63.776">  1  3  2 -1</clus>
<clus scale="   63.776">  2  3  1 -1</clus>
</clustering>
</event>
<event>
 6    0  0.4017242E+002  0.1529205E+03  0.7546771E-02  0.1196930E+00
         -2   -1    0    0    0  501 -0.00000000000E+00  0.00000000000E+00  0.37519537164E+03  0.37519537164E+03  0.00000000000E+00 0.  1.
         21   -1    0    0  505  502  0.00000000000E+00 -0.00000000000E+00 -0.55946565427E+03  0.55946565427E+03  0.00000000000E+00 0. -1.
         21    1    1    2  503  504 -0.48168269370E+02  0.64840074392E+02 -0.35683949163E+03  0.36586724397E+03  0.00000000000E+00 0. -1.
         21    1    1    2  504  502 -0.14304021820E+02  0.65991627857E+02 -0.14482019139E+03  0.15978857225E+03  0.00000000000E+00 0. -1.
         21    1    1    2  505  501  0.31922106108E+02 -0.11012948521E+03  0.29011925811E+02  0.11827601705E+03  0.00000000000E+00 0.  1.
         -2    1    1    2    0  503  0.30550185082E+02 -0.20702217039E+02  0.28837747458E+03  0.29072919263E+03  0.00000000000E+00 0.  1.
<scales pt_clust_3="54.78157" pt_clust_4="54.78157" pt_clust_5="140.54464" pt_clust_6="36.90387"></scales>
<clustering>
<clus scale="   36.904">  1  6  2 -1</clus>
<clus scale="   54.782">  3  4 -1 -1</clus>
<clus scale="  140.545">  1  5  2 -1</clus>
<clus scale="  152.920">  2  3  1 -1</clus>
</clustering>
</event>
<event>
 6    0  0.4017242E+002  0.1149592E+03  0.7546771E-02  0.1251652E+00
         -2   -1    0    0    0  501 -0.00000000000E+00  0.00000000000E+00  0.14123975193E+04  0.14123975193E+04  0.00000000000E+00 0. -1.
         21   -1    0    0  503  502  0.00000000000E+00 -0.00000000000E+00 -0.67115732870E+02  0.67115732870E+02  0.00000000000E+00 0.  1.
         21    1    1    2  503  504 -0.98479876562E+01 -0.32853232920E+02 -0.41377605893E+02  0.53744060543E+02  0.00000000000E+00 0.  1.
         21    1    1    2  504  505 -0.28634339728E+02 -0.24821690086E+02  0.45665648258E+02  0.59341327431E+02  0.00000000000E+00 0.  1.
         21    1    1    2  505  501 -0.87636754864E+02  0.37907134123E+02  0.24377939727E+03  0.26181204357E+03  0.00000000000E+00 0.  1.
         -2    1    1    2    0  502  0.12611908225E+03  0.19767788884E+02  0.10972143467E+04  0.11046158206E+04  0.00000000000E+00 0. -1.
<scales pt_clust_3="34.29749" pt_clust_4="48.44978" pt_clust_5="114.95924" pt_clust_6="14000.00000"></scales>
<clustering>
<clus scale="   34.297">  2  3  1 -1</clus>
<clus scale="   48.450">  2  4  1 -1</clus>
<clus scale="  114.959">  2  5  1 -1</clus>
<clus scale="   34.297">  2  3  1 -1</clus>
</clustering>
</event>
<event>
 6    0  0.4017242E+002  0.1656303E+03  0.7546771E-02  0.1182483E+00
         21   -1    0    0  505  502  0.00000000000E+00  0.00000000000E+00  0.40775754219E+03  0.40775754219E+03  0.00000000000E+00 0.  1.
          2   -1    0    0  504    0 -0.00000000000E+00 -0.00000000000E+00 -0.25896227818E+04  0.25896227818E+04  0.00000000000E+00 0. -1.
         21    1    1    2  503  502  0.31999311438E+02  0.95208379141E+02  0.15370489023E+03  0.18361313862E+03  0.00000000000E+00 0.  1.
         21    1    1    2  504  503 -0.15297307354E+02 -0.24043562578E+03  0.16547182704E+03  0.29227422620E+03  0.00000000000E+00 0.  1.
         21    1    1    2  505  501  0.27532007991E+02 -0.13615073846E+02 -0.24026400814E+02  0.38995507894E+02  0.00000000000E+00 0. -1.
          2    1    1    2  501    0 -0.44234012075E+02  0.15884232049E+03 -0.24770155561E+04  0.24824974513E+04  0.00000000000E+00 0. -1.
<scales pt_clust_3="99.52955" pt_clust_4="165.63027" pt_clust_5="30.71452" pt_clust_6="14000.00000"></scales>
<clustering>
<clus scale="   30.715">  1  5  2 -1</clus>
<clus scale="   99.530">  1  3  2 -1</clus>
<clus scale="  165.630">  1  4  2 -1</clus>
<clus scale="   30.715">  1  3  2 -1</clus>
</clustering>
</event>
<event>
 6    0  0.4017242E+002  0.1077243E+03  0.7546771E-02  0.1264843E+00
         -1   -1    0    0    0  501 -0.00000000000E+00  0.00000000000E+00  0.13510598024E+03  0.13510598024E+03  0.00000000000E+00 0.  1.
         21   -1    0    0  503  502  0.00000000000E+00 -0.00000000000E+00 -0.67638400787E+03  0.67638400787E+03  0.00000000000E+00 0. -1.
         21    1    1    2  503  504  0.42106360043E+02  0.11045638277E+03 -0.83218711535E+02  0.14456455998E+03  0.00000000000E+00 0. -1.
         21    1    1    2  504  501 -0.28213713406E+01 -0.12238348225E+03 -0.62441676313E+02  0.13742139500E+03  0.00000000000E+00 0. -1.
         21    1    1    2  505  502 -0.32060845852E+02 -0.40303216557E+02 -0.45047840237E+03  0.45341265764E+03  0.00000000000E+00 0. -1.
         -1    1    1    2    0  505 -0.72241428504E+01  0.52230316033E+02  0.54860762587E+02  0.76091375493E+02  0.00000000000E+00 0.  1.
<scales pt_clust_3="107.72427" pt_clust_4="14000.00000" pt_clust_5="51.49997" pt_clust_6="51.07750"></scales>
<clustering>
<clus scale="   51.500">  2  5  1 -1</clus>
<clus scale="   51.077">  1  6  2 -1</clus>
<clus scale="  107.724">  2  3  1 -1</clus>
<clus scale="   51.500">  2  3  1 -1</clus>
</clustering>
</event>
<event>
 6    0  0.4017242E+002  0.9488431E+02  0.7546771E-02  0.1291437E+00
          1   -1    0    0  503    0 -0.00000000000E+00  0.00000000000E+00  0.67873727263E+03  0.67873727263E+03  0.00000000000E+00 0. -1.
         21   -1    0    0  504  502  0.00000000000E+00 -0.00000000000E+00 -0.12361623907E+03  0.12361623907E+03  0.00000000000E+00 0.  1.
         21    1    1    2  503  505 -0.21598696489E+02 -0.27041010170E+02  0.22810155353E+02  0.41449042308E+02  0.00000000000E+00 0. -1.
         21    1    1    2  504  501 -0.89038550416E+02  0.39374997567E+02 -0.73605726279E+02  0.12204940325E+03  0.00000000000E+00 0.  1.
         21    1    1    2  505  502  0.16582114250E+02 -0.28240438992E+02  0.84500745914E+01  0.33821482345E+02  0.00000000000E+00 0.  1.
          1    1    1    2  501    0  0.94055132656E+02  0.15906451595E+02  0.59746652989E+03  0.60503358380E+03  0.00000000000E+00 0. -1.
<scales pt_clust_3="35.68505" pt_clust_4="94.88431" pt_clust_5="32.74888" pt_clust_6="14000.00000"></scales>
<clustering>
<clus scale="   32.749">  2  5  1 -1</clus>
<clus scale="   35.685">  2  3  1 -1</clus>
<clus scale="   94.884">  2  4  1 -1</clus>
<clus scale="   32.749">  2  3  1 -1</clus>
</clustering>
</event>
<event>
 6    0  0.4017242E+002  0.1387456E+03  0.7546771E-02  0.1215027E+00
         21   -1    0    0  503  502  0.00000000000E+00  0.00000000000E+00  0.21234665044E+03  0.21234665044E+03  0.00000000000E+00 0.  1.
         -2   -1    0    0    0  501 -0.00000000000E+00 -0.00000000000E+00 -0.19057354955E+03  0.19057354955E+03  0.00000000000E+00 0.  1.
         21    1    1    2  503  505 -0.77112814396E+02  0.64951093616E+01  0.67960298358E+02  0.10299113915E+03  0.00000000000E+00 0.  1.
         21    1    1    2  504  501 -0.29086936465E+02  0.38609871814E+02  0.63548626724E+01  0.48756090430E+02  0.00000000000E+00 0.  1.
         21    1    1    2  505  504 -0.17656700103E+02  0.49273420576E+02  0.43639154942E+02  0.68146935939E+02  0.00000000000E+00 0.  1.
         -2    1    1    2    0  502  0.12385645096E+03 -0.94378401752E+02 -0.96181215081E+02  0.18302603448E+03  0.00000000000E+00 0.  1.
<scales pt_clust_3="77.38587" pt_clust_4="34.09208" pt_clust_5="34.09208" pt_clust_6="134.13376"></scales>
<clustering>
<clus scale="   34.092">  4  5 -1 -1</clus>
<clus scale="   77.386">  1  3  2 -1</clus>
<clus scale="  134.134">  2  6  1 -1</clus>
<clus scale="   77.386">  1  3  2 -1</clus>
</clustering>
</event>
<event>
 6    0  0.4017242E+002  0.7623927E+02  0.7546771E-02  0.1340076E+00
          2   -1    0    0  503    0 -0.00000000000E+00  0.00000000000E+00  0.14824920356E+04  0.14824920356E+04  0.00000000000E+00 0.  1.
         21   -1    0    0  504  502  0.00000000000E+00 -0.00000000000E+00 -0.57522728196E+02  0.57522728196E+02  0.00000000000E+00 0. -1.
         21    1    1    2  503  505  0.44920948178E+02 -0.87683940541E+01  0.54906339088E+03  0.55096767921E+03  0.00000000000E+00 0. -1.
         21    1    1    2  504  501  0.26472753145E+02 -0.25929379753E+02  0.37664897526E+02  0.52837334330E+02  0.00000000000E+00 0.  1.
         21    1    1    2  505  502 -0.73039648006E+02  0.88406047781E+02  0.20242374420E+02  0.11644815665E+03  0.00000000000E+00 0. -1.
          2    1    1    2  501    0  0.16459466828E+01 -0.53708273974E+02  0.81799864457E+03  0.81976159361E+03  0.00000000000E+00 0.  1.
<scales pt_clust_3="46.36048" pt_clust_4="37.05590" pt_clust_5="14000.00000" pt_clust_6="76.23927"></scales>
<clustering>
<clus scale="   37.056">  2  4  1 -1</clus>
<clus scale="   46.360">  1  3  2 -1</clus>
<clus scale="   76.239">  1  6  2 -1</clus>
<clus scale="   37.056">  2  3  1 -1</clus>
</clustering>
</event>
<event>
 6    0  0.4017242E+002  0.1505881E+03  0.7546771E-02  0.1199752E+00
          2   -1    0    0  504    0 -0.00000000000E+00  0.00000000000E+00  0.90997338430E+03  0.90997338430E+03  0.00000000000E+00 0.  1.
         21   -1    0    0  503  502  0.00000000000E+00 -0.00000000000E+00 -0.12975088436E+03  0.12975088436E+03  0.00000000000E+00 0. -1.
         21    1    1    2  503  505  0.16791815189E+02  0.54543516101E+02 -0.76015371283E+01  0.57573809781E+02  0.00000000000E+00 0. -1.
         21    1    1    2  504  502 -0.44677494020E+02 -0.16923105909E+03  0.27385697472E+02  0.17715870359E+03  0.00000000000E+00 0. -1.
         21    1    1    2  505  501  0.30048628302E+01  0.66792631800E+02  0.31239592152E+02  0.73798353513E+02  0.00000000000E+00 0. -1.
          2    1    1    2  501    0  0.24880816001E+02  0.47894911189E+02  0.72919874744E+03  0.73119340177E+03  0.00000000000E+00 0.  1.
<scales pt_clust_3="36.78790" pt_clust_4="145.22830" pt_clust_5="36.78790" pt_clust_6="53.97201"></scales>
<clustering>
<clus scale="   36.788">  3  5 -1 -1</clus>
<clus scale="   53.972">  1  6  2 -1</clus>
<clus scale="  145.228">  1  4  2 -1</clus>
<clus scale="  150.588">  2  3  1 -1</clus>
</clustering>
</event>
<event>
 6    0  0.4017242E+002  0.7420028E+02  0.7546771E-02  0.1346366E+00
         21   -1    0    0  505  502  0.00000000000E+00  0.00000000000E+00  0.83199010935E+02  0.83199010935E+02  0.00000000000E+00 0. -1.
          2   -1    0    0  504    0 -0.00000000000E+00 -0.00000000000E+00 -0.33654232839E+04  0.33654232839E+04  0.00000000000E+00 0. -1.
         21    1    1    2  503  501  0.52273529102E+02  0.97684761402E+02 -0.28422660227E+03  0.30505670931E+03  0.00000000000E+00 0. -1.
         21    1    1    2  504  502  0.74835379600E+01 -0.37033921986E+02 -0.22727972736E+01  0.37850763870E+02  0.00000000000E+00 0. -1.
         21    1    1    2  505  503 -0.57604495947E+02 -0.15909542841E+02  0.38545642278E+02  0.71113698015E+02  0.00000000000E+00 0. -1.
          2    1    1    2  501    0 -0.21525711150E+01 -0.44741296574E+02 -0.30342705157E+04  0.30346011237E+04  0.00000000000E+00 0. -1.
<scales pt_clust_3="14000.00000" pt_clust_4="37.78247" pt_clust_5="74.20028" pt_clust_6="44.88563"></scales>
<clustering>
<clus scale="   37.782">  1  4  2 -1</clus>
<clus scale="   44.886">  2  6  1 -1</clus>
<clus scale="   74.200">  1  5  2 -1</clus>
<clus scale="   37.782">  1  3  2 -1</clus>
</clustering>
</event>
<event>
 6    0  0.4017242E+002  0.2652153E+03  0.7546771E-02  0.1104050E+00
          2   -1    0    0  503    0 -0.00000000000E+00  0.00000000000E+00  0.53888583141E+03  0.53888583141E+03  0.00000000000E+00 0.  1.
         21   -1    0    0  501  502  0.00000000000E+00 -0.00000000000E+00 -0.19544174082E+04  0.19544174082E+04  0.00000000000E+00 0. -1.
         21    1    1    2  503  505  0.27509777009E+01  0.40066475757E+02 -0.53676343801E-01  0.40160842110E+02  0.00000000000E+00 0. -1.
         21    1    1    2  504  502 -0.41654837958E+02  0.14262319631E+02 -0.14276954966E+04  0.14283742403E+04  0.00000000000E+00 0. -1.
         21    1    1    2  505  504 -0.70107186002E+02  0.22747044953E+03 -0.42864602766E+03  0.49030117272E+03  0.00000000000E+00 0. -1.
          2    1    1    2  501    0  0.10901104626E+03 -0.28179924492E+03  0.44086362386E+03  0.53446698447E+03  0.00000000000E+00 0.  1.
<scales pt_clust_3="40.16081" pt_clust_4="44.03564" pt_clust_5="14000.00000" pt_clust_6="265.21531"></scales>
<clustering>
<clus scale="   40.161">  1  3  2 -1</clus>
<clus scale="   44.036">  2  4  1 -1</clus>
<clus scale="  265.215">  1  6  2 -1</clus>
<clus scale="   44.036">  2  3  1 -1</clus>
</clustering>
</event>
<event>
 6    0  0.4017242E+002  0.7793946E+02  0.7546771E-02  0.1335003E+00
         21   -1    0    0  505  502  0.00000000000E+00  0.00000000000E+00  0.24958462137E+02  0.24958462137E+02  0.00000000000E+00 0. -1.
          2   -1    0    0  504    0 -0.00000000000E+00 -0.00000000000E+00 -0.26145319177E+04  0.26145319177E+04  0.00000000000E+00 0. -1.
         21    1    1    2  503  502 -0.46870688134E+02  0.61736800097E+01 -0.88294267753E+03  0.88420741206E+03  0.00000000000E+00 0. -1.
         21    1    1    2  504  503  0.29813865769E+02  0.32588239674E+02 -0.12688299465E+04  0.12695984771E+04  0.00000000000E+00 0. -1.
         21    1    1    2  505  501  0.74397278291E+02  0.24438508624E+02 -0.60784212566E+02  0.99130803579E+02  0.00000000000E+00 0. -1.
          2    1    1    2  501    0 -0.57340455925E+02 -0.63200428308E+02 -0.37701661900E+03  0.38655368712E+03  0.00000000000E+00 0. -1.
<scales pt_clust_3="38.79702" pt_clust_4="44.16854" pt_clust_5="77.93946" pt_clust_6="14000.00000"></scales>
<clustering>
<clus scale="   44.169">  2  4  1 -1</clus>
<clus scale="   38.797">  2  3  1 -1</clus>
<clus scale="   77.939">  1  5  2 -1</clus>
<clus scale="   77.939">  1  3  2 -1</clus>
</clustering>
</event>
<event>
 6    0  0.4017242E+002  0.9607814E+02  0.7546771E-02  0.1288766E+00
         21   -1    0    0  504  502  0.00000000000E+00  0.00000000000E+00  0.30945461916E+02  0.30945461916E+02  0.00000000000E+00 0. -1.
          2   -1    0    0  503    0 -0.00000000000E+00 -0.00000000000E+00 -0.23360842489E+04  0.23360842489E+04  0.00000000000E+00 0.  1.
         21    1    1    2  503  502  0.66331890061E+02  0.15566407616E+02 -0.36431607385E+02  0.77262505148E+02  0.00000000000E+00 0. -1.
         21    1    1    2  504  505  0.19791486945E+02  0.27636156142E+02 -0.87176273682E+02  0.93569026792E+02  0.00000000000E+00 0.  1.
         21    1    1    2  505  501 -0.10290594472E+03  0.55433209469E+02 -0.58660252294E+03  0.59813459529E+03  0.00000000000E+00 0. -1.
          2    1    1    2  501    0  0.16782567710E+02 -0.98635773226E+02 -0.15949283830E+04  0.15980635836E+04  0.00000000000E+00 0.  1.
<scales pt_clust_3="88.50067" pt_clust_4="33.99206" pt_clust_5="96.07814" pt_clust_6="14000.00000"></scales>
<clustering>
<clus scale="   33.992">  1  4  2 -1</clus>
<clus scale="   88.501">  1  3  2 -1</clus>
<clus scale="   96.078">  1  5  2 -1</clus>
<clus scale="   33.992">  1  3  2 -1</clus>
</clustering>
</event>
<event>
 6    0  0.4017242E+002  0.9278802E+02  0.7546771E-02  0.1296237E+00
         21   -1    0    0  504  502  0.00000000000E+00  0.00000000000E+00  0.40484266176E+03  0.40484266176E+03  0.00000000000E+00 0. -1.
          3   -1    0    0  505    0 -0.00000000000E+00 -0.00000000000E+00 -0.13188248167E+04  0.13188248167E+04  0.00000000000E+00 0.  1.
         21    1    1    2  503  501  0.62548885612E+02  0.16798038437E+02 -0.43729466303E+01  0.64912709456E+02  0.00000000000E+00 0. -1.
         21    1    1    2  504  503  0.81135615619E+02  0.28794116000E+02  0.26116277951E+03  0.27498742997E+03  0.00000000000E+00 0. -1.
         21    1    1    2  505  502 -0.11891007665E+03 -0.76913556638E+02  0.58950614106E+02  0.15339646811E+03  0.00000000000E+00 0. -1.
          3    1    1    2  501    0 -0.24774424581E+02  0.31321402201E+02 -0.12297226019E+04  0.12303708709E+04  0.00000000000E+00 0.  1.
<scales pt_clust_3="60.32099" pt_clust_4="14000.00000" pt_clust_5="92.78802" pt_clust_6="39.93498"></scales>
<clustering>
<clus scale="   39.935">  2  6  1 -1</clus>
<clus scale="   60.321">  2  3  1 -1</clus>
<clus scale="   92.788">  2  5  1 -1</clus>
<clus scale="   92.788">  1  3  2 -1</clus>
</clustering>
</event>
<event>
 6    0  0.4017242E+002  0.2513697E+03  0.7546771E-02  0.1112442E+00
         21   -1    0    0  504  502  0.00000000000E+00  0.00000000000E+00  0.33763826354E+03  0.33763826354E+03  0.00000000000E+00 0.  1.
          1   -1    0    0  503    0 -0.00000000000E+00 -0.00000000000E+00 -0.14129985914E+04  0.14129985914E+04  0.00000000000E+00 0. -1.
         21    1    1    2  503  502 -0.18902841454E+02  0.46778937675E+02  0.25693161210E+02  0.56619121841E+02  0.00000000000E+00 0. -1.
         21    1    1    2  504  505  0.29015700046E+03 -0.39801144874E+02  0.12973154638E+03  0.32032091747E+03  0.00000000000E+00 0.  1.
         21    1    1    2  505  501 -0.18265114532E+03  0.12153921319E+03 -0.11626025959E+03  0.24829351419E+03  0.00000000000E+00 0.  1.
          1    1    1    2  501    0 -0.88603013683E+02 -0.12851700599E+03 -0.11145247759E+04  0.11254033014E+04  0.00000000000E+00 0. -1.
<scales pt_clust_3="50.45380" pt_clust_4="14000.00000" pt_clust_5="251.36970" pt_clust_6="155.59189"></scales>
<clustering>
<clus scale="   50.454">  1  3  2 -1</clus>
<clus scale="  155.592">  2  6  1 -1</clus>
<clus scale="  251.370">  2  5  1 -1</clus>
<clus scale="   50.454">  1  3  2 -1</clus>
</clustering>
</event>
<event>
 6    0  0.4017242E+002  0.1300937E+03  0.7546771E-02  0.1227317E+00
         21   -1    0    0  504  502  0.00000000000E+00  0.00000000000E+00  0.95689608382E+02  0.95689608382E+02  0.00000000000E+00 0. -1.
          2   -1    0    0  505    0 -0.00000000000E+00 -0.00000000000E+00 -0.19944602902E+04  0.19944602902E+04  0.00000000000E+00 0. -1.
         21    1    1    2  503  502  0.18392860836E+01 -0.14536184048E+03 -0.20221411376E+03  0.24904617131E+03  0.00000000000E+00 0. -1.
         21    1    1    2  504  501 -0.12506868143E+02  0.65992091834E+02  0.43426938092E+02  0.79982978736E+02  0.00000000000E+00 0. -1.
         21    1    1    2  505  503  0.28309281069E+02 -0.32048892728E+02 -0.43879538542E+02  0.61269575014E+02  0.00000000000E+00 0. -1.
          2    1    1    2  501    0 -0.17641699010E+02  0.11141864137E+03 -0.16961039676E+04  0.16998511735E+04  0.00000000000E+00 0. -1.
<scales pt_clust_3="31.39236" pt_clust_4="67.16679" pt_clust_5="31.39236" pt_clust_6="116.50798"></scales>
<clustering>
<clus scale="   31.392">  3  5 -1 -1</clus>
<clus scale="   67.167">  1  4  2 -1</clus>
<clus scale="  116.508">  2  6  1 -1</clus>
<clus scale="   67.167">  1  3  2 -1</clus>
</clustering>
</event>
<event>
 6    0  0.4017242E+002  0.1103172E+03  0.7546771E-02  0.1259984E+00
          2   -1    0    0  503    0 -0.00000000000E+00  0.00000000000E+00  0.15592688759E+03  0.15592688759E+03  0.00000000000E+00 0. -1.
         21   -1    0    0  504  502  0.00000000000E+00 -0.00000000000E+00 -0.22038535398E+03  0.22038535398E+03  0.00000000000E+00 0.  1.
         21    1    1    2  503  505 -0.35701022804E+02  0.25155657357E+02 -0.77859839039E+00  0.43680388526E+02  0.00000000000E+00 0.  1.
         21    1    1    2  504  501  0.76253786347E+02  0.69975007039E+02 -0.11521293523E+03  0.15487143696E+03  0.00000000000E+00 0.  1.
         21    1    1    2  505  502 -0.74806859095E+02 -0.19295106620E+02 -0.45880446830E+01  0.77391326782E+02  0.00000000000E+00 0.  1.
          2    1    1    2  501    0  0.34254095552E+02 -0.75835557776E+02  0.56121111907E+02  0.10036908930E+03  0.00000000000E+00 0. -1.
<scales pt_clust_3="36.70515" pt_clust_4="98.92761" pt_clust_5="36.70515" pt_clust_6="83.21283"></scales>
<clustering>
<clus scale="   36.705">  3  5 -1 -1</clus>
<clus scale="   83.213">  1  6  2 -1</clus>
<clus scale="   98.928">  2  4  1 -1</clus>
<clus scale="   98.928">  2  3  1 -1</clus>
</clustering>
</event>
<event>
 6    0  0.4017242E+002  0.1005422E+03  0.7546771E-02  0.1279160E+00
          1   -1    0    0  505    0 -0.00000000000E+00  0.00000000000E+00  0.23321242319E+03  0.23321242319E+03  0.00000000000E+00 0.  1.
         21   -1    0    0  503  502  0.00000000000E+00 -0.00000000000E+00 -0.51519540710E+03  0.51519540710E+03  0.00000000000E+00 0.  1.
         21    1    1    2  503  504  0.14656569587E+02  0.64713959082E+02 -0.28169944763E+03  0.28940851806E+03  0.00000000000E+00 0. -1.
         21    1    1    2  504  501  0.66825119125E+01 -0.14545218420E+03 -0.10981680970E+03  0.18237523282E+03  0.00000000000E+00 0.  1.
         21    1    1    2  505  502  0.48310031764E+02  0.71519698537E+02 -0.51798853513E+02  0.10065807306E+03  0.00000000000E+00 0.  1.
          1    1    1    2  501    0 -0.69649113263E+02  0.92185265810E+01  0.16133212693E+03  0.17596600635E+03  0.00000000000E+00 0.  1.
<scales pt_clust_3="66.35293" pt_clust_4="14000.00000" pt_clust_5="100.54215" pt_clust_6="70.09575"></scales>
<clustering>
<clus scale="   66.353">  2  3  1 -1</clus>
<clus scale="   70.096">  1  6  2 -1</clus>
<clus scale="  100.542">  1  5  2 -1</clus>
<clus scale="   66.353">  2  3  1 -1</clus>
</clustering>
</event>
<event>
 6    0  0.4017242E+002  0.8407500E+02  0.7546771E-02  0.1317869E+00
          2   -1    0    0  503    0 -0.00000000000E+00  0.00000000000E+00  0.80100858617E+03  0.80100858617E+03  0.00000000000E+00 0. -1.
         21   -1    0    0  504  502  0.00000000000E+00 -0.00000000000E+00 -0.34457351283E+02  0.34457351283E+02  0.00000000000E+00 0.  1.
         21    1    1    2  503  505  0.73355115220E+02 -0.23558077159E+01  0.20898274120E+03  0.22149561819E+03  0.00000000000E+00 0. -1.
         21    1    1    2  504  501 -0.35395212186E+02  0.36478895244E+02  0.11088802368E+03  0.12198231282E+03  0.00000000000E+00 0. -1.
         21    1    1    2  505  502 -0.72909619411E+02  0.18271095824E+02  0.49853837984E+02  0.90194515948E+02  0.00000000000E+00 0.  1.
          2    1    1    2  501    0  0.34949716378E+02 -0.52394183353E+02  0.39682663202E+03  0.40179349049E+03  0.00000000000E+00 0. -1.
<scales pt_clust_3="14000.00000" pt_clust_4="50.82845" pt_clust_5="84.07500" pt_clust_6="58.69245"></scales>
<clustering>
<clus scale="   50.828">  2  4  1 -1</clus>
<clus scale="   58.692">  1  6  2 -1</clus>
<clus scale="   84.075">  2  5  1 -1</clus>
<clus scale="   50.828">  2  3  1 -1</clus>
</clustering>
</event>
<event>
 6    0  0.4017242E+002  0.1335122E+03  0.7546771E-02  0.1222335E+00
         21   -1    0    0  501  502  0.00000000000E+00  0.00000000000E+00  0.75180109572E+02  0.75180109572E+02  0.00000000000E+00 0.  1.
         -1   -1    0    0    0  501 -0.00000000000E+00 -0.00000000000E+00 -0.35459781471E+03  0.35459781471E+03  0.00000000000E+00 0.  1.
         21    1    1    2  503  504 -0.50273954774E+02  0.10717835814E+02 -0.44575148903E+02  0.68038859726E+02  0.00000000000E+00 0.  1.
         21    1    1    2  504  502 -0.95500621767E+01 -0.32181936470E+02  0.53251928421E+01  0.33988798174E+02  0.00000000000E+00 0.  1.
         21    1    1    2  505  503 -0.68238658046E+02 -0.18418885691E+02 -0.26527824970E+02  0.75495001819E+02  0.00000000000E+00 0.  1.
         -1    1    1    2    0  505  0.12806267500E+03  0.39882986347E+02 -0.21363992411E+03  0.25225526457E+03  0.00000000000E+00 0.  1.
<scales pt_clust_3="32.38156" pt_clust_4="33.56904" pt_clust_5="32.38156" pt_clust_6="127.99894"></scales>
<clustering>
<clus scale="   32.382">  3  5 -1 -1</clus>
<clus scale="   33.569">  1  4  2 -1</clus>
<clus scale="  127.999">  2  6  1 -1</clus>
<clus scale="   33.569">  1  3  2 -1</clus>
</clustering>
</event>
<event>
 6    0  0.4017242E+002  0.1027081E+03  0.7546771E-02  0.1274702E+00
          2   -1    0    0  505    0 -0.00000000000E+00  0.00000000000E+00  0.14115001451E+04  0.14115001451E+04  0.00000000000E+00 0. -1.
         21   -1    0    0  503  502  0.00000000000E+00 -0.00000000000E+00 -0.20790207694E+03  0.20790207694E+03  0.00000000000E+00 0. -1.
         21    1    1    2  503  504  0.64706613358E+01 -0.36913324200E+02 -0.10080597625E+03  0.10754677034E+03  0.00000000000E+00 0. -1.
         21    1    1    2  504  501 -0.24316245216E+02 -0.56016390091E+02 -0.75445244279E+02  0.97062354312E+02  0.00000000000E+00 0.  1.
         21    1    1    2  505  502 -0.56137981765E+02  0.35787931365E+02  0.54189592319E+02  0.85841487311E+02  0.00000000000E+00 0. -1.
          2    1    1    2  501    0  0.73983565646E+02  0.57141782926E+02  0.13256596964E+04  0.13289516101E+04  0.00000000000E+00 0. -1.
<scales pt_clust_3="33.65832" pt_clust_4="33.65832" pt_clust_5="66.57514" pt_clust_6="93.28957"></scales>
<clustering>
<clus scale="   33.658">  3  4 -1 -1</clus>
<clus scale="   66.575">  2  5  1 -1</clus>
<clus scale="   93.290">  1  6  2 -1</clus>
<clus scale="   66.575">  2  3  1 -1</clus>
</clustering>
</event>
<event>
 6    0  0.4017242E+002  0.9985439E+02  0.7546771E-02  0.1280602E+00
          1   -1    0    0  504    0 -0.00000000000E+00  0.00000000000E+00  0.52669475838E+03  0.52669475838E+03  0.00000000000E+00 0. -1.
         21   -1    0    0  503  502  0.00000000000E+00 -0.00000000000E+00 -0.21368542580E+03  0.21368542580E+03  0.00000000000E+00 0. -1.
         21    1    1    2  503  505  0.21352233411E+02 -0.23667987990E+02 -0.86436069900E+02  0.92126465833E+02  0.00000000000E+00 0. -1.
         21    1    1    2  504  502 -0.65457880695E+02 -0.62512521946E+02 -0.71102365493E+02  0.11510037326E+03  0.00000000000E+00 0. -1.
         21    1    1    2  505  501 -0.41927760370E+02  0.34219392565E+02  0.22229382117E+01  0.54164982889E+02  0.00000000000E+00 0. -1.
          1    1    1    2  501    0  0.86033407654E+02  0.51961117372E+02  0.46832482976E+03  0.47898836220E+03  0.00000000000E+00 0. -1.
<scales pt_clust_3="31.87619" pt_clust_4="14000.00000" pt_clust_5="47.55249" pt_clust_6="99.85439"></scales>
<clustering>
<clus scale="   31.876">  2  3  1 -1</clus>
<clus scale="   47.552">  2  5  1 -1</clus>
<clus scale="   99.854">  1  6  2 -1</clus>
<clus scale="   31.876">  2  3  1 -1</clus>
</clustering>
</event>
<event>
 6    0  0.4017242E+002  0.1446820E+03  0.7546771E-02  0.1207164E+00
          2   -1    0    0  504    0 -0.00000000000E+00  0.00000000000E+00  0.28043623119E+03  0.28043623119E+03  0.00000000000E+00 0.  1.
         21   -1    0    0  503  502  0.00000000000E+00 -0.00000000000E+00 -0.79961113736E+03  0.79961113736E+03  0.00000000000E+00 0. -1.
         21    1    1    2  503  501 -0.13928080839E+03 -0.67043773326E+02 -0.61255393472E+03  0.63175654651E+03  0.00000000000E+00 0. -1.
         21    1    1    2  504  505  0.47102191349E+02  0.90221246079E+02  0.25726498526E+01  0.10180917543E+03  0.00000000000E+00 0.  1.
         21    1    1    2  505  502 -0.91728656418E+01  0.54380621079E+02 -0.10159690635E+03  0.11559984772E+03  0.00000000000E+00 0. -1.
          2    1    1    2  501    0  0.10135148268E+03 -0.77558093832E+02  0.19240328504E+03  0.23088179888E+03  0.00000000000E+00 0.  1.
<scales pt_clust_3="144.68202" pt_clust_4="104.96054" pt_clust_5="55.14883" pt_clust_6="14000.00000"></scales>
<clustering>
<clus scale="   55.149">  2  5  1 -1</clus>
<clus scale="  104.961">  1  4  2 -1</clus>
<clus scale="  144.682">  2  3  1 -1</clus>
<clus scale="   55.149">  2  3  1 -1</clus>
</clustering>
</event>
<event>
 6    0  0.4017242E+002  0.1648112E+03  0.7546771E-02  0.1183370E+00
         21   -1    0    0  503  502  0.00000000000E+00  0.00000000000E+00  0.26205917394E+04  0.26205917394E+04  0.00000000000E+00 0. -1.
         -3   -1    0    0    0  501 -0.00000000000E+00 -0.00000000000E+00 -0.39468973480E+03  0.39468973480E+03  0.00000000000E+00 0.  1.
         21    1    1    2  503  504 -0.27159351733E+02 -0.46201734103E+02  0.24962100689E+04  0.24967853209E+04  0.00000000000E+00 0. -1.
         21    1    1    2  504  501  0.24899964260E+02  0.15659562283E+03 -0.10055685070E+03  0.18776015960E+03  0.00000000000E+00 0.  1.
         21    1    1    2  505  502  0.47634984896E+02  0.53305376670E+02  0.21774867357E+02  0.74730849162E+02  0.00000000000E+00 0.  1.
         -3    1    1    2    0  505 -0.45375597424E+02 -0.16369926540E+03 -0.19152608097E+03  0.25600514453E+03  0.00000000000E+00 0.  1.
<scales pt_clust_3="53.59320" pt_clust_4="14000.00000" pt_clust_5="51.21951" pt_clust_6="164.81118"></scales>
<clustering>
<clus scale="   53.593">  1  3  2 -1</clus>
<clus scale="   51.220">  1  5  2 -1</clus>
<clus scale="  164.811">  2  6  1 -1</clus>
<clus scale="   53.593">  1  3  2 -1</clus>
</clustering>
</event>
<event>
 6    0  0.4017242E+002  0.1514662E+03  0.7546771E-02  0.1198683E+00
          1   -1    0    0  504    0 -0.00000000000E+00  0.00000000000E+00  0.20362392839E+04  0.20362392839E+04  0.00000000000E+00 0.  1.
         21   -1    0    0  505  502  0.00000000000E+00 -0.00000000000E+00 -0.24488844327E+04  0.24488844327E+04  0.00000000000E+00 0. -1.
         21    1    1    2  503  502 -0.68734837776E+01  0.15165904519E+03 -0.24345929739E+04  0.24393217622E+04  0.00000000000E+00 0. -1.
         21    1    1    2  504  503 -0.22715262012E+02 -0.63275478155E+02  0.60374456327E+03  0.60747614516E+03  0.00000000000E+00 0. -1.
         21    1    1    2  505  501  0.18890763260E+02 -0.54327250269E+02  0.74363060843E+02  0.94011573098E+02  0.00000000000E+00 0. -1.
          1    1    1    2  501    0  0.10697982530E+02 -0.34056316766E+02  0.13438402011E+04  0.13443142362E+04  0.00000000000E+00 0.  1.
<scales pt_clust_3="151.46618" pt_clust_4="14000.00000" pt_clust_5="61.85788" pt_clust_6="35.69705"></scales>
<clustering>
<clus scale="   35.697">  1  6  2 -1</clus>
<clus scale="   61.858">  1  5  2 -1</clus>
<clus scale="  151.466">  2  3  1 -1</clus>
<clus scale="  151.466">  2  3  1 -1</clus>
</clustering>
</event>
<event>
 6    0  0.4017242E+002  0.6266240E+02  0.7546771E-02  0.1386987E+00
         21   -1    0    0  501  502  0.00000000000E+00  0.00000000000E+00  0.21051793231E+04  0.21051793231E+04  0.00000000000E+00 0.  1.
          2   -1    0    0  504    0 -0.00000000000E+00 -0.00000000000E+00 -0.77192818669E+03  0.77192818669E+03  0.00000000000E+00 0. -1.
         21    1    1    2  503  502 -0.17986776791E+02  0.30635640582E+02  0.18188420525E+04  0.18191889618E+04  0.00000000000E+00 0.  1.
         21    1    1    2  504  505  0.11472922693E+03  0.68016537767E+01  0.49434156040E+02  0.12511112577E+03  0.00000000000E+00 0.  1.
         21    1    1    2  505  503 -0.35314351292E+02 -0.45101315414E+02  0.19342656106E+03  0.20173018263E+03  0.00000000000E+00 0.  1.
          2    1    1    2  501    0 -0.61428098852E+02  0.76640210552E+01 -0.72845163315E+03  0.73107723968E+03  0.00000000000E+00 0. -1.
<scales pt_clust_3="35.52558" pt_clust_4="14000.00000" pt_clust_5="53.40429" pt_clust_6="62.66240"></scales>
<clustering>
<clus scale="   35.526">  1  3  2 -1</clus>
<clus scale="   53.404">  1  5  2 -1</clus>
<clus scale="   62.662">  2  6  1 -1</clus>
<clus scale="   35.526">  1  3  2 -1</clus>
</clustering>
</event>
<event>
 6    0  0.4017242E+002  0.1014210E+03  0.7546771E-02  0.1277336E+00
         21   -1    0    0  503  502  0.00000000000E+00  0.00000000000E+00  0.17609521057E+03  0.17609521057E+03  0.00000000000E+00 0. -1.
          2   -1    0    0  502    0 -0.00000000000E+00 -0.00000000000E+00 -0.22412352963E+04  0.22412352963E+04  0.00000000000E+00 0.  1.
         21    1    1    2  503  504  0.22643327186E+02 -0.23739411114E+02  0.52682910542E+02  0.62062621354E+02  0.00000000000E+00 0. -1.
         21    1    1    2  504  505  0.10206510453E+03  0.21414063123E+02  0.49177342480E+02  0.11530073146E+03  0.00000000000E+00 0. -1.
         21    1    1    2  505  501 -0.89937325512E+02  0.19163231604E+02 -0.21911917794E+02  0.94530863251E+02  0.00000000000E+00 0. -1.
          2    1    1    2  501    0 -0.34771106203E+02 -0.16837883613E+02 -0.21450884210E+04  0.21454362908E+04  0.00000000000E+00 0.  1.
<scales pt_clust_3="32.80671" pt_clust_4="101.42098" pt_clust_5="14000.00000" pt_clust_6="38.61879"></scales>
<clustering>
<clus scale="   32.807">  1  3  2 -1</clus>
<clus scale="   38.619">  2  6  1 -1</clus>
<clus scale="  101.421">  1  4  2 -1</clus>
<clus scale="   32.807">  1  3  2 -1</clus>
</clustering>
</event>
<event>
 6    0  0.4017242E+002  0.1022154E+03  0.7546771E-02  0.1275705E+00
         21   -1    0    0  504  502  0.00000000000E+00  0.00000000000E+00  0.13590731388E+02  0.13590731388E+02  0.00000000000E+00 0.  1.
          1   -1    0    0  503    0 -0.00000000000E+00 -0.00000000000E+00 -0.26708391000E+04  0.26708391000E+04  0.00000000000E+00 0. -1.
         21    1    1    2  503  502 -0.72390941908E+02  0.65353222366E+02 -0.12696137431E+04  0.12733540548E+04  0.00000000000E+00 0.  1.
         21    1    1    2  504  505  0.44708682287E+02 -0.28730271425E+02 -0.16299041181E+03  0.17143561214E+03  0.00000000000E+00 0.  1.
         21    1    1    2  505  501 -0.65273073662E+02  0.24426557482E+02 -0.28317070285E+03  0.29162112031E+03  0.00000000000E+00 0.  1.
          1    1    1    2  501    0  0.92955333283E+02 -0.61049508424E+02 -0.94147351078E+03  0.94801904409E+03  0.00000000000E+00 0. -1.
<scales pt_clust_3="102.21537" pt_clust_4="53.14409" pt_clust_5="46.54369" pt_clust_6="14000.00000"></scales>
<clustering>
<clus scale="   53.144">  1  4  2 -1</clus>
<clus scale="   46.544">  1  5  2 -1</clus>
<clus scale="  102.215">  2  3  1 -1</clus>
<clus scale="   53.144">  1  3  2 -1</clus>
</clustering>
</event>
<event>
 6    0  0.4017242E+002  0.5682004E+03  0.7546771E-02  0.9973669E-01
         21   -1    0    0  503  502  0.00000000000E+00  0.00000000000E+00  0.35265080602E+04  0.35265080602E+04  0.00000000000E+00 0. -1.
          3   -1    0    0  504    0 -0.00000000000E+00 -0.00000000000E+00 -0.14984324826E+03  0.14984324826E+03  0.00000000000E+00 0.  1.
         21    1    1    2  503  501 -0.33489444298E+02 -0.14220982433E+02  0.17235666081E+03  0.17615503895E+03  0.00000000000E+00 0. -1.
         21    1    1    2  504  505  0.45428333327E+02  0.58828316302E+02  0.21857965316E+03  0.23087132573E+03  0.00000000000E+00 0. -1.
         21    1    1    2  505  502  0.36855562991E+03  0.35745269458E+03  0.24347540664E+04  0.24882992274E+04  0.00000000000E+00 0. -1.
          3    1    1    2  501    0 -0.38049451894E+03 -0.40206002845E+03  0.55097443156E+03  0.78102571639E+03  0.00000000000E+00 0.  1.
<scales pt_clust_3="36.38378" pt_clust_4="36.16799" pt_clust_5="36.16799" pt_clust_6="560.19254"></scales>
<clustering>
<clus scale="   36.168">  4  5 -1 -1</clus>
<clus scale="   36.384">  1  3  2 -1</clus>
<clus scale="  560.193">  2  6  1 -1</clus>
<clus scale="   36.384">  1  3  2 -1</clus>
</clustering>
</event>
<event>
 6    0  0.4017242E+002  0.8654507E+02  0.7546771E-02  0.1311441E+00
          1   -1    0    0  503    0 -0.00000000000E+00  0.00000000000E+00  0.23462196145E+04  0.23462196145E+04  0.00000000000E+00 0. -1.
         21   -1    0    0  504  502  0.00000000000E+00 -0.00000000000E+00 -0.29824979891E+02  0.29824979891E+02  0.00000000000E+00 0. -1.
         21    1    1    2  503  502  0.27862715420E+01 -0.84952836711E+02  0.37950700414E+03  0.38890913330E+03  0.00000000000E+00 0. -1.
         21    1    1    2  504  505 -0.37745265277E+02 -0.18152287555E+02  0.86879441975E+02  0.96448162410E+02  0.00000000000E+00 0. -1.
         21    1    1    2  505  501 -0.43309010572E+02  0.62093585183E+02  0.55169241164E+02  0.93674590409E+02  0.00000000000E+00 0. -1.
          1    1    1    2  501    0  0.78268004307E+02  0.41011539083E+02  0.17948389474E+04  0.17970127083E+04  0.00000000000E+00 0. -1.
<scales pt_clust_3="14000.00000" pt_clust_4="41.88330" pt_clust_5="78.10120" pt_clust_6="86.54507"></scales>
<clustering>
<clus scale="   41.883">  2  4  1 -1</clus>
<clus scale="   86.545">  1  6  2 -1</clus>
<clus scale="   78.101">  2  5  1 -1</clus>
<clus scale="   41.883">  2  3  1 -1</clus>
</clustering>
</event>
<event>
 6    0  0.4017242E+002  0.1216517E+03  0.7546771E-02  0.1240397E+00
         21   -1    0    0  504  502  0.00000000000E+00  0.00000000000E+00  0.11732257746E+04  0.11732257746E+04  0.00000000000E+00 0. -1.
          2   -1    0    0  505    0 -0.00000000000E+00 -0.00000000000E+00 -0.24113645725E+03  0.24113645725E+03  0.00000000000E+00 0.  1.
         21    1    1    2  503  501 -0.90313451857E+00 -0.56410159756E+02  0.50628212616E+02  0.75803282834E+02  0.00000000000E+00 0. -1.
         21    1    1    2  504  503 -0.14990357261E+02 -0.34388790139E+02  0.95942290870E+03  0.96015603807E+03  0.00000000000E+00 0. -1.
         21    1    1    2  505  502  0.91065856710E+02 -0.15198160787E+02  0.11393558857E+03  0.14664682981E+03  0.00000000000E+00 0. -1.
          2    1    1    2  501    0 -0.75172364931E+02  0.10599711068E+03 -0.19189739249E+03  0.23175608119E+03  0.00000000000E+00 0.  1.
<scales pt_clust_3="66.80945" pt_clust_4="37.51399" pt_clust_5="14000.00000" pt_clust_6="121.65172"></scales>
<clustering>
<clus scale="   37.514">  1  4  2 -1</clus>
<clus scale="   66.809">  1  3  2 -1</clus>
<clus scale="  121.652">  2  6  1 -1</clus>
<clus scale="   37.514">  1  3  2 -1</clus>
</clustering>
</event>
<event>
 6    0  0.4017242E+002  0.1159169E+03  0.7546771E-02  0.1249989E+00
          2   -1    0    0  505    0 -0.00000000000E+00  0.00000000000E+00  0.21636802460E+04  0.21636802460E+04  0.00000000000E+00 0. -1.
         21   -1    0    0  504  502  0.00000000000E+00 -0.00000000000E+00 -0.23885952240E+02  0.23885952240E+02  0.00000000000E+00 0. -1.
         21    1    1    2  503  501  0.67874938266E+01 -0.50968130878E+02  0.12312841637E+03  0.13343323182E+03  0.00000000000E+00 0. -1.
         21    1    1    2  504  503 -0.15906752146E+02 -0.50768016014E+02  0.78745533842E+02  0.95033022229E+02  0.00000000000E+00 0. -1.
         21    1    1    2  505  502 -0.59338550979E+01  0.12951709706E+03  0.39255877325E+03  0.41341538375E+03  0.00000000000E+00 0. -1.
          2    1    1    2  501    0  0.15053113418E+02 -0.27780950164E+02  0.15453615703E+04  0.15456845605E+04  0.00000000000E+00 0. -1.
<scales pt_clust_3="31.24839" pt_clust_4="31.24839" pt_clust_5="111.47376" pt_clust_6="31.59711"></scales>
<clustering>
<clus scale="   31.248">  3  4 -1 -1</clus>
<clus scale="   31.597">  1  6  2 -1</clus>
<clus scale="  111.474">  1  5  2 -1</clus>
<clus scale="  115.917">  2  3  1 -1</clus>
</clustering>
</event>
<event>
 6    0  0.4017242E+002  0.1108059E+03  0.7546771E-02  0.1259085E+00
          1   -1    0    0  504    0 -0.00000000000E+00  0.00000000000E+00  0.19680801777E+04  0.19680801777E+04  0.00000000000E+00 0.  1.
         21   -1    0    0  505  502  0.00000000000E+00 -0.00000000000E+00 -0.66093810383E+02  0.66093810383E+02  0.00000000000E+00 0. -1.
         21    1    1    2  503  502 -0.10310952296E+03  0.26293319610E+02 -0.16807932667E+02  0.10772845019E+03  0.00000000000E+00 0. -1.
         21    1    1    2  504  503  0.26997088302E+02  0.41449684476E+02  0.29348491682E+03  0.29762445384E+03  0.00000000000E+00 0. -1.
         21    1    1    2  505  501  0.37725337638E+02 -0.29664633710E+02  0.52669001708E+03  0.52887197476E+03  0.00000000000E+00 0. -1.
          1    1    1    2  501    0  0.38387097016E+02 -0.38078370376E+02  0.10986193661E+04  0.10999491093E+04  0.00000000000E+00 0.  1.
<scales pt_clust_3="105.98416" pt_clust_4="49.46634" pt_clust_5="30.45996" pt_clust_6="30.45996"></scales>
<clustering>
<clus scale="   30.460">  5  6 -1 -1</clus>
<clus scale="   49.466">  1  4  2 -1</clus>
<clus scale="  105.984">  2  3  1 -1</clus>
<clus scale="  105.984">  2  3  1 -1</clus>
</clustering>
</event>
<event>
 6    0  0.4017242E+002  0.1367654E+03  0.7546771E-02  0.1217749E+00
         -1   -1    0    0    0  501 -0.00000000000E+00  0.00000000000E+00  0.12645236686E+04  0.12645236686E+04  0.00000000000E+00 0. -1.
         21   -1    0    0  504  502  0.00000000000E+00 -0.00000000000E+00 -0.38124272169E+03  0.38124272169E+03  0.00000000000E+00 0.  1.
         21    1    1    2  503  502  0.54630368232E+02 -0.52986483509E+02 -0.58974127418E+02  0.96280799085E+02  0.00000000000E+00 0.  1.
         21    1    1    2  504  501 -0.55446138808E+02  0.10606671325E+03 -0.23554596199E+03  0.26420886090E+03  0.00000000000E+00 0.  1.
         21    1    1    2  505  503  0.51797043332E+02 -0.72823592330E+02 -0.15520648120E+02  0.90703361657E+02  0.00000000000E+00 0.  1.
         -1    1    1    2    0  505 -0.50981272757E+02  0.19743362588E+02  0.11933216844E+04  0.11945733686E+04  0.00000000000E+00 0. -1.
<scales pt_clust_3="43.85770" pt_clust_4="128.24255" pt_clust_5="43.85770" pt_clust_6="54.67075"></scales>
<clustering>
<clus scale="   43.858">  3  5 -1 -1</clus>
<clus scale="   54.671">  1  6  2 -1</clus>
<clus scale="  128.243">  2  4  1 -1</clus>
<clus scale="  128.243">  2  3  1 -1</clus>
</clustering>
</event>
<event>
 6    0  0.4017242E+002  0.9087336E+02  0.7546771E-02  0.1300750E+00
          2   -1    0    0  504    0 -0.00000000000E+00  0.00000000000E+00  0.27227999527E+04  0.27227999527E+04  0.00000000000E+00 0. -1.
         21   -1    0    0  505  502  0.00000000000E+00 -0.00000000000E+00 -0.30919424070E+03  0.30919424070E+03  0.00000000000E+00 0.  1.
         21    1    1    2  503  502 -0.26811064892E+02 -0.86933544189E+02 -0.29712718161E+03  0.31074239549E+03  0.00000000000E+00 0.  1.
         21    1    1    2  504  503  0.27547739814E+02  0.73758622077E+02  0.82795826262E+03  0.83169351142E+03  0.00000000000E+00 0. -1.
         21    1    1    2  505  501 -0.47841537018E+02  0.49153394658E+02  0.41845065478E+03  0.42403516288E+03  0.00000000000E+00 0.  1.
          2    1    1    2  501    0  0.47104862096E+02 -0.35978472546E+02  0.14643239762E+04  0.14655231236E+04  0.00000000000E+00 0. -1.
<scales pt_clust_3="90.87336" pt_clust_4="14000.00000" pt_clust_5="49.04129" pt_clust_6="59.27325"></scales>
<clustering>
<clus scale="   59.273">  1  6  2 -1</clus>
<clus scale="   49.041">  1  5  2 -1</clus>
<clus scale="   90.873">  2  3  1 -1</clus>
<clus scale="   90.873">  2  3  1 -1</clus>
</clustering>
</event>
<event>
 6    0  0.4017242E+002  0.1325811E+03  0.7546771E-02  0.1223675E+00
         21   -1    0    0  505  502  0.00000000000E+00  0.00000000000E+00  0.20593174403E+03  0.20593174403E+03  0.00000000000E+00 0. -1.
          1   -1    0    0  504    0 -0.00000000000E+00 -0.00000000000E+00 -0.28378467003E+03  0.28378467003E+03  0.00000000000E+00 0. -1.
         21    1    1    2  503  502  0.13158676810E+03 -0.60699493395E+02  0.10406106469E+03  0.17840462780E+03  0.00000000000E+00 0. -1.
         21    1    1    2  504  503  0.70078219050E+01  0.45571825380E+02 -0.26827117956E+02  0.53344119583E+02  0.00000000000E+00 0. -1.
         21    1    1    2  505  501 -0.11889160297E+03 -0.77032029964E+01 -0.21557895666E+02  0.12107557747E+03  0.00000000000E+00 0. -1.
          1    1    1    2  501    0 -0.19702987029E+02  0.22830871012E+02 -0.13352897708E+03  0.13689208921E+03  0.00000000000E+00 0. -1.
<scales pt_clust_3="14000.00000" pt_clust_4="51.75930" pt_clust_5="132.58107" pt_clust_6="30.15719"></scales>
<clustering>
<clus scale="   30.157">  2  6  1 -1</clus>
<clus scale="   51.759">  2  4  1 -1</clus>
<clus scale="  132.581">  2  5  1 -1</clus>
<clus scale="  132.581">  1  3  2 -1</clus>
</clustering>
</event>
<event>
 6    0  0.4017242E+002  0.1038207E+03  0.7546771E-02  0.1272461E+00
         21   -1    0    0  503  502  0.00000000000E+00  0.00000000000E+00  0.29225136047E+03  0.29225136047E+03  0.00000000000E+00 0. -1.
         -1   -1    0    0    0  501 -0.00000000000E+00 -0.00000000000E+00 -0.22819139625E+03  0.22819139625E+03  0.00000000000E+00 0. -1.
         21    1    1    2  503  505  0.16090925714E+02 -0.44468412422E+02  0.88825862635E+02  0.10062997300E+03  0.00000000000E+00 0. -1.
         21    1    1    2  504  502  0.33274234656E+02  0.45434148086E+02  0.13534195386E+02  0.57919003349E+02  0.00000000000E+00 0. -1.
         21    1    1    2  505  501 -0.33345830932E+02 -0.89395531341E+02  0.13579984216E+03  0.16596717324E+03  0.00000000000E+00 0. -1.
         -1    1    1    2    0  504 -0.16019329438E+02  0.88429795677E+02 -0.17409993596E+03  0.19592660713E+03  0.00000000000E+00 0. -1.
<scales pt_clust_3="34.48996" pt_clust_4="56.31551" pt_clust_5="34.48996" pt_clust_6="91.53517"></scales>
<clustering>
<clus scale="   34.490">  3  5 -1 -1</clus>
<clus scale="   56.316">  1  4  2 -1</clus>
<clus scale="   91.535">  2  6  1 -1</clus>
<clus scale="   56.316">  1  3  2 -1</clus>
</clustering>
</event>
<event>
 6    0  0.4017242E+002  0.3253526E+03  0.7546771E-02  0.1073212E+00
          2   -1    0    0  503    0 -0.00000000000E+00  0.00000000000E+00  0.77872460787E+03  0.77872460787E+03  0.00000000000E+00 0. -1.
         21   -1    0    0  505  502  0.00000000000E+00 -0.00000000000E+00 -0.38304126573E+03  0.38304126573E+03  0.00000000000E+00 0. -1.
         21    1    1    2  503  504  0.15195437232E+03  0.10769229551E+03  0.35243997375E+03  0.39862475698E+03  0.00000000000E+00 0. -1.
         21    1    1    2  504  502  0.23803319107E+03 -0.54259271589E+02  0.13206640848E+03  0.27757054032E+03  0.00000000000E+00 0. -1.
         21    1    1    2  505  501  0.61315897387E+01  0.56845785148E+02  0.19411083046E+02  0.60380707406E+02  0.00000000000E+00 0. -1.
          2    1    1    2  501    0 -0.39611915313E+03 -0.11027880907E+03 -0.10823412314E+03  0.42518986890E+03  0.00000000000E+00 0. -1.
<scales pt_clust_3="188.67844" pt_clust_4="325.35259" pt_clust_5="57.17552" pt_clust_6="14000.00000"></scales>
<clustering>
<clus scale="   57.176">  2  5  1 -1</clus>
<clus scale="  188.678">  1  3  2 -1</clus>
<clus scale="  325.353">  1  4  2 -1</clus>
<clus scale="   57.176">  2  3  1 -1</clus>
</clustering>
</event>
<event>
 6    0  0.4017242E+002  0.1233274E+03  0.7546771E-02  0.1237707E+00
          1   -1    0    0  505    0 -0.00000000000E+00  0.00000000000E+00  0.58525720779E+03  0.58525720779E+03  0.00000000000E+00 0. -1.
         21   -1    0    0  504  502  0.00000000000E+00 -0.00000000000E+00 -0.24990321052E+03  0.24990321052E+03  0.00000000000E+00 0.  1.
         21    1    1    2  503  502  0.28642593951E+02  0.92093458722E+02 -0.16013616375E+03  0.18693633748E+03  0.00000000000E+00 0.  1.
         21    1    1    2  504  501 -0.65297236403E+02 -0.27376670116E+02  0.92579874844E+01  0.71406732742E+02  0.00000000000E+00 0. -1.
         21    1    1    2  505  503  0.27890530604E+02  0.41342813620E+02 -0.24183618295E+02  0.55425240904E+02  0.00000000000E+00 0. -1.
          1    1    1    2  501    0  0.87641118488E+01 -0.10605960223E+03  0.51041579184E+03  0.52139210719E+03  0.00000000000E+00 0. -1.
<scales pt_clust_3="44.11802" pt_clust_4="70.80403" pt_clust_5="44.11802" pt_clust_6="106.98382"></scales>
<clustering>
<clus scale="   44.118">  3  5 -1 -1</clus>
<clus scale="   70.804">  2  4  1 -1</clus>
<clus scale="  106.984">  1  6  2 -1</clus>
<clus scale="   70.804">  2  3  1 -1</clus>
</clustering>
</event>
<event>
 6    0  0.4017242E+002  0.1225631E+03  0.7546771E-02  0.1238928E+00
         21   -1    0    0  504  502  0.00000000000E+00  0.00000000000E+00  0.31986638359E+03  0.31986638359E+03  0.00000000000E+00 0. -1.
          2   -1    0    0  505    0 -0.00000000000E+00 -0.00000000000E+00 -0.41046175154E+03  0.41046175154E+03  0.00000000000E+00 0.  1.
         21    1    1    2  503  501  0.37600851307E+02  0.23894411099E+02  0.29562441163E+02  0.53466857288E+02  0.00000000000E+00 0. -1.
         21    1    1    2  504  503 -0.22844081337E+02 -0.20022390291E+02  0.22797727157E+02  0.37980054353E+02  0.00000000000E+00 0. -1.
         21    1    1    2  505  502  0.10769945899E+03  0.93928440839E+01  0.22566624402E+03  0.25022520392E+03  0.00000000000E+00 0. -1.
          2    1    1    2  501    0 -0.12245622895E+03 -0.13264864892E+02 -0.36862178029E+03  0.38865601958E+03  0.00000000000E+00 0.  1.
<scales pt_clust_3="40.25111" pt_clust_4="30.37677" pt_clust_5="122.56310" pt_clust_6="14000.00000"></scales>
<clustering>
<clus scale="   30.377">  1  4  2 -1</clus>
<clus scale="   40.251">  1  3  2 -1</clus>
<clus scale="  122.563">  1  5  2 -1</clus>
<clus scale="   30.377">  1  3  2 -1</clus>
</clustering>
</event>
<event>
 6    0  0.4017242E+002  0.1076758E+03  0.7546771E-02  0.1264935E+00
         21   -1    0    0  503  502  0.00000000000E+00  0.00000000000E+00  0.43505915031E+02  0.43505915031E+02  0.00000000000E+00 0. -1.
          2   -1    0    0  505    0 -0.00000000000E+00 -0.00000000000E+00 -0.25457330226E+04  0.25457330226E+04  0.00000000000E+00 0. -1.
         21    1    1    2  503  504 -0.34173303954E+02  0.17491935255E+02 -0.10153076098E+03  0.10854620181E+03  0.00000000000E+00 0. -1.
         21    1    1    2  504  501 -0.51889252835E+01 -0.73518493485E+02 -0.28095386901E+03  0.29045992898E+03  0.00000000000E+00 0. -1.
         21    1    1    2  505  502  0.11349583966E+03 -0.22787294645E+02 -0.65231903776E+02  0.13287500776E+03  0.00000000000E+00 0. -1.
          2    1    1    2  501    0 -0.74133610418E+02  0.78813852875E+02 -0.20545105738E+04  0.20573577991E+04  0.00000000000E+00 0. -1.
<scales pt_clust_3="38.38987" pt_clust_4="72.03623" pt_clust_5="14000.00000" pt_clust_6="107.67582"></scales>
<clustering>
<clus scale="   38.390">  1  3  2 -1</clus>
<clus scale="   72.036">  1  4  2 -1</clus>
<clus scale="  107.676">  2  6  1 -1</clus>
<clus scale="   38.390">  1  3  2 -1</clus>
</clustering>
</event>
<event>
 6    0  0.4017242E+002  0.7413438E+02  0.7546771E-02  0.1346573E+00
         21   -1    0    0  503  502  0.00000000000E+00  0.00000000000E+00  0.53431590760E+03  0.53431590760E+03  0.00000000000E+00 0.  1.
          2   -1    0    0  505    0 -0.00000000000E+00 -0.00000000000E+00 -0.33370637530E+04  0.33370637530E+04  0.00000000000E+00 0.  1.
         21    1    1    2  503  504 -0.51423619117E+00 -0.44645095133E+02  0.13946337477E+03  0.14643593091E+03  0.00000000000E+00 0. -1.
         21    1    1    2  504  501 -0.80939731336E+02  0.55452045552E+01 -0.53021750300E+02  0.96919014683E+02  0.00000000000E+00 0. -1.
         21    1    1    2  505  502  0.16380296446E+02  0.74626610806E+02  0.36504044360E+03  0.37295035945E+03  0.00000000000E+00 0.  1.
          2    1    1    2  501    0  0.65073671082E+02 -0.35526720229E+02 -0.32542299134E+04  0.32550743555E+04  0.00000000000E+00 0.  1.
<scales pt_clust_3="44.64806" pt_clust_4="14000.00000" pt_clust_5="36.20901" pt_clust_6="74.13438"></scales>
<clustering>
<clus scale="   44.648">  1  3  2 -1</clus>
<clus scale="   36.209">  1  5  2 -1</clus>
<clus scale="   74.134">  2  6  1 -1</clus>
<clus scale="   44.648">  1  3  2 -1</clus>
</clustering>
</event>
<event>
 6    0  0.4017242E+002  0.9902872E+02  0.7546771E-02  0.1282352E+00
          2   -1    0    0  504    0 -0.00000000000E+00  0.00000000000E+00  0.11741879378E+04  0.11741879378E+04  0.00000000000E+00 0. -1.
         21   -1    0    0  503  502  0.00000000000E+00 -0.00000000000E+00 -0.74085887922E+02  0.74085887922E+02  0.00000000000E+00 0. -1.
         21    1    1    2  503  505 -0.36039924722E+02 -0.22387161407E+02 -0.32265291433E+02  0.53302065636E+02  0.00000000000E+00 0. -1.
         21    1    1    2  504  502  0.13567420910E+03  0.42849773215E+02  0.84505928236E+03  0.85695319872E+03  0.00000000000E+00 0. -1.
         21    1    1    2  505  501 -0.57744021319E+02 -0.22837176728E+02  0.16872319349E+02  0.64347368238E+02  0.00000000000E+00 0.  1.
          2    1    1    2  501    0 -0.41890263063E+02  0.23745649196E+01  0.27043573960E+03  0.27367119314E+03  0.00000000000E+00 0. -1.
<scales pt_clust_3="42.82833" pt_clust_4="14000.00000" pt_clust_5="99.02872" pt_clust_6="41.95751"></scales>
<clustering>
<clus scale="   41.958">  1  6  2 -1</clus>
<clus scale="   42.828">  2  3  1 -1</clus>
<clus scale="   99.029">  2  5  1 -1</clus>
<clus scale="   42.828">  2  3  1 -1</clus>
</clustering>
</event>
<event>
 6    0  0.4017242E+002  0.1200538E+03  0.7546771E-02  0.1243008E+00
         -2   -1    0    0    0  501 -0.00000000000E+00  0.00000000000E+00  0.15878021518E+04  0.15878021518E+04  0.00000000000E+00 0.  1.
         21   -1    0    0  504  502  0.00000000000E+00 -0.00000000000E+00 -0.24761981905E+03  0.24761981905E+03  0.00000000000E+00 0.  1.
         21    1    1    2  503  502  0.69747856624E+02  0.55816351158E+02  0.97518226918E+01  0.89862821044E+02  0.00000000000E+00 0.  1.
         21    1    1    2  504  501 -0.44500711058E+02 -0.13344532521E+03 -0.17674826434E+03  0.22589359675E+03  0.00000000000E+00 0.  1.
         21    1    1    2  505  503 -0.57995754536E+02  0.71681021653E+02  0.34796559021E+03  0.35997462185E+03  0.00000000000E+00 0. -1.
         -2    1    1    2    0  505  0.32748608970E+02  0.59479524013E+01  0.11592131842E+04  0.11596909312E+04  0.00000000000E+00 0.  1.
<scales pt_clust_3="120.05381" pt_clust_4="14000.00000" pt_clust_5="82.60669" pt_clust_6="33.28437"></scales>
<clustering>
<clus scale="   33.284">  1  6  2 -1</clus>
<clus scale="   82.607">  1  5  2 -1</clus>
<clus scale="  120.054">  1  3  2 -1</clus>
<clus scale="  120.054">  2  3  1 -1</clus>
</clustering>
</event>
<event>
 6    0  0.4017242E+002  0.1067321E+03  0.7546771E-02  0.1266744E+00
         21   -1    0    0  504  502  0.00000000000E+00  0.00000000000E+00  0.51054439651E+03  0.51054439651E+03  0.00000000000E+00 0.  1.
          1   -1    0    0  505    0 -0.00000000000E+00 -0.00000000000E+00 -0.17928781928E+03  0.17928781928E+03  0.00000000000E+00 0. -1.
         21    1    1    2  503  501  0.62846095745E+02  0.18873148297E+02  0.11605841058E+03  0.13332434941E+03  0.00000000000E+00 0.  1.
         21    1    1    2  504  503  0.21888161830E+02 -0.30391522804E+02  0.31097937755E+03  0.31322661054E+03  0.00000000000E+00 0.  1.
         21    1    1    2  505  502  0.20965958875E+02  0.53384986265E+02  0.37172343739E+02  0.68346992100E+02  0.00000000000E+00 0.  1.
          1    1    1    2  501    0 -0.10570021645E+03 -0.41866611758E+02 -0.13295355465E+03  0.17493426374E+03  0.00000000000E+00 0. -1.
<scales pt_clust_3="14000.00000" pt_clust_4="37.45312" pt_clust_5="52.63059" pt_clust_6="106.73207"></scales>
<clustering>
<clus scale="   37.453">  1  4  2 -1</clus>
<clus scale="   52.631">  1  5  2 -1</clus>
<clus scale="  106.732">  2  6  1 -1</clus>
<clus scale="   37.453">  1  3  2 -1</clus>
</clustering>
</event>
<event>
 6    0  0.4017242E+002  0.8703176E+02  0.7546771E-02  0.1310203E+00
         21   -1    0    0  505  502  0.00000000000E+00  0.00000000000E+00  0.69594106836E+02  0.69594106836E+02  0.00000000000E+00 0.  1.
          2   -1    0    0  503    0 -0.00000000000E+00 -0.00000000000E+00 -0.93884064967E+03  0.93884064967E+03  0.00000000000E+00 0.  1.
         21    1    1    2  503  504  0.57901543771E+02 -0.21414569383E+01  0.23634204289E+02  0.62575955616E+02  0.00000000000E+00 0.  1.
         21    1    1    2  504  502  0.32712578801E+02  0.32408599200E+02 -0.19133241782E+02  0.49864928106E+02  0.00000000000E+00 0.  1.
         21    1    1    2  505  501 -0.10028908277E+03  0.25179746374E+02 -0.26205755545E+03  0.28171986461E+03  0.00000000000E+00 0.  1.
          2    1    1    2  501    0  0.96749601942E+01 -0.55446888635E+02 -0.61168994989E+03  0.61427400817E+03  0.00000000000E+00 0.  1.
<scales pt_clust_3="14000.00000" pt_clust_4="46.04813" pt_clust_5="87.03176" pt_clust_6="55.66525"></scales>
<clustering>
<clus scale="   46.048">  1  4  2 -1</clus>
<clus scale="   55.665">  2  6  1 -1</clus>
<clus scale="   87.032">  2  5  1 -1</clus>
<clus scale="   46.048">  1  3  2 -1</clus>
</clustering>
</event>
<event>
 6    0  0.4017242E+002  0.1146754E+03  0.7546771E-02  0.1252149E+00
         21   -1    0    0  504  502  0.00000000000E+00  0.00000000000E+00  0.19987242072E+03  0.19987242072E+03  0.00000000000E+00 0.  1.
          1   -1    0    0  502    0 -0.00000000000E+00 -0.00000000000E+00 -0.13771952639E+04  0.13771952639E+04  0.00000000000E+00 0. -1.
         21    1    1    2  503  505 -0.19936005285E+02 -0.79599365332E+02 -0.15125162491E+03  0.17207718415E+03  0.00000000000E+00 0. -1.
         21    1    1    2  504  503 -0.35409633216E+02  0.25570100033E+02  0.17515091266E+03  0.18051458208E+03  0.00000000000E+00 0.  1.
         21    1    1    2  505  501  0.14938547725E+02 -0.41267044200E+02 -0.42345445161E+02  0.60985784172E+02  0.00000000000E+00 0.  1.
          1    1    1    2  501    0  0.40407090775E+02  0.95296309498E+02 -0.11588766858E+04  0.11634901342E+04  0.00000000000E+00 0. -1.
<scales pt_clust_3="34.34009" pt_clust_4="43.67691" pt_clust_5="34.34009" pt_clust_6="104.62114"></scales>
<clustering>
<clus scale="   34.340">  3  5 -1 -1</clus>
<clus scale="   43.677">  1  4  2 -1</clus>
<clus scale="  104.621">  2  6  1 -1</clus>
<clus scale="   43.677">  1  3  2 -1</clus>
</clustering>
</event>
<event>
 6    0  0.4017242E+002  0.7824532E+02  0.7546771E-02  0.1334106E+00
          1   -1    0    0  503    0 -0.00000000000E+00  0.00000000000E+00  0.20240349097E+04  0.20240349097E+04  0.00000000000E+00 0.  1.
         21   -1    0    0  505  502  0.00000000000E+00 -0.00000000000E+00 -0.38621626056E+02  0.38621626056E+02  0.00000000000E+00 0.  1.
         21    1    1    2  503  502  0.78101110969E+02  0.24533129400E+02  0.84096420687E+02  0.11736211461E+03  0.00000000000E+00 0.  1.
         21    1    1    2  504  501 -0.81000914821E+02  0.37796890126E+02  0.86729878352E+02  0.12454647688E+03  0.00000000000E+00 0.  1.
         21    1    1    2  505  504 -0.28807389091E+02 -0.18344038880E+02  0.10738300836E+03  0.11268309506E+03  0.00000000000E+00 0.  1.
          1    1    1    2  501    0  0.31707192943E+02 -0.43985980646E+02  0.17072039763E+04  0.17080648492E+04  0.00000000000E+00 0.  1.
<scales pt_clust_3="78.24532" pt_clust_4="14000.00000" pt_clust_5="34.15215" pt_clust_6="54.20083"></scales>
<clustering>
<clus scale="   34.152">  2  5  1 -1</clus>
<clus scale="   54.201">  1  6  2 -1</clus>
<clus scale="   78.245">  2  3  1 -1</clus>
<clus scale="   34.152">  2  3  1 -1</clus>
</clustering>
</event>
<event>
 6    0  0.4017242E+002  0.1447344E+03  0.7546771E-02  0.1207097E+00
         21   -1    0    0  503  502  0.00000000000E+00  0.00000000000E+00  0.18450998560E+04  0.18450998560E+04  0.00000000000E+00 0. -1.
         -3   -1    0    0    0  501 -0.00000000000E+00 -0.00000000000E+00 -0.14865563779E+03  0.14865563779E+03  0.00000000000E+00 0.  1.
         21    1    1    2  503  504 -0.33549620510E+02 -0.20484624888E+02  0.37894796187E+03  0.38098130492E+03  0.00000000000E+00 0. -1.
         21    1    1    2  504  505 -0.23434577660E+02 -0.10192713039E+03  0.13746897816E+04  0.13786625095E+04  0.00000000000E+00 0. -1.
         21    1    1    2  505  501 -0.31161130022E+02  0.43312781069E+02  0.50918525150E+02  0.73754384491E+02  0.00000000000E+00 0. -1.
         -3    1    1    2    0  502  0.88145328192E+02  0.79098974207E+02 -0.10811205038E+03  0.16035729494E+03  0.00000000000E+00 0.  1.
<scales pt_clust_3="32.83880" pt_clust_4="32.83880" pt_clust_5="53.35741" pt_clust_6="134.45771"></scales>
<clustering>
<clus scale="   32.839">  3  4 -1 -1</clus>
<clus scale="   53.357">  2  5  1 -1</clus>
<clus scale="  134.458">  2  6  1 -1</clus>
<clus scale="  144.734">  1  3  2 -1</clus>
</clustering>
</event>
<event>
 6    0  0.4017242E+002  0.3794348E+03  0.7546771E-02  0.1051143E+00
         21   -1    0    0  505  502  0.00000000000E+00  0.00000000000E+00  0.98331297681E+03  0.98331297681E+03  0.00000000000E+00 0.  1.
          2   -1    0    0  502    0 -0.00000000000E+00 -0.00000000000E+00 -0.18305266548E+04  0.18305266548E+04  0.00000000000E+00 0. -1.
         21    1    1    2  503  501  0.92686730227E+02  0.17732201714E+03  0.58955690390E+03  0.62258434823E+03  0.00000000000E+00 0.  1.
         21    1    1    2  504  503  0.30970992665E+02  0.10540795036E+03  0.26251211899E+03  0.28457450870E+03  0.00000000000E+00 0.  1.
         21    1    1    2  505  504  0.50890750778E+02  0.27529836719E+02  0.76303383249E+02  0.95759943190E+02  0.00000000000E+00 0.  1.
          2    1    1    2  501    0 -0.17454847367E+03 -0.31025980422E+03 -0.17755860842E+04  0.18109208315E+04  0.00000000000E+00 0. -1.
<scales pt_clust_3="53.70388" pt_clust_4="30.44527" pt_clust_5="53.70388" pt_clust_6="355.98921"></scales>
<clustering>
<clus scale="   30.445">  3  4 -1 -1</clus>
<clus scale="   53.704">  3  5 -1 -1</clus>
<clus scale="  355.989">  2  6  1 -1</clus>
<clus scale="  379.435">  1  3  2 -1</clus>
</clustering>
</event>
<event>
 6    0  0.4017242E+002  0.9909876E+02  0.7546771E-02  0.1282203E+00
          1   -1    0    0  504    0 -0.00000000000E+00  0.00000000000E+00  0.14470840818E+04  0.14470840818E+04  0.00000000000E+00 0.  1.
         21   -1    0    0  503  502  0.00000000000E+00 -0.00000000000E+00 -0.72396429163E+03  0.72396429163E+03  0.00000000000E+00 0.  1.
         21    1    1    2  503  501 -0.10337643841E+03  0.24430339840E+02 -0.50829426300E+03  0.51927505940E+03  0.00000000000E+00 0.  1.
         21    1    1    2  504  505  0.85668682903E+02  0.44421254514E+02  0.12900789456E+03  0.16110682152E+03  0.00000000000E+00 0.  1.
         21    1    1    2  505  502  0.44350917118E+01 -0.35131978967E+02 -0.19225973014E+03  0.19549355442E+03  0.00000000000E+00 0. -1.
          1    1    1    2  501    0  0.13272663799E+02 -0.33719615386E+02  0.12946658887E+04  0.12951729380E+04  0.00000000000E+00 0.  1.
<scales pt_clust_3="99.09876" pt_clust_4="14000.00000" pt_clust_5="35.41082" pt_clust_6="36.25418"></scales>
<clustering>
<clus scale="   35.411">  2  5  1 -1</clus>
<clus scale="   36.254">  1  6  2 -1</clus>
<clus scale="   99.099">  2  3  1 -1</clus>
<clus scale="   35.411">  2  3  1 -1</clus>
</clustering>
</event>
<event>
 6    0  0.4017242E+002  0.1136556E+03  0.7546771E-02  0.1253946E+00
         -4   -1    0    0    0  501 -0.00000000000E+00  0.00000000000E+00  0.30213428275E+04  0.30213428275E+04  0.00000000000E+00 0.  1.
         21   -1    0    0  504  502  0.00000000000E+00 -0.00000000000E+00 -0.29007044332E+02  0.29007044332E+02  0.00000000000E+00 0.  1.
         21    1    1    2  503  505 -0.49509130270E+02 -0.38721019860E+02  0.24469956011E+03  0.25264272417E+03  0.00000000000E+00 0. -1.
         21    1    1    2  504  501 -0.78914232217E+02 -0.54851924335E+02  0.12050039663E+03  0.15413155173E+03  0.00000000000E+00 0.  1.
         21    1    1    2  505  502  0.43166032592E+02  0.16302079678E+02  0.69921994139E+02  0.83774396065E+02  0.00000000000E+00 0. -1.
         -4    1    1    2    0  503  0.85257329894E+02  0.77270864516E+02  0.25572138323E+04  0.25598011999E+04  0.00000000000E+00 0.  1.
<scales pt_clust_3="54.98627" pt_clust_4="14000.00000" pt_clust_5="46.14178" pt_clust_6="113.65560"></scales>
<clustering>
<clus scale="   46.142">  2  5  1 -1</clus>
<clus scale="   54.986">  2  3  1 -1</clus>
<clus scale="  113.656">  1  6  2 -1</clus>
<clus scale="   46.142">  2  3  1 -1</clus>
</clustering>
</event>
<event>
 6    0  0.4017242E+002  0.1388278E+03  0.7546771E-02  0.1214915E+00
         21   -1    0    0  503  502  0.00000000000E+00  0.00000000000E+00  0.11614338732E+04  0.11614338732E+04  0.00000000000E+00 0.  1.
         -1   -1    0    0    0  501 -0.00000000000E+00 -0.00000000000E+00 -0.70037977473E+03  0.70037977473E+03  0.00000000000E+00 0.  1.
         21    1    1    2  503  504 -0.12220017235E+03  0.72977245966E+02  0.11023425459E+04  0.11114934319E+04  0.00000000000E+00 0.  1.
         21    1    1    2  504  505  0.81367704351E+02 -0.55183035020E+02 -0.75730887836E+01  0.98606401106E+02  0.00000000000E+00 0. -1.
         21    1    1    2  505  501  0.16614324782E+02 -0.40289847147E+02 -0.47105675896E+02  0.64173610407E+02  0.00000000000E+00 0. -1.
         -1    1    1    2    0  502  0.24218143217E+02  0.22495636201E+02 -0.58660968274E+03  0.58754020458E+03  0.00000000000E+00 0.  1.
<scales pt_clust_3="14000.00000" pt_clust_4="138.82780" pt_clust_5="40.83875" pt_clust_6="33.05408"></scales>
<clustering>
<clus scale="   33.054">  2  6  1 -1</clus>
<clus scale="   40.839">  2  5  1 -1</clus>
<clus scale="  138.828">  2  4  1 -1</clus>
<clus scale="  138.828">  1  3  2 -1</clus>
</clustering>
</event>
<event>
 6    0  0.4017242E+002  0.1128131E+03  0.7546771E-02  0.1255447E+00
          3   -1    0    0  503    0 -0.00000000000E+00  0.00000000000E+00  0.12247298264E+04  0.12247298264E+04  0.00000000000E+00 0. -1.
         21   -1    0    0  505  502  0.00000000000E+00 -0.00000000000E+00 -0.20892456879E+03  0.20892456879E+03  0.00000000000E+00 0.  1.
         21    1    1    2  503  504 -0.91926950713E+02 -0.94549923650E+01  0.50527892932E+01  0.92549942343E+02  0.00000000000E+00 0.  1.
         21    1    1    2  504  502 -0.13604713560E+01  0.68947698245E+02 -0.31222234012E+01  0.69031762650E+02  0.00000000000E+00 0. -1.
         21    1    1    2  505  501  0.11880008675E+03 -0.12312706890E+03 -0.70849039947E+02  0.18518456245E+03  0.00000000000E+00 0.  1.
          3    1    1    2  501    0 -0.25512664681E+02  0.63634363025E+02  0.10847237316E+04  0.10868881277E+04  0.00000000000E+00 0. -1.
<scales pt_clust_3="14000.00000" pt_clust_4="84.36895" pt_clust_5="112.81307" pt_clust_6="68.55821"></scales>
<clustering>
<clus scale="   68.558">  1  6  2 -1</clus>
<clus scale="   84.369">  2  4  1 -1</clus>
<clus scale="  112.813">  2  5  1 -1</clus>
<clus scale="   84.369">  2  3  1 -1</clus>
</clustering>
</event>
<event>
 6    0  0.4017242E+002  0.3082050E+03  0.7546771E-02  0.1081209E+00
         21   -1    0    0  503  502  0.00000000000E+00  0.00000000000E+00  0.36546762678E+03  0.36546762678E+03  0.00000000000E+00 0. -1.
          2   -1    0    0  505    0 -0.00000000000E+00 -0.00000000000E+00 -0.27265905972E+04  0.27265905972E+04  0.00000000000E+00 0. -1.
         21    1    1    2  503  501 -0.13543707771E+03 -0.16820078627E+03 -0.15320288074E+04  0.15471738665E+04  0.00000000000E+00 0. -1.
         21    1    1    2  504  502  0.56801001164E+02  0.12240923152E+02  0.84200321847E+02  0.10230292338E+03  0.00000000000E+00 0. -1.
         21    1    1    2  505  504  0.10406856236E+03  0.23211859551E+03  0.20173583779E+03  0.32466391285E+03  0.00000000000E+00 0. -1.
          2    1    1    2  501    0 -0.25432485820E+02 -0.76158732394E+02 -0.11150303227E+04  0.11179175213E+04  0.00000000000E+00 0. -1.
<scales pt_clust_3="61.70084" pt_clust_4="58.10503" pt_clust_5="291.18870" pt_clust_6="61.70084"></scales>
<clustering>
<clus scale="   58.105">  1  4  2 -1</clus>
<clus scale="   61.701">  3  6 -1 -1</clus>
<clus scale="  291.189">  1  5  2 -1</clus>
<clus scale="   58.105">  1  3  2 -1</clus>
</clustering>
</event>
<event>
 6    0  0.4017242E+002  0.2414407E+03  0.7546771E-02  0.1118837E+00
          2   -1    0    0  504    0 -0.00000000000E+00  0.00000000000E+00  0.32370378125E+04  0.32370378125E+04  0.00000000000E+00 0. -1.
         21   -1    0    0  505  502  0.00000000000E+00 -0.00000000000E+00 -0.11338646176E+03  0.11338646176E+03  0.00000000000E+00 0.  1.
         21    1    1    2  503  501  0.48433838860E+02  0.83817219949E+02  0.50870456411E+02  0.10935705941E+03  0.00000000000E+00 0.  1.
         21    1    1    2  504  502  0.53504215680E+02 -0.36791148535E+02  0.21541194106E+02  0.68412811297E+02  0.00000000000E+00 0. -1.
         21    1    1    2  505  503  0.36241551244E+02  0.14648273622E+03  0.45621184641E+02  0.15764496356E+03  0.00000000000E+00 0.  1.
          2    1    1    2  501    0 -0.13817960578E+03 -0.19350880764E+03  0.30056185156E+04  0.30150094400E+04  0.00000000000E+00 0. -1.
<scales pt_clust_3="33.71081" pt_clust_4="64.93296" pt_clust_5="33.71081" pt_clust_6="237.74391"></scales>
<clustering>
<clus scale="   33.711">  3  5 -1 -1</clus>
<clus scale="   64.933">  2  4  1 -1</clus>
<clus scale="  237.744">  1  6  2 -1</clus>
<clus scale="   64.933">  2  3  1 -1</clus>
</clustering>
</event>
<event>
 6    0  0.4017242E+002  0.1603120E+03  0.7546771E-02  0.1188345E+00
         21   -1    0    0  504  502  0.00000000000E+00  0.00000000000E+00  0.86263236380E+03  0.86263236380E+03  0.00000000000E+00 0.  1.
          1   -1    0    0  503    0 -0.00000000000E+00 -0.00000000000E+00 -0.70501760690E+03  0.70501760690E+03  0.00000000000E+00 0. -1.
         21    1    1    2  503  505 -0.13692707857E+03  0.15411737191E+03  0.60080742446E+03  0.63519347482E+03  0.00000000000E+00 0.  1.
         21    1    1    2  504  501  0.30791395563E+02 -0.14211215545E+03  0.94503276625E+02  0.17342100237E+03  0.00000000000E+00 0.  1.
         21    1    1    2  505  502  0.57360001095E+02 -0.17337870003E+02  0.10154866129E+03  0.11791056811E+03  0.00000000000E+00 0.  1.
          1    1    1    2  501    0  0.48775681909E+02  0.53326535462E+01 -0.63924460548E+03  0.64112492540E+03  0.00000000000E+00 0. -1.
<scales pt_clust_3="14000.00000" pt_clust_4="160.31199" pt_clust_5="65.66466" pt_clust_6="49.06633"></scales>
<clustering>
<clus scale="   49.066">  2  6  1 -1</clus>
<clus scale="   65.665">  1  5  2 -1</clus>
<clus scale="  160.312">  2  4  1 -1</clus>
<clus scale="   65.665">  1  3  2 -1</clus>
</clustering>
</event>
<event>
 6    0  0.4017242E+002  0.1075176E+03  0.7546771E-02  0.1265237E+00
          2   -1    0    0  503    0 -0.00000000000E+00  0.00000000000E+00  0.10960580922E+04  0.10960580922E+04  0.00000000000E+00 0. -1.
         21   -1    0    0  505  502  0.00000000000E+00 -0.00000000000E+00 -0.13161660755E+03  0.13161660755E+03  0.00000000000E+00 0.  1.
         21    1    1    2  503  504  0.40265973497E+02 -0.49198997355E+02  0.19109786127E+03  0.20139583547E+03  0.00000000000E+00 0. -1.
         21    1    1    2  504  502  0.60884169467E+02 -0.63033733286E+01 -0.97412299469E+02  0.11504681958E+03  0.00000000000E+00 0.  1.
         21    1    1    2  505  501  0.37384006975E+02 -0.37279130662E+02  0.46724936795E+02  0.70501895569E+02  0.00000000000E+00 0. -1.
          2    1    1    2  501    0 -0.13853414994E+03  0.92781501346E+02  0.82403098607E+03  0.84073014916E+03  0.00000000000E+00 0. -1.
<scales pt_clust_3="65.83518" pt_clust_4="14000.00000" pt_clust_5="52.79486" pt_clust_6="107.51757"></scales>
<clustering>
<clus scale="   52.795">  2  5  1 -1</clus>
<clus scale="   65.835">  1  3  2 -1</clus>
<clus scale="  107.518">  1  6  2 -1</clus>
<clus scale="   52.795">  2  3  1 -1</clus>
</clustering>
</event>
<event>
 6    0  0.4017242E+002  0.1014804E+03  0.7546771E-02  0.1277213E+00
         -3   -1    0    0    0  501 -0.00000000000E+00  0.00000000000E+00  0.27482982300E+03  0.27482982300E+03  0.00000000000E+00 0. -1.
         21   -1    0    0  505  502  0.00000000000E+00 -0.00000000000E+00 -0.82061210801E+03  0.82061210801E+03  0.00000000000E+00 0.  1.
         21    1    1    2  503  502 -0.96063650416E+02 -0.29486545036E+02 -0.70931124199E+03  0.71639382973E+03  0.00000000000E+00 0.  1.
         21    1    1    2  504  503  0.20977577381E+02 -0.35562372120E+02 -0.43572159787E+02  0.60027278566E+02  0.00000000000E+00 0.  1.
         21    1    1    2  505  501  0.10574363078E+03  0.71509868104E+02  0.19875004131E+02  0.12919130186E+03  0.00000000000E+00 0. -1.
         -3    1    1    2    0  504 -0.30657557746E+02 -0.64609509487E+01  0.18722611263E+03  0.18982952085E+03  0.00000000000E+00 0. -1.
<scales pt_clust_3="14000.00000" pt_clust_4="40.43326" pt_clust_5="101.48040" pt_clust_6="31.33097"></scales>
<clustering>
<clus scale="   31.331">  1  6  2 -1</clus>
<clus scale="   40.433">  1  4  2 -1</clus>
<clus scale="  101.480">  1  5  2 -1</clus>
<clus scale="  101.480">  2  3  1 -1</clus>
</clustering>
</event>
<event>
 6    0  0.4017242E+002  0.1773229E+03  0.7546771E-02  0.1170419E+00
         21   -1    0    0  504  502  0.00000000000E+00  0.00000000000E+00  0.47477337258E+04  0.47477337258E+04  0.00000000000E+00 0.  1.
         -1   -1    0    0    0  501 -0.00000000000E+00 -0.00000000000E+00 -0.64030236750E+03  0.64030236750E+03  0.00000000000E+00 0.  1.
         21    1    1    2  503  502  0.16410876791E+03  0.94299877260E+02  0.35880985041E+04  0.35930871169E+04  0.00000000000E+00 0.  1.
         21    1    1    2  504  501 -0.19693241748E+02  0.28215250637E+02  0.87054912387E+02  0.93608129507E+02  0.00000000000E+00 0.  1.
         21    1    1    2  505  503 -0.70273036186E+02 -0.15970477288E+03  0.10569150377E+04  0.10712204774E+04  0.00000000000E+00 0.  1.
         -1    1    1    2    0  505 -0.74142489976E+02  0.37189644985E+02 -0.62463709592E+03  0.63012036955E+03  0.00000000000E+00 0.  1.
<scales pt_clust_3="177.32292" pt_clust_4="34.40820" pt_clust_5="14000.00000" pt_clust_6="82.96465"></scales>
<clustering>
<clus scale="   34.408">  1  4  2 -1</clus>
<clus scale="   82.965">  2  6  1 -1</clus>
<clus scale="  177.323">  1  3  2 -1</clus>
<clus scale="   34.408">  1  3  2 -1</clus>
</clustering>
</event>
<event>
 6    0  0.4017242E+002  0.1341249E+03  0.7546771E-02  0.1221460E+00
          1   -1    0    0  503    0 -0.00000000000E+00  0.00000000000E+00  0.11330762957E+04  0.11330762957E+04  0.00000000000E+00 0.  1.
         21   -1    0    0  504  502  0.00000000000E+00 -0.00000000000E+00 -0.63440593938E+02  0.63440593938E+02  0.00000000000E+00 0. -1.
         21    1    1    2  503  505  0.49226717997E+01  0.89032751893E+02  0.11361845555E+03  0.14443066520E+03  0.00000000000E+00 0. -1.
         21    1    1    2  504  501 -0.48288288683E+02 -0.16303608991E+02 -0.10283298801E+02  0.51993391160E+02  0.00000000000E+00 0. -1.
         21    1    1    2  505  502  0.35895601398E+02  0.52555586949E+02  0.68271522943E+02  0.93335870726E+02  0.00000000000E+00 0. -1.
          1    1    1    2  501    0  0.74700154852E+01 -0.12528472985E+03  0.89802902204E+03  0.90675696253E+03  0.00000000000E+00 0.  1.
<scales pt_clust_3="35.19609" pt_clust_4="50.96633" pt_clust_5="35.19609" pt_clust_6="127.49083"></scales>
<clustering>
<clus scale="   35.196">  3  5 -1 -1</clus>
<clus scale="   50.966">  2  4  1 -1</clus>
<clus scale="  127.491">  1  6  2 -1</clus>
<clus scale="   50.966">  2  3  1 -1</clus>
</clustering>
</event>
<event>
 6    0  0.4017242E+002  0.1755728E+03  0.7546771E-02  0.1172158E+00
         21   -1    0    0  504  502  0.00000000000E+00  0.00000000000E+00  0.34903147280E+03  0.34903147280E+03  0.00000000000E+00 0.  1.
          2   -1    0    0  503    0 -0.00000000000E+00 -0.00000000000E+00 -0.43201063677E+03  0.43201063677E+03  0.00000000000E+00 0. -1.
         21    1    1    2  503  502  0.58577327267E+02 -0.71261234656E+02  0.93310048581E+02  0.13121063981E+03  0.00000000000E+00 0.  1.
         21    1    1    2  504  505 -0.13085467455E+02  0.14653782129E+03  0.11839511448E+03  0.18884375992E+03  0.00000000000E+00 0.  1.
         21    1    1    2  505  501  0.10022321911E+02  0.81812560388E+02  0.36586146444E+02  0.90179199849E+02  0.00000000000E+00 0.  1.
          2    1    1    2  501    0 -0.55514181723E+02 -0.15708914702E+03 -0.33127047348E+03  0.37080850999E+03  0.00000000000E+00 0. -1.
<scales pt_clust_3="92.24677" pt_clust_4="30.69149" pt_clust_5="30.69149" pt_clust_6="170.71746"></scales>
<clustering>
<clus scale="   30.691">  4  5 -1 -1</clus>
<clus scale="   92.247">  1  3  2 -1</clus>
<clus scale="  170.717">  2  6  1 -1</clus>
<clus scale="   92.247">  1  3  2 -1</clus>
</clustering>
</event>
<event>
 6    0  0.4017242E+002  0.1029248E+03  0.7546771E-02  0.1274263E+00
         21   -1    0    0  504  502  0.00000000000E+00  0.00000000000E+00  0.55976022571E+02  0.55976022571E+02  0.00000000000E+00 0. -1.
          2   -1    0    0  503    0 -0.00000000000E+00 -0.00000000000E+00 -0.10565469925E+04  0.10565469925E+04  0.00000000000E+00 0.  1.
         21    1    1    2  503  505 -0.12586928289E+03 -0.26324546963E+02 -0.37167392320E+03  0.39329068554E+03  0.00000000000E+00 0.  1.
         21    1    1    2  504  501  0.30339234364E+02  0.61302605932E+01  0.21364837823E+02  0.37609912681E+02  0.00000000000E+00 0. -1.
         21    1    1    2  505  502  0.67045802053E+02  0.46541315191E+02 -0.96003529813E+02  0.12600758441E+03  0.00000000000E+00 0. -1.
          2    1    1    2  501    0  0.28484246471E+02 -0.26347028821E+02 -0.55425835478E+03  0.55561483247E+03  0.00000000000E+00 0.  1.
<scales pt_clust_3="14000.00000" pt_clust_4="30.95237" pt_clust_5="102.92485" pt_clust_6="39.26997"></scales>
<clustering>
<clus scale="   30.952">  1  4  2 -1</clus>
<clus scale="   39.270">  2  6  1 -1</clus>
<clus scale="  102.925">  1  5  2 -1</clus>
<clus scale="   30.952">  1  3  2 -1</clus>
</clustering>
</event>
<event>
 6    0  0.4017242E+002  0.1029144E+03  0.7546771E-02  0.1274284E+00
         21   -1    0    0  501  502  0.00000000000E+00  0.00000000000E+00  0.19085609782E+03  0.19085609782E+03  0.00000000000E+00 0.  1.
          2   -1    0    0  504    0 -0.00000000000E+00 -0.00000000000E+00 -0.26807875081E+03  0.26807875081E+03  0.00000000000E+00 0. -1.
         21    1    1    2  503  505 -0.37208698627E+02 -0.22870586376E+02 -0.50407050893E+01  0.43965437363E+02  0.00000000000E+00 0.  1.
         21    1    1    2  504  503 -0.90356306296E+02 -0.30244186163E+02 -0.11958796041E+03  0.15290602722E+03  0.00000000000E+00 0.  1.
         21    1    1    2  505  502  0.28798405000E+02 -0.21413123951E+02  0.11542077902E+03  0.12087111416E+03  0.00000000000E+00 0.  1.
          2    1    1    2  501    0  0.98766599924E+02  0.74527896490E+02 -0.68014766500E+02  0.14119226989E+03  0.00000000000E+00 0. -1.
<scales pt_clust_3="41.08955" pt_clust_4="14000.00000" pt_clust_5="35.88691" pt_clust_6="102.91443"></scales>
<clustering>
<clus scale="   35.887">  1  5  2 -1</clus>
<clus scale="   41.090">  1  3  2 -1</clus>
<clus scale="  102.914">  1  6  2 -1</clus>
<clus scale="   35.887">  1  3  2 -1</clus>
</clustering>
</event>
<event>
 6    0  0.4017242E+002  0.9074798E+02  0.7546771E-02  0.1301050E+00
          1   -1    0    0  503    0 -0.00000000000E+00  0.00000000000E+00  0.29688481249E+04  0.29688481249E+04  0.00000000000E+00 0.  1.
         21   -1    0    0  505  502  0.00000000000E+00 -0.00000000000E+00 -0.79640407316E+03  0.79640407316E+03  0.00000000000E+00 0.  1.
         21    1    1    2  503  504 -0.62775758442E+02  0.31414717360E+01 -0.87213085030E+02  0.10750249715E+03  0.00000000000E+00 0. -1.
         21    1    1    2  504  502 -0.83381165780E+02 -0.34069966136E+02 -0.65492392761E+03  0.66108889898E+03  0.00000000000E+00 0.  1.
         21    1    1    2  505  501  0.11277696167E+03  0.84917768337E+01  0.37285055604E+02  0.11908370472E+03  0.00000000000E+00 0.  1.
          1    1    1    2  501    0  0.33379962548E+02  0.22436717566E+02  0.28772960088E+04  0.28775770972E+04  0.00000000000E+00 0.  1.
<scales pt_clust_3="59.33913" pt_clust_4="90.74798" pt_clust_5="14000.00000" pt_clust_6="40.21975"></scales>
<clustering>
<clus scale="   40.220">  1  6  2 -1</clus>
<clus scale="   59.339">  1  3  2 -1</clus>
<clus scale="   90.748">  2  4  1 -1</clus>
<clus scale="   90.748">  2  3  1 -1</clus>
</clustering>
</event>
<event>
 6    0  0.4017242E+002  0.1578993E+03  0.7546771E-02  0.1191089E+00
         21   -1    0    0  504  502  0.00000000000E+00  0.00000000000E+00  0.88449785153E+03  0.88449785153E+03  0.00000000000E+00 0. -1.
          2   -1    0    0  503    0 -0.00000000000E+00 -0.00000000000E+00 -0.26656097427E+03  0.26656097427E+03  0.00000000000E+00 0. -1.
         21    1    1    2  503  502  0.14652203395E+03 -0.34879778547E+02  0.33038060740E+03  0.36309317142E+03  0.00000000000E+00 0. -1.
         21    1    1    2  504  505  0.38380501935E+01 -0.43000354870E+02  0.49933946262E+03  0.50120221476E+03  0.00000000000E+00 0. -1.
         21    1    1    2  505  501 -0.10956712045E+03  0.40050793433E+02 -0.73939417473E+02  0.13811610114E+03  0.00000000000E+00 0. -1.
          2    1    1    2  501    0 -0.40792963695E+02  0.37829339984E+02 -0.13784377529E+03  0.14864733848E+03  0.00000000000E+00 0. -1.
<scales pt_clust_3="157.89929" pt_clust_4="43.17130" pt_clust_5="14000.00000" pt_clust_6="55.18471"></scales>
<clustering>
<clus scale="   43.171">  1  4  2 -1</clus>
<clus scale="   55.185">  2  6  1 -1</clus>
<clus scale="  157.899">  1  3  2 -1</clus>
<clus scale="   43.171">  1  3  2 -1</clus>
</clustering>
</event>
<event>
 6    0  0.4017242E+002  0.8603442E+02  0.7546771E-02  0.1312749E+00
         21   -1    0    0  501  502  0.00000000000E+00  0.00000000000E+00  0.65008008922E+02  0.65008008922E+02  0.00000000000E+00 0.  1.
          2   -1    0    0  503    0 -0.00000000000E+00 -0.00000000000E+00 -0.14498544361E+04  0.14498544361E+04  0.00000000000E+00 0. -1.
         21    1    1    2  503  504  0.48574652464E+02 -0.57416900093E+02 -0.19999922437E+03  0.21367238246E+03  0.00000000000E+00 0. -1.
         21    1    1    2  504  505  0.33890927125E+02  0.13022497415E+03 -0.31926874599E+03  0.34646741694E+03  0.00000000000E+00 0. -1.
         21    1    1    2  505  502  0.13482206654E+02 -0.80316866599E+02  0.23501046310E+01  0.81474486487E+02  0.00000000000E+00 0.  1.
          2    1    1    2  501    0 -0.95947786244E+02  0.75087925404E+01 -0.86792856142E+03  0.87324815911E+03  0.00000000000E+00 0. -1.
<scales pt_clust_3="75.20769" pt_clust_4="14000.00000" pt_clust_5="86.03442" pt_clust_6="70.03259"></scales>
<clustering>
<clus scale="   75.208">  2  3  1 -1</clus>
<clus scale="   70.033">  2  6  1 -1</clus>
<clus scale="   86.034">  1  5  2 -1</clus>
<clus scale="   86.034">  1  3  2 -1</clus>
</clustering>
</event>
<event>
 6    0  0.4017242E+002  0.1041311E+03  0.7546771E-02  0.1271841E+00
         21   -1    0    0  504  502  0.00000000000E+00  0.00000000000E+00  0.24778295460E+03  0.24778295460E+03  0.00000000000E+00 0.  1.
          2   -1    0    0  503    0 -0.00000000000E+00 -0.00000000000E+00 -0.63952742568E+03  0.63952742568E+03  0.00000000000E+00 0. -1.
         21    1    1    2  503  502 -0.30891728466E+02 -0.87117351796E+02  0.18258422420E+03  0.20464782139E+03  0.00000000000E+00 0.  1.
         21    1    1    2  504  505  0.44989832815E+02 -0.30017077474E+02 -0.78568639299E+01  0.54651992714E+02  0.00000000000E+00 0. -1.
         21    1    1    2  505  501  0.36112853891E+02  0.90100596538E+02 -0.51486910158E+02  0.10987792149E+03  0.00000000000E+00 0. -1.
          2    1    1    2  501    0 -0.50210958240E+02  0.27033832731E+02 -0.51498492119E+03  0.51813264469E+03  0.00000000000E+00 0. -1.
<scales pt_clust_3="104.13110" pt_clust_4="54.08429" pt_clust_5="14000.00000" pt_clust_6="56.64838"></scales>
<clustering>
<clus scale="   54.084">  1  4  2 -1</clus>
<clus scale="   56.648">  2  6  1 -1</clus>
<clus scale="  104.131">  1  3  2 -1</clus>
<clus scale="   54.084">  1  3  2 -1</clus>
</clustering>
</event>
<event>
 6    0  0.4017242E+002  0.1177457E+03  0.7546771E-02  0.1246863E+00
         21   -1    0    0  505  502  0.00000000000E+00  0.00000000000E+00  0.81212964731E+03  0.81212964731E+03  0.00000000000E+00 0. -1.
         -4   -1    0    0    0  501 -0.00000000000E+00 -0.00000000000E+00 -0.81592294996E+02  0.81592294996E+02  0.00000000000E+00 0. -1.
         21    1    1    2  503  501  0.26581792079E+02  0.30285507775E+02  0.21820374104E+03  0.22189338940E+03  0.00000000000E+00 0. -1.
         21    1    1    2  504  503  0.10126017138E+03  0.15849138192E+02  0.38768758542E+03  0.40100683458E+03  0.00000000000E+00 0.  1.
         21    1    1    2  505  504 -0.33356954107E+02  0.22005031411E-01  0.15723262418E+03  0.16073202847E+03  0.00000000000E+00 0. -1.
         -4    1    1    2    0  502 -0.94485009356E+02 -0.46156650999E+02 -0.32586598321E+02  0.11008968987E+03  0.00000000000E+00 0. -1.
<scales pt_clust_3="30.89924" pt_clust_4="30.89924" pt_clust_5="33.35696" pt_clust_6="106.93754"></scales>
<clustering>
<clus scale="   30.899">  3  4 -1 -1</clus>
<clus scale="   33.357">  1  5  2 -1</clus>
<clus scale="  106.938">  2  6  1 -1</clus>
<clus scale="   33.357">  1  3  2 -1</clus>
</clustering>
</event>
<event>
 6    0  0.4017242E+002  0.8466042E+02  0.7546771E-02  0.1316323E+00
          2   -1    0    0  505    0 -0.00000000000E+00  0.00000000000E+00  0.56189672557E+03  0.56189672557E+03  0.00000000000E+00 0.  1.
         21   -1    0    0  504  502  0.00000000000E+00 -0.00000000000E+00 -0.17383099595E+04  0.17383099595E+04  0.00000000000E+00 0. -1.
         21    1    1    2  503  501  0.12485224016E+03  0.12243317645E+02  0.46983097454E+02  0.13396041261E+03  0.00000000000E+00 0. -1.
         21    1    1    2  504  503 -0.52150572361E+02 -0.29184602111E+02 -0.16789598622E+04  0.16800231076E+04  0.00000000000E+00 0. -1.
         21    1    1    2  505  502 -0.66859519622E+01  0.40394457175E+02  0.20937340068E+02  0.45986806077E+02  0.00000000000E+00 0. -1.
          2    1    1    2  501    0 -0.66015715841E+02 -0.23453172709E+02  0.43462619067E+03  0.44023635886E+03  0.00000000000E+00 0.  1.
<scales pt_clust_3="84.66042" pt_clust_4="59.74742" pt_clust_5="40.94404" pt_clust_6="14000.00000"></scales>
<clustering>
<clus scale="   40.944">  1  5  2 -1</clus>
<clus scale="   59.747">  2  4  1 -1</clus>
<clus scale="   84.660">  2  3  1 -1</clus>
<clus scale="   59.747">  2  3  1 -1</clus>
</clustering>
</event>
<event>
 6    0  0.4017242E+002  0.1494348E+03  0.7546771E-02  0.1201169E+00
         21   -1    0    0  505  502  0.00000000000E+00  0.00000000000E+00  0.13574064815E+03  0.13574064815E+03  0.00000000000E+00 0.  1.
          3   -1    0    0  503    0 -0.00000000000E+00 -0.00000000000E+00 -0.66440058484E+03  0.66440058484E+03  0.00000000000E+00 0.  1.
         21    1    1    2  503  502 -0.18687095202E+02  0.30016763906E+02  0.83315910831E+02  0.90508312547E+02  0.00000000000E+00 0.  1.
         21    1    1    2  504  501 -0.77225173389E+01 -0.54309141170E+02 -0.87405005701E+02  0.10319280552E+03  0.00000000000E+00 0.  1.
         21    1    1    2  505  504  0.21589233132E+02 -0.10594980034E+03 -0.59426015847E+02  0.12338114336E+03  0.00000000000E+00 0.  1.
          3    1    1    2  501    0  0.48203794089E+01  0.13024217760E+03 -0.46514482597E+03  0.48305897156E+03  0.00000000000E+00 0.  1.
<scales pt_clust_3="35.35836" pt_clust_4="47.69400" pt_clust_5="47.69400" pt_clust_6="135.75557"></scales>
<clustering>
<clus scale="   35.358">  1  3  2 -1</clus>
<clus scale="   47.694">  4  5 -1 -1</clus>
<clus scale="  135.756">  2  6  1 -1</clus>
<clus scale="   35.358">  1  3  2 -1</clus>
</clustering>
</event>
<event>
 6    0  0.4017242E+002  0.1031304E+03  0.7546771E-02  0.1273848E+00
          2   -1    0    0  505    0 -0.00000000000E+00  0.00000000000E+00  0.45265092015E+03  0.45265092015E+03  0.00000000000E+00 0. -1.
         21   -1    0    0  501  502  0.00000000000E+00 -0.00000000000E+00 -0.51915801670E+03  0.51915801670E+03  0.00000000000E+00 0. -1.
         21    1    1    2  503  502  0.35240239461E+01 -0.42513840111E+02 -0.32621887973E+03  0.32899635688E+03  0.00000000000E+00 0. -1.
         21    1    1    2  504  503 -0.52167491640E+02 -0.53408240433E+02 -0.15494636144E+03  0.17199494834E+03  0.00000000000E+00 0. -1.
         21    1    1    2  505  504 -0.37659801888E+02  0.29736263498E+01  0.61445680210E+00  0.37782015419E+02  0.00000000000E+00 0.  1.
          2    1    1    2  501    0  0.86303269582E+02  0.92948454195E+02  0.41404368783E+03  0.43303561621E+03  0.00000000000E+00 0. -1.
<scales pt_clust_3="42.64035" pt_clust_4="103.13038" pt_clust_5="37.77702" pt_clust_6="14000.00000"></scales>
<clustering>
<clus scale="   37.777">  1  5  2 -1</clus>
<clus scale="   42.640">  2  3  1 -1</clus>
<clus scale="  103.130">  2  4  1 -1</clus>
<clus scale="   42.640">  2  3  1 -1</clus>
</clustering>
</event>
<event>
 6    0  0.4017242E+002  0.1037027E+03  0.7546771E-02  0.1272697E+00
         21   -1    0    0  504  502  0.00000000000E+00  0.00000000000E+00  0.87161313179E+02  0.87161313179E+02  0.00000000000E+00 0. -1.
          1   -1    0    0  505    0 -0.00000000000E+00 -0.00000000000E+00 -0.20676871501E+04  0.20676871501E+04  0.00000000000E+00 0. -1.
         21    1    1    2  503  502 -0.78257629984E+02 -0.14216611163E+02  0.46719512374E+02  0.92244682883E+02  0.00000000000E+00 0. -1.
         21    1    1    2  504  501 -0.15219430965E+02 -0.32791447248E+02 -0.19185481356E+02  0.40926675731E+02  0.00000000000E+00 0. -1.
         21    1    1    2  505  503 -0.30673380072E+02 -0.33888229694E+02 -0.13039454135E+03  0.13817382086E+03  0.00000000000E+00 0. -1.
          1    1    1    2  501    0  0.12415044102E+03  0.80896288105E+02 -0.18776653266E+04  0.18835032838E+04  0.00000000000E+00 0. -1.
<scales pt_clust_3="103.70266" pt_clust_4="36.15121" pt_clust_5="47.47189" pt_clust_6="14000.00000"></scales>
<clustering>
<clus scale="   36.151">  1  4  2 -1</clus>
<clus scale="   47.472">  2  5  1 -1</clus>
<clus scale="  103.703">  1  3  2 -1</clus>
<clus scale="   36.151">  1  3  2 -1</clus>
</clustering>
</event>
<event>
 6    0  0.4017242E+002  0.7981793E+02  0.7546771E-02  0.1329569E+00
          1   -1    0    0  504    0 -0.00000000000E+00  0.00000000000E+00  0.11411077134E+04  0.11411077134E+04  0.00000000000E+00 0.  1.
         21   -1    0    0  503  502  0.00000000000E+00 -0.00000000000E+00 -0.13502672394E+03  0.13502672394E+03  0.00000000000E+00 0.  1.
         21    1    1    2  503  501  0.17039923906E+02  0.39000904518E+02 -0.11961272436E+03  0.12695918001E+03  0.00000000000E+00 0.  1.
         21    1    1    2  504  505  0.39862191899E+02  0.63458912865E+01  0.13550559180E+03  0.14138963925E+03  0.00000000000E+00 0. -1.
         21    1    1    2  505  502 -0.40628115589E+01  0.56967175668E+02  0.16506564102E+03  0.17466662929E+03  0.00000000000E+00 0. -1.
          1    1    1    2  501    0 -0.52839304246E+02 -0.10231397147E+03  0.82512248099E+03  0.83311898878E+03  0.00000000000E+00 0.  1.
<scales pt_clust_3="42.64084" pt_clust_4="40.36415" pt_clust_5="14000.00000" pt_clust_6="79.81793"></scales>
<clustering>
<clus scale="   40.364">  1  4  2 -1</clus>
<clus scale="   42.641">  2  3  1 -1</clus>
<clus scale="   79.818">  1  6  2 -1</clus>
<clus scale="   42.641">  2  3  1 -1</clus>
</clustering>
</event>
<event>
 6    0  0.4017242E+002  0.4004881E+03  0.7546771E-02  0.1043611E+00
          1   -1    0    0  502    0 -0.00000000000E+00  0.00000000000E+00  0.15861048614E+04  0.15861048614E+04  0.00000000000E+00 0. -1.
         21   -1    0    0  504  502  0.00000000000E+00 -0.00000000000E+00 -0.39789433084E+03  0.39789433084E+03  0.00000000000E+00 0. -1.
         21    1    1    2  503  501  0.11570093821E+03 -0.20581375834E+03  0.64287580735E+03  0.68486152900E+03  0.00000000000E+00 0. -1.
         21    1    1    2  504  505 -0.17065744153E+03  0.36006258621E+03 -0.24849706703E+03  0.46959537973E+03  0.00000000000E+00 0. -1.
         21    1    1    2  505  503  0.70678832969E+02 -0.10788688067E+03  0.23085619478E+03  0.26444216592E+03  0.00000000000E+00 0. -1.
          1    1    1    2  501    0 -0.15722329643E+02 -0.46361947201E+02  0.56297559550E+03  0.56510011761E+03  0.00000000000E+00 0. -1.
<scales pt_clust_3="49.44068" pt_clust_4="394.67245" pt_clust_5="49.44068" pt_clust_6="48.95530"></scales>
<clustering>
<clus scale="   48.955">  1  6  2 -1</clus>
<clus scale="   49.441">  3  5 -1 -1</clus>
<clus scale="  394.672">  2  4  1 -1</clus>
<clus scale="  394.672">  2  3  1 -1</clus>
</clustering>
</event>
<event>
 6    0  0.4017242E+002  0.1079630E+03  0.7546771E-02  0.1264389E+00
         21   -1    0    0  503  502  0.00000000000E+00  0.00000000000E+00  0.14040540220E+03  0.14040540220E+03  0.00000000000E+00 0.  1.
         -1   -1    0    0    0  501 -0.00000000000E+00 -0.00000000000E+00 -0.26950003363E+03  0.26950003363E+03  0.00000000000E+00 0.  1.
         21    1    1    2  503  505  0.39262271664E+01 -0.58760328120E+02 -0.12682986976E+02  0.60241593432E+02  0.00000000000E+00 0.  1.
         21    1    1    2  504  502 -0.27847764480E+02  0.42218401812E+02  0.30795844755E+01  0.50669273516E+02  0.00000000000E+00 0.  1.
         21    1    1    2  505  501 -0.70618875770E+02 -0.46499533021E+02  0.47520579574E+02  0.96991946415E+02  0.00000000000E+00 0. -1.
         -1    1    1    2    0  504  0.94540413084E+02  0.63041459329E+02 -0.16701180851E+03  0.20200262247E+03  0.00000000000E+00 0.  1.
<scales pt_clust_3="49.95399" pt_clust_4="50.57560" pt_clust_5="14000.00000" pt_clust_6="107.96297"></scales>
<clustering>
<clus scale="   50.576">  1  4  2 -1</clus>
<clus scale="   49.954">  1  3  2 -1</clus>
<clus scale="  107.963">  2  6  1 -1</clus>
<clus scale="   50.576">  1  3  2 -1</clus>
</clustering>
</event>
<event>
 6    0  0.4017242E+002  0.6151398E+02  0.7546771E-02  0.1391586E+00
         21   -1    0    0  503  502  0.00000000000E+00  0.00000000000E+00  0.57789011026E+02  0.57789011026E+02  0.00000000000E+00 0. -1.
          2   -1    0    0  504    0 -0.00000000000E+00 -0.00000000000E+00 -0.72637240714E+03  0.72637240714E+03  0.00000000000E+00 0.  1.
         21    1    1    2  503  501 -0.24591241267E+02  0.44178842909E+02 -0.25723797753E+02  0.56729296476E+02  0.00000000000E+00 0. -1.
         21    1    1    2  504  505 -0.30108348132E+00  0.74240575227E+02 -0.32112270549E+03  0.32959299999E+03  0.00000000000E+00 0.  1.
         21    1    1    2  505  502 -0.10314988117E+02 -0.71385632772E+02 -0.13807939772E+01  0.72140239382E+02  0.00000000000E+00 0. -1.
          2    1    1    2  501    0  0.35207312865E+02 -0.47033785364E+02 -0.32035609889E+03  0.32569888231E+03  0.00000000000E+00 0.  1.
<scales pt_clust_3="50.56184" pt_clust_4="14000.00000" pt_clust_5="46.25023" pt_clust_6="61.51398"></scales>
<clustering>
<clus scale="   50.562">  1  3  2 -1</clus>
<clus scale="   46.250">  1  5  2 -1</clus>
<clus scale="   61.514">  2  6  1 -1</clus>
<clus scale="   50.562">  1  3  2 -1</clus>
</clustering>
</event>
<event>
 6    0  0.4017242E+002  0.8376382E+02  0.7546771E-02  0.1318697E+00
          2   -1    0    0  504    0 -0.00000000000E+00  0.00000000000E+00  0.39043587559E+04  0.39043587559E+04  0.00000000000E+00 0. -1.
         21   -1    0    0  503  502  0.00000000000E+00 -0.00000000000E+00 -0.14884113329E+02  0.14884113329E+02  0.00000000000E+00 0.  1.
         21    1    1    2  503  501  0.75871325184E+02 -0.42769086175E+02  0.22991900084E+03  0.24586256255E+03  0.00000000000E+00 0.  1.
         21    1    1    2  504  505  0.24218167717E+02 -0.57294620162E+02  0.53604854432E+03  0.53964547160E+03  0.00000000000E+00 0. -1.
         21    1    1    2  505  502 -0.88361464081E+02 -0.12072942789E+02  0.50589649555E+03  0.51369715640E+03  0.00000000000E+00 0. -1.
          2    1    1    2  501    0 -0.11728028820E+02  0.11213664913E+03  0.26176106018E+04  0.26200376787E+04  0.00000000000E+00 0. -1.
<scales pt_clust_3="83.76382" pt_clust_4="62.20284" pt_clust_5="14000.00000" pt_clust_6="67.94012"></scales>
<clustering>
<clus scale="   62.203">  1  4  2 -1</clus>
<clus scale="   67.940">  1  6  2 -1</clus>
<clus scale="   83.764">  2  3  1 -1</clus>
<clus scale="   83.764">  2  3  1 -1</clus>
</clustering>
</event>
<event>
 6    0  0.4017242E+002  0.1073547E+03  0.7546771E-02  0.1265548E+00
          1   -1    0    0  505    0 -0.00000000000E+00  0.00000000000E+00  0.26398814176E+04  0.26398814176E+04  0.00000000000E+00 0. -1.
         21   -1    0    0  503  502  0.00000000000E+00 -0.00000000000E+00 -0.10613154852E+02  0.10613154852E+02  0.00000000000E+00 0.  1.
         21    1    1    2  503  501 -0.44323453122E+02  0.24646623431E+02  0.10223371159E+03  0.11412167335E+03  0.00000000000E+00 0.  1.
         21    1    1    2  504  502  0.40476181327E+02 -0.40308059613E+02  0.39638859914E+03  0.40048343593E+03  0.00000000000E+00 0.  1.
         21    1    1    2  505  504  0.48778446593E+02 -0.49836100067E+02  0.10752228902E+04  0.10774818965E+04  0.00000000000E+00 0.  1.
          1    1    1    2  501    0 -0.44931174798E+02  0.65497536249E+02  0.10554230618E+04  0.10584075666E+04  0.00000000000E+00 0. -1.
<scales pt_clust_3="50.71513" pt_clust_4="46.58055" pt_clust_5="46.58055" pt_clust_6="94.21386"></scales>
<clustering>
<clus scale="   46.581">  4  5 -1 -1</clus>
<clus scale="   50.715">  2  3  1 -1</clus>
<clus scale="   94.214">  1  6  2 -1</clus>
<clus scale="   50.715">  2  3  1 -1</clus>
</clustering>
</event>
<event>
 6    0  0.4017242E+002  0.1006842E+03  0.7546771E-02  0.1278864E+00
         21   -1    0    0  504  502  0.00000000000E+00  0.00000000000E+00  0.19944519654E+03  0.19944519654E+03  0.00000000000E+00 0. -1.
         -4   -1    0    0    0  501 -0.00000000000E+00 -0.00000000000E+00 -0.19976974211E+04  0.19976974211E+04  0.00000000000E+00 0. -1.
         21    1    1    2  503  501 -0.24740708504E+02 -0.88180493175E+02  0.55817881142E+02  0.10725454717E+03  0.00000000000E+00 0. -1.
         21    1    1    2  504  503 -0.14249477150E+02  0.40457826950E+02 -0.17133557053E+02  0.46189199363E+02  0.00000000000E+00 0.  1.
         21    1    1    2  505  502 -0.62188490035E+02  0.48288607295E+02  0.86865300624E+02  0.11723812665E+03  0.00000000000E+00 0.  1.
         -4    1    1    2    0  505  0.10117867569E+03 -0.56594106930E+00 -0.19238018493E+04  0.19264607445E+04  0.00000000000E+00 0. -1.
<scales pt_clust_3="76.87895" pt_clust_4="42.89386" pt_clust_5="100.68419" pt_clust_6="14000.00000"></scales>
<clustering>
<clus scale="   42.894">  1  4  2 -1</clus>
<clus scale="   76.879">  1  3  2 -1</clus>
<clus scale="  100.684">  1  5  2 -1</clus>
<clus scale="   42.894">  1  3  2 -1</clus>
</clustering>
</event>
<event>
 6    0  0.4017242E+002  0.1376324E+03  0.7546771E-02  0.1216551E+00
         21   -1    0    0  504  502  0.00000000000E+00  0.00000000000E+00  0.14297822045E+03  0.14297822045E+03  0.00000000000E+00 0. -1.
          1   -1    0    0  505    0 -0.00000000000E+00 -0.00000000000E+00 -0.87349709714E+03  0.87349709714E+03  0.00000000000E+00 0.  1.
         21    1    1    2  503  502 -0.17051585664E+02 -0.35039016523E+02  0.33960897838E+02  0.51689765278E+02  0.00000000000E+00 0. -1.
         21    1    1    2  504  501  0.55291827798E+02 -0.97371860430E+02  0.39010123328E+02  0.11857594675E+03  0.00000000000E+00 0. -1.
         21    1    1    2  505  503 -0.57699471950E+02  0.16446009573E+03 -0.34825036070E+03  0.38942864029E+03  0.00000000000E+00 0. -1.
          1    1    1    2  501    0  0.19459229816E+02 -0.32049218774E+02 -0.45523953715E+03  0.45678096528E+03  0.00000000000E+00 0.  1.
<scales pt_clust_3="39.40457" pt_clust_4="137.63238" pt_clust_5="14000.00000" pt_clust_6="37.49419"></scales>
<clustering>
<clus scale="   37.494">  2  6  1 -1</clus>
<clus scale="   39.405">  1  3  2 -1</clus>
<clus scale="  137.632">  1  4  2 -1</clus>
<clus scale="   39.405">  1  3  2 -1</clus>
</clustering>
</event>
<event>
 6    0  0.4017242E+002  0.9582890E+02  0.7546771E-02  0.1289320E+00
          1   -1    0    0  505    0 -0.00000000000E+00  0.00000000000E+00  0.60756221480E+03  0.60756221480E+03  0.00000000000E+00 0.  1.
         21   -1    0    0  504  502  0.00000000000E+00 -0.00000000000E+00 -0.22386322655E+03  0.22386322655E+03  0.00000000000E+00 0. -1.
         21    1    1    2  503  502  0.45574353789E+01 -0.33206848629E+02 -0.66032482548E+02  0.74052371769E+02  0.00000000000E+00 0. -1.
         21    1    1    2  504  501 -0.25262691693E+02  0.26943203322E+02  0.18847128723E+02  0.41465094452E+02  0.00000000000E+00 0. -1.
         21    1    1    2  505  503  0.96579814085E+02 -0.51665830890E+02 -0.11670893608E+03  0.16005622241E+03  0.00000000000E+00 0. -1.
          1    1    1    2  501    0 -0.75874557770E+02  0.57929476197E+02  0.54759327816E+03  0.55585175273E+03  0.00000000000E+00 0.  1.
<scales pt_clust_3="33.51813" pt_clust_4="34.95319" pt_clust_5="95.82890" pt_clust_6="14000.00000"></scales>
<clustering>
<clus scale="   33.518">  2  3  1 -1</clus>
<clus scale="   34.953">  2  4  1 -1</clus>
<clus scale="   95.829">  2  5  1 -1</clus>
<clus scale="   33.518">  2  3  1 -1</clus>
</clustering>
</event>
<event>
 6    0  0.4017242E+002  0.1417930E+03  0.7546771E-02  0.1210937E+00
         21   -1    0    0  505  502  0.00000000000E+00  0.00000000000E+00  0.80675510296E+02  0.80675510296E+02  0.00000000000E+00 0. -1.
          1   -1    0    0  504    0 -0.00000000000E+00 -0.00000000000E+00 -0.27103612746E+03  0.27103612746E+03  0.00000000000E+00 0. -1.
         21    1    1    2  503  502 -0.31203359927E+02 -0.67232894158E+02  0.47621412652E+01  0.74273748506E+02  0.00000000000E+00 0. -1.
         21    1    1    2  504  503 -0.34686434435E+02 -0.40266932533E+02 -0.35398396215E+02  0.63856252975E+02  0.00000000000E+00 0.  1.
         21    1    1    2  505  501  0.61829111060E+02  0.39127775331E+02 -0.87074334647E+02  0.11373548932E+03  0.00000000000E+00 0. -1.
          1    1    1    2  501    0  0.40606833019E+01  0.68372051360E+02 -0.72650027563E+02  0.99846146951E+02  0.00000000000E+00 0. -1.
<scales pt_clust_3="134.68971" pt_clust_4="40.10923" pt_clust_5="62.75829" pt_clust_6="62.75829"></scales>
<clustering>
<clus scale="   40.109">  3  4 -1 -1</clus>
<clus scale="   62.758">  5  6 -1 -1</clus>
<clus scale="  134.690">  1  3  2 -1</clus>
<clus scale="  134.690">  1  3  2 -1</clus>
</clustering>
</event>
<event>
 6    0  0.4017242E+002  0.1862052E+03  0.7546771E-02  0.1161929E+00
          2   -1    0    0  504    0 -0.00000000000E+00  0.00000000000E+00  0.76904567324E+03  0.76904567324E+03  0.00000000000E+00 0.  1.
         21   -1    0    0  505  502  0.00000000000E+00 -0.00000000000E+00 -0.37192511315E+03  0.37192511315E+03  0.00000000000E+00 0.  1.
         21    1    1    2  503  502  0.89946942315E+02  0.20889842906E+01 -0.23220993543E+02  0.92919485730E+02  0.00000000000E+00 0.  1.
         21    1    1    2  504  503  0.72485934924E+02 -0.25164630276E+02 -0.10800423349E+03  0.13248540988E+03  0.00000000000E+00 0.  1.
         21    1    1    2  505  501 -0.17021950230E+01  0.73177715690E+02 -0.17640288296E+03  0.19098652481E+03  0.00000000000E+00 0.  1.
          2    1    1    2  501    0 -0.16073068222E+03 -0.50102069705E+02  0.70474867009E+03  0.72457936597E+03  0.00000000000E+00 0.  1.
<scales pt_clust_3="73.23703" pt_clust_4="73.23703" pt_clust_5="73.19751" pt_clust_6="167.33798"></scales>
<clustering>
<clus scale="   73.198">  2  5  1 -1</clus>
<clus scale="   73.237">  3  4 -1 -1</clus>
<clus scale="  167.338">  1  6  2 -1</clus>
<clus scale="   73.198">  2  3  1 -1</clus>
</clustering>
</event>
<event>
 6    0  0.4017242E+002  0.1894627E+03  0.7546771E-02  0.1158947E+00
          2   -1    0    0  504    0 -0.00000000000E+00  0.00000000000E+00  0.22198638523E+04  0.22198638523E+04  0.00000000000E+00 0. -1.
         21   -1    0    0  505  502  0.00000000000E+00 -0.00000000000E+00 -0.63346248783E+02  0.63346248783E+02  0.00000000000E+00 0.  1.
         21    1    1    2  503  501 -0.62766755471E+02 -0.20147006468E+02  0.98698065481E+02  0.11868814428E+03  0.00000000000E+00 0.  1.
         21    1    1    2  504  502  0.14518648045E+03  0.56145637221E+02  0.38310788229E+03  0.41352520620E+03  0.00000000000E+00 0.  1.
         21    1    1    2  505  503 -0.11514090788E+03 -0.45304709592E+02  0.62858228638E+02  0.13878437335E+03  0.00000000000E+00 0.  1.
          2    1    1    2  501    0  0.32721182907E+02  0.93060788391E+01  0.16118534271E+04  0.16122123773E+04  0.00000000000E+00 0. -1.
<scales pt_clust_3="46.43789" pt_clust_4="177.87500" pt_clust_5="46.43789" pt_clust_6="34.01880"></scales>
<clustering>
<clus scale="   34.019">  1  6  2 -1</clus>
<clus scale="   46.438">  3  5 -1 -1</clus>
<clus scale="  177.875">  1  4  2 -1</clus>
<clus scale="  189.463">  2  3  1 -1</clus>
</clustering>
</event>
<event>
 6    0  0.4017242E+002  0.1364251E+03  0.7546771E-02  0.1218222E+00
         21   -1    0    0  501  502  0.00000000000E+00  0.00000000000E+00  0.38439330049E+02  0.38439330049E+02  0.00000000000E+00 0. -1.
         -2   -1    0    0    0  501 -0.00000000000E+00 -0.00000000000E+00 -0.12884632667E+04  0.12884632667E+04  0.00000000000E+00 0.  1.
         21    1    1    2  503  502 -0.10028322914E+03 -0.10888910537E+03 -0.14990897089E+03  0.21068047576E+03  0.00000000000E+00 0. -1.
         21    1    1    2  504  505  0.12317801064E+02  0.57985404208E+02 -0.24237912085E+03  0.24952289183E+03  0.00000000000E+00 0. -1.
         21    1    1    2  505  503  0.34516312424E+02  0.27933420911E+02 -0.14633064105E+03  0.15291928700E+03  0.00000000000E+00 0. -1.
         -2    1    1    2    0  504  0.53449115655E+02  0.22970280246E+02 -0.71140520384E+03  0.71377994213E+03  0.00000000000E+00 0.  1.
<scales pt_clust_3="131.61637" pt_clust_4="31.07234" pt_clust_5="31.07234" pt_clust_6="58.17595"></scales>
<clustering>
<clus scale="   31.072">  4  5 -1 -1</clus>
<clus scale="   58.176">  2  6  1 -1</clus>
<clus scale="  131.616">  1  3  2 -1</clus>
<clus scale="  131.616">  1  3  2 -1</clus>
</clustering>
</event>
<event>
 6    0  0.4017242E+002  0.1919918E+03  0.7546771E-02  0.1156677E+00
         21   -1    0    0  505  502  0.00000000000E+00  0.00000000000E+00  0.14253629019E+03  0.14253629019E+03  0.00000000000E+00 0.  1.
          3   -1    0    0  504    0 -0.00000000000E+00 -0.00000000000E+00 -0.18811123590E+04  0.18811123590E+04  0.00000000000E+00 0.  1.
         21    1    1    2  503  502  0.73957719884E+02  0.12958401941E+02 -0.18733074898E+02  0.77385997483E+02  0.00000000000E+00 0.  1.
         21    1    1    2  504  503  0.11942714731E+03 -0.13244354043E+03 -0.35705211220E+02  0.18187632343E+03  0.00000000000E+00 0.  1.
         21    1    1    2  505  501 -0.56847850633E+02 -0.16967936113E+02  0.92404116790E+01  0.60041437238E+02  0.00000000000E+00 0. -1.
          3    1    1    2  501    0 -0.13653701656E+03  0.13645307460E+03 -0.16933781944E+04  0.17043448910E+04  0.00000000000E+00 0.  1.
<scales pt_clust_3="59.09856" pt_clust_4="191.99182" pt_clust_5="59.32612" pt_clust_6="14000.00000"></scales>
<clustering>
<clus scale="   59.326">  1  5  2 -1</clus>
<clus scale="   59.099">  1  3  2 -1</clus>
<clus scale="  191.992">  1  4  2 -1</clus>
<clus scale="   59.326">  1  3  2 -1</clus>
</clustering>
</event>
<event>
 6    0  0.4017242E+002  0.1544723E+03  0.7546771E-02  0.1195083E+00
         -3   -1    0    0    0  501 -0.00000000000E+00  0.00000000000E+00  0.26043565945E+04  0.26043565945E+04  0.00000000000E+00 0. -1.
         21   -1    0    0  505  502  0.00000000000E+00 -0.00000000000E+00 -0.12492594079E+02  0.12492594079E+02  0.00000000000E+00 0. -1.
         21    1    1    2  503  501 -0.10917044929E+03 -0.62314745380E+02  0.11484706594E+04  0.11553294638E+04  0.00000000000E+00 0. -1.
         21    1    1    2  504  503 -0.20082459230E+02 -0.29252976338E+02  0.14698664367E+03  0.15120884634E+03  0.00000000000E+00 0. -1.
         21    1    1    2  505  504  0.23007981186E+01  0.53407014372E+02  0.25823386356E+03  0.26370879990E+03  0.00000000000E+00 0. -1.
         -3    1    1    2    0  502  0.12695211040E+03  0.38160707347E+02  0.10381728338E+04  0.10466020785E+04  0.00000000000E+00 0. -1.
<scales pt_clust_3="32.49939" pt_clust_4="32.49939" pt_clust_5="53.45655" pt_clust_6="141.84469"></scales>
<clustering>
<clus scale="   32.499">  3  4 -1 -1</clus>
<clus scale="   53.457">  2  5  1 -1</clus>
<clus scale="  141.845">  1  6  2 -1</clus>
<clus scale="   53.457">  2  3  1 -1</clus>
</clustering>
</event>
<event>
 6    0  0.4017242E+002  0.9993096E+02  0.7546771E-02  0.1280441E+00
         -1   -1    0    0    0  501 -0.00000000000E+00  0.00000000000E+00  0.86721308571E+03  0.86721308571E+03  0.00000000000E+00 0. -1.
         21   -1    0    0  504  502  0.00000000000E+00 -0.00000000000E+00 -0.90495298496E+02  0.90495298496E+02  0.00000000000E+00 0.  1.
         21    1    1    2  503  505  0.36508779228E+02 -0.35415684336E+02  0.14622556456E+02  0.52924293241E+02  0.00000000000E+00 0.  1.
         21    1    1    2  504  501 -0.27347567389E+02 -0.72334307459E+02  0.28723385032E+02  0.82493480502E+02  0.00000000000E+00 0.  1.
         21    1    1    2  505  502  0.42942351801E+02  0.14790968059E+02 -0.28093454397E+02  0.53404686071E+02  0.00000000000E+00 0.  1.
         -1    1    1    2    0  503 -0.52103563641E+02  0.92959023736E+02  0.76146530012E+03  0.76888592439E+03  0.00000000000E+00 0. -1.
<scales pt_clust_3="60.80009" pt_clust_4="99.93096" pt_clust_5="45.41826" pt_clust_6="14000.00000"></scales>
<clustering>
<clus scale="   45.418">  2  5  1 -1</clus>
<clus scale="   60.800">  2  3  1 -1</clus>
<clus scale="   99.931">  2  4  1 -1</clus>
<clus scale="   45.418">  2  3  1 -1</clus>
</clustering>
</event>
<event>
 6    0  0.4017242E+002  0.1781654E+03  0.7546771E-02  0.1169590E+00
          2   -1    0    0  503    0 -0.00000000000E+00  0.00000000000E+00  0.19451157250E+04  0.19451157250E+04  0.00000000000E+00 0. -1.
         21   -1    0    0  501  502  0.00000000000E+00 -0.00000000000E+00 -0.47199817961E+03  0.47199817961E+03  0.00000000000E+00 0.  1.
         21    1    1    2  503  505  0.45422972876E+01  0.36302906633E+02  0.64241280639E+03  0.64345376470E+03  0.00000000000E+00 0. -1.
         21    1    1    2  504  502 -0.67276206357E+02  0.16678024844E+03 -0.44131709977E+03  0.47655274814E+03  0.00000000000E+00 0.  1.
         21    1    1    2  505  504 -0.31827488823E+02 -0.12361507165E+03  0.55191449778E+03  0.56648326351E+03  0.00000000000E+00 0. -1.
          2    1    1    2  501    0  0.94561397893E+02 -0.79468083428E+02  0.72010734095E+03  0.73062412822E+03  0.00000000000E+00 0. -1.
<scales pt_clust_3="36.58597" pt_clust_4="14000.00000" pt_clust_5="112.08088" pt_clust_6="178.16539"></scales>
<clustering>
<clus scale="   36.586">  1  3  2 -1</clus>
<clus scale="  112.081">  1  5  2 -1</clus>
<clus scale="  178.165">  1  6  2 -1</clus>
<clus scale="  178.165">  2  3  1 -1</clus>
</clustering>
</event>
<event>
 6    0  0.4017242E+002  0.1782172E+03  0.7546771E-02  0.1169540E+00
         -1   -1    0    0    0  501 -0.00000000000E+00  0.00000000000E+00  0.37357211838E+03  0.37357211838E+03  0.00000000000E+00 0. -1.
         21   -1    0    0  501  502  0.00000000000E+00 -0.00000000000E+00 -0.25289648717E+03  0.25289648717E+03  0.00000000000E+00 0.  1.
         21    1    1    2  503  505  0.62853362061E+02  0.12017969164E+03  0.18405175067E+02  0.13686655499E+03  0.00000000000E+00 0.  1.
         21    1    1    2  504  503  0.19950916906E+02  0.59006180852E+02  0.42861805498E+02  0.75610203244E+02  0.00000000000E+00 0.  1.
         21    1    1    2  505  502 -0.95305319272E+02 -0.13417046027E+03 -0.13573856114E+03  0.21333019775E+03  0.00000000000E+00 0.  1.
         -1    1    1    2    0  504  0.12501040306E+02 -0.45015412222E+02  0.19514721178E+03  0.20066164958E+03  0.00000000000E+00 0. -1.
<scales pt_clust_3="33.39739" pt_clust_4="33.39739" pt_clust_5="171.26808" pt_clust_6="46.71898"></scales>
<clustering>
<clus scale="   33.397">  3  4 -1 -1</clus>
<clus scale="   46.719">  1  6  2 -1</clus>
<clus scale="  171.268">  2  5  1 -1</clus>
<clus scale="  171.268">  2  3  1 -1</clus>
</clustering>
</event>
<event>
 6    0  0.4017242E+002  0.9076629E+02  0.7546771E-02  0.1301007E+00
         21   -1    0    0  504  502  0.00000000000E+00  0.00000000000E+00  0.10703830515E+03  0.10703830515E+03  0.00000000000E+00 0.  1.
          2   -1    0    0  505    0 -0.00000000000E+00 -0.00000000000E+00 -0.35864974502E+04  0.35864974502E+04  0.00000000000E+00 0. -1.
         21    1    1    2  503  501  0.12691351550E+02 -0.44394736526E+02 -0.25112285126E+02  0.52560345315E+02  0.00000000000E+00 0. -1.
         21    1    1    2  504  503  0.65088345548E+01 -0.40088542742E+02 -0.90577808028E+02  0.99266285785E+02  0.00000000000E+00 0. -1.
         21    1    1    2  505  502  0.28829737960E+02  0.16100780990E+03  0.12672758201E+02  0.16405873168E+03  0.00000000000E+00 0.  1.
          2    1    1    2  501    0 -0.48029924065E+02 -0.76524530635E+02 -0.33764418101E+04  0.33776503926E+04  0.00000000000E+00 0. -1.
<scales pt_clust_3="51.56728" pt_clust_4="40.61350" pt_clust_5="90.76629" pt_clust_6="14000.00000"></scales>
<clustering>
<clus scale="   40.613">  1  4  2 -1</clus>
<clus scale="   51.567">  1  3  2 -1</clus>
<clus scale="   90.766">  1  5  2 -1</clus>
<clus scale="   40.613">  1  3  2 -1</clus>
</clustering>
</event>
<event>
 6    0  0.4017242E+002  0.1108488E+03  0.7546771E-02  0.1259006E+00
         -2   -1    0    0    0  501 -0.00000000000E+00  0.00000000000E+00  0.10735003297E+03  0.10735003297E+03  0.00000000000E+00 0. -1.
         21   -1    0    0  505  502  0.00000000000E+00 -0.00000000000E+00 -0.79506337901E+03  0.79506337901E+03  0.00000000000E+00 0. -1.
         21    1    1    2  503  504  0.89259596798E+02 -0.22521359061E+02  0.14209652612E+02  0.93147203189E+02  0.00000000000E+00 0. -1.
         21    1    1    2  504  502 -0.33348801733E+02  0.35882936211E+01 -0.41176810651E+02  0.53108833197E+02  0.00000000000E+00 0.  1.
         21    1    1    2  505  501 -0.79971385014E+02 -0.44532702118E+02 -0.67958193716E+03  0.68571874211E+03  0.00000000000E+00 0. -1.
         -2    1    1    2    0  503  0.24060589949E+02  0.63465767558E+02  0.18835749157E+02  0.70438633481E+02  0.00000000000E+00 0. -1.
<scales pt_clust_3="14000.00000" pt_clust_4="33.54129" pt_clust_5="110.84879" pt_clust_6="67.59072"></scales>
<clustering>
<clus scale="   33.541">  2  4  1 -1</clus>
<clus scale="   67.591">  1  6  2 -1</clus>
<clus scale="  110.849">  2  5  1 -1</clus>
<clus scale="   33.541">  2  3  1 -1</clus>
</clustering>
</event>
<event>
 6    0  0.4017242E+002  0.1546632E+03  0.7546771E-02  0.1194857E+00
          1   -1    0    0  502    0 -0.00000000000E+00  0.00000000000E+00  0.14172349682E+04  0.14172349682E+04  0.00000000000E+00 0. -1.
         21   -1    0    0  505  502  0.00000000000E+00 -0.00000000000E+00 -0.23386818054E+03  0.23386818054E+03  0.00000000000E+00 0.  1.
         21    1    1    2  503  504  0.56270942166E+02  0.91887457816E+02 -0.71177707698E+02  0.12913554859E+03  0.00000000000E+00 0.  1.
         21    1    1    2  504  501  0.48148741048E+02  0.34320009267E+02 -0.49070379508E+01  0.59331638457E+02  0.00000000000E+00 0.  1.
         21    1    1    2  505  503 -0.57552893804E+02  0.10731908040E+02 -0.88950555680E+02  0.10648807816E+03  0.00000000000E+00 0.  1.
          1    1    1    2  501    0 -0.46866789410E+02 -0.13693937512E+03  0.13484020890E+04  0.13561478835E+04  0.00000000000E+00 0. -1.
<scales pt_clust_3="39.88700" pt_clust_4="39.88700" pt_clust_5="58.54494" pt_clust_6="144.98796"></scales>
<clustering>
<clus scale="   39.887">  3  4 -1 -1</clus>
<clus scale="   58.545">  2  5  1 -1</clus>
<clus scale="  144.988">  1  6  2 -1</clus>
<clus scale="   58.545">  2  3  1 -1</clus>
</clustering>
</event>
<event>
 6    0  0.4017242E+002  0.1347327E+03  0.7546771E-02  0.1220598E+00
         21   -1    0    0  504  502  0.00000000000E+00  0.00000000000E+00  0.13667956581E+04  0.13667956581E+04  0.00000000000E+00 0.  1.
          1   -1    0    0  503    0 -0.00000000000E+00 -0.00000000000E+00 -0.70725077193E+03  0.70725077193E+03  0.00000000000E+00 0.  1.
         21    1    1    2  503  505 -0.50586655730E+02  0.53472238120E+02 -0.30460751195E+02  0.79662709914E+02  0.00000000000E+00 0. -1.
         21    1    1    2  504  501  0.17074824891E+02 -0.26065666109E+02  0.86547068912E+03  0.86603145573E+03  0.00000000000E+00 0.  1.
         21    1    1    2  505  502  0.11783024316E+03  0.33120087702E+01  0.46598103720E+03  0.48065919593E+03  0.00000000000E+00 0.  1.
          1    1    1    2  501    0 -0.84318412319E+02 -0.30718580781E+02 -0.64144608896E+03  0.64769306844E+03  0.00000000000E+00 0.  1.
<scales pt_clust_3="72.10369" pt_clust_4="31.16037" pt_clust_5="134.73271" pt_clust_6="14000.00000"></scales>
<clustering>
<clus scale="   31.160">  1  4  2 -1</clus>
<clus scale="   72.104">  2  3  1 -1</clus>
<clus scale="  134.733">  1  5  2 -1</clus>
<clus scale="   31.160">  1  3  2 -1</clus>
</clustering>
</event>
<event>
 6    0  0.4017242E+002  0.6919727E+02  0.7546771E-02  0.1362844E+00
          3   -1    0    0  503    0 -0.00000000000E+00  0.00000000000E+00  0.25547389341E+03  0.25547389341E+03  0.00000000000E+00 0.  1.
         21   -1    0    0  505  502  0.00000000000E+00 -0.00000000000E+00 -0.49886565231E+03  0.49886565231E+03  0.00000000000E+00 0. -1.
         21    1    1    2  503  502  0.10023612365E+03  0.64156761613E+02 -0.30128350873E+03  0.32393691234E+03  0.00000000000E+00 0. -1.
         21    1    1    2  504  501 -0.16671231996E+02 -0.41481317918E+02 -0.14777948222E+03  0.15439366916E+03  0.00000000000E+00 0. -1.
         21    1    1    2  505  504 -0.39873247231E+02 -0.18282811984E+02 -0.18478665621E+02  0.47598299780E+02  0.00000000000E+00 0.  1.
          3    1    1    2  501    0 -0.43691644420E+02 -0.43926317110E+01  0.22414989766E+03  0.22841066444E+03  0.00000000000E+00 0.  1.
<scales pt_clust_3="69.19727" pt_clust_4="14000.00000" pt_clust_5="43.86499" pt_clust_6="44.10175"></scales>
<clustering>
<clus scale="   43.865">  2  5  1 -1</clus>
<clus scale="   44.102">  1  6  2 -1</clus>
<clus scale="   69.197">  2  3  1 -1</clus>
<clus scale="   43.865">  2  3  1 -1</clus>
</clustering>
</event>
<event>
 6    0  0.4017242E+002  0.9695965E+02  0.7546771E-02  0.1286822E+00
         21   -1    0    0  503  502  0.00000000000E+00  0.00000000000E+00  0.15871127587E+04  0.15871127587E+04  0.00000000000E+00 0. -1.
         -2   -1    0    0    0  501 -0.00000000000E+00 -0.00000000000E+00 -0.39123815094E+02  0.39123815094E+02  0.00000000000E+00 0. -1.
         21    1    1    2  503  501  0.61764236825E+01 -0.85071465837E+02  0.80127928946E+03  0.80580630565E+03  0.00000000000E+00 0. -1.
         21    1    1    2  504  505 -0.32252449287E+01  0.12850365078E+03  0.27973929107E+03  0.30785980809E+03  0.00000000000E+00 0. -1.
         21    1    1    2  505  502 -0.45719503517E+02 -0.23499760251E+01  0.44796217684E+03  0.45029535559E+03  0.00000000000E+00 0. -1.
         -2    1    1    2    0  504  0.42768324763E+02 -0.41082208921E+02  0.19008186253E+02  0.62275104476E+02  0.00000000000E+00 0. -1.
<scales pt_clust_3="14000.00000" pt_clust_4="96.95965" pt_clust_5="45.77986" pt_clust_6="58.19606"></scales>
<clustering>
<clus scale="   45.780">  1  5  2 -1</clus>
<clus scale="   58.196">  2  6  1 -1</clus>
<clus scale="   96.960">  2  4  1 -1</clus>
<clus scale="   45.780">  1  3  2 -1</clus>
</clustering>
</event>
<event>
 6    0  0.4017242E+002  0.1677853E+03  0.7546771E-02  0.1180177E+00
         21   -1    0    0  504  502  0.00000000000E+00  0.00000000000E+00  0.76120958383E+03  0.76120958383E+03  0.00000000000E+00 0.  1.
          2   -1    0    0  505    0 -0.00000000000E+00 -0.00000000000E+00 -0.29924936726E+04  0.29924936726E+04  0.00000000000E+00 0.  1.
         21    1    1    2  503  502  0.49113857727E+01 -0.11467240866E+03  0.71402151185E+03  0.72318780576E+03  0.00000000000E+00 0.  1.
         21    1    1    2  504  501 -0.12622912234E+03  0.77150820095E+02 -0.91490503726E+03  0.92678868550E+03  0.00000000000E+00 0. -1.
         21    1    1    2  505  503  0.14211883568E+03 -0.27821355664E+01 -0.10239138051E+03  0.17518418460E+03  0.00000000000E+00 0. -1.
          2    1    1    2  501    0 -0.20801099112E+02  0.40303724127E+02 -0.19280091828E+04  0.19285425805E+04  0.00000000000E+00 0.  1.
<scales pt_clust_3="114.60032" pt_clust_4="167.78526" pt_clust_5="14000.00000" pt_clust_6="45.35500"></scales>
<clustering>
<clus scale="   45.355">  2  6  1 -1</clus>
<clus scale="  114.600">  1  3  2 -1</clus>
<clus scale="  167.785">  2  4  1 -1</clus>
<clus scale="  114.600">  1  3  2 -1</clus>
</clustering>
</event>
<event>
 6    0  0.4017242E+002  0.7086731E+02  0.7546771E-02  0.1357168E+00
         21   -1    0    0  504  502  0.00000000000E+00  0.00000000000E+00  0.73793496183E+02  0.73793496183E+02  0.00000000000E+00 0. -1.
          2   -1    0    0  505    0 -0.00000000000E+00 -0.00000000000E+00 -0.10345682326E+04  0.10345682326E+04  0.00000000000E+00 0. -1.
         21    1    1    2  503  501  0.77362440003E+02  0.30971149663E+02 -0.14619080186E+03  0.16827331869E+03  0.00000000000E+00 0. -1.
         21    1    1    2  504  503 -0.44568221472E+02  0.35972526602E+02  0.40941195837E+02  0.70402631711E+02  0.00000000000E+00 0. -1.
         21    1    1    2  505  502  0.27542145236E+02 -0.43317738159E+02 -0.11042069188E+03  0.12176914798E+03  0.00000000000E+00 0. -1.
          2    1    1    2  501    0 -0.60336363767E+02 -0.23625938106E+02 -0.74510443848E+03  0.74791663037E+03  0.00000000000E+00 0. -1.
<scales pt_clust_3="14000.00000" pt_clust_4="56.49486" pt_clust_5="51.33221" pt_clust_6="70.86731"></scales>
<clustering>
<clus scale="   51.332">  2  5  1 -1</clus>
<clus scale="   56.495">  1  4  2 -1</clus>
<clus scale="   70.867">  2  6  1 -1</clus>
<clus scale="   56.495">  1  3  2 -1</clus>
</clustering>
</event>
<event>
 6    0  0.4017242E+002  0.1011283E+03  0.7546771E-02  0.1277941E+00
          2   -1    0    0  505    0 -0.00000000000E+00  0.00000000000E+00  0.36816789927E+03  0.36816789927E+03  0.00000000000E+00 0.  1.
         21   -1    0    0  504  502  0.00000000000E+00 -0.00000000000E+00 -0.21183914575E+03  0.21183914575E+03  0.00000000000E+00 0. -1.
         21    1    1    2  503  501 -0.11977117098E+02 -0.10854558644E+03  0.11441028216E+03  0.15816228480E+03  0.00000000000E+00 0. -1.
         21    1    1    2  504  503 -0.41672845189E+02  0.62139968224E+01 -0.16897760658E+03  0.17415128856E+03  0.00000000000E+00 0. -1.
         21    1    1    2  505  502  0.30494333878E+02  0.12039538981E+02  0.84546457126E+02  0.90680528836E+02  0.00000000000E+00 0.  1.
          2    1    1    2  501    0  0.23155628410E+02  0.90292050638E+02  0.12634962082E+03  0.15701294283E+03  0.00000000000E+00 0.  1.
<scales pt_clust_3="101.12828" pt_clust_4="41.87214" pt_clust_5="32.78498" pt_clust_6="14000.00000"></scales>
<clustering>
<clus scale="   32.785">  1  5  2 -1</clus>
<clus scale="   41.872">  2  4  1 -1</clus>
<clus scale="  101.128">  2  3  1 -1</clus>
<clus scale="   41.872">  2  3  1 -1</clus>
</clustering>
</event>
<event>
 6    0  0.4017242E+002  0.9146952E+02  0.7546771E-02  0.1299332E+00
         21   -1    0    0  505  502  0.00000000000E+00  0.00000000000E+00  0.32342446405E+03  0.32342446405E+03  0.00000000000E+00 0. -1.
          1   -1    0    0  504    0 -0.00000000000E+00 -0.00000000000E+00 -0.15649203653E+04  0.15649203653E+04  0.00000000000E+00 0.  1.
         21    1    1    2  503  502 -0.10211975904E+03 -0.21453538679E+02  0.22854392976E+03  0.25123898452E+03  0.00000000000E+00 0. -1.
         21    1    1    2  504  503  0.62787698794E+02 -0.81296998512E+02  0.36944176506E+02  0.10916212376E+03  0.00000000000E+00 0. -1.
         21    1    1    2  505  501  0.66475946503E+00  0.37092899726E+02 -0.26719452130E+02  0.45719298303E+02  0.00000000000E+00 0. -1.
          1    1    1    2  501    0  0.38667300784E+02  0.65657637465E+02 -0.14802645554E+04  0.14822244228E+04  0.00000000000E+00 0.  1.
<scales pt_clust_3="14000.00000" pt_clust_4="91.46952" pt_clust_5="37.09886" pt_clust_6="76.29852"></scales>
<clustering>
<clus scale="   37.099">  1  5  2 -1</clus>
<clus scale="   76.299">  2  6  1 -1</clus>
<clus scale="   91.470">  2  4  1 -1</clus>
<clus scale="   37.099">  1  3  2 -1</clus>
</clustering>
</event>
<event>
 6    0  0.4017242E+002  0.1632521E+03  0.7546771E-02  0.1185073E+00
         21   -1    0    0  505  502  0.00000000000E+00  0.00000000000E+00  0.41711796408E+02  0.41711796408E+02  0.00000000000E+00 0.  1.
          1   -1    0    0  503    0 -0.00000000000E+00 -0.00000000000E+00 -0.12698228856E+04  0.12698228856E+04  0.00000000000E+00 0. -1.
         21    1    1    2  503  502 -0.42214332332E+02  0.24949089675E+02 -0.14225812001E+03  0.15047218892E+03  0.00000000000E+00 0.  1.
         21    1    1    2  504  501  0.62199946679E+02 -0.10990177495E+03 -0.14048997610E+03  0.18890385620E+03  0.00000000000E+00 0.  1.
         21    1    1    2  505  504 -0.94005963706E+01 -0.42664450562E+02 -0.44940680957E+02  0.62676082829E+02  0.00000000000E+00 0.  1.
          1    1    1    2  501    0 -0.10585017977E+02  0.12761713583E+03 -0.90042231207E+03  0.90948255400E+03  0.00000000000E+00 0. -1.
<scales pt_clust_3="49.03577" pt_clust_4="31.36547" pt_clust_5="31.36547" pt_clust_6="154.29691"></scales>
<clustering>
<clus scale="   31.365">  4  5 -1 -1</clus>
<clus scale="   49.036">  2  3  1 -1</clus>
<clus scale="  154.297">  2  6  1 -1</clus>
<clus scale="  163.252">  1  3  2 -1</clus>
</clustering>
</event>
<event>
 6    0  0.4017242E+002  0.1089117E+03  0.7546771E-02  0.1262599E+00
          2   -1    0    0  504    0 -0.00000000000E+00  0.00000000000E+00  0.40708316662E+04  0.40708316662E+04  0.00000000000E+00 0.  1.
         21   -1    0    0  503  502  0.00000000000E+00 -0.00000000000E+00 -0.12376473416E+03  0.12376473416E+03  0.00000000000E+00 0. -1.
         21    1    1    2  503  505 -0.34941897121E+01 -0.29940749784E+02 -0.75913802721E+02  0.81679638240E+02  0.00000000000E+00 0. -1.
         21    1    1    2  504  502  0.18763009098E+02 -0.32023729227E+02  0.74634445377E+02  0.83353885217E+02  0.00000000000E+00 0.  1.
         21    1    1    2  505  501  0.71746684745E+02  0.12667879873E+03  0.93135975469E+02  0.17282770249E+03  0.00000000000E+00 0.  1.
          2    1    1    2  501    0 -0.87015504131E+02 -0.64714319721E+02  0.38552103139E+04  0.38567351744E+04  0.00000000000E+00 0.  1.
<scales pt_clust_3="30.14395" pt_clust_4="39.48817" pt_clust_5="108.91172" pt_clust_6="14000.00000"></scales>
<clustering>
<clus scale="   30.144">  2  3  1 -1</clus>
<clus scale="   39.488">  2  4  1 -1</clus>
<clus scale="  108.912">  2  5  1 -1</clus>
<clus scale="   30.144">  2  3  1 -1</clus>
</clustering>
</event>
<event>
 6    0  0.4017242E+002  0.1291888E+03  0.7546771E-02  0.1228664E+00
          1   -1    0    0  505    0 -0.00000000000E+00  0.00000000000E+00  0.30684288035E+04  0.30684288035E+04  0.00000000000E+00 0.  1.
         21   -1    0    0  504  502  0.00000000000E+00 -0.00000000000E+00 -0.32965927781E+02  0.32965927781E+02  0.00000000000E+00 0. -1.
         21    1    1    2  503  502 -0.22096929165E+01  0.35840143921E+02  0.11685831106E+02  0.37761849898E+02  0.00000000000E+00 0. -1.
         21    1    1    2  504  501 -0.43124819699E+02 -0.22247251808E+02  0.12717174456E+03  0.13611518248E+03  0.00000000000E+00 0. -1.
         21    1    1    2  505  503 -0.54222977938E+02  0.52633217072E+02  0.86457799610E+02  0.11482742699E+03  0.00000000000E+00 0. -1.
          1    1    1    2  501    0  0.99557490554E+02 -0.66226109185E+02  0.28101475005E+04  0.28126902720E+04  0.00000000000E+00 0.  1.
<scales pt_clust_3="35.41287" pt_clust_4="48.52515" pt_clust_5="35.41287" pt_clust_6="118.53532"></scales>
<clustering>
<clus scale="   35.413">  3  5 -1 -1</clus>
<clus scale="   48.525">  2  4  1 -1</clus>
<clus scale="  118.535">  1  6  2 -1</clus>
<clus scale="   48.525">  2  3  1 -1</clus>
</clustering>
</event>
<event>
 6    0  0.4017242E+002  0.9216158E+02  0.7546771E-02  0.1297700E+00
         21   -1    0    0  503  502  0.00000000000E+00  0.00000000000E+00  0.22039711007E+03  0.22039711007E+03  0.00000000000E+00 0.  1.
          1   -1    0    0  504    0 -0.00000000000E+00 -0.00000000000E+00 -0.16215495117E+03  0.16215495117E+03  0.00000000000E+00 0. -1.
         21    1    1    2  503  505  0.55247677603E+02 -0.66517574534E+02  0.80633564771E+02  0.11823140602E+03  0.00000000000E+00 0.  1.
         21    1    1    2  504  502 -0.75707593704E+02  0.66419619877E+02  0.71521591557E+02  0.12352547797E+03  0.00000000000E+00 0. -1.
         21    1    1    2  505  501  0.21981215735E+02 -0.37569452838E+02 -0.44993430049E+01  0.43759361504E+02  0.00000000000E+00 0.  1.
          1    1    1    2  501    0 -0.15212996334E+01  0.37667407495E+02 -0.89413654422E+02  0.97035815744E+02  0.00000000000E+00 0. -1.
<scales pt_clust_3="14000.00000" pt_clust_4="92.16158" pt_clust_5="32.47484" pt_clust_6="37.69812"></scales>
<clustering>
<clus scale="   37.698">  2  6  1 -1</clus>
<clus scale="   32.475">  2  5  1 -1</clus>
<clus scale="   92.162">  2  4  1 -1</clus>
<clus scale="   92.162">  1  3  2 -1</clus>
</clustering>
</event>
<event>
 6    0  0.4017242E+002  0.2152132E+03  0.7546771E-02  0.1137503E+00
         21   -1    0    0  503  502  0.00000000000E+00  0.00000000000E+00  0.26915026500E+03  0.26915026500E+03  0.00000000000E+00 0. -1.
         -2   -1    0    0    0  501 -0.00000000000E+00 -0.00000000000E+00 -0.42020792498E+03  0.42020792498E+03  0.00000000000E+00 0. -1.
         21    1    1    2  503  501  0.34204094179E+02 -0.60604121326E+02  0.14930449980E+03  0.16472587302E+03  0.00000000000E+00 0. -1.
         21    1    1    2  504  505 -0.16566429556E+03  0.96774258859E+02 -0.12815547716E+03  0.23072438607E+03  0.00000000000E+00 0. -1.
         21    1    1    2  505  502 -0.50300832423E+02 -0.11595515187E+02 -0.19278509854E+02  0.55102546739E+02  0.00000000000E+00 0.  1.
         -2    1    1    2    0  504  0.18176103381E+03 -0.24574622346E+02 -0.15292817277E+03  0.23880538416E+03  0.00000000000E+00 0. -1.
<scales pt_clust_3="69.59008" pt_clust_4="40.39188" pt_clust_5="40.39188" pt_clust_6="200.63109"></scales>
<clustering>
<clus scale="   40.392">  4  5 -1 -1</clus>
<clus scale="   69.590">  1  3  2 -1</clus>
<clus scale="  200.631">  2  6  1 -1</clus>
<clus scale="   69.590">  1  3  2 -1</clus>
</clustering>
</event>
<event>
 6    0  0.4017242E+002  0.1001945E+03  0.7546771E-02  0.1279888E+00
         21   -1    0    0  505  502  0.00000000000E+00  0.00000000000E+00  0.90558841719E+03  0.90558841719E+03  0.00000000000E+00 0.  1.
         -3   -1    0    0    0  501 -0.00000000000E+00 -0.00000000000E+00 -0.26514788189E+03  0.26514788189E+03  0.00000000000E+00 0.  1.
         21    1    1    2  503  502 -0.63374877031E+01  0.32871147225E+02  0.34834815969E+02  0.48312943130E+02  0.00000000000E+00 0.  1.
         21    1    1    2  504  503  0.96875007832E+02  0.46042959782E+02  0.29940162465E+03  0.31803467442E+03  0.00000000000E+00 0.  1.
         21    1    1    2  505  501  0.97042375730E+01 -0.84050618242E+02  0.54176631497E+03  0.54833330985E+03  0.00000000000E+00 0.  1.
         -3    1    1    2    0  504 -0.10024175770E+03  0.51365112360E+01 -0.23556222029E+03  0.25605537168E+03  0.00000000000E+00 0.  1.
<scales pt_clust_3="33.47650" pt_clust_4="100.19449" pt_clust_5="63.57101" pt_clust_6="14000.00000"></scales>
<clustering>
<clus scale="   33.477">  1  3  2 -1</clus>
<clus scale="   63.571">  1  5  2 -1</clus>
<clus scale="  100.194">  1  4  2 -1</clus>
<clus scale="   33.477">  1  3  2 -1</clus>
</clustering>
</event>
<event>
 6    0  0.4017242E+002  0.1656001E+03  0.7546771E-02  0.1182515E+00
          2   -1    0    0  502    0 -0.00000000000E+00  0.00000000000E+00  0.13117082361E+04  0.13117082361E+04  0.00000000000E+00 0.  1.
         21   -1    0    0  503  502  0.00000000000E+00 -0.00000000000E+00 -0.56171356059E+03  0.56171356059E+03  0.00000000000E+00 0.  1.
         21    1    1    2  503  504 -0.69627754282E+02  0.13266577002E+02 -0.42809394496E+03  0.43392217268E+03  0.00000000000E+00 0.  1.
         21    1    1    2  504  505  0.13473732003E+03  0.60443784872E+02 -0.21858541712E+02  0.14928292731E+03  0.00000000000E+00 0.  1.
         21    1    1    2  505  501  0.74167453833E+02 -0.50850084750E+01 -0.57497183217E+01  0.74563582130E+02  0.00000000000E+00 0.  1.
          2    1    1    2  501    0 -0.13927701958E+03 -0.68625353400E+02  0.12056968805E+04  0.12156531145E+04  0.00000000000E+00 0.  1.
<scales pt_clust_3="70.88037" pt_clust_4="36.45052" pt_clust_5="36.45052" pt_clust_6="157.42985"></scales>
<clustering>
<clus scale="   36.451">  4  5 -1 -1</clus>
<clus scale="   70.880">  2  3  1 -1</clus>
<clus scale="  157.430">  1  6  2 -1</clus>
<clus scale="   70.880">  2  3  1 -1</clus>
</clustering>
</event>
<event>
 6    0  0.4017242E+002  0.1162843E+03  0.7546771E-02  0.1249356E+00
         21   -1    0    0  504  502  0.00000000000E+00  0.00000000000E+00  0.68969777907E+03  0.68969777907E+03  0.00000000000E+00 0.  1.
          2   -1    0    0  503    0 -0.00000000000E+00 -0.00000000000E+00 -0.29253410412E+03  0.29253410412E+03  0.00000000000E+00 0.  1.
         21    1    1    2  503  502  0.21247893189E+02 -0.10692562336E+03  0.38059073410E+03  0.39589628538E+03  0.00000000000E+00 0.  1.
         21    1    1    2  504  505 -0.88553426192E+02  0.13144886193E+03  0.14709200761E+03  0.21623267861E+03  0.00000000000E+00 0.  1.
         21    1    1    2  505  501  0.62104034576E+02  0.63860438965E+02  0.93549591199E+02  0.12917659536E+03  0.00000000000E+00 0.  1.
          2    1    1    2  501    0  0.52014984268E+01 -0.88383677541E+02 -0.22406865796E+03  0.24092632385E+03  0.00000000000E+00 0.  1.
<scales pt_clust_3="116.28432" pt_clust_4="14000.00000" pt_clust_5="73.94228" pt_clust_6="88.53660"></scales>
<clustering>
<clus scale="   88.537">  2  6  1 -1</clus>
<clus scale="   73.942">  2  5  1 -1</clus>
<clus scale="  116.284">  1  3  2 -1</clus>
<clus scale="  116.284">  1  3  2 -1</clus>
</clustering>
</event>
<event>
 6    0  0.4017242E+002  0.9634104E+02  0.7546771E-02  0.1288184E+00
         21   -1    0    0  503  502  0.00000000000E+00  0.00000000000E+00  0.57278507038E+02  0.57278507038E+02  0.00000000000E+00 0.  1.
          1   -1    0    0  505    0 -0.00000000000E+00 -0.00000000000E+00 -0.16679688452E+04  0.16679688452E+04  0.00000000000E+00 0. -1.
         21    1    1    2  503  504 -0.32644053818E+02 -0.65703612323E+01 -0.83403368149E+02  0.89804931462E+02  0.00000000000E+00 0. -1.
         21    1    1    2  504  501 -0.82574410867E+02 -0.31445918961E+01 -0.54898838338E+01  0.82816427191E+02  0.00000000000E+00 0.  1.
         21    1    1    2  505  502  0.38304725694E+02  0.70063029895E+02 -0.10233805182E+03  0.12980430277E+03  0.00000000000E+00 0.  1.
          1    1    1    2  501    0  0.76913738991E+02 -0.60348076766E+02 -0.14194590344E+04  0.14228216908E+04  0.00000000000E+00 0. -1.
<scales pt_clust_3="33.29871" pt_clust_4="96.34104" pt_clust_5="74.69061" pt_clust_6="14000.00000"></scales>
<clustering>
<clus scale="   33.299">  1  3  2 -1</clus>
<clus scale="   74.691">  1  5  2 -1</clus>
<clus scale="   96.341">  1  4  2 -1</clus>
<clus scale="   33.299">  1  3  2 -1</clus>
</clustering>
</event>
<event>
 6    0  0.4017242E+002  0.1262037E+03  0.7546771E-02  0.1233200E+00
          1   -1    0    0  504    0 -0.00000000000E+00  0.00000000000E+00  0.91198462306E+03  0.91198462306E+03  0.00000000000E+00 0.  1.
         21   -1    0    0  505  502  0.00000000000E+00 -0.00000000000E+00 -0.18299958873E+03  0.18299958873E+03  0.00000000000E+00 0.  1.
         21    1    1    2  503  501  0.50323384896E+01 -0.40725152484E+02 -0.10822448293E+02  0.42438047347E+02  0.00000000000E+00 0.  1.
         21    1    1    2  504  502  0.26101576977E+02  0.26017748389E+02 -0.16087898404E+02  0.40212386487E+02  0.00000000000E+00 0. -1.
         21    1    1    2  505  503 -0.35856385193E+02 -0.10049593038E+03 -0.10147275556E+03  0.14724752121E+03  0.00000000000E+00 0.  1.
          1    1    1    2  501    0  0.47224697264E+01  0.11520333448E+03  0.85736813658E+03  0.86508625674E+03  0.00000000000E+00 0.  1.
<scales pt_clust_3="30.86351" pt_clust_4="36.85398" pt_clust_5="30.86351" pt_clust_6="115.97626"></scales>
<clustering>
<clus scale="   30.864">  3  5 -1 -1</clus>
<clus scale="   36.854">  2  4  1 -1</clus>
<clus scale="  115.976">  1  6  2 -1</clus>
<clus scale="   36.854">  2  3  1 -1</clus>
</clustering>
</event>
<event>
 6    0  0.4017242E+002  0.1062665E+03  0.7546771E-02  0.1267644E+00
          2   -1    0    0  505    0 -0.00000000000E+00  0.00000000000E+00  0.48346856357E+03  0.48346856357E+03  0.00000000000E+00 0. -1.
         21   -1    0    0  503  502  0.00000000000E+00 -0.00000000000E+00 -0.14462847679E+03  0.14462847679E+03  0.00000000000E+00 0. -1.
         21    1    1    2  503  504  0.17484177993E+02  0.37551712486E+02  0.65354498142E+00  0.41427704640E+02  0.00000000000E+00 0. -1.
         21    1    1    2  504  501  0.87852503137E+02 -0.10080968952E+03 -0.38132356782E+02  0.13904938850E+03  0.00000000000E+00 0. -1.
         21    1    1    2  505  502 -0.92543604830E+02  0.74103411115E+01  0.31446846023E+02  0.98021100153E+02  0.00000000000E+00 0.  1.
          2    1    1    2  501    0 -0.12793076299E+02  0.55847635922E+02  0.34487205256E+03  0.34959884707E+03  0.00000000000E+00 0. -1.
<scales pt_clust_3="41.42255" pt_clust_4="106.26654" pt_clust_5="14000.00000" pt_clust_6="57.91822"></scales>
<clustering>
<clus scale="   41.423">  2  3  1 -1</clus>
<clus scale="   57.918">  1  6  2 -1</clus>
<clus scale="  106.267">  2  4  1 -1</clus>
<clus scale="   41.423">  2  3  1 -1</clus>
</clustering>
</event>
<event>
 6    0  0.4017242E+002  0.8412868E+02  0.7546771E-02  0.1317727E+00
         21   -1    0    0  505  502  0.00000000000E+00  0.00000000000E+00  0.23002584711E+03  0.23002584711E+03  0.00000000000E+00 0. -1.
          2   -1    0    0  504    0 -0.00000000000E+00 -0.00000000000E+00 -0.19027591938E+04  0.19027591938E+04  0.00000000000E+00 0.  1.
         21    1    1    2  503  502 -0.23506499964E+02 -0.32034692193E+02  0.13691336134E+03  0.14256242688E+03  0.00000000000E+00 0. -1.
         21    1    1    2  504  503 -0.11305351499E+03 -0.12839284375E+02 -0.25703854674E+03  0.28109564028E+03  0.00000000000E+00 0.  1.
         21    1    1    2  505  501  0.96825277031E+02  0.54551001218E+02  0.38408579646E+02  0.11758471413E+03  0.00000000000E+00 0.  1.
          2    1    1    2  501    0  0.39734737920E+02 -0.96770246504E+01 -0.15910167410E+04  0.15915422596E+04  0.00000000000E+00 0.  1.
<scales pt_clust_3="39.73383" pt_clust_4="84.12868" pt_clust_5="14000.00000" pt_clust_6="40.85187"></scales>
<clustering>
<clus scale="   39.734">  1  3  2 -1</clus>
<clus scale="   40.852">  2  6  1 -1</clus>
<clus scale="   84.129">  2  4  1 -1</clus>
<clus scale="   39.734">  1  3  2 -1</clus>
</clustering>
</event>
<event>
 6    0  0.4017242E+002  0.1448997E+03  0.7546771E-02  0.1206884E+00
         21   -1    0    0  504  502  0.00000000000E+00  0.00000000000E+00  0.21757600498E+04  0.21757600498E+04  0.00000000000E+00 0.  1.
         -2   -1    0    0    0  501 -0.00000000000E+00 -0.00000000000E+00 -0.86605465278E+02  0.86605465278E+02  0.00000000000E+00 0.  1.
         21    1    1    2  503  501  0.18730964197E+02 -0.54845669362E+02  0.21434504920E+03  0.22204210543E+03  0.00000000000E+00 0. -1.
         21    1    1    2  504  503 -0.46371202109E+02 -0.15987420211E+02  0.30991521436E+03  0.31377272999E+03  0.00000000000E+00 0.  1.
         21    1    1    2  505  502 -0.98946178009E+02  0.14042253643E+03  0.15725402646E+04  0.15818949772E+04  0.00000000000E+00 0.  1.
         -2    1    1    2    0  505  0.12658641592E+03 -0.69589446857E+02 -0.76459436761E+01  0.14465570250E+03  0.00000000000E+00 0.  1.
<scales pt_clust_3="58.25633" pt_clust_4="49.04983" pt_clust_5="144.89965" pt_clust_6="14000.00000"></scales>
<clustering>
<clus scale="   49.050">  1  4  2 -1</clus>
<clus scale="   58.256">  1  3  2 -1</clus>
<clus scale="  144.900">  1  5  2 -1</clus>
<clus scale="   49.050">  1  3  2 -1</clus>
</clustering>
</event>
<event>
 6    0  0.4017242E+002  0.2234610E+03  0.7546771E-02  0.1131329E+00
          2   -1    0    0  505    0 -0.00000000000E+00  0.00000000000E+00  0.12667293697E+04  0.12667293697E+04  0.00000000000E+00 0. -1.
         21   -1    0    0  504  502  0.00000000000E+00 -0.00000000000E+00 -0.31315214711E+03  0.31315214711E+03  0.00000000000E+00 0. -1.
         21    1    1    2  503  501 -0.70487687896E+02 -0.33606613402E+02 -0.44409145432E+02  0.89833684146E+02  0.00000000000E+00 0. -1.
         21    1    1    2  504  503 -0.46681365194E+02 -0.11937416839E+03 -0.51383294837E+02  0.13809266788E+03  0.00000000000E+00 0. -1.
         21    1    1    2  505  502  0.87724722993E+02  0.22543544646E+03 -0.52317686516E+02  0.24749526837E+03  0.00000000000E+00 0. -1.
          2    1    1    2  501    0  0.29444330098E+02 -0.72454664669E+02  0.11016873494E+04  0.11044598965E+04  0.00000000000E+00 0. -1.
<scales pt_clust_3="58.63097" pt_clust_4="58.63097" pt_clust_5="210.45738" pt_clust_6="78.20900"></scales>
<clustering>
<clus scale="   58.631">  3  4 -1 -1</clus>
<clus scale="   78.209">  1  6  2 -1</clus>
<clus scale="  210.457">  1  5  2 -1</clus>
<clus scale="  223.461">  2  3  1 -1</clus>
</clustering>
</event>
<event>
 6    0  0.4017242E+002  0.1257869E+03  0.7546771E-02  0.1233845E+00
         21   -1    0    0  504  502  0.00000000000E+00  0.00000000000E+00  0.42316268966E+03  0.42316268966E+03  0.00000000000E+00 0. -1.
          2   -1    0    0  505    0 -0.00000000000E+00 -0.00000000000E+00 -0.68740529493E+03  0.68740529493E+03  0.00000000000E+00 0. -1.
         21    1    1    2  503  502 -0.46232034698E+02 -0.33015046027E+02  0.26835717783E+02  0.62829531634E+02  0.00000000000E+00 0.  1.
         21    1    1    2  504  501  0.86474350987E+02 -0.10830471433E+02 -0.36046286079E+02  0.94310377108E+02  0.00000000000E+00 0.  1.
         21    1    1    2  505  503 -0.99197299740E+02  0.68030733565E+02  0.33707930810E+03  0.35789767383E+03  0.00000000000E+00 0. -1.
          2    1    1    2  501    0  0.58954983450E+02 -0.24185216105E+02 -0.59211134508E+03  0.59553040202E+03  0.00000000000E+00 0. -1.
<scales pt_clust_3="56.81016" pt_clust_4="14000.00000" pt_clust_5="125.78695" pt_clust_6="63.58667"></scales>
<clustering>
<clus scale="   56.810">  1  3  2 -1</clus>
<clus scale="   63.587">  2  6  1 -1</clus>
<clus scale="  125.787">  1  5  2 -1</clus>
<clus scale="   56.810">  1  3  2 -1</clus>
</clustering>
</event>
<event>
 6    0  0.4017242E+002  0.8141412E+02  0.7546771E-02  0.1325086E+00
         21   -1    0    0  501  502  0.00000000000E+00  0.00000000000E+00  0.74879346023E+03  0.74879346023E+03  0.00000000000E+00 0.  1.
          2   -1    0    0  503    0 -0.00000000000E+00 -0.00000000000E+00 -0.19919219802E+03  0.19919219802E+03  0.00000000000E+00 0. -1.
         21    1    1    2  503  504  0.47632575259E+01 -0.43409933677E+02  0.16808994549E+02  0.46793731010E+02  0.00000000000E+00 0.  1.
         21    1    1    2  504  505 -0.28849651030E+02 -0.51511488546E+02  0.17394026968E+03  0.18368710688E+03  0.00000000000E+00 0.  1.
         21    1    1    2  505  502 -0.51543825940E+02  0.15198760802E+02  0.51982753495E+03  0.52259777498E+03  0.00000000000E+00 0.  1.
          2    1    1    2  501    0  0.75630219444E+02  0.79722661421E+02 -0.16097553697E+03  0.19490704538E+03  0.00000000000E+00 0. -1.
<scales pt_clust_3="43.67048" pt_clust_4="81.41412" pt_clust_5="53.61214" pt_clust_6="14000.00000"></scales>
<clustering>
<clus scale="   43.670">  2  3  1 -1</clus>
<clus scale="   53.612">  1  5  2 -1</clus>
<clus scale="   81.414">  1  4  2 -1</clus>
<clus scale="   53.612">  1  3  2 -1</clus>
</clustering>
</event>
<event>
 6    0  0.4017242E+002  0.8887919E+02  0.7546771E-02  0.1305589E+00
          4   -1    0    0  503    0 -0.00000000000E+00  0.00000000000E+00  0.37740737785E+03  0.37740737785E+03  0.00000000000E+00 0. -1.
         21   -1    0    0  505  502  0.00000000000E+00 -0.00000000000E+00 -0.23405764794E+03  0.23405764794E+03  0.00000000000E+00 0. -1.
         21    1    1    2  503  504  0.92485508166E+02  0.19365936935E+02 -0.58539212245E+02  0.11115506333E+03  0.00000000000E+00 0. -1.
         21    1    1    2  504  502  0.25283504474E+02  0.34036516345E+02 -0.73597063885E+02  0.84936846279E+02  0.00000000000E+00 0. -1.
         21    1    1    2  505  501 -0.70599504210E+02 -0.61401381102E+02 -0.35987022022E+02  0.10024712140E+03  0.00000000000E+00 0. -1.
          4    1    1    2  501    0 -0.47169508430E+02  0.79989278219E+01  0.31147302806E+03  0.31512599477E+03  0.00000000000E+00 0. -1.
<scales pt_clust_3="88.87919" pt_clust_4="42.39976" pt_clust_5="14000.00000" pt_clust_6="47.61802"></scales>
<clustering>
<clus scale="   42.400">  2  4  1 -1</clus>
<clus scale="   47.618">  1  6  2 -1</clus>
<clus scale="   88.879">  1  3  2 -1</clus>
<clus scale="   42.400">  2  3  1 -1</clus>
</clustering>
</event>
<event>
 6    0  0.4017242E+002  0.2241622E+03  0.7546771E-02  0.1130817E+00
          2   -1    0    0  503    0 -0.00000000000E+00  0.00000000000E+00  0.17170611636E+04  0.17170611636E+04  0.00000000000E+00 0.  1.
         21   -1    0    0  505  502  0.00000000000E+00 -0.00000000000E+00 -0.13430956157E+03  0.13430956157E+03  0.00000000000E+00 0.  1.
         21    1    1    2  503  502 -0.95509753145E+02  0.33333865766E+02  0.16513242103E+03  0.19365426932E+03  0.00000000000E+00 0.  1.
         21    1    1    2  504  501 -0.93625200278E+02  0.15891172130E+03  0.67958726909E+02  0.19656297173E+03  0.00000000000E+00 0.  1.
         21    1    1    2  505  504  0.24943276294E+02 -0.29944595019E+02 -0.37992234555E+02  0.54426608286E+02  0.00000000000E+00 0.  1.
          2    1    1    2  501    0  0.16419167713E+03 -0.16230099205E+03  0.13876526887E+04  0.14067268759E+04  0.00000000000E+00 0.  1.
<scales pt_clust_3="95.80524" pt_clust_4="224.16216" pt_clust_5="38.97237" pt_clust_6="14000.00000"></scales>
<clustering>
<clus scale="   38.972">  2  5  1 -1</clus>
<clus scale="   95.805">  2  3  1 -1</clus>
<clus scale="  224.162">  2  4  1 -1</clus>
<clus scale="   38.972">  2  3  1 -1</clus>
</clustering>
</event>
<event>
 6    0  0.4017242E+002  0.5979449E+02  0.7546771E-02  0.1398696E+00
          2   -1    0    0  504    0 -0.00000000000E+00  0.00000000000E+00  0.32694918181E+04  0.32694918181E+04  0.00000000000E+00 0. -1.
         21   -1    0    0  505  502  0.00000000000E+00 -0.00000000000E+00 -0.26737040301E+03  0.26737040301E+03  0.00000000000E+00 0.  1.
         21    1    1    2  503  501  0.77954626290E+02  0.49355855570E+02  0.67648833593E+03  0.68275134046E+03  0.00000000000E+00 0. -1.
         21    1    1    2  504  502 -0.52992878012E+02 -0.85132098132E+01 -0.24560029817E+03  0.25139655193E+03  0.00000000000E+00 0.  1.
         21    1    1    2  505  503  0.32317015652E+02 -0.51161253465E+02  0.44019427975E+02  0.74830297313E+02  0.00000000000E+00 0. -1.
          2    1    1    2  501    0 -0.57278763930E+02  0.10318607708E+02  0.25272139494E+04  0.25278840314E+04  0.00000000000E+00 0. -1.
<scales pt_clust_3="59.79449" pt_clust_4="53.67234" pt_clust_5="14000.00000" pt_clust_6="59.10072"></scales>
<clustering>
<clus scale="   53.672">  2  4  1 -1</clus>
<clus scale="   59.101">  1  6  2 -1</clus>
<clus scale="   59.794">  1  3  2 -1</clus>
<clus scale="   53.672">  2  3  1 -1</clus>
</clustering>
</event>
<event>
 6    0  0.4017242E+002  0.9322669E+02  0.7546771E-02  0.1295221E+00
         21   -1    0    0  504  502  0.00000000000E+00  0.00000000000E+00  0.10799717990E+03  0.10799717990E+03  0.00000000000E+00 0.  1.
          2   -1    0    0  505    0 -0.00000000000E+00 -0.00000000000E+00 -0.21066943375E+04  0.21066943375E+04  0.00000000000E+00 0.  1.
         21    1    1    2  503  502 -0.29999661183E+02 -0.20472882505E+02  0.87701416690E+02  0.94924480924E+02  0.00000000000E+00 0.  1.
         21    1    1    2  504  501  0.50228682302E+02 -0.98436326128E+01 -0.73249528353E+02  0.89360567549E+02  0.00000000000E+00 0.  1.
         21    1    1    2  505  503 -0.30582440193E+02 -0.66470505747E+02 -0.17497849666E+03  0.18966045469E+03  0.00000000000E+00 0. -1.
          2    1    1    2  501    0  0.10353419074E+02  0.96787020865E+02 -0.18381705493E+04  0.18407460143E+04  0.00000000000E+00 0.  1.
<scales pt_clust_3="36.31967" pt_clust_4="40.82714" pt_clust_5="93.22669" pt_clust_6="14000.00000"></scales>
<clustering>
<clus scale="   36.320">  1  3  2 -1</clus>
<clus scale="   40.827">  1  4  2 -1</clus>
<clus scale="   93.227">  1  5  2 -1</clus>
<clus scale="   36.320">  1  3  2 -1</clus>
</clustering>
</event>
<event>
 6    0  0.4017242E+002  0.6988398E+02  0.7546771E-02  0.1360488E+00
          2   -1    0    0  504    0 -0.00000000000E+00  0.00000000000E+00  0.22712741231E+04  0.22712741231E+04  0.00000000000E+00 0. -1.
         21   -1    0    0  505  502  0.00000000000E+00 -0.00000000000E+00 -0.14227469903E+03  0.14227469903E+03  0.00000000000E+00 0. -1.
         21    1    1    2  503  502  0.25615102627E+02 -0.23670788067E+02 -0.97535938302E+02  0.10358426015E+03  0.00000000000E+00 0. -1.
         21    1    1    2  504  503  0.57220961028E+01  0.11472899371E+03  0.64249924444E+02  0.13161890888E+03  0.00000000000E+00 0. -1.
         21    1    1    2  505  501 -0.31755236493E+02 -0.21925164844E+02  0.42392349152E+02  0.57325554204E+02  0.00000000000E+00 0.  1.
          2    1    1    2  501    0  0.41803776345E+00 -0.69133040804E+02  0.21198930887E+04  0.21210200989E+04  0.00000000000E+00 0. -1.
<scales pt_clust_3="34.87750" pt_clust_4="14000.00000" pt_clust_5="37.71843" pt_clust_6="69.88398"></scales>
<clustering>
<clus scale="   34.877">  2  3  1 -1</clus>
<clus scale="   37.718">  2  5  1 -1</clus>
<clus scale="   69.884">  1  6  2 -1</clus>
<clus scale="   34.877">  2  3  1 -1</clus>
</clustering>
</event>
<event>
 6    0  0.4017242E+002  0.1198681E+03  0.7546771E-02  0.1243315E+00
         21   -1    0    0  505  502  0.00000000000E+00  0.00000000000E+00  0.14134432387E+04  0.14134432387E+04  0.00000000000E+00 0.  1.
          4   -1    0    0  504    0 -0.00000000000E+00 -0.00000000000E+00 -0.35345941595E+02  0.35345941595E+02  0.00000000000E+00 0. -1.
         21    1    1    2  503  502 -0.13052228232E+02  0.72860059505E+02  0.24650909271E+03  0.25738236483E+03  0.00000000000E+00 0.  1.
         21    1    1    2  504  503 -0.52564309093E+02  0.48490859571E+02  0.27975779278E+03  0.28875386175E+03  0.00000000000E+00 0.  1.
         21    1    1    2  505  501  0.21041286049E+02 -0.27032181282E+02  0.76815866921E+03  0.76892211285E+03  0.00000000000E+00 0.  1.
          4    1    1    2  501    0  0.44575251277E+02 -0.94318737794E+02  0.83671742407E+02  0.13373084088E+03  0.00000000000E+00 0. -1.
<scales pt_clust_3="45.43762" pt_clust_4="45.43762" pt_clust_5="34.25601" pt_clust_6="109.96365"></scales>
<clustering>
<clus scale="   34.256">  1  5  2 -1</clus>
<clus scale="   45.438">  3  4 -1 -1</clus>
<clus scale="  109.964">  2  6  1 -1</clus>
<clus scale="   34.256">  1  3  2 -1</clus>
</clustering>
</event>
<event>
 6    0  0.4017242E+002  0.1329387E+03  0.7546771E-02  0.1223159E+00
          2   -1    0    0  503    0 -0.00000000000E+00  0.00000000000E+00  0.24300914543E+04  0.24300914543E+04  0.00000000000E+00 0. -1.
         21   -1    0    0  504  502  0.00000000000E+00 -0.00000000000E+00 -0.22561398180E+02  0.22561398180E+02  0.00000000000E+00 0. -1.
         21    1    1    2  503  502 -0.13107688838E+03  0.20563418262E+02  0.40544080245E+03  0.42659846358E+03  0.00000000000E+00 0. -1.
         21    1    1    2  504  505  0.22313120989E+02 -0.36473765312E+02  0.55659303742E+02  0.70186672648E+02  0.00000000000E+00 0. -1.
         21    1    1    2  505  501 -0.20902677820E+02  0.45828800811E+02  0.31311149989E+03  0.31713721366E+03  0.00000000000E+00 0.  1.
          2    1    1    2  501    0  0.12966644521E+03 -0.29918453761E+02  0.16333184500E+04  0.16387305026E+04  0.00000000000E+00 0. -1.
<scales pt_clust_3="132.93870" pt_clust_4="42.75758" pt_clust_5="44.79100" pt_clust_6="14000.00000"></scales>
<clustering>
<clus scale="   42.758">  2  4  1 -1</clus>
<clus scale="   44.791">  2  5  1 -1</clus>
<clus scale="  132.939">  2  3  1 -1</clus>
<clus scale="   42.758">  2  3  1 -1</clus>
</clustering>
</event>
<event>
 6    0  0.4017242E+002  0.2657661E+03  0.7546771E-02  0.1103728E+00
          2   -1    0    0  503    0 -0.00000000000E+00  0.00000000000E+00  0.19989318677E+03  0.19989318677E+03  0.00000000000E+00 0. -1.
         21   -1    0    0  504  502  0.00000000000E+00 -0.00000000000E+00 -0.75631065156E+03  0.75631065156E+03  0.00000000000E+00 0. -1.
         21    1    1    2  503  502 -0.35674840138E+02  0.21913172459E+02 -0.29356825339E+02  0.51134181719E+02  0.00000000000E+00 0.  1.
         21    1    1    2  504  505 -0.55951324649E+02 -0.19610732858E+03 -0.43595468261E+03  0.48129525277E+03  0.00000000000E+00 0. -1.
         21    1    1    2  505  501  0.35194922827E+02 -0.52969515088E+02 -0.16620287343E+03  0.17795462134E+03  0.00000000000E+00 0. -1.
          2    1    1    2  501    0  0.56431241961E+02  0.22716367121E+03  0.75096916582E+02  0.24581978250E+03  0.00000000000E+00 0. -1.
<scales pt_clust_3="41.86743" pt_clust_4="54.22710" pt_clust_5="54.22710" pt_clust_6="247.15391"></scales>
<clustering>
<clus scale="   41.867">  1  3  2 -1</clus>
<clus scale="   54.227">  4  5 -1 -1</clus>
<clus scale="  247.154">  1  6  2 -1</clus>
<clus scale="  265.766">  2  3  1 -1</clus>
</clustering>
</event>
<event>
 6    0  0.4017242E+002  0.8368741E+02  0.7546771E-02  0.1318901E+00
         21   -1    0    0  505  502  0.00000000000E+00  0.00000000000E+00  0.11010850976E+03  0.11010850976E+03  0.00000000000E+00 0. -1.
          1   -1    0    0  503    0 -0.00000000000E+00 -0.00000000000E+00 -0.59653865924E+03  0.59653865924E+03  0.00000000000E+00 0. -1.
         21    1    1    2  503  504 -0.18169538412E+02  0.57976218176E+02 -0.11451807362E+03  0.12963704404E+03  0.00000000000E+00 0. -1.
         21    1    1    2  504  502  0.90457391659E+02  0.75848418447E+02 -0.69314313657E+02  0.13689410639E+03  0.00000000000E+00 0. -1.
         21    1    1    2  505  501 -0.46696701336E+02 -0.29694227373E+02  0.48143765835E+02  0.73349514270E+02  0.00000000000E+00 0. -1.
          1    1    1    2  501    0 -0.25591151911E+02 -0.10413040925E+03 -0.35074152803E+03  0.36676650429E+03  0.00000000000E+00 0. -1.
<scales pt_clust_3="59.12507" pt_clust_4="14000.00000" pt_clust_5="55.33831" pt_clust_6="83.68741"></scales>
<clustering>
<clus scale="   55.338">  1  5  2 -1</clus>
<clus scale="   59.125">  2  3  1 -1</clus>
<clus scale="   83.687">  2  6  1 -1</clus>
<clus scale="   55.338">  1  3  2 -1</clus>
</clustering>
</event>
<event>
 6    0  0.4017242E+002  0.9061575E+02  0.7546771E-02  0.1301367E+00
          1   -1    0    0  503    0 -0.00000000000E+00  0.00000000000E+00  0.11616760046E+04  0.11616760046E+04  0.00000000000E+00 0.  1.
         21   -1    0    0  505  502  0.00000000000E+00 -0.00000000000E+00 -0.35884392549E+03  0.35884392549E+03  0.00000000000E+00 0. -1.
         21    1    1    2  503  504  0.68384537668E+02  0.34934371531E+02 -0.72135153627E+02  0.10535813065E+03  0.00000000000E+00 0. -1.
         21    1    1    2  504  502  0.29711291177E+02 -0.66043593377E+01 -0.18600740391E+03  0.18848112026E+03  0.00000000000E+00 0. -1.
         21    1    1    2  505  501 -0.82656456494E+02 -0.65101698820E+02 -0.48946375766E+02  0.11604339141E+03  0.00000000000E+00 0. -1.
          1    1    1    2  501    0 -0.15439372351E+02  0.36771686627E+02  0.11099210124E+04  0.11106372878E+04  0.00000000000E+00 0.  1.
<scales pt_clust_3="90.61575" pt_clust_4="30.43646" pt_clust_5="14000.00000" pt_clust_6="39.84478"></scales>
<clustering>
<clus scale="   30.436">  2  4  1 -1</clus>
<clus scale="   39.845">  1  6  2 -1</clus>
<clus scale="   90.616">  2  3  1 -1</clus>
<clus scale="   30.436">  2  3  1 -1</clus>
</clustering>
</event>
<event>
 6    0  0.4017242E+002  0.2455353E+03  0.7546771E-02  0.1116159E+00
         21   -1    0    0  501  502  0.00000000000E+00  0.00000000000E+00  0.98119380934E+02  0.98119380934E+02  0.00000000000E+00 0. -1.
          2   -1    0    0  504    0 -0.00000000000E+00 -0.00000000000E+00 -0.10885449166E+04  0.10885449166E+04  0.00000000000E+00 0. -1.
         21    1    1    2  503  505  0.49283605350E+01 -0.58737120477E+02 -0.28407356908E+02  0.65431765878E+02  0.00000000000E+00 0. -1.
         21    1    1    2  504  503  0.63008492270E+02 -0.87804391124E+02 -0.59852034394E+02  0.12353925376E+03  0.00000000000E+00 0. -1.
         21    1    1    2  505  502 -0.21620359596E+02 -0.70332336337E+02 -0.52494943317E+01  0.73767436410E+02  0.00000000000E+00 0. -1.
          2    1    1    2  501    0 -0.46316493209E+02  0.21687384794E+03 -0.89691665008E+03  0.92392584154E+03  0.00000000000E+00 0. -1.
<scales pt_clust_3="31.59691" pt_clust_4="60.98517" pt_clust_5="60.98517" pt_clust_6="221.76448"></scales>
<clustering>
<clus scale="   31.597">  3  4 -1 -1</clus>
<clus scale="   60.985">  3  5 -1 -1</clus>
<clus scale="  221.764">  2  6  1 -1</clus>
<clus scale="  245.535">  1  3  2 -1</clus>
</clustering>
</event>
<event>
 6    0  0.4017242E+002  0.7490453E+02  0.7546771E-02  0.1344167E+00
          2   -1    0    0  505    0 -0.00000000000E+00  0.00000000000E+00  0.92849181587E+03  0.92849181587E+03  0.00000000000E+00 0.  1.
         21   -1    0    0  503  502  0.00000000000E+00 -0.00000000000E+00 -0.26760120598E+02  0.26760120598E+02  0.00000000000E+00 0. -1.
         21    1    1    2  503  501  0.16993845093E+02  0.46446259411E+02  0.98053710015E+02  0.10982065303E+03  0.00000000000E+00 0.  1.
         21    1    1    2  504  502  0.24300218630E+02 -0.58030760516E+02  0.13166462570E+03  0.14592341639E+03  0.00000000000E+00 0. -1.
         21    1    1    2  505  504 -0.43529076502E+02 -0.64863858395E+02  0.12661513807E+03  0.14877329671E+03  0.00000000000E+00 0. -1.
          2    1    1    2  501    0  0.22350127782E+01  0.76448359500E+02  0.54539822150E+03  0.55073457034E+03  0.00000000000E+00 0.  1.
<scales pt_clust_3="49.45751" pt_clust_4="51.81197" pt_clust_5="14000.00000" pt_clust_6="74.90453"></scales>
<clustering>
<clus scale="   49.458">  2  3  1 -1</clus>
<clus scale="   51.812">  2  4  1 -1</clus>
<clus scale="   74.905">  1  6  2 -1</clus>
<clus scale="   49.458">  2  3  1 -1</clus>
</clustering>
</event>
<event>
 6    0  0.4017242E+002  0.1366511E+03  0.7546771E-02  0.1217908E+00
          2   -1    0    0  504    0 -0.00000000000E+00  0.00000000000E+00  0.23389272413E+04  0.23389272413E+04  0.00000000000E+00 0.  1.
         21   -1    0    0  505  502  0.00000000000E+00 -0.00000000000E+00 -0.49392224391E+02  0.49392224391E+02  0.00000000000E+00 0. -1.
         21    1    1    2  503  501 -0.41633596339E+02  0.29405826360E+02  0.61715806494E+03  0.61925934477E+03  0.00000000000E+00 0. -1.
         21    1    1    2  504  502  0.15378622949E+03 -0.81337982333E+01  0.90133145916E+02  0.17843863664E+03  0.00000000000E+00 0. -1.
         21    1    1    2  505  503 -0.77775249997E+02 -0.33636464836E+02  0.45729965739E+03  0.46508426971E+03  0.00000000000E+00 0. -1.
          2    1    1    2  501    0 -0.34377383154E+02  0.12364436709E+02  0.11249441487E+04  0.11255372146E+04  0.00000000000E+00 0.  1.
<scales pt_clust_3="69.08546" pt_clust_4="136.65108" pt_clust_5="14000.00000" pt_clust_6="36.53332"></scales>
<clustering>
<clus scale="   36.533">  1  6  2 -1</clus>
<clus scale="   69.085">  1  3  2 -1</clus>
<clus scale="  136.651">  2  4  1 -1</clus>
<clus scale="  136.651">  2  3  1 -1</clus>
</clustering>
</event>
<event>
 6    0  0.4017242E+002  0.8813857E+02  0.7546771E-02  0.1307423E+00
         21   -1    0    0  504  502  0.00000000000E+00  0.00000000000E+00  0.44182016062E+02  0.44182016062E+02  0.00000000000E+00 0.  1.
          2   -1    0    0  502    0 -0.00000000000E+00 -0.00000000000E+00 -0.39069626555E+04  0.39069626555E+04  0.00000000000E+00 0. -1.
         21    1    1    2  503  505 -0.47644716566E+01  0.77301090307E+02 -0.20166600119E+03  0.21602623634E+03  0.00000000000E+00 0.  1.
         21    1    1    2  504  503  0.45705250893E+02  0.28607665848E+02  0.14978327413E+02  0.55961761915E+02  0.00000000000E+00 0.  1.
         21    1    1    2  505  501 -0.60612853227E+01 -0.64940124930E+02 -0.83121875590E+03  0.83377369782E+03  0.00000000000E+00 0.  1.
          2    1    1    2  501    0 -0.34879493914E+02 -0.40968631225E+02 -0.28448742098E+04  0.28453829755E+04  0.00000000000E+00 0. -1.
<scales pt_clust_3="14000.00000" pt_clust_4="52.93090" pt_clust_5="88.13857" pt_clust_6="53.80528"></scales>
<clustering>
<clus scale="   53.805">  2  6  1 -1</clus>
<clus scale="   52.931">  1  4  2 -1</clus>
<clus scale="   88.139">  2  5  1 -1</clus>
<clus scale="   52.931">  1  3  2 -1</clus>
</clustering>
</event>
<event>
 6    0  0.4017242E+002  0.2047655E+03  0.7546771E-02  0.1145780E+00
         21   -1    0    0  503  502  0.00000000000E+00  0.00000000000E+00  0.13235768111E+03  0.13235768111E+03  0.00000000000E+00 0.  1.
          2   -1    0    0  505    0 -0.00000000000E+00 -0.00000000000E+00 -0.14544597016E+04  0.14544597016E+04  0.00000000000E+00 0.  1.
         21    1    1    2  503  501  0.18766281230E+03 -0.26833695365E+02  0.95284394132E+01  0.18981087820E+03  0.00000000000E+00 0.  1.
         21    1    1    2  504  502  0.53987914984E+01 -0.64423969806E+02 -0.29453887604E+02  0.71043130070E+02  0.00000000000E+00 0.  1.
         21    1    1    2  505  504 -0.17764615058E+03  0.47456386308E+02 -0.76518220566E+03  0.78696510169E+03  0.00000000000E+00 0.  1.
          2    1    1    2  501    0 -0.15415453215E+02  0.43801278863E+02 -0.53699436663E+03  0.53899827275E+03  0.00000000000E+00 0.  1.
<scales pt_clust_3="14000.00000" pt_clust_4="62.18934" pt_clust_5="204.76550" pt_clust_6="46.43477"></scales>
<clustering>
<clus scale="   46.435">  2  6  1 -1</clus>
<clus scale="   62.189">  1  4  2 -1</clus>
<clus scale="  204.765">  2  5  1 -1</clus>
<clus scale="   62.189">  1  3  2 -1</clus>
</clustering>
</event>
<event>
 6    0  0.4017242E+002  0.9788585E+02  0.7546771E-02  0.1284806E+00
         -3   -1    0    0    0  501 -0.00000000000E+00  0.00000000000E+00  0.42384978423E+03  0.42384978423E+03  0.00000000000E+00 0.  1.
         21   -1    0    0  505  502  0.00000000000E+00 -0.00000000000E+00 -0.38152667771E+03  0.38152667771E+03  0.00000000000E+00 0. -1.
         21    1    1    2  503  501  0.11624486076E+02  0.31981439751E+02  0.22192073096E+02  0.40625475669E+02  0.00000000000E+00 0. -1.
         21    1    1    2  504  502  0.20715775075E+02  0.42202872017E+02 -0.34040461020E+03  0.34363574376E+03  0.00000000000E+00 0. -1.
         21    1    1    2  505  503  0.33745091407E+02  0.54366559844E+02  0.17221475152E+03  0.18371819362E+03  0.00000000000E+00 0.  1.
         -3    1    1    2    0  504 -0.66085352559E+02 -0.12855087161E+03  0.18832089210E+03  0.23739704888E+03  0.00000000000E+00 0.  1.
<scales pt_clust_3="34.02853" pt_clust_4="47.15231" pt_clust_5="97.88585" pt_clust_6="14000.00000"></scales>
<clustering>
<clus scale="   34.029">  1  3  2 -1</clus>
<clus scale="   47.152">  2  4  1 -1</clus>
<clus scale="   97.886">  1  5  2 -1</clus>
<clus scale="   47.152">  2  3  1 -1</clus>
</clustering>
</event>
<event>
 6    0  0.4017242E+002  0.1273621E+03  0.7546771E-02  0.1231423E+00
          1   -1    0    0  505    0 -0.00000000000E+00  0.00000000000E+00  0.58183934548E+02  0.58183934548E+02  0.00000000000E+00 0. -1.
         21   -1    0    0  503  502  0.00000000000E+00 -0.00000000000E+00 -0.15209395540E+04  0.15209395540E+04  0.00000000000E+00 0. -1.
         21    1    1    2  503  501 -0.88155619593E+01 -0.10386333696E+03 -0.47943592247E+03  0.49063643429E+03  0.00000000000E+00 0. -1.
         21    1    1    2  504  502 -0.43816215990E+02  0.14945260643E+02 -0.44837108755E+03  0.45075476009E+03  0.00000000000E+00 0. -1.
         21    1    1    2  505  504 -0.37124711476E+02  0.87567856557E+02 -0.53952941030E+03  0.54784884620E+03  0.00000000000E+00 0. -1.
          1    1    1    2  501    0  0.89756489424E+02  0.13502197625E+01  0.45808008341E+01  0.89883447995E+02  0.00000000000E+00 0. -1.
<scales pt_clust_3="109.63443" pt_clust_4="45.22150" pt_clust_5="45.22150" pt_clust_6="89.76664"></scales>
<clustering>
<clus scale="   45.221">  4  5 -1 -1</clus>
<clus scale="   89.767">  1  6  2 -1</clus>
<clus scale="  109.634">  1  3  2 -1</clus>
<clus scale="  127.362">  2  3  1 -1</clus>
</clustering>
</event>
<event>
 6    0  0.4017242E+002  0.1112489E+03  0.7546771E-02  0.1258274E+00
          2   -1    0    0  503    0 -0.00000000000E+00  0.00000000000E+00  0.86701121240E+03  0.86701121240E+03  0.00000000000E+00 0.  1.
         21   -1    0    0  505  502  0.00000000000E+00 -0.00000000000E+00 -0.11155532436E+03  0.11155532436E+03  0.00000000000E+00 0.  1.
         21    1    1    2  503  502 -0.65602938276E+02  0.49377110971E+02  0.17531188538E+02  0.83959437647E+02  0.00000000000E+00 0.  1.
         21    1    1    2  504  501  0.25922759095E+02  0.49096922013E+02  0.36431833654E+02  0.66406141987E+02  0.00000000000E+00 0.  1.
         21    1    1    2  505  504  0.23446865836E+02  0.18793749442E+02 -0.54907455434E+02  0.62592245509E+02  0.00000000000E+00 0.  1.
          2    1    1    2  501    0  0.16233313345E+02 -0.11726778243E+03  0.75640032129E+03  0.76560871161E+03  0.00000000000E+00 0.  1.
<scales pt_clust_3="111.24889" pt_clust_4="63.43511" pt_clust_5="30.04930" pt_clust_6="14000.00000"></scales>
<clustering>
<clus scale="   30.049">  2  5  1 -1</clus>
<clus scale="   63.435">  2  4  1 -1</clus>
<clus scale="  111.249">  2  3  1 -1</clus>
<clus scale="   30.049">  2  3  1 -1</clus>
</clustering>
</event>
<event>
 6    0  0.4017242E+002  0.1290089E+03  0.7546771E-02  0.1228934E+00
          2   -1    0    0  503    0 -0.00000000000E+00  0.00000000000E+00  0.61663955613E+03  0.61663955613E+03  0.00000000000E+00 0.  1.
         21   -1    0    0  501  502  0.00000000000E+00 -0.00000000000E+00 -0.91869930555E+02  0.91869930555E+02  0.00000000000E+00 0.  1.
         21    1    1    2  503  504 -0.61749653589E+02  0.97794846178E+00  0.78728154931E+02  0.10006047412E+03  0.00000000000E+00 0.  1.
         21    1    1    2  504  505 -0.81182185555E+02  0.61915795806E+02  0.59605502703E+02  0.11822406259E+03  0.00000000000E+00 0.  1.
         21    1    1    2  505  502  0.56907841902E+02 -0.26696211575E+01 -0.27440486527E+02  0.63234560550E+02  0.00000000000E+00 0.  1.
          2    1    1    2  501    0  0.86023997241E+02 -0.60224123110E+02  0.41387645447E+03  0.42699038943E+03  0.00000000000E+00 0.  1.
<scales pt_clust_3="49.96221" pt_clust_4="49.96221" pt_clust_5="56.97043" pt_clust_6="111.87708"></scales>
<clustering>
<clus scale="   49.962">  3  4 -1 -1</clus>
<clus scale="   56.970">  2  5  1 -1</clus>
<clus scale="  111.877">  1  6  2 -1</clus>
<clus scale="   56.970">  2  3  1 -1</clus>
</clustering>
</event>
<event>
 6    0  0.4017242E+002  0.6777637E+02  0.7546771E-02  0.1367822E+00
          2   -1    0    0  504    0 -0.00000000000E+00  0.00000000000E+00  0.85249087626E+03  0.85249087626E+03  0.00000000000E+00 0.  1.
         21   -1    0    0  505  502  0.00000000000E+00 -0.00000000000E+00 -0.73524438658E+02  0.73524438658E+02  0.00000000000E+00 0.  1.
         21    1    1    2  503  502 -0.75229214985E+01  0.52347596885E+02 -0.20473314176E+02  0.56709980082E+02  0.00000000000E+00 0.  1.
         21    1    1    2  504  503 -0.54106879849E+02 -0.34688114839E+02  0.87000449678E+02  0.10816606678E+03  0.00000000000E+00 0.  1.
         21    1    1    2  505  501  0.11657945419E+03  0.16154127076E+02  0.13089263414E+03  0.17602444896E+03  0.00000000000E+00 0.  1.
          2    1    1    2  501    0 -0.54949652840E+02 -0.33813609122E+02  0.58154666797E+03  0.58511481910E+03  0.00000000000E+00 0.  1.
<scales pt_clust_3="52.88540" pt_clust_4="59.44682" pt_clust_5="14000.00000" pt_clust_6="67.77637"></scales>
<clustering>
<clus scale="   52.885">  2  3  1 -1</clus>
<clus scale="   59.447">  2  4  1 -1</clus>
<clus scale="   67.776">  1  6  2 -1</clus>
<clus scale="   52.885">  2  3  1 -1</clus>
</clustering>
</event>
<event>
 6    0  0.4017242E+002  0.1056839E+03  0.7546771E-02  0.1268778E+00
         21   -1    0    0  501  502  0.00000000000E+00  0.00000000000E+00  0.51254105613E+03  0.51254105613E+03  0.00000000000E+00 0. -1.
          1   -1    0    0  504    0 -0.00000000000E+00 -0.00000000000E+00 -0.15714217917E+03  0.15714217917E+03  0.00000000000E+00 0. -1.
         21    1    1    2  503  505 -0.12389121386E+02 -0.95154823050E+02  0.32893460219E+02  0.10143919560E+03  0.00000000000E+00 0. -1.
         21    1    1    2  504  503 -0.40135027206E+02 -0.14978707238E+02 -0.19864665289E+01  0.42885057172E+02  0.00000000000E+00 0. -1.
         21    1    1    2  505  502  0.80426258540E+02 -0.51473741598E+01  0.38420501327E+03  0.39256639024E+03  0.00000000000E+00 0. -1.
          1    1    1    2  501    0 -0.27902109948E+02  0.11528090445E+03 -0.59713130008E+02  0.13279259228E+03  0.00000000000E+00 0. -1.
<scales pt_clust_3="105.68388" pt_clust_4="42.83903" pt_clust_5="79.37929" pt_clust_6="14000.00000"></scales>
<clustering>
<clus scale="   42.839">  2  4  1 -1</clus>
<clus scale="   79.379">  1  5  2 -1</clus>
<clus scale="  105.684">  1  3  2 -1</clus>
<clus scale="   79.379">  1  3  2 -1</clus>
</clustering>
</event>
<event>
 6    0  0.4017242E+002  0.7537561E+02  0.7546771E-02  0.1342712E+00
          2   -1    0    0  504    0 -0.00000000000E+00  0.00000000000E+00  0.20589913452E+03  0.20589913452E+03  0.00000000000E+00 0. -1.
         21   -1    0    0  505  502  0.00000000000E+00 -0.00000000000E+00 -0.27317807498E+03  0.27317807498E+03  0.00000000000E+00 0. -1.
         21    1    1    2  503  502 -0.99859183377E+02  0.12858917309E+02 -0.16989591490E+03  0.19748881021E+03  0.00000000000E+00 0. -1.
         21    1    1    2  504  503  0.69008032369E+02 -0.85717956337E+02  0.31480190130E+02  0.11445819735E+03  0.00000000000E+00 0. -1.
         21    1    1    2  505  501  0.47108485723E+02  0.13996418514E+02 -0.23522018047E+02  0.54482974325E+02  0.00000000000E+00 0. -1.
          2    1    1    2  501    0 -0.16257334715E+02  0.58862620514E+02  0.94658802352E+02  0.11264722761E+03  0.00000000000E+00 0. -1.
<scales pt_clust_3="75.37561" pt_clust_4="14000.00000" pt_clust_5="49.14376" pt_clust_6="61.13205"></scales>
<clustering>
<clus scale="   49.144">  2  5  1 -1</clus>
<clus scale="   61.132">  1  6  2 -1</clus>
<clus scale="   75.376">  2  3  1 -1</clus>
<clus scale="   49.144">  2  3  1 -1</clus>
</clustering>
</event>
<event>
 6    0  0.4017242E+002  0.7670533E+02  0.7546771E-02  0.1338670E+00
          1   -1    0    0  504    0 -0.00000000000E+00  0.00000000000E+00  0.46815529667E+03  0.46815529667E+03  0.00000000000E+00 0.  1.
         21   -1    0    0  503  502  0.00000000000E+00 -0.00000000000E+00 -0.73934371721E+03  0.73934371721E+03  0.00000000000E+00 0. -1.
         21    1    1    2  503  505  0.64942643596E+02 -0.86696172202E+02  0.15662039469E+03  0.19043035805E+03  0.00000000000E+00 0.  1.
         21    1    1    2  504  502 -0.13121663245E+02  0.75328254615E+02 -0.69314714536E+03  0.69735176856E+03  0.00000000000E+00 0. -1.
         21    1    1    2  505  501 -0.60834636305E+02  0.46349984080E+02  0.30858643236E+02  0.82470781862E+02  0.00000000000E+00 0.  1.
          1    1    1    2  501    0  0.90136559536E+01 -0.34982066493E+02  0.23447968689E+03  0.23724610541E+03  0.00000000000E+00 0.  1.
<scales pt_clust_3="14000.00000" pt_clust_4="76.70533" pt_clust_5="69.77290" pt_clust_6="36.12466"></scales>
<clustering>
<clus scale="   36.125">  1  6  2 -1</clus>
<clus scale="   69.773">  1  5  2 -1</clus>
<clus scale="   76.705">  2  4  1 -1</clus>
<clus scale="   76.705">  2  3  1 -1</clus>
</clustering>
</event>
<event>
 6    0  0.4017242E+002  0.1420727E+03  0.7546771E-02  0.1210567E+00
          3   -1    0    0  503    0 -0.00000000000E+00  0.00000000000E+00  0.24993811642E+03  0.24993811642E+03  0.00000000000E+00 0. -1.
         21   -1    0    0  501  502  0.00000000000E+00 -0.00000000000E+00 -0.44996471544E+03  0.44996471544E+03  0.00000000000E+00 0. -1.
         21    1    1    2  503  505  0.35141506347E+02  0.60809146422E+02  0.10917411218E+03  0.12981396122E+03  0.00000000000E+00 0. -1.
         21    1    1    2  504  502  0.11046076506E+02  0.42682691729E+02 -0.33582705901E+03  0.33870878574E+03  0.00000000000E+00 0. -1.
         21    1    1    2  505  504  0.41039572238E+02  0.38040306948E+02  0.33075764248E+02  0.65002443206E+02  0.00000000000E+00 0. -1.
          3    1    1    2  501    0 -0.87227155092E+02 -0.14153214510E+03 -0.64494164444E+01  0.16637764169E+03  0.00000000000E+00 0. -1.
<scales pt_clust_3="41.32721" pt_clust_4="44.08886" pt_clust_5="41.32721" pt_clust_6="134.31681"></scales>
<clustering>
<clus scale="   41.327">  3  5 -1 -1</clus>
<clus scale="   44.089">  2  4  1 -1</clus>
<clus scale="  134.317">  2  6  1 -1</clus>
<clus scale="   44.089">  2  3  1 -1</clus>
</clustering>
</event>
<event>
 6    0  0.4017242E+002  0.8619859E+02  0.7546771E-02  0.1312328E+00
         21   -1    0    0  504  502  0.00000000000E+00  0.00000000000E+00  0.16520325362E+04  0.16520325362E+04  0.00000000000E+00 0.  1.
          2   -1    0    0  505    0 -0.00000000000E+00 -0.00000000000E+00 -0.52892548891E+03  0.52892548891E+03  0.00000000000E+00 0.  1.
         21    1    1    2  503  502  0.10426417257E+02  0.91188078486E+02  0.11422420653E+04  0.11459236063E+04  0.00000000000E+00 0.  1.
         21    1    1    2  504  501 -0.81204741053E+02 -0.27655110830E+02  0.31318023472E+03  0.32471660651E+03  0.00000000000E+00 0.  1.
         21    1    1    2  505  503  0.89198637324E+01 -0.68149067129E+02  0.18082263098E+03  0.19344426379E+03  0.00000000000E+00 0.  1.
          2    1    1    2  501    0  0.61858460064E+02  0.46160994730E+01 -0.51313788368E+03  0.51687354849E+03  0.00000000000E+00 0.  1.
<scales pt_clust_3="14000.00000" pt_clust_4="61.24408" pt_clust_5="86.19859" pt_clust_6="62.03046"></scales>
<clustering>
<clus scale="   62.030">  2  6  1 -1</clus>
<clus scale="   61.244">  2  4  1 -1</clus>
<clus scale="   86.199">  2  5  1 -1</clus>
<clus scale="   86.199">  1  3  2 -1</clus>
</clustering>
</event>
<event>
 6    0  0.4052116E+002  0.8767701E+02  0.7546771E-02  0.1308577E+00
         21   -1    0    0  504  502  0.00000000000E+00  0.00000000000E+00  0.16853981229E+03  0.16853981229E+03  0.00000000000E+00 0.  1.
          2   -1    0    0  505    0 -0.00000000000E+00 -0.00000000000E+00 -0.24706252104E+04  0.24706252104E+04  0.00000000000E+00 0. -1.
         21    1    1    2  503  501 -0.35733002276E+02 -0.68448023644E+02 -0.12296901498E+03  0.14520109517E+03  0.00000000000E+00 0. -1.
         21    1    1    2  504  503 -0.17559113572E+02  0.33425952967E+02 -0.26725694002E+02  0.46258831817E+02  0.00000000000E+00 0. -1.
         21    1    1    2  505  502  0.11055391845E+03 -0.31309631402E+02  0.12433276671E+03  0.16929589121E+03  0.00000000000E+00 0.  1.
          2    1    1    2  501    0 -0.57261802603E+02  0.66331702079E+02 -0.22767234558E+04  0.22784092045E+04  0.00000000000E+00 0. -1.
<scales pt_clust_3="75.73940" pt_clust_4="37.75734" pt_clust_5="14000.00000" pt_clust_6="87.67701"></scales>
<clustering>
<clus scale="   37.757">  1  4  2 -1</clus>
<clus scale="   75.739">  1  3  2 -1</clus>
<clus scale="   87.677">  2  6  1 -1</clus>
<clus scale="   37.757">  1  3  2 -1</clus>
</clustering>
</event>
<event>
 6    0  0.4017242E+002  0.1091370E+03  0.7546771E-02  0.1262176E+00
          2   -1    0    0  504    0 -0.00000000000E+00  0.00000000000E+00  0.31742567390E+03  0.31742567390E+03  0.00000000000E+00 0. -1.
         21   -1    0    0  503  502  0.00000000000E+00 -0.00000000000E+00 -0.35995182017E+03  0.35995182017E+03  0.00000000000E+00 0. -1.
         21    1    1    2  503  501 -0.12662199683E+03  0.30485096359E+02 -0.23038495288E+03  0.26465014207E+03  0.00000000000E+00 0. -1.
         21    1    1    2  504  505 -0.12507006435E+02  0.28308263035E+02  0.74327936187E+01  0.31828122581E+02  0.00000000000E+00 0. -1.
         21    1    1    2  505  502  0.28895305500E+02  0.99760700232E+01 -0.82304776387E+02  0.87798273725E+02  0.00000000000E+00 0. -1.
          2    1    1    2  501    0  0.11023369776E+03 -0.68769429417E+02  0.26273078938E+03  0.29310095570E+03  0.00000000000E+00 0. -1.
<scales pt_clust_3="109.13705" pt_clust_4="30.86443" pt_clust_5="30.56895" pt_clust_6="14000.00000"></scales>
<clustering>
<clus scale="   30.569">  2  5  1 -1</clus>
<clus scale="   30.864">  1  4  2 -1</clus>
<clus scale="  109.137">  2  3  1 -1</clus>
<clus scale="   30.569">  2  3  1 -1</clus>
</clustering>
</event>
<event>
 6    0  0.4017242E+002  0.1093806E+03  0.7546771E-02  0.1261721E+00
          2   -1    0    0  504    0 -0.00000000000E+00  0.00000000000E+00  0.49397707303E+03  0.49397707303E+03  0.00000000000E+00 0.  1.
         21   -1    0    0  503  502  0.00000000000E+00 -0.00000000000E+00 -0.58173779493E+03  0.58173779493E+03  0.00000000000E+00 0. -1.
         21    1    1    2  503  505 -0.47878127755E+02 -0.73187268463E+02 -0.41904939044E+03  0.42807836083E+03  0.00000000000E+00 0. -1.
         21    1    1    2  504  502  0.69654883557E+01 -0.29967347423E+02 -0.52775312696E+02  0.61088407819E+02  0.00000000000E+00 0. -1.
         21    1    1    2  505  501  0.19795670241E+02  0.12794162021E+03 -0.59010640908E+02  0.14227853838E+03  0.00000000000E+00 0. -1.
          2    1    1    2  501    0  0.21116969158E+02 -0.24787004329E+02  0.44307462215E+03  0.44426956092E+03  0.00000000000E+00 0.  1.
<scales pt_clust_3="14000.00000" pt_clust_4="30.76621" pt_clust_5="109.38059" pt_clust_6="32.59370"></scales>
<clustering>
<clus scale="   30.766">  2  4  1 -1</clus>
<clus scale="   32.594">  1  6  2 -1</clus>
<clus scale="  109.381">  1  5  2 -1</clus>
<clus scale="   30.766">  2  3  1 -1</clus>
</clustering>
</event>
<event>
 6    0  0.4017242E+002  0.1265131E+03  0.7546771E-02  0.1232723E+00
         21   -1    0    0  504  502  0.00000000000E+00  0.00000000000E+00  0.54816392143E+03  0.54816392143E+03  0.00000000000E+00 0.  1.
         -1   -1    0    0    0  501 -0.00000000000E+00 -0.00000000000E+00 -0.13237489970E+04  0.13237489970E+04  0.00000000000E+00 0. -1.
         21    1    1    2  503  502 -0.48730945422E+02  0.47742023648E+01  0.49457381142E+03  0.49699170314E+03  0.00000000000E+00 0.  1.
         21    1    1    2  504  501  0.31810558971E+02  0.12411537037E+03 -0.99121320897E+02  0.16199250934E+03  0.00000000000E+00 0. -1.
         21    1    1    2  505  503  0.54853932781E+02 -0.12608989154E+03 -0.20923018384E+03  0.25036949599E+03  0.00000000000E+00 0. -1.
         -1    1    1    2    0  505 -0.37933546329E+02 -0.27996812030E+01 -0.96180738229E+03  0.96255921001E+03  0.00000000000E+00 0. -1.
<scales pt_clust_3="49.08958" pt_clust_4="14000.00000" pt_clust_5="126.51310" pt_clust_6="38.03672"></scales>
<clustering>
<clus scale="   38.037">  2  6  1 -1</clus>
<clus scale="   49.090">  1  3  2 -1</clus>
<clus scale="  126.513">  2  5  1 -1</clus>
<clus scale="   49.090">  1  3  2 -1</clus>
</clustering>
</event>
<event>
 6    0  0.4017242E+002  0.1262939E+03  0.7546771E-02  0.1233061E+00
         21   -1    0    0  505  502  0.00000000000E+00  0.00000000000E+00  0.40896342235E+02  0.40896342235E+02  0.00000000000E+00 0.  1.
          1   -1    0    0  504    0 -0.00000000000E+00 -0.00000000000E+00 -0.34826685842E+04  0.34826685842E+04  0.00000000000E+00 0.  1.
         21    1    1    2  503  501  0.66608191606E+02 -0.94120862114E+02 -0.16465266833E+03  0.20101216148E+03  0.00000000000E+00 0.  1.
         21    1    1    2  504  502  0.11395183362E+02  0.34148887477E+02 -0.11435350980E+03  0.11988628747E+03  0.00000000000E+00 0.  1.
         21    1    1    2  505  503  0.16295066559E+02 -0.25466014313E+02  0.64361789010E+01  0.30910701675E+02  0.00000000000E+00 0.  1.
          1    1    1    2  501    0 -0.94298441527E+02  0.85437988950E+02 -0.31692022427E+04  0.31717557758E+04  0.00000000000E+00 0.  1.
<scales pt_clust_3="126.29386" pt_clust_4="33.76210" pt_clust_5="30.23321" pt_clust_6="14000.00000"></scales>
<clustering>
<clus scale="   30.233">  1  5  2 -1</clus>
<clus scale="   33.762">  1  4  2 -1</clus>
<clus scale="  126.294">  1  3  2 -1</clus>
<clus scale="   30.233">  1  3  2 -1</clus>
</clustering>
</event>
<event>
 6    0  0.4017242E+002  0.1105329E+03  0.7546771E-02  0.1259586E+00
          2   -1    0    0  504    0 -0.00000000000E+00  0.00000000000E+00  0.54266224801E+03  0.54266224801E+03  0.00000000000E+00 0. -1.
         21   -1    0    0  505  502  0.00000000000E+00 -0.00000000000E+00 -0.72169764754E+02  0.72169764754E+02  0.00000000000E+00 0.  1.
         21    1    1    2  503  502  0.97715967777E+01 -0.35269152845E+02  0.84208196146E+01  0.37554060352E+02  0.00000000000E+00 0. -1.
         21    1    1    2  504  503  0.10685292919E+03 -0.24122144546E+02  0.42672891618E+02  0.11756020591E+03  0.00000000000E+00 0.  1.
         21    1    1    2  505  501 -0.70531625897E+02  0.85092596013E+02  0.15661134245E+03  0.19168352233E+03  0.00000000000E+00 0. -1.
          2    1    1    2  501    0 -0.46092900072E+02 -0.25701298623E+02  0.26278742956E+03  0.26803422417E+03  0.00000000000E+00 0. -1.
<scales pt_clust_3="36.59778" pt_clust_4="110.53295" pt_clust_5="14000.00000" pt_clust_6="53.19239"></scales>
<clustering>
<clus scale="   36.598">  2  3  1 -1</clus>
<clus scale="   53.192">  1  6  2 -1</clus>
<clus scale="  110.533">  2  4  1 -1</clus>
<clus scale="   36.598">  2  3  1 -1</clus>
</clustering>
</event>
<event>
 6    0  0.4017242E+002  0.1083682E+03  0.7546771E-02  0.1263622E+00
          2   -1    0    0  503    0 -0.00000000000E+00  0.00000000000E+00  0.12015059562E+04  0.12015059562E+04  0.00000000000E+00 0. -1.
         21   -1    0    0  505  502  0.00000000000E+00 -0.00000000000E+00 -0.36575090655E+02  0.36575090655E+02  0.00000000000E+00 0.  1.
         21    1    1    2  503  502  0.90852047252E+02 -0.23735971255E+02  0.32420196697E+03  0.33752689701E+03  0.00000000000E+00 0.  1.
         21    1    1    2  504  501  0.33933384162E+01  0.65536840505E+02  0.14332912540E+03  0.15763828975E+03  0.00000000000E+00 0.  1.
         21    1    1    2  505  504  0.28277220893E+02 -0.30339982743E+02  0.75245836992E+01  0.42151336089E+02  0.00000000000E+00 0.  1.
          2    1    1    2  501    0 -0.12252260656E+03 -0.11460886507E+02  0.68987518948E+03  0.70076452401E+03  0.00000000000E+00 0. -1.
<scales pt_clust_3="108.36816" pt_clust_4="56.01840" pt_clust_5="41.47428" pt_clust_6="14000.00000"></scales>
<clustering>
<clus scale="   41.474">  2  5  1 -1</clus>
<clus scale="   56.018">  2  4  1 -1</clus>
<clus scale="  108.368">  2  3  1 -1</clus>
<clus scale="   41.474">  2  3  1 -1</clus>
</clustering>
</event>
<event>
 6    0  0.4017242E+002  0.1686384E+03  0.7546771E-02  0.1179275E+00
         -1   -1    0    0    0  501 -0.00000000000E+00  0.00000000000E+00  0.18393775309E+04  0.18393775309E+04  0.00000000000E+00 0.  1.
         21   -1    0    0  504  502  0.00000000000E+00 -0.00000000000E+00 -0.28167205198E+02  0.28167205198E+02  0.00000000000E+00 0.  1.
         21    1    1    2  503  501 -0.12432018517E+03 -0.16425734884E+02  0.48398504091E+03  0.49996683193E+03  0.00000000000E+00 0.  1.
         21    1    1    2  504  503 -0.81227653171E+02 -0.47155264143E+00  0.20610673693E+03  0.22153586845E+03  0.00000000000E+00 0.  1.
         21    1    1    2  505  502  0.57300864571E+02  0.11292381241E+02  0.11434160111E+03  0.12839356954E+03  0.00000000000E+00 0.  1.
         -1    1    1    2    0  505  0.14824697377E+03  0.56049062835E+01  0.10067769468E+04  0.10176484662E+04  0.00000000000E+00 0.  1.
<scales pt_clust_3="34.18459" pt_clust_4="34.18459" pt_clust_5="58.40297" pt_clust_6="163.20192"></scales>
<clustering>
<clus scale="   34.185">  3  4 -1 -1</clus>
<clus scale="   58.403">  2  5  1 -1</clus>
<clus scale="  163.202">  1  6  2 -1</clus>
<clus scale="   58.403">  2  3  1 -1</clus>
</clustering>
</event>
<event>
 6    0  0.4017242E+002  0.8283323E+02  0.7546771E-02  0.1321198E+00
         21   -1    0    0  503  502  0.00000000000E+00  0.00000000000E+00  0.17101644577E+03  0.17101644577E+03  0.00000000000E+00 0. -1.
          1   -1    0    0  504    0 -0.00000000000E+00 -0.00000000000E+00 -0.18895596032E+03  0.18895596032E+03  0.00000000000E+00 0.  1.
         21    1    1    2  503  501  0.89676420239E+02  0.70690811828E+01  0.83978410905E+02  0.12306179648E+03  0.00000000000E+00 0. -1.
         21    1    1    2  504  505 -0.37912741310E+02 -0.84049426246E+00 -0.21954217211E+02  0.43818603784E+02  0.00000000000E+00 0. -1.
         21    1    1    2  505  502 -0.50548579801E+02 -0.75500516080E+02 -0.49731978988E+01  0.90995711688E+02  0.00000000000E+00 0. -1.
          1    1    1    2  501    0 -0.12150991269E+01  0.69271929160E+02 -0.74990510339E+02  0.10209629414E+03  0.00000000000E+00 0.  1.
<scales pt_clust_3="14000.00000" pt_clust_4="37.92206" pt_clust_5="82.83323" pt_clust_6="72.45106"></scales>
<clustering>
<clus scale="   37.922">  2  4  1 -1</clus>
<clus scale="   72.451">  2  6  1 -1</clus>
<clus scale="   82.833">  2  5  1 -1</clus>
<clus scale="   82.833">  1  3  2 -1</clus>
</clustering>
</event>
<event>
 6    0  0.4017242E+002  0.1079134E+03  0.7546771E-02  0.1264483E+00
          2   -1    0    0  505    0 -0.00000000000E+00  0.00000000000E+00  0.51630476239E+03  0.51630476239E+03  0.00000000000E+00 0. -1.
         21   -1    0    0  504  502  0.00000000000E+00 -0.00000000000E+00 -0.64495221670E+03  0.64495221670E+03  0.00000000000E+00 0.  1.
         21    1    1    2  503  501  0.93949947049E+02  0.32362634691E+01 -0.52539945045E+02  0.10769174424E+03  0.00000000000E+00 0.  1.
         21    1    1    2  504  503 -0.50365075947E+02 -0.62846328371E+01 -0.45723612786E+03  0.46004457839E+03  0.00000000000E+00 0.  1.
         21    1    1    2  505  502 -0.66682815734E+02 -0.10193646826E+03 -0.62602055764E+02  0.13695495194E+03  0.00000000000E+00 0.  1.
          2    1    1    2  501    0  0.23097944632E+02  0.10498483762E+03  0.44373067436E+03  0.45656570452E+03  0.00000000000E+00 0. -1.
<scales pt_clust_3="72.29446" pt_clust_4="50.75566" pt_clust_5="14000.00000" pt_clust_6="107.91338"></scales>
<clustering>
<clus scale="   50.756">  2  4  1 -1</clus>
<clus scale="   72.294">  2  3  1 -1</clus>
<clus scale="  107.913">  1  6  2 -1</clus>
<clus scale="   50.756">  2  3  1 -1</clus>
</clustering>
</event>
<event>
 6    0  0.4017242E+002  0.7677769E+02  0.7546771E-02  0.1338453E+00
         21   -1    0    0  503  502  0.00000000000E+00  0.00000000000E+00  0.29778850301E+03  0.29778850301E+03  0.00000000000E+00 0.  1.
          1   -1    0    0  504    0 -0.00000000000E+00 -0.00000000000E+00 -0.73590226760E+03  0.73590226760E+03  0.00000000000E+00 0.  1.
         21    1    1    2  503  505  0.39401187863E+02  0.62996666217E+01 -0.37390411020E+01  0.40076424902E+02  0.00000000000E+00 0.  1.
         21    1    1    2  504  502 -0.18731358213E+02  0.40929656254E+02  0.24603860927E+03  0.25012216573E+03  0.00000000000E+00 0.  1.
         21    1    1    2  505  501  0.47437821953E+02 -0.81984450774E+02 -0.47473702893E+02  0.10595069413E+03  0.00000000000E+00 0.  1.
          1    1    1    2  501    0 -0.68107651602E+02  0.34755127898E+02 -0.63293962987E+03  0.63754148585E+03  0.00000000000E+00 0.  1.
<scales pt_clust_3="39.90162" pt_clust_4="49.26729" pt_clust_5="14000.00000" pt_clust_6="76.77769"></scales>
<clustering>
<clus scale="   39.902">  1  3  2 -1</clus>
<clus scale="   49.267">  1  4  2 -1</clus>
<clus scale="   76.778">  2  6  1 -1</clus>
<clus scale="   39.902">  1  3  2 -1</clus>
</clustering>
</event>
<event>
 6    0  0.4017242E+002  0.8394663E+02  0.7546771E-02  0.1318210E+00
         21   -1    0    0  505  502  0.00000000000E+00  0.00000000000E+00  0.50908012156E+02  0.50908012156E+02  0.00000000000E+00 0. -1.
          2   -1    0    0  503    0 -0.00000000000E+00 -0.00000000000E+00 -0.14409664292E+04  0.14409664292E+04  0.00000000000E+00 0.  1.
         21    1    1    2  503  504  0.69192250432E+00  0.75056984100E+02 -0.18607438894E+03  0.20064323522E+03  0.00000000000E+00 0. -1.
         21    1    1    2  504  502  0.49750090917E+02 -0.55742121757E+02 -0.30852257381E+02  0.80833888127E+02  0.00000000000E+00 0. -1.
         21    1    1    2  505  501 -0.23369787386E+02 -0.63128115160E+02 -0.44731023238E+02  0.80821843124E+02  0.00000000000E+00 0. -1.
          2    1    1    2  501    0 -0.27072226035E+02  0.43813252816E+02 -0.11284007475E+04  0.11295754749E+04  0.00000000000E+00 0.  1.
<scales pt_clust_3="14000.00000" pt_clust_4="83.94663" pt_clust_5="61.48356" pt_clust_6="51.50249"></scales>
<clustering>
<clus scale="   51.502">  2  6  1 -1</clus>
<clus scale="   61.484">  1  5  2 -1</clus>
<clus scale="   83.947">  1  4  2 -1</clus>
<clus scale="   61.484">  1  3  2 -1</clus>
</clustering>
</event>
<event>
 6    0  0.4017242E+002  0.8686594E+02  0.7546771E-02  0.1310624E+00
         21   -1    0    0  504  502  0.00000000000E+00  0.00000000000E+00  0.38639216666E+03  0.38639216666E+03  0.00000000000E+00 0.  1.
          1   -1    0    0  503    0 -0.00000000000E+00 -0.00000000000E+00 -0.59385949421E+03  0.59385949421E+03  0.00000000000E+00 0. -1.
         21    1    1    2  503  502 -0.75713254629E+02  0.43658373514E+02  0.19041040221E+03  0.20951055289E+03  0.00000000000E+00 0.  1.
         21    1    1    2  504  505 -0.22995077078E+02 -0.76569701043E+02  0.15773303084E+03  0.17683721810E+03  0.00000000000E+00 0.  1.
         21    1    1    2  505  501  0.62898265594E+02  0.63598080910E+01 -0.36735853886E+02  0.73117453008E+02  0.00000000000E+00 0. -1.
          1    1    1    2  501    0  0.35810066113E+02  0.26551519438E+02 -0.51887490671E+03  0.52078643687E+03  0.00000000000E+00 0. -1.
<scales pt_clust_3="14000.00000" pt_clust_4="75.41632" pt_clust_5="86.86594" pt_clust_6="44.57964"></scales>
<clustering>
<clus scale="   44.580">  2  6  1 -1</clus>
<clus scale="   75.416">  1  4  2 -1</clus>
<clus scale="   86.866">  2  5  1 -1</clus>
<clus scale="   75.416">  1  3  2 -1</clus>
</clustering>
</event>
<event>
 6    0  0.4017242E+002  0.9862549E+02  0.7546771E-02  0.1283213E+00
         21   -1    0    0  504  502  0.00000000000E+00  0.00000000000E+00  0.53321921494E+03  0.53321921494E+03  0.00000000000E+00 0.  1.
         -1   -1    0    0    0  501 -0.00000000000E+00 -0.00000000000E+00 -0.18157007679E+03  0.18157007679E+03  0.00000000000E+00 0.  1.
         21    1    1    2  503  501 -0.21227759451E+02 -0.22386347915E+02 -0.18363765142E+02  0.35902565570E+02  0.00000000000E+00 0.  1.
         21    1    1    2  504  505 -0.43457637040E+02 -0.48404296878E+02  0.43486272374E+03  0.43970118339E+03  0.00000000000E+00 0.  1.
         21    1    1    2  505  503  0.25937785648E+02 -0.71422509398E+02 -0.50179469992E+02  0.91059995507E+02  0.00000000000E+00 0.  1.
         -1    1    1    2    0  502  0.38747610843E+02  0.14221315419E+03 -0.14670350458E+02  0.14812554727E+03  0.00000000000E+00 0.  1.
<scales pt_clust_3="30.85071" pt_clust_4="65.53340" pt_clust_5="98.62549" pt_clust_6="14000.00000"></scales>
<clustering>
<clus scale="   30.851">  2  3  1 -1</clus>
<clus scale="   65.533">  1  4  2 -1</clus>
<clus scale="   98.625">  2  5  1 -1</clus>
<clus scale="   65.533">  1  3  2 -1</clus>
</clustering>
</event>
<event>
 6    0  0.4017242E+002  0.6023186E+02  0.7546771E-02  0.1396861E+00
          1   -1    0    0  505    0 -0.00000000000E+00  0.00000000000E+00  0.11842316525E+04  0.11842316525E+04  0.00000000000E+00 0. -1.
         21   -1    0    0  504  502  0.00000000000E+00 -0.00000000000E+00 -0.51516624603E+02  0.51516624603E+02  0.00000000000E+00 0. -1.
         21    1    1    2  503  501 -0.67270529095E+01  0.60611266515E+02  0.44439966471E+02  0.75457865656E+02  0.00000000000E+00 0. -1.
         21    1    1    2  504  503 -0.48577659116E+02 -0.40544429334E+01  0.24242348587E+02  0.54441885876E+02  0.00000000000E+00 0. -1.
         21    1    1    2  505  502  0.93396299078E+02 -0.11011756587E+02  0.90529217334E+02  0.13053607415E+03  0.00000000000E+00 0. -1.
          1    1    1    2  501    0 -0.38091587052E+02 -0.45545066994E+02  0.97350349549E+03  0.97531245140E+03  0.00000000000E+00 0. -1.
<scales pt_clust_3="14000.00000" pt_clust_4="48.74656" pt_clust_5="59.35256" pt_clust_6="60.23186"></scales>
<clustering>
<clus scale="   48.747">  2  4  1 -1</clus>
<clus scale="   60.232">  1  6  2 -1</clus>
<clus scale="   59.353">  2  5  1 -1</clus>
<clus scale="   48.747">  2  3  1 -1</clus>
</clustering>
</event>
<event>
 6    0  0.4017242E+002  0.1354061E+03  0.7546771E-02  0.1219648E+00
         21   -1    0    0  504  502  0.00000000000E+00  0.00000000000E+00  0.24635003425E+04  0.24635003425E+04  0.00000000000E+00 0.  1.
          2   -1    0    0  503    0 -0.00000000000E+00 -0.00000000000E+00 -0.55819815165E+03  0.55819815165E+03  0.00000000000E+00 0.  1.
         21    1    1    2  503  505  0.72917507568E+02 -0.74375901430E+02  0.20310276615E+02  0.10611901319E+03  0.00000000000E+00 0. -1.
         21    1    1    2  504  501 -0.99777785807E+02  0.10289051714E+03  0.22302455258E+03  0.26510755574E+03  0.00000000000E+00 0. -1.
         21    1    1    2  505  502  0.59770538789E+01  0.31142639071E+02  0.21540816869E+04  0.21543150890E+04  0.00000000000E+00 0.  1.
          2    1    1    2  501    0  0.20883224360E+02 -0.59657254784E+02 -0.49211432516E+03  0.49615683623E+03  0.00000000000E+00 0.  1.
<scales pt_clust_3="14000.00000" pt_clust_4="135.40610" pt_clust_5="31.71103" pt_clust_6="63.02769"></scales>
<clustering>
<clus scale="   31.711">  1  5  2 -1</clus>
<clus scale="   63.028">  2  6  1 -1</clus>
<clus scale="  135.406">  1  4  2 -1</clus>
<clus scale="   31.711">  1  3  2 -1</clus>
</clustering>
</event>
<event>
 6    0  0.4017242E+002  0.1033627E+03  0.7546771E-02  0.1273379E+00
         21   -1    0    0  504  502  0.00000000000E+00  0.00000000000E+00  0.10282542333E+03  0.10282542333E+03  0.00000000000E+00 0. -1.
          2   -1    0    0  505    0 -0.00000000000E+00 -0.00000000000E+00 -0.40579273135E+04  0.40579273135E+04  0.00000000000E+00 0.  1.
         21    1    1    2  503  501  0.64468361503E+02  0.47148408929E+02 -0.19177220155E+02  0.82139563380E+02  0.00000000000E+00 0. -1.
         21    1    1    2  504  503  0.37288547580E+02  0.34624791139E+02  0.56755030268E+02  0.76226277639E+02  0.00000000000E+00 0. -1.
         21    1    1    2  505  502 -0.10352592091E+02 -0.32390630256E+02 -0.65212970767E+02  0.73546316343E+02  0.00000000000E+00 0.  1.
          2    1    1    2  501    0 -0.91404316991E+02 -0.49382569812E+02 -0.39274667295E+04  0.39288405795E+04  0.00000000000E+00 0.  1.
<scales pt_clust_3="103.36275" pt_clust_4="32.90142" pt_clust_5="34.00484" pt_clust_6="14000.00000"></scales>
<clustering>
<clus scale="   34.005">  1  5  2 -1</clus>
<clus scale="   32.901">  1  4  2 -1</clus>
<clus scale="  103.363">  1  3  2 -1</clus>
<clus scale="   34.005">  1  3  2 -1</clus>
</clustering>
</event>
<event>
 6    0  0.4017242E+002  0.1389035E+03  0.7546771E-02  0.1214812E+00
         -1   -1    0    0    0  501 -0.00000000000E+00  0.00000000000E+00  0.29617395926E+03  0.29617395926E+03  0.00000000000E+00 0. -1.
         21   -1    0    0  504  502  0.00000000000E+00 -0.00000000000E+00 -0.11820781256E+03  0.11820781256E+03  0.00000000000E+00 0. -1.
         21    1    1    2  503  502 -0.48264433165E+02 -0.18041300506E+02 -0.27934371177E+02  0.58611203074E+02  0.00000000000E+00 0. -1.
         21    1    1    2  504  505  0.99037959298E+02  0.60695856434E+02  0.41027490064E+02  0.12318993186E+03  0.00000000000E+00 0. -1.
         21    1    1    2  505  501  0.37284886660E+02  0.31524023868E+02  0.52475685191E+02  0.71677223651E+02  0.00000000000E+00 0. -1.
         -1    1    1    2    0  503 -0.88058412793E+02 -0.74178579796E+02  0.11239734262E+03  0.16090341324E+03  0.00000000000E+00 0. -1.
<scales pt_clust_3="51.52615" pt_clust_4="30.00570" pt_clust_5="30.00570" pt_clust_6="130.96661"></scales>
<clustering>
<clus scale="   30.006">  4  5 -1 -1</clus>
<clus scale="   51.526">  2  3  1 -1</clus>
<clus scale="  130.967">  1  6  2 -1</clus>
<clus scale="   51.526">  2  3  1 -1</clus>
</clustering>
</event>
<event>
 6    0  0.4017242E+002  0.1138571E+03  0.7546771E-02  0.1253589E+00
          1   -1    0    0  502    0 -0.00000000000E+00  0.00000000000E+00  0.21321275975E+04  0.21321275975E+04  0.00000000000E+00 0.  1.
         21   -1    0    0  504  502  0.00000000000E+00 -0.00000000000E+00 -0.67586018686E+03  0.67586018686E+03  0.00000000000E+00 0. -1.
         21    1    1    2  503  501  0.87220106047E+02  0.16436396841E+02  0.44032932165E+03  0.44918527753E+03  0.00000000000E+00 0. -1.
         21    1    1    2  504  505 -0.84379587418E+01  0.45589532403E+02 -0.47926048720E+03  0.48149789117E+03  0.00000000000E+00 0. -1.
         21    1    1    2  505  503 -0.97998548463E+02 -0.88868432959E+02 -0.16796845085E+03  0.21380999593E+03  0.00000000000E+00 0. -1.
          1    1    1    2  501    0  0.19216401158E+02  0.26842503715E+02  0.16631670270E+04  0.16634946197E+04  0.00000000000E+00 0.  1.
<scales pt_clust_3="113.85715" pt_clust_4="46.41850" pt_clust_5="14000.00000" pt_clust_6="33.01197"></scales>
<clustering>
<clus scale="   33.012">  1  6  2 -1</clus>
<clus scale="   46.419">  2  4  1 -1</clus>
<clus scale="  113.857">  1  3  2 -1</clus>
<clus scale="   46.419">  2  3  1 -1</clus>
</clustering>
</event>
<event>
 6    0  0.4017242E+002  0.7105787E+02  0.7546771E-02  0.1356532E+00
          1   -1    0    0  503    0 -0.00000000000E+00  0.00000000000E+00  0.77138277744E+02  0.77138277744E+02  0.00000000000E+00 0.  1.
         21   -1    0    0  505  502  0.00000000000E+00 -0.00000000000E+00 -0.73293300688E+03  0.73293300688E+03  0.00000000000E+00 0. -1.
         21    1    1    2  503  504  0.71033195668E+02  0.81114901349E+01 -0.19692999900E+03  0.20950640960E+03  0.00000000000E+00 0. -1.
         21    1    1    2  504  502  0.41063038909E+02 -0.57401166737E+02 -0.35756063297E+03  0.36445942621E+03  0.00000000000E+00 0. -1.
         21    1    1    2  505  501 -0.82631530541E+02  0.24578342775E+02 -0.15063313948E+03  0.17355808101E+03  0.00000000000E+00 0. -1.
          1    1    1    2  501    0 -0.29464704036E+02  0.24711333827E+02  0.49329042312E+02  0.62547367801E+02  0.00000000000E+00 0.  1.
<scales pt_clust_3="64.17883" pt_clust_4="71.05787" pt_clust_5="14000.00000" pt_clust_6="38.45541"></scales>
<clustering>
<clus scale="   38.455">  1  6  2 -1</clus>
<clus scale="   64.179">  1  3  2 -1</clus>
<clus scale="   71.058">  2  4  1 -1</clus>
<clus scale="   71.058">  2  3  1 -1</clus>
</clustering>
</event>
<event>
 6    0  0.4017242E+002  0.1321791E+03  0.7546771E-02  0.1224258E+00
         21   -1    0    0  501  502  0.00000000000E+00  0.00000000000E+00  0.51712883212E+03  0.51712883212E+03  0.00000000000E+00 0. -1.
          3   -1    0    0  504    0 -0.00000000000E+00 -0.00000000000E+00 -0.29864853556E+03  0.29864853556E+03  0.00000000000E+00 0. -1.
         21    1    1    2  503  502  0.42940416077E+02  0.82810323111E+01  0.44383740821E+03  0.44598665871E+03  0.00000000000E+00 0. -1.
         21    1    1    2  504  505 -0.11052364237E+03  0.49688318611E+01 -0.63146235185E+02  0.12738764395E+03  0.00000000000E+00 0. -1.
         21    1    1    2  505  503 -0.43718609677E+02 -0.21924324736E+02 -0.44130990124E+01  0.49106703108E+02  0.00000000000E+00 0. -1.
          3    1    1    2  501    0  0.11130183597E+03  0.86744605634E+01 -0.15779777745E+03  0.19329636190E+03  0.00000000000E+00 0. -1.
<scales pt_clust_3="43.73162" pt_clust_4="33.29601" pt_clust_5="33.29601" pt_clust_6="122.32537"></scales>
<clustering>
<clus scale="   33.296">  4  5 -1 -1</clus>
<clus scale="   43.732">  1  3  2 -1</clus>
<clus scale="  122.325">  2  6  1 -1</clus>
<clus scale="   43.732">  1  3  2 -1</clus>
</clustering>
</event>
<event>
 6    0  0.4017242E+002  0.8569420E+02  0.7546771E-02  0.1313627E+00
          2   -1    0    0  503    0 -0.00000000000E+00  0.00000000000E+00  0.97847084331E+03  0.97847084331E+03  0.00000000000E+00 0.  1.
         21   -1    0    0  504  502  0.00000000000E+00 -0.00000000000E+00 -0.72763428165E+03  0.72763428165E+03  0.00000000000E+00 0.  1.
         21    1    1    2  503  502 -0.56537986767E+02 -0.35969710988E+02  0.10894492492E+01  0.67019034280E+02  0.00000000000E+00 0.  1.
         21    1    1    2  504  505  0.86744705932E+02  0.49364410394E+02 -0.25855296807E+03  0.27714820281E+03  0.00000000000E+00 0.  1.
         21    1    1    2  505  501 -0.40183143618E+02  0.71762245380E+02 -0.42086461092E+03  0.42882575204E+03  0.00000000000E+00 0. -1.
          2    1    1    2  501    0  0.99764244524E+01 -0.85156944786E+02  0.92916469139E+03  0.93311213583E+03  0.00000000000E+00 0.  1.
<scales pt_clust_3="67.01018" pt_clust_4="74.01173" pt_clust_5="14000.00000" pt_clust_6="85.69420"></scales>
<clustering>
<clus scale="   67.010">  2  3  1 -1</clus>
<clus scale="   74.012">  2  4  1 -1</clus>
<clus scale="   85.694">  1  6  2 -1</clus>
<clus scale="   67.010">  2  3  1 -1</clus>
</clustering>
</event>
<event>
 6    0  0.4017242E+002  0.5654894E+02  0.7546771E-02  0.1412913E+00
          1   -1    0    0  503    0 -0.00000000000E+00  0.00000000000E+00  0.24353223125E+04  0.24353223125E+04  0.00000000000E+00 0.  1.
         21   -1    0    0  505  502  0.00000000000E+00 -0.00000000000E+00 -0.22683815501E+03  0.22683815501E+03  0.00000000000E+00 0.  1.
         21    1    1    2  503  504  0.46434950250E+02  0.51709524427E+01  0.84655081810E+03  0.84783915395E+03  0.00000000000E+00 0. -1.
         21    1    1    2  504  502 -0.24997583556E+02 -0.96923630377E+02  0.13412371282E+04  0.13449669525E+04  0.00000000000E+00 0.  1.
         21    1    1    2  505  501 -0.37099250037E+02  0.42676914119E+02 -0.21797321588E+03  0.22518880121E+03  0.00000000000E+00 0.  1.
          1    1    1    2  501    0  0.15661883343E+02  0.49075763815E+02  0.23866942711E+03  0.24416555986E+03  0.00000000000E+00 0.  1.
<scales pt_clust_3="46.72198" pt_clust_4="56.54894" pt_clust_5="14000.00000" pt_clust_6="54.79442"></scales>
<clustering>
<clus scale="   46.722">  1  3  2 -1</clus>
<clus scale="   54.794">  1  6  2 -1</clus>
<clus scale="   56.549">  1  4  2 -1</clus>
<clus scale="   56.549">  2  3  1 -1</clus>
</clustering>
</event>
<event>
 6    0  0.4017242E+002  0.9684263E+02  0.7546771E-02  0.1287079E+00
         21   -1    0    0  504  502  0.00000000000E+00  0.00000000000E+00  0.50646720377E+03  0.50646720377E+03  0.00000000000E+00 0. -1.
          2   -1    0    0  503    0 -0.00000000000E+00 -0.00000000000E+00 -0.19905291064E+04  0.19905291064E+04  0.00000000000E+00 0. -1.
         21    1    1    2  503  505  0.53877810621E+02 -0.39956450764E+02 -0.32961245048E+03  0.33636840509E+03  0.00000000000E+00 0. -1.
         21    1    1    2  504  501 -0.50704561358E+02  0.69170136272E+02  0.49481411650E+03  0.50219166678E+03  0.00000000000E+00 0. -1.
         21    1    1    2  505  502  0.20532526541E+02 -0.66637938777E+02 -0.28332462721E+03  0.29177910123E+03  0.00000000000E+00 0. -1.
          2    1    1    2  501    0 -0.23705775804E+02  0.37424253269E+02 -0.13659389414E+04  0.13666571371E+04  0.00000000000E+00 0. -1.
<scales pt_clust_3="43.62248" pt_clust_4="86.02516" pt_clust_5="43.62248" pt_clust_6="44.30055"></scales>
<clustering>
<clus scale="   43.622">  3  5 -1 -1</clus>
<clus scale="   44.301">  2  6  1 -1</clus>
<clus scale="   86.025">  1  4  2 -1</clus>
<clus scale="   86.025">  1  3  2 -1</clus>
</clustering>
</event>
<event>
 6    0  0.4017242E+002  0.9870678E+02  0.7546771E-02  0.1283039E+00
          2   -1    0    0  503    0 -0.00000000000E+00  0.00000000000E+00  0.49298912623E+03  0.49298912623E+03  0.00000000000E+00 0. -1.
         21   -1    0    0  505  502  0.00000000000E+00 -0.00000000000E+00 -0.10122121456E+04  0.10122121456E+04  0.00000000000E+00 0.  1.
         21    1    1    2  503  502 -0.39029746036E+02 -0.26098005360E+02 -0.67889972248E+02  0.82543778028E+02  0.00000000000E+00 0. -1.
         21    1    1    2  504  501 -0.74951210444E+02  0.11419018199E+03 -0.57770028433E+03  0.59362841924E+03  0.00000000000E+00 0.  1.
         21    1    1    2  505  504  0.26985527057E+02 -0.41850228457E+02 -0.34444150469E+03  0.34802242808E+03  0.00000000000E+00 0.  1.
          2    1    1    2  501    0  0.86995429423E+02 -0.46241948175E+02  0.47080874190E+03  0.48100664649E+03  0.00000000000E+00 0. -1.
<scales pt_clust_3="46.95133" pt_clust_4="98.70678" pt_clust_5="53.00426" pt_clust_6="14000.00000"></scales>
<clustering>
<clus scale="   46.951">  2  3  1 -1</clus>
<clus scale="   53.004">  2  5  1 -1</clus>
<clus scale="   98.707">  2  4  1 -1</clus>
<clus scale="   46.951">  2  3  1 -1</clus>
</clustering>
</event>
<event>
 6    0  0.4017242E+002  0.1488288E+03  0.7546771E-02  0.1201920E+00
          2   -1    0    0  504    0 -0.00000000000E+00  0.00000000000E+00  0.11506034264E+03  0.11506034264E+03  0.00000000000E+00 0.  1.
         21   -1    0    0  503  502  0.00000000000E+00 -0.00000000000E+00 -0.94277143791E+03  0.94277143791E+03  0.00000000000E+00 0. -1.
         21    1    1    2  503  501  0.29494759905E+02  0.14469991270E+02 -0.12806711951E+03  0.13221387450E+03  0.00000000000E+00 0. -1.
         21    1    1    2  504  505 -0.10863072357E+03 -0.76730239908E+02 -0.46909293708E+03  0.48758214430E+03  0.00000000000E+00 0. -1.
         21    1    1    2  505  502 -0.31151216504E+02 -0.12629041949E+02 -0.29009204699E+03  0.29203302334E+03  0.00000000000E+00 0. -1.
          2    1    1    2  501    0  0.11028718017E+03  0.74889290587E+02  0.59541008317E+02  0.14600273842E+03  0.00000000000E+00 0.  1.
<scales pt_clust_3="32.85303" pt_clust_4="31.45163" pt_clust_5="31.45163" pt_clust_6="135.04117"></scales>
<clustering>
<clus scale="   31.452">  4  5 -1 -1</clus>
<clus scale="   32.853">  2  3  1 -1</clus>
<clus scale="  135.041">  1  6  2 -1</clus>
<clus scale="   32.853">  2  3  1 -1</clus>
</clustering>
</event>
<event>
 6    0  0.4017242E+002  0.9494378E+02  0.7546771E-02  0.1291303E+00
         -1   -1    0    0    0  501 -0.00000000000E+00  0.00000000000E+00  0.25990748389E+03  0.25990748389E+03  0.00000000000E+00 0.  1.
         21   -1    0    0  505  502  0.00000000000E+00 -0.00000000000E+00 -0.21957288070E+04  0.21957288070E+04  0.00000000000E+00 0. -1.
         21    1    1    2  503  502 -0.31174685488E+02  0.93819008245E+02 -0.18726858410E+04  0.18752936107E+04  0.00000000000E+00 0. -1.
         21    1    1    2  504  501  0.41988876677E+02  0.98732281054E+01  0.25555639016E+01  0.43209689940E+02  0.00000000000E+00 0.  1.
         21    1    1    2  505  504 -0.47752073523E+02 -0.86196366576E+02 -0.29147409278E+03  0.30768038757E+03  0.00000000000E+00 0.  1.
         -1    1    1    2    0  503  0.36937882333E+02 -0.17495869774E+02  0.22578304682E+03  0.22945260261E+03  0.00000000000E+00 0.  1.
<scales pt_clust_3="94.94378" pt_clust_4="68.21232" pt_clust_5="14000.00000" pt_clust_6="40.87190"></scales>
<clustering>
<clus scale="   40.872">  1  6  2 -1</clus>
<clus scale="   68.212">  1  4  2 -1</clus>
<clus scale="   94.944">  2  3  1 -1</clus>
<clus scale="   94.944">  2  3  1 -1</clus>
</clustering>
</event>
<event>
 6    0  0.4017242E+002  0.7534994E+02  0.7546771E-02  0.1342791E+00
         -2   -1    0    0    0  501 -0.00000000000E+00  0.00000000000E+00  0.10713602618E+03  0.10713602618E+03  0.00000000000E+00 0. -1.
         21   -1    0    0  503  502  0.00000000000E+00 -0.00000000000E+00 -0.42437240226E+03  0.42437240226E+03  0.00000000000E+00 0.  1.
         21    1    1    2  503  501 -0.13161814279E+03 -0.21577045751E+02 -0.22192075996E+03  0.25891645007E+03  0.00000000000E+00 0.  1.
         21    1    1    2  504  502  0.27091712401E+02  0.27138778660E+02 -0.34671885480E+02  0.51697329048E+02  0.00000000000E+00 0.  1.
         21    1    1    2  505  504  0.45774489315E+02 -0.46955002722E+02 -0.11391101061E+03  0.13143741663E+03  0.00000000000E+00 0. -1.
         -2    1    1    2    0  505  0.58751941077E+02  0.41393269812E+02  0.53267279964E+02  0.89457232692E+02  0.00000000000E+00 0. -1.
<scales pt_clust_3="75.34994" pt_clust_4="38.34676" pt_clust_5="66.56098" pt_clust_6="14000.00000"></scales>
<clustering>
<clus scale="   38.347">  2  4  1 -1</clus>
<clus scale="   66.561">  2  5  1 -1</clus>
<clus scale="   75.350">  2  3  1 -1</clus>
<clus scale="   38.347">  2  3  1 -1</clus>
</clustering>
</event>
<event>
 6    0  0.4017242E+002  0.1830508E+03  0.7546771E-02  0.1164883E+00
         21   -1    0    0  503  502  0.00000000000E+00  0.00000000000E+00  0.27920648557E+03  0.27920648557E+03  0.00000000000E+00 0.  1.
          2   -1    0    0  505    0 -0.00000000000E+00 -0.00000000000E+00 -0.22625201116E+04  0.22625201116E+04  0.00000000000E+00 0.  1.
         21    1    1    2  503  504  0.41449616980E+02  0.45639523828E+02  0.15888942521E+03  0.17043147105E+03  0.00000000000E+00 0.  1.
         21    1    1    2  504  501  0.14410046764E+03 -0.80673771440E+01  0.53871964019E+02  0.15405263988E+03  0.00000000000E+00 0.  1.
         21    1    1    2  505  502 -0.48942702295E+02  0.32067086980E+02 -0.10223096499E+03  0.11779158025E+03  0.00000000000E+00 0.  1.
          2    1    1    2  501    0 -0.13660738232E+03 -0.69639233664E+02 -0.20938440503E+04  0.20994509060E+04  0.00000000000E+00 0.  1.
<scales pt_clust_3="61.62817" pt_clust_4="183.05077" pt_clust_5="58.51227" pt_clust_6="14000.00000"></scales>
<clustering>
<clus scale="   58.512">  2  5  1 -1</clus>
<clus scale="   61.628">  1  3  2 -1</clus>
<clus scale="  183.051">  1  4  2 -1</clus>
<clus scale="   61.628">  1  3  2 -1</clus>
</clustering>
</event>
<event>
 6    0  0.4017242E+002  0.2660220E+03  0.7546771E-02  0.1103578E+00
         21   -1    0    0  504  502  0.00000000000E+00  0.00000000000E+00  0.92509016467E+02  0.92509016467E+02  0.00000000000E+00 0. -1.
          2   -1    0    0  505    0 -0.00000000000E+00 -0.00000000000E+00 -0.18677885022E+04  0.18677885022E+04  0.00000000000E+00 0. -1.
         21    1    1    2  503  501  0.28882168471E+03 -0.26421201781E+02 -0.44931141743E+03  0.53478668205E+03  0.00000000000E+00 0. -1.
         21    1    1    2  504  503  0.55630410472E+02  0.14637399905E+02 -0.28459487070E+02  0.64178956439E+02  0.00000000000E+00 0. -1.
         21    1    1    2  505  502 -0.12011932778E+03 -0.17871986820E+01 -0.15077228952E+03  0.19278000486E+03  0.00000000000E+00 0. -1.
          2    1    1    2  501    0 -0.22433276741E+03  0.13571000558E+02 -0.11467362917E+04  0.11685518754E+04  0.00000000000E+00 0. -1.
<scales pt_clust_3="48.19019" pt_clust_4="48.19019" pt_clust_5="120.13262" pt_clust_6="243.02056"></scales>
<clustering>
<clus scale="   48.190">  3  4 -1 -1</clus>
<clus scale="  120.133">  1  5  2 -1</clus>
<clus scale="  243.021">  2  6  1 -1</clus>
<clus scale="  120.133">  1  3  2 -1</clus>
</clustering>
</event>
<event>
 6    0  0.4017242E+002  0.8501266E+02  0.7546771E-02  0.1315399E+00
         21   -1    0    0  504  502  0.00000000000E+00  0.00000000000E+00  0.39926249052E+03  0.39926249052E+03  0.00000000000E+00 0.  1.
          1   -1    0    0  503    0 -0.00000000000E+00 -0.00000000000E+00 -0.95935745297E+02  0.95935745297E+02  0.00000000000E+00 0.  1.
         21    1    1    2  503  505 -0.29829746843E+02  0.70160059465E+02  0.18026362942E+03  0.19572231307E+03  0.00000000000E+00 0.  1.
         21    1    1    2  504  501 -0.77762268298E+02 -0.32460747636E+02  0.10254456264E+03  0.13272549806E+03  0.00000000000E+00 0.  1.
         21    1    1    2  505  502  0.46245206135E+02  0.24279832644E+02  0.52318056481E+02  0.73927724147E+02  0.00000000000E+00 0.  1.
          1    1    1    2  501    0  0.61346809006E+02 -0.61979144473E+02 -0.31799503319E+02  0.92822700543E+02  0.00000000000E+00 0.  1.
<scales pt_clust_3="14000.00000" pt_clust_4="66.07690" pt_clust_5="52.23150" pt_clust_6="85.01266"></scales>
<clustering>
<clus scale="   52.231">  1  5  2 -1</clus>
<clus scale="   66.077">  1  4  2 -1</clus>
<clus scale="   85.013">  2  6  1 -1</clus>
<clus scale="   52.231">  1  3  2 -1</clus>
</clustering>
</event>
<event>
 6    0  0.4017242E+002  0.1003993E+03  0.7546771E-02  0.1279458E+00
         21   -1    0    0  503  502  0.00000000000E+00  0.00000000000E+00  0.29937177884E+03  0.29937177884E+03  0.00000000000E+00 0. -1.
          2   -1    0    0  504    0 -0.00000000000E+00 -0.00000000000E+00 -0.12217257159E+04  0.12217257159E+04  0.00000000000E+00 0. -1.
         21    1    1    2  503  505 -0.29993197933E+02  0.45105834536E+02  0.25547688995E+03  0.26115621671E+03  0.00000000000E+00 0. -1.
         21    1    1    2  504  502  0.15098444978E+02 -0.10933569882E+03 -0.16249118251E+03  0.19643228470E+03  0.00000000000E+00 0. -1.
         21    1    1    2  505  501  0.54169540766E+02  0.82784826354E+02 -0.80187949080E+02  0.12734902355E+03  0.00000000000E+00 0. -1.
          2    1    1    2  501    0 -0.39274787811E+02 -0.18554962068E+02 -0.93515169543E+03  0.93615996979E+03  0.00000000000E+00 0. -1.
<scales pt_clust_3="54.23177" pt_clust_4="14000.00000" pt_clust_5="100.39933" pt_clust_6="43.43726"></scales>
<clustering>
<clus scale="   43.437">  2  6  1 -1</clus>
<clus scale="   54.232">  1  3  2 -1</clus>
<clus scale="  100.399">  2  5  1 -1</clus>
<clus scale="   54.232">  1  3  2 -1</clus>
</clustering>
</event>
<event>
 6    0  0.4017242E+002  0.1035345E+03  0.7546771E-02  0.1273034E+00
         -1   -1    0    0    0  501 -0.00000000000E+00  0.00000000000E+00  0.32639307306E+03  0.32639307306E+03  0.00000000000E+00 0.  1.
         21   -1    0    0  503  502  0.00000000000E+00 -0.00000000000E+00 -0.33005956315E+03  0.33005956315E+03  0.00000000000E+00 0. -1.
         21    1    1    2  503  505 -0.38037296520E+02 -0.89383000519E+01 -0.91510454316E+02  0.99503228006E+02  0.00000000000E+00 0. -1.
         21    1    1    2  504  502  0.13339790733E+03 -0.27850891121E+02 -0.19663210506E+03  0.23923807924E+03  0.00000000000E+00 0. -1.
         21    1    1    2  505  501 -0.45271548210E+01  0.32077607057E+02  0.20095001772E+02  0.38121871695E+02  0.00000000000E+00 0. -1.
         -1    1    1    2    0  504 -0.90833455992E+02  0.47115841156E+01  0.26438106752E+03  0.27958945727E+03  0.00000000000E+00 0.  1.
<scales pt_clust_3="39.03639" pt_clust_4="103.53452" pt_clust_5="32.39549" pt_clust_6="14000.00000"></scales>
<clustering>
<clus scale="   32.395">  1  5  2 -1</clus>
<clus scale="   39.036">  2  3  1 -1</clus>
<clus scale="  103.535">  2  4  1 -1</clus>
<clus scale="   39.036">  2  3  1 -1</clus>
</clustering>
</event>
<event>
 6    0  0.4017242E+002  0.6052861E+03  0.7546771E-02  0.9894499E-01
         -1   -1    0    0    0  501 -0.00000000000E+00  0.00000000000E+00  0.33210026019E+04  0.33210026019E+04  0.00000000000E+00 0.  1.
         21   -1    0    0  503  502  0.00000000000E+00 -0.00000000000E+00 -0.31941437162E+03  0.31941437162E+03  0.00000000000E+00 0.  1.
         21    1    1    2  503  505  0.10932774097E+01  0.95288002656E+02 -0.17392773698E+03  0.19832260687E+03  0.00000000000E+00 0.  1.
         21    1    1    2  504  501 -0.16747692648E+02  0.35392213746E+02  0.46038225402E+03  0.46204427690E+03  0.00000000000E+00 0. -1.
         21    1    1    2  505  504  0.40095823812E+02  0.54573001113E+03  0.13380392664E+04  0.14456064467E+04  0.00000000000E+00 0.  1.
         -1    1    1    2    0  502 -0.24441408574E+02 -0.67641022753E+03  0.13770944468E+04  0.15344436431E+04  0.00000000000E+00 0.  1.
<scales pt_clust_3="95.44443" pt_clust_4="39.15474" pt_clust_5="605.28610" pt_clust_6="14000.00000"></scales>
<clustering>
<clus scale="   39.155">  1  4  2 -1</clus>
<clus scale="   95.444">  2  3  1 -1</clus>
<clus scale="  605.286">  1  5  2 -1</clus>
<clus scale="   95.444">  2  3  1 -1</clus>
</clustering>
</event>
<event>
 6    0  0.4017242E+002  0.8676609E+02  0.7546771E-02  0.1310878E+00
          2   -1    0    0  503    0 -0.00000000000E+00  0.00000000000E+00  0.55074076999E+03  0.55074076999E+03  0.00000000000E+00 0. -1.
         21   -1    0    0  505  502  0.00000000000E+00 -0.00000000000E+00 -0.18533160625E+03  0.18533160625E+03  0.00000000000E+00 0.  1.
         21    1    1    2  503  502 -0.34319398221E+02 -0.63583358231E+02 -0.71364770227E+02  0.10155587116E+03  0.00000000000E+00 0.  1.
         21    1    1    2  504  501  0.75086326722E+02 -0.74578382968E+00  0.11053574239E+03  0.13362882548E+03  0.00000000000E+00 0. -1.
         21    1    1    2  505  504 -0.47048805519E+02  0.22181347329E+01 -0.78400727223E+02  0.91461381203E+02  0.00000000000E+00 0.  1.
          2    1    1    2  501    0  0.62818770172E+01  0.62111007328E+02  0.40463891880E+03  0.40942629840E+03  0.00000000000E+00 0. -1.
<scales pt_clust_3="86.76609" pt_clust_4="14000.00000" pt_clust_5="47.10106" pt_clust_6="62.37769"></scales>
<clustering>
<clus scale="   47.101">  2  5  1 -1</clus>
<clus scale="   62.378">  1  6  2 -1</clus>
<clus scale="   86.766">  2  3  1 -1</clus>
<clus scale="   47.101">  2  3  1 -1</clus>
</clustering>
</event>
<event>
 6    0  0.4017242E+002  0.1387630E+03  0.7546771E-02  0.1215003E+00
          2   -1    0    0  504    0 -0.00000000000E+00  0.00000000000E+00  0.13945223269E+03  0.13945223269E+03  0.00000000000E+00 0.  1.
         21   -1    0    0  501  502  0.00000000000E+00 -0.00000000000E+00 -0.45942108187E+03  0.45942108187E+03  0.00000000000E+00 0.  1.
         21    1    1    2  503  505  0.25370719079E+02  0.73698348870E+02 -0.16950225281E+03  0.18656402043E+03  0.00000000000E+00 0.  1.
         21    1    1    2  504  503  0.36300295307E+01 -0.37655611867E+02 -0.24840617976E+01  0.37911644419E+02  0.00000000000E+00 0. -1.
         21    1    1    2  505  502  0.28314997380E+02  0.51196269744E+02 -0.23271296159E+03  0.23995441151E+03  0.00000000000E+00 0.  1.
          2    1    1    2  501    0 -0.57315745990E+02 -0.87239006746E+02  0.84730427008E+02  0.13444323820E+03  0.00000000000E+00 0.  1.
<scales pt_clust_3="35.29962" pt_clust_4="37.83018" pt_clust_5="35.29962" pt_clust_6="132.64655"></scales>
<clustering>
<clus scale="   35.300">  3  5 -1 -1</clus>
<clus scale="   37.830">  1  4  2 -1</clus>
<clus scale="  132.647">  1  6  2 -1</clus>
<clus scale="  138.763">  2  3  1 -1</clus>
</clustering>
</event>
<event>
 6    0  0.4017242E+002  0.9000539E+02  0.7546771E-02  0.1302839E+00
         21   -1    0    0  503  502  0.00000000000E+00  0.00000000000E+00  0.89863158721E+03  0.89863158721E+03  0.00000000000E+00 0.  1.
          2   -1    0    0  504    0 -0.00000000000E+00 -0.00000000000E+00 -0.22489794690E+04  0.22489794690E+04  0.00000000000E+00 0. -1.
         21    1    1    2  503  505 -0.27650332621E+02  0.37161110563E+02  0.75572080969E+03  0.75713897749E+03  0.00000000000E+00 0.  1.
         21    1    1    2  504  502  0.10710708307E+03 -0.36492815388E+02 -0.42909580640E+02  0.12101605236E+03  0.00000000000E+00 0.  1.
         21    1    1    2  505  501 -0.31294397593E+02  0.49751227442E+02  0.94166535873E+02  0.11100387575E+03  0.00000000000E+00 0.  1.
          2    1    1    2  501    0 -0.48162352851E+02 -0.50419522617E+02 -0.21573256467E+04  0.21584521506E+04  0.00000000000E+00 0. -1.
<scales pt_clust_3="46.31942" pt_clust_4="90.00539" pt_clust_5="14000.00000" pt_clust_6="69.69563"></scales>
<clustering>
<clus scale="   46.319">  1  3  2 -1</clus>
<clus scale="   69.696">  2  6  1 -1</clus>
<clus scale="   90.005">  2  4  1 -1</clus>
<clus scale="   46.319">  1  3  2 -1</clus>
</clustering>
</event>
<event>
 6    0  0.4017242E+002  0.1514531E+03  0.7546771E-02  0.1198699E+00
         21   -1    0    0  505  502  0.00000000000E+00  0.00000000000E+00  0.11355091956E+04  0.11355091956E+04  0.00000000000E+00 0. -1.
          1   -1    0    0  503    0 -0.00000000000E+00 -0.00000000000E+00 -0.57053453542E+03  0.57053453542E+03  0.00000000000E+00 0.  1.
         21    1    1    2  503  504 -0.10258634185E+02 -0.50050424985E+02 -0.66554535791E+01  0.51522613276E+02  0.00000000000E+00 0. -1.
         21    1    1    2  504  502  0.92855785109E+02  0.12317976705E+03  0.10980938549E+04  0.11088758118E+04  0.00000000000E+00 0. -1.
         21    1    1    2  505  501 -0.43315146700E+02 -0.57268526294E+02 -0.14467965921E+03  0.16151807895E+03  0.00000000000E+00 0.  1.
          1    1    1    2  501    0 -0.39282004224E+02 -0.15860815767E+02 -0.38178408192E+03  0.38412722702E+03  0.00000000000E+00 0.  1.
<scales pt_clust_3="54.99673" pt_clust_4="151.45312" pt_clust_5="14000.00000" pt_clust_6="42.36321"></scales>
<clustering>
<clus scale="   42.363">  2  6  1 -1</clus>
<clus scale="   54.997">  2  3  1 -1</clus>
<clus scale="  151.453">  1  4  2 -1</clus>
<clus scale="  151.453">  1  3  2 -1</clus>
</clustering>
</event>
<event>
 6    0  0.4017242E+002  0.1267109E+03  0.7546771E-02  0.1232419E+00
          2   -1    0    0  504    0 -0.00000000000E+00  0.00000000000E+00  0.12880779985E+03  0.12880779985E+03  0.00000000000E+00 0.  1.
         21   -1    0    0  503  502  0.00000000000E+00 -0.00000000000E+00 -0.48912807558E+03  0.48912807558E+03  0.00000000000E+00 0.  1.
         21    1    1    2  503  505  0.21750374171E+02 -0.90070936146E+02 -0.29805748266E+03  0.31212836347E+03  0.00000000000E+00 0.  1.
         21    1    1    2  504  502 -0.31783901791E+02  0.78413629478E+02 -0.98343437893E+02  0.12973182138E+03  0.00000000000E+00 0.  1.
         21    1    1    2  505  501  0.66687374822E+01 -0.45400441632E+02 -0.53081471034E+02  0.70166336139E+02  0.00000000000E+00 0. -1.
          2    1    1    2  501    0  0.33647901384E+01  0.57057748300E+02  0.89162115854E+02  0.10590935444E+03  0.00000000000E+00 0.  1.
<scales pt_clust_3="42.75101" pt_clust_4="111.19861" pt_clust_5="42.75101" pt_clust_6="57.15688"></scales>
<clustering>
<clus scale="   42.751">  3  5 -1 -1</clus>
<clus scale="   57.157">  1  6  2 -1</clus>
<clus scale="  111.199">  1  4  2 -1</clus>
<clus scale="  126.711">  2  3  1 -1</clus>
</clustering>
</event>
<event>
 6    0  0.4017242E+002  0.1310324E+03  0.7546771E-02  0.1225932E+00
         -4   -1    0    0    0  501 -0.00000000000E+00  0.00000000000E+00  0.11387369280E+04  0.11387369280E+04  0.00000000000E+00 0. -1.
         21   -1    0    0  501  502  0.00000000000E+00 -0.00000000000E+00 -0.20738837058E+03  0.20738837058E+03  0.00000000000E+00 0. -1.
         21    1    1    2  503  505 -0.17207117941E+02  0.78258856267E+02 -0.51106810583E+02  0.95039147618E+02  0.00000000000E+00 0.  1.
         21    1    1    2  504  503  0.17886628373E+02  0.45464654122E+02 -0.10283576672E+02  0.49927128879E+02  0.00000000000E+00 0. -1.
         21    1    1    2  505  502  0.58713716857E+02 -0.14993474796E+02 -0.91564390022E+02  0.10980046609E+03  0.00000000000E+00 0. -1.
         -4    1    1    2    0  504 -0.59393227289E+02 -0.10873003559E+03  0.10843033347E+04  0.10913585560E+04  0.00000000000E+00 0. -1.
<scales pt_clust_3="34.37943" pt_clust_4="34.37943" pt_clust_5="60.59789" pt_clust_6="123.41398"></scales>
<clustering>
<clus scale="   34.379">  3  4 -1 -1</clus>
<clus scale="   60.598">  2  5  1 -1</clus>
<clus scale="  123.414">  1  6  2 -1</clus>
<clus scale="   60.598">  2  3  1 -1</clus>
</clustering>
</event>
<event>
 6    0  0.4017242E+002  0.8800513E+02  0.7546771E-02  0.1307756E+00
         -3   -1    0    0    0  501 -0.00000000000E+00  0.00000000000E+00  0.46155283234E+02  0.46155283234E+02  0.00000000000E+00 0.  1.
         21   -1    0    0  504  502  0.00000000000E+00 -0.00000000000E+00 -0.60706165627E+03  0.60706165627E+03  0.00000000000E+00 0. -1.
         21    1    1    2  503  505  0.63129142914E+02 -0.61453531726E+02 -0.22814908647E+03  0.24456866296E+03  0.00000000000E+00 0. -1.
         21    1    1    2  504  501 -0.57822926377E+02  0.28431870169E+02 -0.11243381245E+03  0.12958867326E+03  0.00000000000E+00 0.  1.
         21    1    1    2  505  502  0.14024604321E+02 -0.33178916691E+02 -0.20535292680E+03  0.20848826007E+03  0.00000000000E+00 0. -1.
         -3    1    1    2    0  503 -0.19330820858E+02  0.66200578248E+02 -0.14970547311E+02  0.70571343208E+02  0.00000000000E+00 0.  1.
<scales pt_clust_3="31.51117" pt_clust_4="64.43494" pt_clust_5="31.51117" pt_clust_6="72.91312"></scales>
<clustering>
<clus scale="   31.511">  3  5 -1 -1</clus>
<clus scale="   64.435">  2  4  1 -1</clus>
<clus scale="   72.913">  1  6  2 -1</clus>
<clus scale="   64.435">  2  3  1 -1</clus>
</clustering>
</event>
<event>
 6    0  0.4017242E+002  0.1743614E+03  0.7546771E-02  0.1173374E+00
          2   -1    0    0  503    0 -0.00000000000E+00  0.00000000000E+00  0.39205329937E+04  0.39205329937E+04  0.00000000000E+00 0. -1.
         21   -1    0    0  504  502  0.00000000000E+00 -0.00000000000E+00 -0.11686223158E+02  0.11686223158E+02  0.00000000000E+00 0. -1.
         21    1    1    2  503  505 -0.25755047612E+02 -0.36304314019E+02  0.56211853816E+03  0.56387815761E+03  0.00000000000E+00 0.  1.
         21    1    1    2  504  501  0.14469452529E+03 -0.49719505383E+01  0.12174194349E+04  0.12259980858E+04  0.00000000000E+00 0. -1.
         21    1    1    2  505  502 -0.14415304959E+03 -0.31972452545E+02  0.10604217230E+04  0.10706524039E+04  0.00000000000E+00 0. -1.
          2    1    1    2  501    0  0.25213571911E+02  0.73248717103E+02  0.10688870746E+04  0.10716905696E+04  0.00000000000E+00 0. -1.
<scales pt_clust_3="40.80299" pt_clust_4="157.73114" pt_clust_5="40.80299" pt_clust_6="77.46676"></scales>
<clustering>
<clus scale="   40.803">  3  5 -1 -1</clus>
<clus scale="   77.467">  1  6  2 -1</clus>
<clus scale="  157.731">  2  4  1 -1</clus>
<clus scale="  157.731">  2  3  1 -1</clus>
</clustering>
</event>
<event>
 6    0  0.4017242E+002  0.7993823E+02  0.7546771E-02  0.1329227E+00
          2   -1    0    0  505    0 -0.00000000000E+00  0.00000000000E+00  0.58094731668E+03  0.58094731668E+03  0.00000000000E+00 0.  1.
         21   -1    0    0  503  502  0.00000000000E+00 -0.00000000000E+00 -0.64966836882E+02  0.64966836882E+02  0.00000000000E+00 0.  1.
         21    1    1    2  503  501  0.68510753108E+02  0.39037452152E+02 -0.21621822968E+01  0.78881689854E+02  0.00000000000E+00 0.  1.
         21    1    1    2  504  502 -0.25823700686E+02 -0.11730925984E+03  0.23854663411E+03  0.26708205220E+03  0.00000000000E+00 0.  1.
         21    1    1    2  505  504 -0.32300568408E+02  0.15525470032E+02  0.48763979847E+02  0.60516879213E+02  0.00000000000E+00 0. -1.
          2    1    1    2  501    0 -0.10386484014E+02  0.62746337659E+02  0.23083204813E+03  0.23943353229E+03  0.00000000000E+00 0.  1.
<scales pt_clust_3="14000.00000" pt_clust_4="79.93823" pt_clust_5="35.83807" pt_clust_6="73.96984"></scales>
<clustering>
<clus scale="   35.838">  1  5  2 -1</clus>
<clus scale="   73.970">  1  6  2 -1</clus>
<clus scale="   79.938">  1  4  2 -1</clus>
<clus scale="   79.938">  2  3  1 -1</clus>
</clustering>
</event>
<event>
 6    0  0.4017242E+002  0.1339489E+03  0.7546771E-02  0.1221711E+00
          1   -1    0    0  503    0 -0.00000000000E+00  0.00000000000E+00  0.13780449268E+04  0.13780449268E+04  0.00000000000E+00 0.  1.
         21   -1    0    0  501  502  0.00000000000E+00 -0.00000000000E+00 -0.27420196083E+02  0.27420196083E+02  0.00000000000E+00 0.  1.
         21    1    1    2  503  505  0.58854042876E+02 -0.77212458119E+02  0.30346045930E+03  0.31861232307E+03  0.00000000000E+00 0. -1.
         21    1    1    2  504  502  0.27098701291E+02  0.25650448563E+02  0.19918017525E+02  0.42296720266E+02  0.00000000000E+00 0.  1.
         21    1    1    2  505  504 -0.17687949570E+01 -0.39774848643E+02  0.81690235996E+02  0.90876079786E+02  0.00000000000E+00 0.  1.
          1    1    1    2  501    0 -0.84183949209E+02  0.91336858199E+02  0.94555601789E+03  0.95367999975E+03  0.00000000000E+00 0.  1.
<scales pt_clust_3="31.33929" pt_clust_4="37.31334" pt_clust_5="31.33929" pt_clust_6="124.68910"></scales>
<clustering>
<clus scale="   31.339">  3  5 -1 -1</clus>
<clus scale="   37.313">  2  4  1 -1</clus>
<clus scale="  124.689">  1  6  2 -1</clus>
<clus scale="   37.313">  2  3  1 -1</clus>
</clustering>
</event>
<event>
 6    0  0.4017242E+002  0.1700246E+03  0.7546771E-02  0.1177822E+00
          2   -1    0    0  505    0 -0.00000000000E+00  0.00000000000E+00  0.19408619929E+04  0.19408619929E+04  0.00000000000E+00 0.  1.
         21   -1    0    0  503  502  0.00000000000E+00 -0.00000000000E+00 -0.38806032119E+02  0.38806032119E+02  0.00000000000E+00 0. -1.
         21    1    1    2  503  504  0.15290402887E+02  0.54529610551E+02  0.49318285822E+02  0.75097058290E+02  0.00000000000E+00 0. -1.
         21    1    1    2  504  501 -0.25271830295E+02  0.80623675527E+02  0.77128004893E+02  0.11440092482E+03  0.00000000000E+00 0. -1.
         21    1    1    2  505  502  0.11130328723E+02  0.34351767295E+02  0.10608659325E+03  0.11206379166E+03  0.00000000000E+00 0. -1.
          2    1    1    2  501    0 -0.11489013154E+01 -0.16950505337E+03  0.16695230768E+04  0.16781062503E+04  0.00000000000E+00 0.  1.
<scales pt_clust_3="32.28210" pt_clust_4="32.28210" pt_clust_5="36.10995" pt_clust_6="165.38918"></scales>
<clustering>
<clus scale="   32.282">  3  4 -1 -1</clus>
<clus scale="   36.110">  2  5  1 -1</clus>
<clus scale="  165.389">  1  6  2 -1</clus>
<clus scale="   36.110">  2  3  1 -1</clus>
</clustering>
</event>
<event>
 6    0  0.4017242E+002  0.7486707E+02  0.7546771E-02  0.1344283E+00
         21   -1    0    0  503  502  0.00000000000E+00  0.00000000000E+00  0.19669835054E+03  0.19669835054E+03  0.00000000000E+00 0. -1.
         -1   -1    0    0    0  501 -0.00000000000E+00 -0.00000000000E+00 -0.26525313004E+03  0.26525313004E+03  0.00000000000E+00 0.  1.
         21    1    1    2  503  504  0.68116150376E+02  0.14021154866E+02  0.85417246052E+02  0.11014766747E+03  0.00000000000E+00 0. -1.
         21    1    1    2  504  505 -0.81280232681E+02 -0.40155011443E+02  0.31901587646E+02  0.96107296617E+02  0.00000000000E+00 0. -1.
         21    1    1    2  505  501 -0.19952931269E+02 -0.62459369948E+02 -0.27229308281E+02  0.70998081594E+02  0.00000000000E+00 0. -1.
         -1    1    1    2    0  502  0.33117013574E+02  0.88593226525E+02 -0.15864430491E+03  0.18469843490E+03  0.00000000000E+00 0.  1.
<scales pt_clust_3="74.86707" pt_clust_4="14000.00000" pt_clust_5="65.56899" pt_clust_6="42.63783"></scales>
<clustering>
<clus scale="   65.569">  2  5  1 -1</clus>
<clus scale="   42.638">  2  6  1 -1</clus>
<clus scale="   74.867">  1  3  2 -1</clus>
<clus scale="   74.867">  1  3  2 -1</clus>
</clustering>
</event>
<event>
 6    0  0.4017242E+002  0.1460102E+03  0.7546771E-02  0.1205463E+00
         -2   -1    0    0    0  501 -0.00000000000E+00  0.00000000000E+00  0.87242435937E+03  0.87242435937E+03  0.00000000000E+00 0.  1.
         21   -1    0    0  505  502  0.00000000000E+00 -0.00000000000E+00 -0.76501408696E+02  0.76501408696E+02  0.00000000000E+00 0.  1.
         21    1    1    2  503  502  0.54053200974E+02  0.45408046505E+01 -0.12938866674E+02  0.55765416821E+02  0.00000000000E+00 0.  1.
         21    1    1    2  504  501 -0.13632413906E+03 -0.39662177580E+01  0.19177503523E+03  0.23532459691E+03  0.00000000000E+00 0.  1.
         21    1    1    2  505  504 -0.35306306121E+02 -0.21963303443E+02  0.15313240448E+02  0.44310464713E+02  0.00000000000E+00 0. -1.
         -2    1    1    2    0  503  0.11757724421E+03  0.21388716550E+02  0.60177354167E+03  0.61352528962E+03  0.00000000000E+00 0.  1.
<scales pt_clust_3="54.24359" pt_clust_4="39.74355" pt_clust_5="39.74355" pt_clust_6="127.03590"></scales>
<clustering>
<clus scale="   39.744">  4  5 -1 -1</clus>
<clus scale="   54.244">  2  3  1 -1</clus>
<clus scale="  127.036">  1  6  2 -1</clus>
<clus scale="   54.244">  2  3  1 -1</clus>
</clustering>
</event>
<event>
 6    0  0.4017242E+002  0.2818639E+03  0.7546771E-02  0.1094675E+00
          2   -1    0    0  505    0 -0.00000000000E+00  0.00000000000E+00  0.46298581841E+04  0.46298581841E+04  0.00000000000E+00 0. -1.
         21   -1    0    0  504  502  0.00000000000E+00 -0.00000000000E+00 -0.88433031711E+02  0.88433031711E+02  0.00000000000E+00 0.  1.
         21    1    1    2  503  502  0.11308683631E+03  0.38479199340E+02  0.64142264732E+02  0.13558580845E+03  0.00000000000E+00 0.  1.
         21    1    1    2  504  501 -0.13544499289E+03 -0.96501692738E+02  0.98074196370E+03  0.99474254065E+03  0.00000000000E+00 0.  1.
         21    1    1    2  505  503  0.66880230600E+02  0.17154368920E+03  0.14541269741E+03  0.23461682616E+03  0.00000000000E+00 0.  1.
          2    1    1    2  501    0 -0.44522074021E+02 -0.11352119581E+03  0.33511282266E+04  0.33533460406E+04  0.00000000000E+00 0. -1.
<scales pt_clust_3="103.89937" pt_clust_4="250.61581" pt_clust_5="103.89937" pt_clust_6="121.93964"></scales>
<clustering>
<clus scale="  103.899">  3  5 -1 -1</clus>
<clus scale="  121.940">  1  6  2 -1</clus>
<clus scale="  250.616">  1  4  2 -1</clus>
<clus scale="  281.864">  2  3  1 -1</clus>
</clustering>
</event>
<event>
 6    0  0.4017242E+002  0.1212679E+03  0.7546771E-02  0.1241020E+00
         21   -1    0    0  501  502  0.00000000000E+00  0.00000000000E+00  0.22152208005E+03  0.22152208005E+03  0.00000000000E+00 0.  1.
          1   -1    0    0  504    0 -0.00000000000E+00 -0.00000000000E+00 -0.12708878329E+04  0.12708878329E+04  0.00000000000E+00 0. -1.
         21    1    1    2  503  505 -0.57508597273E+02  0.15995248759E+02 -0.34211243414E+03  0.34728087240E+03  0.00000000000E+00 0. -1.
         21    1    1    2  504  503 -0.27621468263E+02  0.38190444921E+02 -0.52104780503E+03  0.52317518168E+03  0.00000000000E+00 0. -1.
         21    1    1    2  505  502 -0.67302427186E+02 -0.13720333279E+02  0.19642866673E+03  0.20809153122E+03  0.00000000000E+00 0.  1.
          1    1    1    2  501    0  0.15243249272E+03 -0.40465360401E+02 -0.38263418039E+03  0.41386232763E+03  0.00000000000E+00 0. -1.
<scales pt_clust_3="44.11688" pt_clust_4="44.11688" pt_clust_5="68.68671" pt_clust_6="110.63892"></scales>
<clustering>
<clus scale="   44.117">  3  4 -1 -1</clus>
<clus scale="   68.687">  1  5  2 -1</clus>
<clus scale="  110.639">  1  6  2 -1</clus>
<clus scale="   68.687">  1  3  2 -1</clus>
</clustering>
</event>
<event>
 6    0  0.4017242E+002  0.1420000E+03  0.7546771E-02  0.1210663E+00
          1   -1    0    0  503    0 -0.00000000000E+00  0.00000000000E+00  0.76722902958E+03  0.76722902958E+03  0.00000000000E+00 0.  1.
         21   -1    0    0  504  502  0.00000000000E+00 -0.00000000000E+00 -0.40609182789E+03  0.40609182789E+03  0.00000000000E+00 0. -1.
         21    1    1    2  503  502 -0.96297674574E+01  0.73197575242E+02 -0.10361517712E+03  0.12722705047E+03  0.00000000000E+00 0. -1.
         21    1    1    2  504  505 -0.15431083157E+03 -0.18958175176E+02 -0.20134388772E+03  0.25438279475E+03  0.00000000000E+00 0. -1.
         21    1    1    2  505  501  0.10983445315E+03  0.44863463790E+02  0.25961018143E+01  0.11867214175E+03  0.00000000000E+00 0. -1.
          1    1    1    2  501    0  0.54106145874E+02 -0.99102863856E+02  0.66350016470E+03  0.67303887050E+03  0.00000000000E+00 0.  1.
<scales pt_clust_3="73.82830" pt_clust_4="142.00002" pt_clust_5="14000.00000" pt_clust_6="111.78180"></scales>
<clustering>
<clus scale="   73.828">  2  3  1 -1</clus>
<clus scale="  111.782">  1  6  2 -1</clus>
<clus scale="  142.000">  2  4  1 -1</clus>
<clus scale="   73.828">  2  3  1 -1</clus>
</clustering>
</event>
<event>
 6    0  0.4017242E+002  0.1436428E+03  0.7546771E-02  0.1208510E+00
         21   -1    0    0  501  502  0.00000000000E+00  0.00000000000E+00  0.24880446053E+04  0.24880446053E+04  0.00000000000E+00 0. -1.
         -2   -1    0    0    0  501 -0.00000000000E+00 -0.00000000000E+00 -0.39057804013E+02  0.39057804013E+02  0.00000000000E+00 0.  1.
         21    1    1    2  503  505  0.87053635940E+02 -0.11451894220E+03  0.82730395102E+03  0.83971706606E+03  0.00000000000E+00 0.  1.
         21    1    1    2  504  503 -0.66510724583E+02 -0.19237353717E+02  0.30230409657E+03  0.31013145449E+03  0.00000000000E+00 0.  1.
         21    1    1    2  505  502  0.23828823201E+02  0.16335713301E+03  0.13132251662E+04  0.13235609933E+04  0.00000000000E+00 0. -1.
         -2    1    1    2    0  504 -0.44371734558E+02 -0.29600837089E+02  0.61535874419E+01  0.53692895457E+02  0.00000000000E+00 0.  1.
<scales pt_clust_3="143.64280" pt_clust_4="82.35730" pt_clust_5="14000.00000" pt_clust_6="53.33911"></scales>
<clustering>
<clus scale="   53.339">  2  6  1 -1</clus>
<clus scale="   82.357">  2  4  1 -1</clus>
<clus scale="  143.643">  2  3  1 -1</clus>
<clus scale="  143.643">  1  3  2 -1</clus>
</clustering>
</event>
<event>
 6    0  0.4017242E+002  0.1213363E+03  0.7546771E-02  0.1240909E+00
          2   -1    0    0  505    0 -0.00000000000E+00  0.00000000000E+00  0.26685283673E+03  0.26685283673E+03  0.00000000000E+00 0. -1.
         21   -1    0    0  504  502  0.00000000000E+00 -0.00000000000E+00 -0.30406864004E+03  0.30406864004E+03  0.00000000000E+00 0. -1.
         21    1    1    2  503  501  0.12973962251E+02 -0.74332866023E+02 -0.22496308333E+02  0.78738697960E+02  0.00000000000E+00 0. -1.
         21    1    1    2  504  503 -0.12303155391E+03  0.57481227895E+02 -0.11457564570E+03  0.17767507818E+03  0.00000000000E+00 0. -1.
         21    1    1    2  505  502  0.10947716555E+03 -0.15796642660E+02 -0.76928776687E+02  0.13473240285E+03  0.00000000000E+00 0. -1.
          2    1    1    2  501    0  0.58042611354E+00  0.32648280788E+02  0.17678492741E+03  0.17977529778E+03  0.00000000000E+00 0. -1.
<scales pt_clust_3="65.30660" pt_clust_4="14000.00000" pt_clust_5="121.33627" pt_clust_6="32.65344"></scales>
<clustering>
<clus scale="   32.653">  1  6  2 -1</clus>
<clus scale="   65.307">  1  3  2 -1</clus>
<clus scale="  121.336">  2  5  1 -1</clus>
<clus scale="  121.336">  2  3  1 -1</clus>
</clustering>
</event>
<event>
 6    0  0.4017242E+002  0.1342740E+03  0.7546771E-02  0.1221248E+00
          1   -1    0    0  505    0 -0.00000000000E+00  0.00000000000E+00  0.60241053258E+03  0.60241053258E+03  0.00000000000E+00 0.  1.
         21   -1    0    0  503  502  0.00000000000E+00 -0.00000000000E+00 -0.25472808053E+03  0.25472808053E+03  0.00000000000E+00 0. -1.
         21    1    1    2  503  501 -0.35233765939E+02 -0.30105991199E+02 -0.19060002547E+03  0.19615340598E+03  0.00000000000E+00 0. -1.
         21    1    1    2  504  502  0.29372129089E+02  0.10976245444E+02 -0.66792065670E+01  0.32059502985E+02  0.00000000000E+00 0. -1.
         21    1    1    2  505  504  0.11352957585E+03 -0.30140706916E+02  0.64331237434E+02  0.13392510936E+03  0.00000000000E+00 0. -1.
          1    1    1    2  501    0 -0.10766793900E+03  0.49270452671E+02  0.48063044665E+03  0.49500059479E+03  0.00000000000E+00 0.  1.
<scales pt_clust_3="46.34424" pt_clust_4="30.29874" pt_clust_5="30.29874" pt_clust_6="120.79129"></scales>
<clustering>
<clus scale="   30.299">  4  5 -1 -1</clus>
<clus scale="   46.344">  2  3  1 -1</clus>
<clus scale="  120.791">  1  6  2 -1</clus>
<clus scale="   46.344">  2  3  1 -1</clus>
</clustering>
</event>
<event>
 6    0  0.4017242E+002  0.9903532E+02  0.7546771E-02  0.1282338E+00
          2   -1    0    0  503    0 -0.00000000000E+00  0.00000000000E+00  0.15438186278E+04  0.15438186278E+04  0.00000000000E+00 0. -1.
         21   -1    0    0  504  502  0.00000000000E+00 -0.00000000000E+00 -0.88435212449E+03  0.88435212449E+03  0.00000000000E+00 0.  1.
         21    1    1    2  503  505  0.63766903624E+02 -0.20529190378E+01 -0.59892994948E+02  0.87507732905E+02  0.00000000000E+00 0.  1.
         21    1    1    2  504  501 -0.10144057555E+03 -0.32182159518E+02 -0.68093143461E+03  0.68919772228E+03  0.00000000000E+00 0.  1.
         21    1    1    2  505  502  0.29030887656E+01 -0.58579468015E+02 -0.11703323619E+03  0.13090744964E+03  0.00000000000E+00 0.  1.
          2    1    1    2  501    0  0.34770583160E+02  0.92814546570E+02  0.15173241690E+04  0.15205578474E+04  0.00000000000E+00 0. -1.
<scales pt_clust_3="64.51316" pt_clust_4="14000.00000" pt_clust_5="58.65136" pt_clust_6="99.03532"></scales>
<clustering>
<clus scale="   58.651">  2  5  1 -1</clus>
<clus scale="   64.513">  2  3  1 -1</clus>
<clus scale="   99.035">  1  6  2 -1</clus>
<clus scale="   58.651">  2  3  1 -1</clus>
</clustering>
</event>
<event>
 6    0  0.4017242E+002  0.1131080E+03  0.7546771E-02  0.1254920E+00
          2   -1    0    0  504    0 -0.00000000000E+00  0.00000000000E+00  0.26249364528E+03  0.26249364528E+03  0.00000000000E+00 0. -1.
         21   -1    0    0  503  502  0.00000000000E+00 -0.00000000000E+00 -0.52051068574E+03  0.52051068574E+03  0.00000000000E+00 0.  1.
         21    1    1    2  503  505  0.50712969284E+02 -0.42337130132E+02 -0.36470387290E+03  0.37063884409E+03  0.00000000000E+00 0.  1.
         21    1    1    2  504  502  0.64060277048E+02 -0.21356786289E+02 -0.10977733368E+03  0.12888325882E+03  0.00000000000E+00 0.  1.
         21    1    1    2  505  501 -0.70752719938E+02  0.47971465111E+02  0.28983484378E+02  0.90262125004E+02  0.00000000000E+00 0. -1.
          2    1    1    2  501    0 -0.44020526394E+02  0.15722451310E+02  0.18748068173E+03  0.19322010310E+03  0.00000000000E+00 0. -1.
<scales pt_clust_3="14000.00000" pt_clust_4="61.33838" pt_clust_5="113.10801" pt_clust_6="46.74401"></scales>
<clustering>
<clus scale="   46.744">  1  6  2 -1</clus>
<clus scale="   61.338">  2  4  1 -1</clus>
<clus scale="  113.108">  1  5  2 -1</clus>
<clus scale="   61.338">  2  3  1 -1</clus>
</clustering>
</event>
<event>
 6    0  0.4017242E+002  0.1798149E+03  0.7546771E-02  0.1167982E+00
         21   -1    0    0  505  502  0.00000000000E+00  0.00000000000E+00  0.15071845225E+03  0.15071845225E+03  0.00000000000E+00 0. -1.
          2   -1    0    0  504    0 -0.00000000000E+00 -0.00000000000E+00 -0.28749478925E+04  0.28749478925E+04  0.00000000000E+00 0. -1.
         21    1    1    2  503  501 -0.13238633728E+03 -0.10976640811E+03 -0.59696210178E+03  0.62123953320E+03  0.00000000000E+00 0. -1.
         21    1    1    2  504  502  0.12408669251E+03  0.14055704758E+03 -0.80732286465E+03  0.82880878294E+03  0.00000000000E+00 0. -1.
         21    1    1    2  505  503 -0.23294187502E+02 -0.26860644337E+02  0.12518592952E+03  0.13013696760E+03  0.00000000000E+00 0. -1.
          2    1    1    2  501    0  0.31593832271E+02 -0.39299951325E+01 -0.14451304033E+04  0.14454810610E+04  0.00000000000E+00 0. -1.
<scales pt_clust_3="179.81494" pt_clust_4="14000.00000" pt_clust_5="35.52370" pt_clust_6="31.83732"></scales>
<clustering>
<clus scale="   31.837">  2  6  1 -1</clus>
<clus scale="   35.524">  1  5  2 -1</clus>
<clus scale="  179.815">  2  3  1 -1</clus>
<clus scale="   35.524">  1  3  2 -1</clus>
</clustering>
</event>
<event>
 6    0  0.4017242E+002  0.6884980E+02  0.7546771E-02  0.1364049E+00
          2   -1    0    0  503    0 -0.00000000000E+00  0.00000000000E+00  0.64091439863E+03  0.64091439863E+03  0.00000000000E+00 0. -1.
         21   -1    0    0  505  502  0.00000000000E+00 -0.00000000000E+00 -0.11790501401E+03  0.11790501401E+03  0.00000000000E+00 0. -1.
         21    1    1    2  503  502 -0.54563332276E+02  0.61376185125E+02 -0.36401794476E+02  0.89829193310E+02  0.00000000000E+00 0. -1.
         21    1    1    2  504  501  0.46015314852E+02 -0.30735204696E+00  0.23614364946E+02  0.51721773926E+02  0.00000000000E+00 0. -1.
         21    1    1    2  505  504 -0.34437332564E+02 -0.73190500425E+02  0.12887348734E+01  0.80897713590E+02  0.00000000000E+00 0. -1.
          2    1    1    2  501    0  0.42985349988E+02  0.12121667347E+02  0.53450807928E+03  0.53637073181E+03  0.00000000000E+00 0. -1.
<scales pt_clust_3="14000.00000" pt_clust_4="61.49822" pt_clust_5="68.84980" pt_clust_6="44.66179"></scales>
<clustering>
<clus scale="   44.662">  1  6  2 -1</clus>
<clus scale="   61.498">  1  4  2 -1</clus>
<clus scale="   68.850">  1  5  2 -1</clus>
<clus scale="   68.850">  2  3  1 -1</clus>
</clustering>
</event>
<event>
 6    0  0.4017242E+002  0.1372841E+03  0.7546771E-02  0.1217031E+00
         -1   -1    0    0    0  501 -0.00000000000E+00  0.00000000000E+00  0.77886913517E+03  0.77886913517E+03  0.00000000000E+00 0. -1.
         21   -1    0    0  505  502  0.00000000000E+00 -0.00000000000E+00 -0.58420430857E+02  0.58420430857E+02  0.00000000000E+00 0. -1.
         21    1    1    2  503  504 -0.45966972837E+02 -0.17643624720E+02  0.58924737782E+02  0.76787920976E+02  0.00000000000E+00 0. -1.
         21    1    1    2  504  501 -0.58262272525E+02  0.27225889984E+02  0.14415665611E+03  0.15785082510E+03  0.00000000000E+00 0. -1.
         21    1    1    2  505  503 -0.29396185741E+02  0.30810910187E+02 -0.20286615589E+02  0.47169849424E+02  0.00000000000E+00 0. -1.
         -1    1    1    2    0  502  0.13362543110E+03 -0.40393175451E+02  0.53765392601E+03  0.55548097053E+03  0.00000000000E+00 0. -1.
<scales pt_clust_3="46.45777" pt_clust_4="46.45777" pt_clust_5="42.58460" pt_clust_6="126.44837"></scales>
<clustering>
<clus scale="   42.585">  2  5  1 -1</clus>
<clus scale="   46.458">  3  4 -1 -1</clus>
<clus scale="  126.448">  1  6  2 -1</clus>
<clus scale="   42.585">  2  3  1 -1</clus>
</clustering>
</event>
<event>
 6    0  0.4017242E+002  0.1011634E+03  0.7546771E-02  0.1277868E+00
          1   -1    0    0  503    0 -0.00000000000E+00  0.00000000000E+00  0.10414550162E+04  0.10414550162E+04  0.00000000000E+00 0. -1.
         21   -1    0    0  501  502  0.00000000000E+00 -0.00000000000E+00 -0.18801650047E+03  0.18801650047E+03  0.00000000000E+00 0.  1.
         21    1    1    2  503  504 -0.31144050314E+02  0.42861227210E+02  0.11767367099E+03  0.12905087955E+03  0.00000000000E+00 0. -1.
         21    1    1    2  504  505 -0.83201189485E+02  0.51394399473E+01  0.11676719253E+03  0.14346926161E+03  0.00000000000E+00 0. -1.
         21    1    1    2  505  502  0.10196615072E+03 -0.17047937883E+02 -0.15277088367E+03  0.18446319680E+03  0.00000000000E+00 0.  1.
          1    1    1    2  501    0  0.12379089081E+02 -0.30952729275E+02  0.77176853587E+03  0.77248817872E+03  0.00000000000E+00 0. -1.
<scales pt_clust_3="38.36239" pt_clust_4="14000.00000" pt_clust_5="101.16337" pt_clust_6="33.33637"></scales>
<clustering>
<clus scale="   33.336">  1  6  2 -1</clus>
<clus scale="   38.362">  1  3  2 -1</clus>
<clus scale="  101.163">  2  5  1 -1</clus>
<clus scale="  101.163">  2  3  1 -1</clus>
</clustering>
</event>
<event>
 6    0  0.4017242E+002  0.2047007E+03  0.7546771E-02  0.1145833E+00
         21   -1    0    0  504  502  0.00000000000E+00  0.00000000000E+00  0.62567638603E+03  0.62567638603E+03  0.00000000000E+00 0.  1.
          4   -1    0    0  505    0 -0.00000000000E+00 -0.00000000000E+00 -0.39069909575E+03  0.39069909575E+03  0.00000000000E+00 0.  1.
         21    1    1    2  503  502 -0.26318007571E+02 -0.20002105213E+02  0.82316519491E+02  0.88705868558E+02  0.00000000000E+00 0. -1.
         21    1    1    2  504  501  0.10170661808E+03  0.21268895110E+03  0.43610389814E+03  0.49574936818E+03  0.00000000000E+00 0.  1.
         21    1    1    2  505  503  0.35619475672E+02 -0.96114338831E+02  0.10670064696E+02  0.10305611800E+03  0.00000000000E+00 0.  1.
          4    1    1    2  501    0 -0.11100808618E+03 -0.96572507054E+02 -0.29411319205E+03  0.32886412704E+03  0.00000000000E+00 0.  1.
<scales pt_clust_3="33.05634" pt_clust_4="14000.00000" pt_clust_5="103.56744" pt_clust_6="204.70068"></scales>
<clustering>
<clus scale="   33.056">  1  3  2 -1</clus>
<clus scale="  103.567">  2  5  1 -1</clus>
<clus scale="  204.701">  2  6  1 -1</clus>
<clus scale="   33.056">  1  3  2 -1</clus>
</clustering>
</event>
<event>
 6    0  0.4017242E+002  0.1271503E+03  0.7546771E-02  0.1231747E+00
         21   -1    0    0  504  502  0.00000000000E+00  0.00000000000E+00  0.62846582245E+03  0.62846582245E+03  0.00000000000E+00 0.  1.
          2   -1    0    0  505    0 -0.00000000000E+00 -0.00000000000E+00 -0.21971602649E+03  0.21971602649E+03  0.00000000000E+00 0. -1.
         21    1    1    2  503  502 -0.58967913839E+02  0.19508973881E+02  0.50790628486E+03  0.51168995410E+03  0.00000000000E+00 0.  1.
         21    1    1    2  504  501  0.15913546057E+02 -0.29556649389E+02  0.32026833561E+02  0.46395630604E+02  0.00000000000E+00 0.  1.
         21    1    1    2  505  503 -0.88014507611E+02 -0.56531599633E+02 -0.21789973696E+02  0.10685119681E+03  0.00000000000E+00 0. -1.
          2    1    1    2  501    0  0.13106887539E+03  0.66579275141E+02 -0.10939334877E+03  0.18324506741E+03  0.00000000000E+00 0. -1.
<scales pt_clust_3="45.60490" pt_clust_4="33.56838" pt_clust_5="127.15027" pt_clust_6="14000.00000"></scales>
<clustering>
<clus scale="   33.568">  1  4  2 -1</clus>
<clus scale="   45.605">  1  3  2 -1</clus>
<clus scale="  127.150">  1  5  2 -1</clus>
<clus scale="   33.568">  1  3  2 -1</clus>
</clustering>
</event>
<event>
 6    0  0.4017242E+002  0.2697189E+03  0.7546771E-02  0.1101441E+00
         21   -1    0    0  505  502  0.00000000000E+00  0.00000000000E+00  0.27101184029E+03  0.27101184029E+03  0.00000000000E+00 0.  1.
          2   -1    0    0  504    0 -0.00000000000E+00 -0.00000000000E+00 -0.12005872051E+04  0.12005872051E+04  0.00000000000E+00 0. -1.
         21    1    1    2  503  501 -0.14356222359E+03  0.16622684480E+03  0.13863228926E+03  0.25973137585E+03  0.00000000000E+00 0.  1.
         21    1    1    2  504  502  0.16729926101E+02  0.38103538144E+02 -0.32143860981E+01  0.41738499307E+02  0.00000000000E+00 0.  1.
         21    1    1    2  505  503 -0.34981659203E+02 -0.19601119772E+01  0.29241000823E+02  0.45635453856E+02  0.00000000000E+00 0. -1.
          2    1    1    2  501    0  0.16181395669E+03 -0.20237027096E+03 -0.10942342688E+04  0.11244937164E+04  0.00000000000E+00 0. -1.
<scales pt_clust_3="31.46376" pt_clust_4="41.61454" pt_clust_5="31.46376" pt_clust_6="257.95792"></scales>
<clustering>
<clus scale="   31.464">  3  5 -1 -1</clus>
<clus scale="   41.615">  1  4  2 -1</clus>
<clus scale="  257.958">  2  6  1 -1</clus>
<clus scale="   41.615">  1  3  2 -1</clus>
</clustering>
</event>
<event>
 6    0  0.4017242E+002  0.1848304E+03  0.7546771E-02  0.1163208E+00
         21   -1    0    0  505  502  0.00000000000E+00  0.00000000000E+00  0.20328466421E+03  0.20328466421E+03  0.00000000000E+00 0.  1.
          2   -1    0    0  503    0 -0.00000000000E+00 -0.00000000000E+00 -0.54427972067E+03  0.54427972067E+03  0.00000000000E+00 0. -1.
         21    1    1    2  503  502  0.16591139999E+02 -0.57260004859E+02 -0.27359669456E+02  0.65593639903E+02  0.00000000000E+00 0. -1.
         21    1    1    2  504  501  0.16271980264E+03 -0.28823002406E+02  0.31270750476E+02  0.16818549128E+03  0.00000000000E+00 0.  1.
         21    1    1    2  505  504  0.39382318377E+01  0.39589643853E+02  0.57070942248E+02  0.69569691817E+02  0.00000000000E+00 0.  1.
          2    1    1    2  501    0 -0.18324917448E+03  0.46493363412E+02 -0.40197707973E+03  0.44421556189E+03  0.00000000000E+00 0. -1.
<scales pt_clust_3="54.60864" pt_clust_4="14000.00000" pt_clust_5="39.78504" pt_clust_6="184.83036"></scales>
<clustering>
<clus scale="   39.785">  1  5  2 -1</clus>
<clus scale="   54.609">  1  3  2 -1</clus>
<clus scale="  184.830">  2  6  1 -1</clus>
<clus scale="   39.785">  1  3  2 -1</clus>
</clustering>
</event>
<event>
 6    0  0.4017242E+002  0.6816843E+02  0.7546771E-02  0.1366435E+00
          2   -1    0    0  505    0 -0.00000000000E+00  0.00000000000E+00  0.49838164087E+03  0.49838164087E+03  0.00000000000E+00 0. -1.
         21   -1    0    0  504  502  0.00000000000E+00 -0.00000000000E+00 -0.70049787438E+03  0.70049787438E+03  0.00000000000E+00 0. -1.
         21    1    1    2  503  502  0.48878436485E+02 -0.49248520818E+02 -0.50243459845E+03  0.50720315858E+03  0.00000000000E+00 0. -1.
         21    1    1    2  504  501  0.46688614555E+00  0.81936252097E+02 -0.12293891663E+03  0.14774215584E+03  0.00000000000E+00 0. -1.
         21    1    1    2  505  503 -0.17073334828E+02 -0.74586247010E+02 -0.33928021060E+02  0.83700164984E+02  0.00000000000E+00 0. -1.
          2    1    1    2  501    0 -0.32271987803E+02  0.41898515732E+02  0.45718530262E+03  0.46023403584E+03  0.00000000000E+00 0. -1.
<scales pt_clust_3="68.16843" pt_clust_4="14000.00000" pt_clust_5="61.03946" pt_clust_6="52.88636"></scales>
<clustering>
<clus scale="   52.886">  1  6  2 -1</clus>
<clus scale="   61.039">  1  5  2 -1</clus>
<clus scale="   68.168">  2  3  1 -1</clus>
<clus scale="   68.168">  2  3  1 -1</clus>
</clustering>
</event>
<event>
 6    0  0.4017242E+002  0.1445668E+03  0.7546771E-02  0.1207313E+00
          2   -1    0    0  504    0 -0.00000000000E+00  0.00000000000E+00  0.25976913003E+04  0.25976913003E+04  0.00000000000E+00 0.  1.
         21   -1    0    0  503  502  0.00000000000E+00 -0.00000000000E+00 -0.60558149793E+02  0.60558149793E+02  0.00000000000E+00 0.  1.
         21    1    1    2  503  501  0.71492766571E+01  0.40498412131E+02  0.16390498883E+03  0.16898543992E+03  0.00000000000E+00 0.  1.
         21    1    1    2  504  505  0.10407113024E+03 -0.16123332128E+03  0.10784206102E+04  0.10953620390E+04  0.00000000000E+00 0.  1.
         21    1    1    2  505  502 -0.28137100406E+02  0.23517911843E+02 -0.39257854798E+02  0.53721204008E+02  0.00000000000E+00 0.  1.
          2    1    1    2  501    0 -0.83083306489E+02  0.97216997304E+02  0.13340654063E+04  0.13401807672E+04  0.00000000000E+00 0.  1.
<scales pt_clust_3="44.79260" pt_clust_4="144.56677" pt_clust_5="36.67136" pt_clust_6="14000.00000"></scales>
<clustering>
<clus scale="   36.671">  2  5  1 -1</clus>
<clus scale="   44.793">  2  3  1 -1</clus>
<clus scale="  144.567">  2  4  1 -1</clus>
<clus scale="   36.671">  2  3  1 -1</clus>
</clustering>
</event>
<event>
 6    0  0.4017242E+002  0.1154002E+03  0.7546771E-02  0.1250884E+00
          1   -1    0    0  503    0 -0.00000000000E+00  0.00000000000E+00  0.10068746479E+04  0.10068746479E+04  0.00000000000E+00 0.  1.
         21   -1    0    0  504  502  0.00000000000E+00 -0.00000000000E+00 -0.13074073629E+04  0.13074073629E+04  0.00000000000E+00 0. -1.
         21    1    1    2  503  505  0.29968517458E+02 -0.57225444297E+01  0.53195421344E+02  0.61323832278E+02  0.00000000000E+00 0. -1.
         21    1    1    2  504  501  0.81443854274E+02  0.13164895992E+03  0.53529523832E+03  0.55723024166E+03  0.00000000000E+00 0.  1.
         21    1    1    2  505  502 -0.85540115551E+02 -0.77226368411E+02 -0.12879057973E+04  0.12930515713E+04  0.00000000000E+00 0. -1.
          1    1    1    2  501    0 -0.25872256180E+02 -0.48700047081E+02  0.39888242267E+03  0.40267636551E+03  0.00000000000E+00 0.  1.
<scales pt_clust_3="30.50999" pt_clust_4="115.40021" pt_clust_5="14000.00000" pt_clust_6="52.79815"></scales>
<clustering>
<clus scale="   30.510">  1  3  2 -1</clus>
<clus scale="   52.798">  1  6  2 -1</clus>
<clus scale="  115.400">  1  4  2 -1</clus>
<clus scale="  115.400">  2  3  1 -1</clus>
</clustering>
</event>
<event>
 6    0  0.4017242E+002  0.1297667E+03  0.7546771E-02  0.1227802E+00
         21   -1    0    0  504  502  0.00000000000E+00  0.00000000000E+00  0.26189592225E+04  0.26189592225E+04  0.00000000000E+00 0. -1.
         -2   -1    0    0    0  501 -0.00000000000E+00 -0.00000000000E+00 -0.31377936581E+03  0.31377936581E+03  0.00000000000E+00 0. -1.
         21    1    1    2  503  505  0.17664830912E+03 -0.57109970992E+02  0.51296468456E+02  0.19260711715E+03  0.00000000000E+00 0.  1.
         21    1    1    2  504  501 -0.15536118588E+02  0.47523801789E+02  0.37402351703E+02  0.62440520739E+02  0.00000000000E+00 0.  1.
         21    1    1    2  505  502 -0.67128821766E+02  0.30243026378E+02  0.24364672703E+04  0.24375794713E+04  0.00000000000E+00 0. -1.
         -2    1    1    2    0  503 -0.93983368768E+02 -0.20656857175E+02 -0.21998623381E+03  0.24011147915E+03  0.00000000000E+00 0. -1.
<scales pt_clust_3="129.76674" pt_clust_4="49.99883" pt_clust_5="73.68911" pt_clust_6="14000.00000"></scales>
<clustering>
<clus scale="   49.999">  2  4  1 -1</clus>
<clus scale="   73.689">  1  5  2 -1</clus>
<clus scale="  129.767">  1  3  2 -1</clus>
<clus scale="   73.689">  1  3  2 -1</clus>
</clustering>
</event>
<event>
 6    0  0.4017242E+002  0.1329920E+03  0.7546771E-02  0.1223083E+00
          2   -1    0    0  504    0 -0.00000000000E+00  0.00000000000E+00  0.23448219685E+04  0.23448219685E+04  0.00000000000E+00 0.  1.
         21   -1    0    0  501  502  0.00000000000E+00 -0.00000000000E+00 -0.49535733698E+02  0.49535733698E+02  0.00000000000E+00 0. -1.
         21    1    1    2  503  502  0.28842978820E+02 -0.60907541550E+02 -0.81439633268E+01  0.67882031374E+02  0.00000000000E+00 0. -1.
         21    1    1    2  504  505 -0.19818446825E+02 -0.24319579936E+02  0.10790986586E+03  0.11237772000E+03  0.00000000000E+00 0.  1.
         21    1    1    2  505  503 -0.53960143261E+02 -0.86069449552E+02  0.10592598951E+04  0.10641199052E+04  0.00000000000E+00 0.  1.
          2    1    1    2  501    0  0.44935611265E+02  0.17129657104E+03  0.11362604371E+04  0.11499780456E+04  0.00000000000E+00 0.  1.
<scales pt_clust_3="67.57321" pt_clust_4="31.37217" pt_clust_5="14000.00000" pt_clust_6="132.99198"></scales>
<clustering>
<clus scale="   31.372">  1  4  2 -1</clus>
<clus scale="   67.573">  2  3  1 -1</clus>
<clus scale="  132.992">  2  6  1 -1</clus>
<clus scale="   67.573">  2  3  1 -1</clus>
</clustering>
</event>
<event>
 6    0  0.4017242E+002  0.1217853E+03  0.7546771E-02  0.1240181E+00
          2   -1    0    0  504    0 -0.00000000000E+00  0.00000000000E+00  0.22325746646E+03  0.22325746646E+03  0.00000000000E+00 0.  1.
         21   -1    0    0  503  502  0.00000000000E+00 -0.00000000000E+00 -0.55660175159E+03  0.55660175159E+03  0.00000000000E+00 0.  1.
         21    1    1    2  503  505 -0.69734754305E+01  0.41854669030E+02 -0.41060150035E+03  0.41278812334E+03  0.00000000000E+00 0.  1.
         21    1    1    2  504  502  0.58724365395E+02 -0.12027318993E+02  0.12228178175E+02  0.61177903157E+02  0.00000000000E+00 0.  1.
         21    1    1    2  505  501  0.80721404909E+02 -0.37306301496E+02 -0.72543833338E+02  0.11476198455E+03  0.00000000000E+00 0.  1.
          2    1    1    2  501    0 -0.13247229487E+03  0.74789514599E+01  0.13757287039E+03  0.19113120701E+03  0.00000000000E+00 0.  1.
<scales pt_clust_3="42.43162" pt_clust_4="57.75973" pt_clust_5="121.78532" pt_clust_6="14000.00000"></scales>
<clustering>
<clus scale="   42.432">  2  3  1 -1</clus>
<clus scale="   57.760">  2  4  1 -1</clus>
<clus scale="  121.785">  2  5  1 -1</clus>
<clus scale="   42.432">  2  3  1 -1</clus>
</clustering>
</event>
<event>
 6    0  0.4017242E+002  0.1663748E+03  0.7546771E-02  0.1181682E+00
          2   -1    0    0  503    0 -0.00000000000E+00  0.00000000000E+00  0.12927243777E+03  0.12927243777E+03  0.00000000000E+00 0.  1.
         21   -1    0    0  504  502  0.00000000000E+00 -0.00000000000E+00 -0.93179803539E+03  0.93179803539E+03  0.00000000000E+00 0.  1.
         21    1    1    2  503  502 -0.51738299338E+02 -0.16811944598E+03 -0.40307374913E+03  0.43978340916E+03  0.00000000000E+00 0. -1.
         21    1    1    2  504  505  0.45779854452E+02  0.15208224792E+03 -0.41874854220E+03  0.44785616754E+03  0.00000000000E+00 0.  1.
         21    1    1    2  505  501 -0.78781408502E+01  0.67900822810E+02 -0.50783216867E+02  0.85155868599E+02  0.00000000000E+00 0.  1.
          2    1    1    2  501    0  0.13836585736E+02 -0.51863624745E+02  0.70079910577E+02  0.88275027856E+02  0.00000000000E+00 0.  1.
<scales pt_clust_3="14000.00000" pt_clust_4="166.37484" pt_clust_5="50.20545" pt_clust_6="53.67762"></scales>
<clustering>
<clus scale="   53.678">  1  6  2 -1</clus>
<clus scale="   50.205">  1  5  2 -1</clus>
<clus scale="  166.375">  2  4  1 -1</clus>
<clus scale="  166.375">  2  3  1 -1</clus>
</clustering>
</event>
<event>
 6    0  0.4017242E+002  0.1176234E+03  0.7546771E-02  0.1247070E+00
         21   -1    0    0  503  502  0.00000000000E+00  0.00000000000E+00  0.90420975320E+03  0.90420975320E+03  0.00000000000E+00 0.  1.
          3   -1    0    0  505    0 -0.00000000000E+00 -0.00000000000E+00 -0.10071999106E+04  0.10071999106E+04  0.00000000000E+00 0. -1.
         21    1    1    2  503  501  0.86159985165E+02  0.66289366482E+02  0.39450579124E+03  0.40920977808E+03  0.00000000000E+00 0.  1.
         21    1    1    2  504  502 -0.13155667049E+03 -0.30234216611E+02  0.48693765229E+03  0.50530143739E+03  0.00000000000E+00 0.  1.
         21    1    1    2  505  504  0.29883147241E+02 -0.82141722323E+01 -0.34287858398E+02  0.46218311825E+02  0.00000000000E+00 0.  1.
          3    1    1    2  501    0  0.15513538088E+02 -0.27840977639E+02 -0.95014574252E+03  0.95068013650E+03  0.00000000000E+00 0. -1.
<scales pt_clust_3="117.62345" pt_clust_4="14000.00000" pt_clust_5="30.99153" pt_clust_6="57.48558"></scales>
<clustering>
<clus scale="   30.992">  2  5  1 -1</clus>
<clus scale="   57.486">  2  6  1 -1</clus>
<clus scale="  117.623">  1  3  2 -1</clus>
<clus scale="  117.623">  1  3  2 -1</clus>
</clustering>
</event>
<event>
 6    0  0.4017242E+002  0.9498099E+02  0.7546771E-02  0.1291219E+00
          2   -1    0    0  503    0 -0.00000000000E+00  0.00000000000E+00  0.90945431905E+03  0.90945431905E+03  0.00000000000E+00 0. -1.
         21   -1    0    0  505  502  0.00000000000E+00 -0.00000000000E+00 -0.32020666654E+03  0.32020666654E+03  0.00000000000E+00 0. -1.
         21    1    1    2  503  502  0.36303062250E+01 -0.58065333661E+02  0.64112684416E+02  0.86574813886E+02  0.00000000000E+00 0. -1.
         21    1    1    2  504  501  0.97367525571E+01 -0.67290605029E+02  0.36079433432E+03  0.36714490539E+03  0.00000000000E+00 0.  1.
         21    1    1    2  505  504 -0.74570525209E+02  0.20339846141E+01 -0.29091328744E+03  0.30032555858E+03  0.00000000000E+00 0. -1.
          2    1    1    2  501    0  0.61203466427E+02  0.12332195408E+03  0.45525392122E+03  0.47561570773E+03  0.00000000000E+00 0. -1.
<scales pt_clust_3="58.17871" pt_clust_4="14000.00000" pt_clust_5="74.56957" pt_clust_6="94.98099"></scales>
<clustering>
<clus scale="   58.179">  1  3  2 -1</clus>
<clus scale="   74.570">  2  5  1 -1</clus>
<clus scale="   94.981">  1  6  2 -1</clus>
<clus scale="   74.570">  2  3  1 -1</clus>
</clustering>
</event>
<event>
 6    0  0.4017242E+002  0.1078879E+03  0.7546771E-02  0.1264532E+00
         21   -1    0    0  503  502  0.00000000000E+00  0.00000000000E+00  0.44253582227E+02  0.44253582227E+02  0.00000000000E+00 0. -1.
          2   -1    0    0  504    0 -0.00000000000E+00 -0.00000000000E+00 -0.40052709940E+04  0.40052709940E+04  0.00000000000E+00 0. -1.
         21    1    1    2  503  501 -0.68186852281E+02 -0.11598162670E+03 -0.10886238688E+03  0.17306705011E+03  0.00000000000E+00 0. -1.
         21    1    1    2  504  505 -0.26432473923E+02  0.65131165700E+02 -0.20562409353E+03  0.21730626375E+03  0.00000000000E+00 0.  1.
         21    1    1    2  505  502  0.47833942879E+02  0.52022929035E+02 -0.19682812873E+03  0.20913101993E+03  0.00000000000E+00 0. -1.
          2    1    1    2  501    0  0.46785383325E+02 -0.11724680338E+01 -0.34497028026E+04  0.34500202424E+04  0.00000000000E+00 0. -1.
<scales pt_clust_3="107.88793" pt_clust_4="65.25653" pt_clust_5="14000.00000" pt_clust_6="46.80007"></scales>
<clustering>
<clus scale="   46.800">  2  6  1 -1</clus>
<clus scale="   65.257">  2  4  1 -1</clus>
<clus scale="  107.888">  1  3  2 -1</clus>
<clus scale="  107.888">  1  3  2 -1</clus>
</clustering>
</event>
<event>
 6    0  0.4017242E+002  0.1214148E+03  0.7546771E-02  0.1240781E+00
          2   -1    0    0  505    0 -0.00000000000E+00  0.00000000000E+00  0.42045688361E+04  0.42045688361E+04  0.00000000000E+00 0.  1.
         21   -1    0    0  504  502  0.00000000000E+00 -0.00000000000E+00 -0.71838128991E+02  0.71838128991E+02  0.00000000000E+00 0. -1.
         21    1    1    2  503  501 -0.37155440366E+02 -0.16772198910E+02  0.47222111133E+02  0.62383981798E+02  0.00000000000E+00 0.  1.
         21    1    1    2  504  503 -0.13111147807E+03 -0.19244545018E+02  0.29060722354E+02  0.13566538902E+03  0.00000000000E+00 0. -1.
         21    1    1    2  505  502  0.64551484307E+02  0.42886468042E+02  0.13599661007E+03  0.15652865941E+03  0.00000000000E+00 0. -1.
          2    1    1    2  501    0  0.10371543413E+03 -0.68697241128E+01  0.39204512635E+04  0.39218289348E+04  0.00000000000E+00 0.  1.
<scales pt_clust_3="34.16123" pt_clust_4="34.16123" pt_clust_5="77.49931" pt_clust_6="104.63290"></scales>
<clustering>
<clus scale="   34.161">  3  4 -1 -1</clus>
<clus scale="   77.499">  2  5  1 -1</clus>
<clus scale="  104.633">  1  6  2 -1</clus>
<clus scale="   77.499">  2  3  1 -1</clus>
</clustering>
</event>
<event>
 6    0  0.4017242E+002  0.1411149E+03  0.7546771E-02  0.1211837E+00
          2   -1    0    0  504    0 -0.00000000000E+00  0.00000000000E+00  0.81225798760E+03  0.81225798760E+03  0.00000000000E+00 0.  1.
         21   -1    0    0  505  502  0.00000000000E+00 -0.00000000000E+00 -0.12595703230E+03  0.12595703230E+03  0.00000000000E+00 0.  1.
         21    1    1    2  503  501 -0.69928970142E+02  0.39102381101E+02 -0.35578108251E+02  0.87663326766E+02  0.00000000000E+00 0.  1.
         21    1    1    2  504  502  0.74755806808E+02 -0.70124913994E+02  0.99417372188E+02  0.14279267526E+03  0.00000000000E+00 0.  1.
         21    1    1    2  505  503 -0.27060141023E+02  0.66442783231E+02 -0.11293671613E+02  0.72625351594E+02  0.00000000000E+00 0.  1.
          2    1    1    2  501    0  0.22233304357E+02 -0.35420250337E+02  0.63375536297E+03  0.63513366629E+03  0.00000000000E+00 0.  1.
<scales pt_clust_3="50.48366" pt_clust_4="130.24817" pt_clust_5="50.48366" pt_clust_6="41.82002"></scales>
<clustering>
<clus scale="   41.820">  1  6  2 -1</clus>
<clus scale="   50.484">  3  5 -1 -1</clus>
<clus scale="  130.248">  1  4  2 -1</clus>
<clus scale="  141.115">  2  3  1 -1</clus>
</clustering>
</event>
<event>
 6    0  0.4017242E+002  0.1030025E+03  0.7546771E-02  0.1274106E+00
         21   -1    0    0  504  502  0.00000000000E+00  0.00000000000E+00  0.81493893940E+03  0.81493893940E+03  0.00000000000E+00 0.  1.
         -2   -1    0    0    0  501 -0.00000000000E+00 -0.00000000000E+00 -0.15266130116E+03  0.15266130116E+03  0.00000000000E+00 0.  1.
         21    1    1    2  503  502 -0.45963531839E+01  0.63642884570E+02  0.72756265852E+02  0.96773020205E+02  0.00000000000E+00 0. -1.
         21    1    1    2  504  505 -0.10923686185E+02 -0.71351118601E+02  0.49634264907E+03  0.50156388859E+03  0.00000000000E+00 0.  1.
         21    1    1    2  505  501 -0.88073235800E+02  0.20070583423E+02  0.20030379656E+03  0.21973013926E+03  0.00000000000E+00 0.  1.
         -2    1    1    2    0  503  0.10359327517E+03 -0.12362349393E+02 -0.10712507325E+03  0.14953319251E+03  0.00000000000E+00 0.  1.
<scales pt_clust_3="63.80865" pt_clust_4="31.21038" pt_clust_5="14000.00000" pt_clust_6="103.00251"></scales>
<clustering>
<clus scale="   63.809">  1  3  2 -1</clus>
<clus scale="   31.210">  1  4  2 -1</clus>
<clus scale="  103.003">  2  6  1 -1</clus>
<clus scale="   63.809">  1  3  2 -1</clus>
</clustering>
</event>
<event>
 6    0  0.4017242E+002  0.1146115E+03  0.7546771E-02  0.1252261E+00
          3   -1    0    0  505    0 -0.00000000000E+00  0.00000000000E+00  0.44832247124E+03  0.44832247124E+03  0.00000000000E+00 0.  1.
         21   -1    0    0  503  502  0.00000000000E+00 -0.00000000000E+00 -0.24405146082E+03  0.24405146082E+03  0.00000000000E+00 0.  1.
         21    1    1    2  503  501 -0.93239628276E+01 -0.74602114229E+02 -0.16213413264E+03  0.17871734302E+03  0.00000000000E+00 0.  1.
         21    1    1    2  504  502 -0.41210747484E+02  0.65417435342E+02  0.31114652279E+02  0.83341995064E+02  0.00000000000E+00 0.  1.
         21    1    1    2  505  504 -0.43430560352E+02  0.56266445983E+02 -0.77830806175E+01  0.71503166783E+02  0.00000000000E+00 0.  1.
          3    1    1    2  501    0  0.93965270663E+02 -0.47081767096E+02  0.34307357140E+03  0.35881142718E+03  0.00000000000E+00 0.  1.
<scales pt_clust_3="75.18252" pt_clust_4="36.65555" pt_clust_5="36.65555" pt_clust_6="108.04743"></scales>
<clustering>
<clus scale="   36.656">  4  5 -1 -1</clus>
<clus scale="   75.183">  2  3  1 -1</clus>
<clus scale="  108.047">  1  6  2 -1</clus>
<clus scale="   75.183">  2  3  1 -1</clus>
</clustering>
</event>
<event>
 6    0  0.4017242E+002  0.1617630E+03  0.7546771E-02  0.1186721E+00
         21   -1    0    0  505  502  0.00000000000E+00  0.00000000000E+00  0.27283682844E+03  0.27283682844E+03  0.00000000000E+00 0.  1.
          1   -1    0    0  503    0 -0.00000000000E+00 -0.00000000000E+00 -0.53811262597E+03  0.53811262597E+03  0.00000000000E+00 0. -1.
         21    1    1    2  503  502 -0.10563657132E+03  0.18912553834E+03  0.12546379643E+03  0.25033720991E+03  0.00000000000E+00 0.  1.
         21    1    1    2  504  501  0.59851960413E+02 -0.91996384237E+02 -0.15035603906E+03  0.18615190130E+03  0.00000000000E+00 0.  1.
         21    1    1    2  505  504  0.24528673536E+02 -0.39531931836E+02  0.55416493603E+02  0.72356183035E+02  0.00000000000E+00 0.  1.
          1    1    1    2  501    0  0.21255937375E+02 -0.57597222263E+02 -0.29580004851E+03  0.30210416015E+03  0.00000000000E+00 0. -1.
<scales pt_clust_3="161.76298" pt_clust_4="14000.00000" pt_clust_5="46.52343" pt_clust_6="62.08199"></scales>
<clustering>
<clus scale="   46.523">  1  5  2 -1</clus>
<clus scale="   62.082">  2  6  1 -1</clus>
<clus scale="  161.763">  1  3  2 -1</clus>
<clus scale="   46.523">  1  3  2 -1</clus>
</clustering>
</event>
<event>
 6    0  0.4017242E+002  0.1044029E+03  0.7546771E-02  0.1271300E+00
          1   -1    0    0  505    0 -0.00000000000E+00  0.00000000000E+00  0.39128086240E+04  0.39128086240E+04  0.00000000000E+00 0. -1.
         21   -1    0    0  504  502  0.00000000000E+00 -0.00000000000E+00 -0.11755349155E+02  0.11755349155E+02  0.00000000000E+00 0. -1.
         21    1    1    2  503  502 -0.52482906836E+02  0.21357743595E+02  0.11345965335E+03  0.12682153469E+03  0.00000000000E+00 0. -1.
         21    1    1    2  504  501  0.66776625850E+02 -0.85690274185E+02  0.11046040821E+04  0.11099333850E+04  0.00000000000E+00 0. -1.
         21    1    1    2  505  503 -0.39404831335E+02  0.45584441077E+01  0.19596114421E+03  0.19993571513E+03  0.00000000000E+00 0. -1.
          1    1    1    2  501    0  0.25111112322E+02  0.59774086483E+02  0.24870283952E+04  0.24878733384E+04  0.00000000000E+00 0. -1.
<scales pt_clust_3="36.60577" pt_clust_4="94.79401" pt_clust_5="36.60577" pt_clust_6="64.83448"></scales>
<clustering>
<clus scale="   36.606">  3  5 -1 -1</clus>
<clus scale="   64.834">  1  6  2 -1</clus>
<clus scale="   94.794">  1  4  2 -1</clus>
<clus scale="  104.403">  2  3  1 -1</clus>
</clustering>
</event>
<event>
 6    0  0.4017242E+002  0.2208946E+03  0.7546771E-02  0.1133218E+00
         21   -1    0    0  503  502  0.00000000000E+00  0.00000000000E+00  0.61670218841E+03  0.61670218841E+03  0.00000000000E+00 0.  1.
         -1   -1    0    0    0  501 -0.00000000000E+00 -0.00000000000E+00 -0.38480490606E+03  0.38480490606E+03  0.00000000000E+00 0. -1.
         21    1    1    2  503  504 -0.61465415253E+02  0.97091329799E+02  0.32502182752E+03  0.34473745366E+03  0.00000000000E+00 0.  1.
         21    1    1    2  504  505  0.32085937560E+02  0.98450882954E+02  0.22013251820E+03  0.24327023926E+03  0.00000000000E+00 0.  1.
         21    1    1    2  505  501  0.50493270006E+02  0.16463164523E+02 -0.37447555093E+02  0.64984040229E+02  0.00000000000E+00 0. -1.
         -1    1    1    2    0  502 -0.21113792313E+02 -0.21200537728E+03 -0.27580950828E+03  0.34851536132E+03  0.00000000000E+00 0. -1.
<scales pt_clust_3="92.96727" pt_clust_4="92.96727" pt_clust_5="53.10938" pt_clust_6="198.32934"></scales>
<clustering>
<clus scale="   53.109">  2  5  1 -1</clus>
<clus scale="   92.967">  3  4 -1 -1</clus>
<clus scale="  198.329">  2  6  1 -1</clus>
<clus scale="  220.895">  1  3  2 -1</clus>
</clustering>
</event>
<event>
 6    0  0.4017242E+002  0.1765892E+03  0.7546771E-02  0.1171145E+00
          2   -1    0    0  502    0 -0.00000000000E+00  0.00000000000E+00  0.54737246898E+03  0.54737246898E+03  0.00000000000E+00 0. -1.
         21   -1    0    0  503  502  0.00000000000E+00 -0.00000000000E+00 -0.27345730987E+03  0.27345730987E+03  0.00000000000E+00 0. -1.
         21    1    1    2  503  505  0.13840038041E+03  0.82573949088E+01 -0.48249455291E+02  0.14680211104E+03  0.00000000000E+00 0. -1.
         21    1    1    2  504  501 -0.48807528038E+02 -0.16617154618E+02 -0.30092453205E+02  0.59698076692E+02  0.00000000000E+00 0. -1.
         21    1    1    2  505  504 -0.15767957547E+03  0.46415543732E+02 -0.74527331505E+02  0.18047596616E+03  0.00000000000E+00 0. -1.
          2    1    1    2  501    0  0.68086723099E+02 -0.38055784022E+02  0.42678439911E+03  0.43385362495E+03  0.00000000000E+00 0. -1.
<scales pt_clust_3="167.24331" pt_clust_4="31.74852" pt_clust_5="31.74852" pt_clust_6="78.00029"></scales>
<clustering>
<clus scale="   31.749">  4  5 -1 -1</clus>
<clus scale="   78.000">  1  6  2 -1</clus>
<clus scale="  167.243">  2  3  1 -1</clus>
<clus scale="  167.243">  2  3  1 -1</clus>
</clustering>
</event>
<event>
 6    0  0.4017242E+002  0.1636793E+03  0.7546771E-02  0.1184604E+00
         21   -1    0    0  504  502  0.00000000000E+00  0.00000000000E+00  0.63750523217E+02  0.63750523217E+02  0.00000000000E+00 0.  1.
          3   -1    0    0  503    0 -0.00000000000E+00 -0.00000000000E+00 -0.20053315151E+04  0.20053315151E+04  0.00000000000E+00 0.  1.
         21    1    1    2  503  502 -0.14022299390E+03  0.40670716911E+02 -0.49805340683E+03  0.51901232287E+03  0.00000000000E+00 0.  1.
         21    1    1    2  504  505  0.68084081778E+02 -0.53264353837E+02 -0.45416764302E+02  0.97648430919E+02  0.00000000000E+00 0.  1.
         21    1    1    2  505  501  0.77994978875E+02 -0.23296498928E+02 -0.34637290983E+02  0.88462904760E+02  0.00000000000E+00 0.  1.
          3    1    1    2  501    0 -0.58560667526E+01  0.35890135853E+02 -0.13634735297E+04  0.13639583797E+04  0.00000000000E+00 0.  1.
<scales pt_clust_3="160.50794" pt_clust_4="31.11481" pt_clust_5="31.11481" pt_clust_6="36.36475"></scales>
<clustering>
<clus scale="   31.115">  4  5 -1 -1</clus>
<clus scale="   36.365">  2  6  1 -1</clus>
<clus scale="  160.508">  2  3  1 -1</clus>
<clus scale="  163.679">  1  3  2 -1</clus>
</clustering>
</event>
<event>
 6    0  0.4017242E+002  0.6401155E+02  0.7546771E-02  0.1381729E+00
         21   -1    0    0  504  502  0.00000000000E+00  0.00000000000E+00  0.17753678068E+02  0.17753678068E+02  0.00000000000E+00 0. -1.
          2   -1    0    0  505    0 -0.00000000000E+00 -0.00000000000E+00 -0.17825455804E+04  0.17825455804E+04  0.00000000000E+00 0. -1.
         21    1    1    2  503  501  0.63240195496E+02 -0.32482504610E+01 -0.36776874975E+03  0.37318055517E+03  0.00000000000E+00 0. -1.
         21    1    1    2  504  503  0.39140105254E+02 -0.27078141970E+02 -0.55792768270E+02  0.73334893489E+02  0.00000000000E+00 0. -1.
         21    1    1    2  505  502 -0.74519608002E+02 -0.26185784978E+02 -0.28695447600E+03  0.29762684457E+03  0.00000000000E+00 0. -1.
          2    1    1    2  501    0 -0.27860692749E+02  0.56512177408E+02 -0.10542759083E+04  0.10561569653E+04  0.00000000000E+00 0. -1.
<scales pt_clust_3="14000.00000" pt_clust_4="47.59384" pt_clust_5="64.01155" pt_clust_6="58.70155"></scales>
<clustering>
<clus scale="   47.594">  1  4  2 -1</clus>
<clus scale="   58.702">  2  6  1 -1</clus>
<clus scale="   64.012">  1  5  2 -1</clus>
<clus scale="   47.594">  1  3  2 -1</clus>
</clustering>
</event>
<event>
 6    0  0.4017242E+002  0.2372633E+03  0.7546771E-02  0.1121629E+00
          2   -1    0    0  504    0 -0.00000000000E+00  0.00000000000E+00  0.96938743660E+03  0.96938743660E+03  0.00000000000E+00 0. -1.
         21   -1    0    0  503  502  0.00000000000E+00 -0.00000000000E+00 -0.10603524850E+04  0.10603524850E+04  0.00000000000E+00 0. -1.
         21    1    1    2  503  505 -0.24222918890E+02  0.22924073404E+02 -0.44554037285E+02  0.55653617846E+02  0.00000000000E+00 0.  1.
         21    1    1    2  504  502 -0.21106500190E+03 -0.63774876320E+02 -0.75225071427E+03  0.78389846727E+03  0.00000000000E+00 0. -1.
         21    1    1    2  505  501  0.25336994585E+03  0.10274532927E+02 -0.17533813928E+03  0.30829427269E+03  0.00000000000E+00 0. -1.
          2    1    1    2  501    0 -0.18082025064E+02  0.30576269990E+02  0.88117784241E+03  0.88189356380E+03  0.00000000000E+00 0. -1.
<scales pt_clust_3="33.35061" pt_clust_4="14000.00000" pt_clust_5="237.26331" pt_clust_6="35.53414"></scales>
<clustering>
<clus scale="   33.351">  2  3  1 -1</clus>
<clus scale="   35.534">  1  6  2 -1</clus>
<clus scale="  237.263">  1  5  2 -1</clus>
<clus scale="   33.351">  2  3  1 -1</clus>
</clustering>
</event>
<event>
 6    0  0.4017242E+002  0.7422474E+02  0.7546771E-02  0.1346289E+00
         21   -1    0    0  501  502  0.00000000000E+00  0.00000000000E+00  0.34822998785E+03  0.34822998785E+03  0.00000000000E+00 0.  1.
          2   -1    0    0  503    0 -0.00000000000E+00 -0.00000000000E+00 -0.47064943161E+03  0.47064943161E+03  0.00000000000E+00 0.  1.
         21    1    1    2  503  504 -0.78933737081E+02 -0.40628577455E+02 -0.16836780620E+02  0.90358692649E+02  0.00000000000E+00 0.  1.
         21    1    1    2  504  505 -0.14552060351E+02  0.67843071056E+02  0.10680151921E+03  0.12736172603E+03  0.00000000000E+00 0.  1.
         21    1    1    2  505  502  0.39736611489E+02  0.16240728156E+02  0.18902728571E+03  0.19384033194E+03  0.00000000000E+00 0.  1.
          2    1    1    2  501    0  0.53749185944E+02 -0.43455221757E+02 -0.40141146807E+03  0.40731866884E+03  0.00000000000E+00 0.  1.
<scales pt_clust_3="74.22474" pt_clust_4="14000.00000" pt_clust_5="42.92738" pt_clust_6="69.51160"></scales>
<clustering>
<clus scale="   42.927">  1  5  2 -1</clus>
<clus scale="   69.512">  2  6  1 -1</clus>
<clus scale="   74.225">  2  3  1 -1</clus>
<clus scale="   42.927">  1  3  2 -1</clus>
</clustering>
</event>
<event>
 6    0  0.4017242E+002  0.1505517E+03  0.7546771E-02  0.1199797E+00
         -1   -1    0    0    0  501 -0.00000000000E+00  0.00000000000E+00  0.13867878845E+04  0.13867878845E+04  0.00000000000E+00 0.  1.
         21   -1    0    0  505  502  0.00000000000E+00 -0.00000000000E+00 -0.63641954196E+03  0.63641954196E+03  0.00000000000E+00 0. -1.
         21    1    1    2  503  504  0.29062278963E+02  0.53441028890E+02 -0.10056195048E+03  0.11752984945E+03  0.00000000000E+00 0. -1.
         21    1    1    2  504  502  0.35307926238E+02 -0.15786849815E+01 -0.42866352113E+02  0.55557772138E+02  0.00000000000E+00 0. -1.
         21    1    1    2  505  501  0.70654451991E+02 -0.11912721326E+03 -0.46386596613E+03  0.48410224030E+03  0.00000000000E+00 0. -1.
         -1    1    1    2    0  503 -0.13502465719E+03  0.67264869347E+02  0.13576626113E+04  0.13660175646E+04  0.00000000000E+00 0.  1.
<scales pt_clust_3="63.97978" pt_clust_4="35.34320" pt_clust_5="150.55175" pt_clust_6="14000.00000"></scales>
<clustering>
<clus scale="   35.343">  2  4  1 -1</clus>
<clus scale="   63.980">  2  3  1 -1</clus>
<clus scale="  150.552">  2  5  1 -1</clus>
<clus scale="   35.343">  2  3  1 -1</clus>
</clustering>
</event>
<event>
 6    0  0.4017242E+002  0.1386795E+03  0.7546771E-02  0.1215117E+00
         -2   -1    0    0    0  501 -0.00000000000E+00  0.00000000000E+00  0.36802409923E+03  0.36802409923E+03  0.00000000000E+00 0. -1.
         21   -1    0    0  503  502  0.00000000000E+00 -0.00000000000E+00 -0.95325954325E+02  0.95325954325E+02  0.00000000000E+00 0. -1.
         21    1    1    2  503  504 -0.54817050386E+02  0.25595170172E+02  0.17079659864E+02  0.62862839024E+02  0.00000000000E+00 0. -1.
         21    1    1    2  504  501 -0.68618346819E+02  0.80763882873E+02  0.66619707046E+02  0.12517774428E+03  0.00000000000E+00 0. -1.
         21    1    1    2  505  502  0.27914267101E+02 -0.30729002832E+02 -0.93266773680E+01  0.42549557384E+02  0.00000000000E+00 0. -1.
         -2    1    1    2    0  505  0.95521130103E+02 -0.75630050213E+02  0.19832545537E+03  0.23275991287E+03  0.00000000000E+00 0. -1.
<scales pt_clust_3="32.10096" pt_clust_4="32.10096" pt_clust_5="41.51479" pt_clust_6="132.01084"></scales>
<clustering>
<clus scale="   32.101">  3  4 -1 -1</clus>
<clus scale="   41.515">  2  5  1 -1</clus>
<clus scale="  132.011">  1  6  2 -1</clus>
<clus scale="   41.515">  2  3  1 -1</clus>
</clustering>
</event>
<event>
 6    0  0.4017242E+002  0.1625272E+03  0.7546771E-02  0.1185873E+00
         21   -1    0    0  505  502  0.00000000000E+00  0.00000000000E+00  0.43093702901E+03  0.43093702901E+03  0.00000000000E+00 0. -1.
          2   -1    0    0  502    0 -0.00000000000E+00 -0.00000000000E+00 -0.11603400253E+04  0.11603400253E+04  0.00000000000E+00 0. -1.
         21    1    1    2  503  504 -0.37773661256E+02 -0.10024431920E+02 -0.38931982824E+02  0.55163738149E+02  0.00000000000E+00 0. -1.
         21    1    1    2  504  501 -0.80414048639E+02  0.53083224659E+02 -0.53956718382E+02  0.11043357921E+03  0.00000000000E+00 0. -1.
         21    1    1    2  505  503  0.15137291308E+03 -0.39548260190E+02  0.37878913715E+03  0.40982805434E+03  0.00000000000E+00 0. -1.
          2    1    1    2  501    0 -0.33185203186E+02 -0.35105325487E+01 -0.10153034322E+04  0.10158516826E+04  0.00000000000E+00 0. -1.
<scales pt_clust_3="36.41985" pt_clust_4="36.41985" pt_clust_5="153.11212" pt_clust_6="33.37037"></scales>
<clustering>
<clus scale="   33.370">  2  6  1 -1</clus>
<clus scale="   36.420">  3  4 -1 -1</clus>
<clus scale="  153.112">  1  5  2 -1</clus>
<clus scale="  153.112">  1  3  2 -1</clus>
</clustering>
</event>
<event>
 6    0  0.4017242E+002  0.8525997E+02  0.7546771E-02  0.1314754E+00
         21   -1    0    0  504  502  0.00000000000E+00  0.00000000000E+00  0.31318927258E+03  0.31318927258E+03  0.00000000000E+00 0. -1.
          1   -1    0    0  505    0 -0.00000000000E+00 -0.00000000000E+00 -0.11514888460E+04  0.11514888460E+04  0.00000000000E+00 0. -1.
         21    1    1    2  503  502 -0.38657808171E+02 -0.14366358686E+02  0.19841311415E+03  0.20265384837E+03  0.00000000000E+00 0. -1.
         21    1    1    2  504  501  0.59466050739E+02  0.47222012487E+02 -0.58296888793E+01  0.76158485582E+02  0.00000000000E+00 0. -1.
         21    1    1    2  505  503 -0.57392098869E+02 -0.70523318877E+02  0.49960853264E+02  0.10374718491E+03  0.00000000000E+00 0. -1.
          1    1    1    2  501    0  0.36583856302E+02  0.37667665076E+02 -0.10808438519E+04  0.10821185997E+04  0.00000000000E+00 0. -1.
<scales pt_clust_3="41.24098" pt_clust_4="85.25997" pt_clust_5="14000.00000" pt_clust_6="52.29876"></scales>
<clustering>
<clus scale="   41.241">  1  3  2 -1</clus>
<clus scale="   52.299">  2  6  1 -1</clus>
<clus scale="   85.260">  1  4  2 -1</clus>
<clus scale="   41.241">  1  3  2 -1</clus>
</clustering>
</event>
<event>
 6    0  0.4017242E+002  0.1298443E+03  0.7546771E-02  0.1227687E+00
         21   -1    0    0  505  502  0.00000000000E+00  0.00000000000E+00  0.13445755398E+03  0.13445755398E+03  0.00000000000E+00 0. -1.
          2   -1    0    0  503    0 -0.00000000000E+00 -0.00000000000E+00 -0.10985977192E+04  0.10985977192E+04  0.00000000000E+00 0. -1.
         21    1    1    2  503  502  0.12404546608E+03  0.14149082871E+01  0.76297264395E+02  0.14563842959E+03  0.00000000000E+00 0. -1.
         21    1    1    2  504  501 -0.46366118969E+02  0.13420324890E+02 -0.26817115584E+02  0.55218473328E+02  0.00000000000E+00 0. -1.
         21    1    1    2  505  504 -0.36572444900E+02 -0.38108547886E+02 -0.71494659177E+02  0.88889208787E+02  0.00000000000E+00 0. -1.
          2    1    1    2  501    0 -0.41106902208E+02  0.23273314709E+02 -0.94212565481E+03  0.94330916143E+03  0.00000000000E+00 0. -1.
<scales pt_clust_3="115.09145" pt_clust_4="58.70583" pt_clust_5="58.70583" pt_clust_6="47.23796"></scales>
<clustering>
<clus scale="   47.238">  2  6  1 -1</clus>
<clus scale="   58.706">  4  5 -1 -1</clus>
<clus scale="  115.091">  1  3  2 -1</clus>
<clus scale="  115.091">  1  3  2 -1</clus>
</clustering>
</event>
<event>
 6    0  0.4017242E+002  0.1203136E+03  0.7546771E-02  0.1242581E+00
          1   -1    0    0  505    0 -0.00000000000E+00  0.00000000000E+00  0.26872330618E+04  0.26872330618E+04  0.00000000000E+00 0. -1.
         21   -1    0    0  501  502  0.00000000000E+00 -0.00000000000E+00 -0.12001373350E+03  0.12001373350E+03  0.00000000000E+00 0.  1.
         21    1    1    2  503  502  0.59066988299E+02 -0.33995229459E+01  0.10853784542E+02  0.60152061493E+02  0.00000000000E+00 0.  1.
         21    1    1    2  504  503  0.25317968081E+02  0.11712435201E+03 -0.39534152411E+02  0.12618265550E+03  0.00000000000E+00 0.  1.
         21    1    1    2  505  504 -0.62452718170E+02 -0.68655363328E+02  0.16357459360E+03  0.18807059470E+03  0.00000000000E+00 0. -1.
          1    1    1    2  501    0 -0.21932238210E+02 -0.45069465738E+02  0.24323251025E+04  0.24328414836E+04  0.00000000000E+00 0. -1.
<scales pt_clust_3="56.84008" pt_clust_4="14000.00000" pt_clust_5="120.31365" pt_clust_6="50.12265"></scales>
<clustering>
<clus scale="   50.123">  1  6  2 -1</clus>
<clus scale="   56.840">  2  3  1 -1</clus>
<clus scale="  120.314">  1  5  2 -1</clus>
<clus scale="   56.840">  2  3  1 -1</clus>
</clustering>
</event>
<event>
 6    0  0.4017242E+002  0.2911396E+03  0.7546771E-02  0.1089756E+00
         21   -1    0    0  505  502  0.00000000000E+00  0.00000000000E+00  0.49147239625E+03  0.49147239625E+03  0.00000000000E+00 0. -1.
          2   -1    0    0  503    0 -0.00000000000E+00 -0.00000000000E+00 -0.27501904225E+04  0.27501904225E+04  0.00000000000E+00 0. -1.
         21    1    1    2  503  504  0.54847110485E+02 -0.15338757079E+02  0.83258804861E+02  0.10087374081E+03  0.00000000000E+00 0.  1.
         21    1    1    2  504  502  0.42127572210E+02  0.21348112294E+02  0.15364642025E+02  0.49664337944E+02  0.00000000000E+00 0. -1.
         21    1    1    2  505  501  0.34286012251E+02  0.25504544626E+03  0.31279467409E+03  0.40504841493E+03  0.00000000000E+00 0. -1.
          2    1    1    2  501    0 -0.13126069495E+03 -0.26105480148E+03 -0.26701361472E+04  0.26860763251E+04  0.00000000000E+00 0. -1.
<scales pt_clust_3="64.25620" pt_clust_4="47.22790" pt_clust_5="14000.00000" pt_clust_6="291.13957"></scales>
<clustering>
<clus scale="   47.228">  1  4  2 -1</clus>
<clus scale="   64.256">  1  3  2 -1</clus>
<clus scale="  291.140">  2  6  1 -1</clus>
<clus scale="   47.228">  1  3  2 -1</clus>
</clustering>
</event>
<event>
 6    0  0.4017242E+002  0.7839268E+02  0.7546771E-02  0.1333676E+00
         21   -1    0    0  503  502  0.00000000000E+00  0.00000000000E+00  0.16558961210E+02  0.16558961210E+02  0.00000000000E+00 0.  1.
          2   -1    0    0  505    0 -0.00000000000E+00 -0.00000000000E+00 -0.13792174269E+04  0.13792174269E+04  0.00000000000E+00 0.  1.
         21    1    1    2  503  504  0.45733610118E+02 -0.16164762952E+02 -0.12007610726E+03  0.12950341381E+03  0.00000000000E+00 0.  1.
         21    1    1    2  504  501 -0.21559425740E+02 -0.92288232589E+02 -0.37406595215E+03  0.38588503893E+03  0.00000000000E+00 0.  1.
         21    1    1    2  505  502 -0.13101082782E+02  0.34326719643E+02 -0.76848051562E+02  0.85179722237E+02  0.00000000000E+00 0. -1.
          2    1    1    2  501    0 -0.11073101596E+02  0.74126275898E+02 -0.79166835470E+03  0.79520821311E+03  0.00000000000E+00 0.  1.
<scales pt_clust_3="40.86910" pt_clust_4="14000.00000" pt_clust_5="36.74183" pt_clust_6="78.39268"></scales>
<clustering>
<clus scale="   36.742">  1  5  2 -1</clus>
<clus scale="   40.869">  1  3  2 -1</clus>
<clus scale="   78.393">  2  6  1 -1</clus>
<clus scale="   36.742">  1  3  2 -1</clus>
</clustering>
</event>
<event>
 6    0  0.4017242E+002  0.8295823E+02  0.7546771E-02  0.1320860E+00
          1   -1    0    0  504    0 -0.00000000000E+00  0.00000000000E+00  0.15161928866E+04  0.15161928866E+04  0.00000000000E+00 0.  1.
         21   -1    0    0  501  502  0.00000000000E+00 -0.00000000000E+00 -0.46629505358E+03  0.46629505358E+03  0.00000000000E+00 0.  1.
         21    1    1    2  503  502  0.42494713535E+02 -0.11584589032E+02 -0.42098513650E+03  0.42328298872E+03  0.00000000000E+00 0.  1.
         21    1    1    2  504  505  0.75134819765E+02 -0.17678460837E+02  0.23927627814E+03  0.25141779253E+03  0.00000000000E+00 0.  1.
         21    1    1    2  505  503 -0.10078033036E+03  0.64428697857E+02  0.56944540328E+02  0.13247797088E+03  0.00000000000E+00 0.  1.
          1    1    1    2  501    0 -0.16849202944E+02 -0.35165647988E+02  0.11746621511E+04  0.11753091881E+04  0.00000000000E+00 0.  1.
<scales pt_clust_3="44.02207" pt_clust_4="82.95823" pt_clust_5="14000.00000" pt_clust_6="38.99383"></scales>
<clustering>
<clus scale="   38.994">  1  6  2 -1</clus>
<clus scale="   44.022">  2  3  1 -1</clus>
<clus scale="   82.958">  1  4  2 -1</clus>
<clus scale="   44.022">  2  3  1 -1</clus>
</clustering>
</event>
<event>
 6    0  0.4017242E+002  0.9241316E+02  0.7546771E-02  0.1297111E+00
         21   -1    0    0  504  502  0.00000000000E+00  0.00000000000E+00  0.25983673429E+02  0.25983673429E+02  0.00000000000E+00 0. -1.
          2   -1    0    0  503    0 -0.00000000000E+00 -0.00000000000E+00 -0.11729206388E+04  0.11729206388E+04  0.00000000000E+00 0.  1.
         21    1    1    2  503  502  0.49250348108E+02 -0.85809204837E+02 -0.72460822428E+03  0.73133159040E+03  0.00000000000E+00 0. -1.
         21    1    1    2  504  505  0.25744747818E+02  0.17695394666E+02 -0.81995993726E+02  0.87745438740E+02  0.00000000000E+00 0.  1.
         21    1    1    2  505  501 -0.38133535158E+02  0.76400939637E+02 -0.80797356489E+02  0.11755629671E+03  0.00000000000E+00 0. -1.
          2    1    1    2  501    0 -0.36861560767E+02 -0.82871294658E+01 -0.25953539083E+03  0.26227098633E+03  0.00000000000E+00 0.  1.
<scales pt_clust_3="14000.00000" pt_clust_4="31.23970" pt_clust_5="92.41316" pt_clust_6="36.07175"></scales>
<clustering>
<clus scale="   31.240">  1  4  2 -1</clus>
<clus scale="   36.072">  2  6  1 -1</clus>
<clus scale="   92.413">  1  5  2 -1</clus>
<clus scale="   31.240">  1  3  2 -1</clus>
</clustering>
</event>
<event>
 6    0  0.4017242E+002  0.2109257E+03  0.7546771E-02  0.1140835E+00
         -1   -1    0    0    0  501 -0.00000000000E+00  0.00000000000E+00  0.12989374456E+04  0.12989374456E+04  0.00000000000E+00 0.  1.
         21   -1    0    0  503  502  0.00000000000E+00 -0.00000000000E+00 -0.19897453302E+03  0.19897453302E+03  0.00000000000E+00 0.  1.
         21    1    1    2  503  504 -0.14447662683E+03 -0.16479848934E+02 -0.46885182905E+02  0.15278514815E+03  0.00000000000E+00 0.  1.
         21    1    1    2  504  501 -0.60301253469E+02  0.32015776224E+02 -0.41248284266E+02  0.79766359150E+02  0.00000000000E+00 0.  1.
         21    1    1    2  505  502  0.18761743485E+03  0.40814711784E+02  0.20640265353E+03  0.28190104281E+03  0.00000000000E+00 0. -1.
         -1    1    1    2    0  505  0.17160445448E+02 -0.56350639074E+02  0.98169372619E+03  0.98345942847E+03  0.00000000000E+00 0.  1.
<scales pt_clust_3="44.07420" pt_clust_4="44.07420" pt_clust_5="200.87883" pt_clust_6="58.90565"></scales>
<clustering>
<clus scale="   44.074">  3  4 -1 -1</clus>
<clus scale="   58.906">  1  6  2 -1</clus>
<clus scale="  200.879">  1  5  2 -1</clus>
<clus scale="  210.926">  2  3  1 -1</clus>
</clustering>
</event>
<event>
 6    0  0.4017242E+002  0.1536262E+03  0.7546771E-02  0.1196087E+00
          2   -1    0    0  505    0 -0.00000000000E+00  0.00000000000E+00  0.12187370279E+04  0.12187370279E+04  0.00000000000E+00 0. -1.
         21   -1    0    0  501  502  0.00000000000E+00 -0.00000000000E+00 -0.34131357157E+03  0.34131357157E+03  0.00000000000E+00 0.  1.
         21    1    1    2  503  502  0.10045874231E+03 -0.10346299834E+03 -0.19746734647E+03  0.24451974124E+03  0.00000000000E+00 0.  1.
         21    1    1    2  504  503 -0.56765652416E+02 -0.35302034797E+01 -0.27122553456E+02  0.63011384184E+02  0.00000000000E+00 0. -1.
         21    1    1    2  505  504 -0.72451610427E+02  0.66106166565E+02 -0.42517764074E+02  0.10689724680E+03  0.00000000000E+00 0. -1.
          2    1    1    2  501    0  0.28758520534E+02  0.40887035259E+02  0.11445311203E+04  0.11456222272E+04  0.00000000000E+00 0. -1.
<scales pt_clust_3="142.10803" pt_clust_4="44.44460" pt_clust_5="44.44460" pt_clust_6="49.98802"></scales>
<clustering>
<clus scale="   44.445">  4  5 -1 -1</clus>
<clus scale="   49.988">  1  6  2 -1</clus>
<clus scale="  142.108">  2  3  1 -1</clus>
<clus scale="  142.108">  2  3  1 -1</clus>
</clustering>
</event>
<event>
 6    0  0.4017242E+002  0.1456449E+03  0.7546771E-02  0.1205929E+00
          2   -1    0    0  503    0 -0.00000000000E+00  0.00000000000E+00  0.44953109588E+03  0.44953109588E+03  0.00000000000E+00 0.  1.
         21   -1    0    0  501  502  0.00000000000E+00 -0.00000000000E+00 -0.21024840169E+03  0.21024840169E+03  0.00000000000E+00 0. -1.
         21    1    1    2  503  505  0.28172936187E+02  0.34688558074E+02  0.30480195296E+02  0.54093000470E+02  0.00000000000E+00 0.  1.
         21    1    1    2  504  502  0.72735249676E+01  0.31876014221E+02 -0.70483495302E+02  0.77697538945E+02  0.00000000000E+00 0. -1.
         21    1    1    2  505  504  0.75547445705E+01  0.11616758092E+03 -0.66837485574E+02  0.13423572736E+03  0.00000000000E+00 0. -1.
          2    1    1    2  501    0 -0.43001205725E+02 -0.18273215321E+03  0.34612347977E+03  0.39375323079E+03  0.00000000000E+00 0.  1.
<scales pt_clust_3="47.24768" pt_clust_4="32.69533" pt_clust_5="145.64493" pt_clust_6="14000.00000"></scales>
<clustering>
<clus scale="   32.695">  2  4  1 -1</clus>
<clus scale="   47.248">  1  3  2 -1</clus>
<clus scale="  145.645">  2  5  1 -1</clus>
<clus scale="   32.695">  2  3  1 -1</clus>
</clustering>
</event>
<event>
 6    0  0.4017242E+002  0.6349927E+02  0.7546771E-02  0.1383707E+00
         21   -1    0    0  501  502  0.00000000000E+00  0.00000000000E+00  0.20832129722E+03  0.20832129722E+03  0.00000000000E+00 0. -1.
          2   -1    0    0  505    0 -0.00000000000E+00 -0.00000000000E+00 -0.46664162997E+03  0.46664162997E+03  0.00000000000E+00 0. -1.
         21    1    1    2  503  502  0.39270448560E+02 -0.86441156223E+01  0.17585333705E+03  0.18039203147E+03  0.00000000000E+00 0. -1.
         21    1    1    2  504  503 -0.75171651948E+02  0.56046593121E+02 -0.89530725284E+02  0.12964470150E+03  0.00000000000E+00 0.  1.
         21    1    1    2  505  504 -0.14252526440E+02 -0.62540541806E+02 -0.14557792004E+03  0.15908294906E+03  0.00000000000E+00 0. -1.
          2    1    1    2  501    0  0.50153729829E+02  0.15138064308E+02 -0.19906502448E+03  0.20584324516E+03  0.00000000000E+00 0. -1.
<scales pt_clust_3="40.21056" pt_clust_4="14000.00000" pt_clust_5="63.49927" pt_clust_6="56.37045"></scales>
<clustering>
<clus scale="   40.211">  1  3  2 -1</clus>
<clus scale="   56.370">  2  6  1 -1</clus>
<clus scale="   63.499">  2  5  1 -1</clus>
<clus scale="   40.211">  1  3  2 -1</clus>
</clustering>
</event>
<event>
 6    0  0.4017242E+002  0.1479161E+03  0.7546771E-02  0.1203057E+00
         21   -1    0    0  503  502  0.00000000000E+00  0.00000000000E+00  0.18014140637E+03  0.18014140637E+03  0.00000000000E+00 0. -1.
          2   -1    0    0  502    0 -0.00000000000E+00 -0.00000000000E+00 -0.43728007577E+03  0.43728007577E+03  0.00000000000E+00 0.  1.
         21    1    1    2  503  505 -0.23734562966E+02  0.76818709815E+02  0.10774677478E+03  0.13443887508E+03  0.00000000000E+00 0. -1.
         21    1    1    2  504  501 -0.50981552843E+02  0.15073645001E+02 -0.17798946340E+02  0.56063678035E+02  0.00000000000E+00 0. -1.
         21    1    1    2  505  504 -0.24748165725E+02  0.43372245781E+02 -0.10861252270E+02  0.51103720136E+02  0.00000000000E+00 0. -1.
          2    1    1    2  501    0  0.99464281534E+02 -0.13526460060E+03 -0.33622524557E+03  0.37581520889E+03  0.00000000000E+00 0.  1.
<scales pt_clust_3="80.40176" pt_clust_4="37.69243" pt_clust_5="37.69243" pt_clust_6="142.71176"></scales>
<clustering>
<clus scale="   37.692">  4  5 -1 -1</clus>
<clus scale="   80.402">  1  3  2 -1</clus>
<clus scale="  142.712">  2  6  1 -1</clus>
<clus scale="   80.402">  1  3  2 -1</clus>
</clustering>
</event>
<event>
 6    0  0.4017242E+002  0.9457667E+02  0.7546771E-02  0.1292132E+00
         21   -1    0    0  505  502  0.00000000000E+00  0.00000000000E+00  0.15438705997E+04  0.15438705997E+04  0.00000000000E+00 0.  1.
         -1   -1    0    0    0  501 -0.00000000000E+00 -0.00000000000E+00 -0.14489734365E+04  0.14489734365E+04  0.00000000000E+00 0.  1.
         21    1    1    2  503  504 -0.77528351056E+02 -0.44040235366E+02  0.10508220318E+04  0.10545980894E+04  0.00000000000E+00 0.  1.
         21    1    1    2  504  502  0.29540039292E+02 -0.22256456208E+02  0.36903778354E+03  0.37088657221E+03  0.00000000000E+00 0.  1.
         21    1    1    2  505  501 -0.37867374385E+02  0.26608626298E+02  0.11517141636E+03  0.12412256919E+03  0.00000000000E+00 0.  1.
         -1    1    1    2    0  503  0.85855686149E+02  0.39688065277E+02 -0.14401340685E+04  0.14432368054E+04  0.00000000000E+00 0.  1.
<scales pt_clust_3="14000.00000" pt_clust_4="36.98599" pt_clust_5="42.51386" pt_clust_6="94.57667"></scales>
<clustering>
<clus scale="   36.986">  1  4  2 -1</clus>
<clus scale="   42.514">  1  5  2 -1</clus>
<clus scale="   94.577">  2  6  1 -1</clus>
<clus scale="   36.986">  1  3  2 -1</clus>
</clustering>
</event>
<event>
 6    0  0.4017242E+002  0.2180409E+03  0.7546771E-02  0.1135352E+00
          1   -1    0    0  505    0 -0.00000000000E+00  0.00000000000E+00  0.63087989763E+03  0.63087989763E+03  0.00000000000E+00 0. -1.
         21   -1    0    0  504  502  0.00000000000E+00 -0.00000000000E+00 -0.11423022287E+03  0.11423022287E+03  0.00000000000E+00 0.  1.
         21    1    1    2  503  502  0.74792775978E+01 -0.56690604032E+02  0.11348894862E+02  0.58297183409E+02  0.00000000000E+00 0.  1.
         21    1    1    2  504  501  0.30141656356E+02 -0.69982557948E+00 -0.12952327405E+02  0.32814204073E+02  0.00000000000E+00 0.  1.
         21    1    1    2  505  503 -0.68809753017E+02 -0.14627759050E+03  0.10653432191E+03  0.19360133610E+03  0.00000000000E+00 0.  1.
          1    1    1    2  501    0  0.31188819063E+02  0.20366802011E+03  0.41171878538E+03  0.46039739692E+03  0.00000000000E+00 0. -1.
<scales pt_clust_3="41.60786" pt_clust_4="30.14978" pt_clust_5="41.60786" pt_clust_6="207.22682"></scales>
<clustering>
<clus scale="   30.150">  2  4  1 -1</clus>
<clus scale="   41.608">  3  5 -1 -1</clus>
<clus scale="  207.227">  1  6  2 -1</clus>
<clus scale="   30.150">  2  3  1 -1</clus>
</clustering>
</event>
<event>
 6    0  0.1162060E+003  0.1239971E+03  0.7546771E-02  0.1236645E+00
          2   -1    0    0  503    0 -0.00000000000E+00  0.00000000000E+00  0.10394969103E+04  0.10394969103E+04  0.00000000000E+00 0.  1.
         21   -1    0    0  505  502  0.00000000000E+00 -0.00000000000E+00 -0.11085906256E+04  0.11085906256E+04  0.00000000000E+00 0. -1.
         21    1    1    2  503  504  0.84640105981E+02  0.96966281767E+01 -0.64322753825E+02  0.10674918640E+03  0.00000000000E+00 0. -1.
         21    1    1    2  504  502  0.45068508142E+02 -0.66918916786E+02 -0.96349285142E+03  0.96686492676E+03  0.00000000000E+00 0. -1.
         21    1    1    2  505  501 -0.63529503419E+01  0.31712432422E+02 -0.49108186143E+02  0.58801805196E+02  0.00000000000E+00 0.  1.
          2    1    1    2  501    0 -0.12335566378E+03  0.25509856188E+02  0.10078300761E+04  0.10156716176E+04  0.00000000000E+00 0.  1.
<scales pt_clust_3="123.99707" pt_clust_4="54.56233" pt_clust_5="32.34252" pt_clust_6="14000.00000"></scales>
<clustering>
<clus scale="   32.343">  2  5  1 -1</clus>
<clus scale="   54.562">  2  4  1 -1</clus>
<clus scale="  123.997">  2  3  1 -1</clus>
<clus scale="   32.343">  2  3  1 -1</clus>
</clustering>
</event>
<event>
 6    0  0.4017242E+002  0.1109831E+03  0.7546771E-02  0.1258760E+00
         21   -1    0    0  504  502  0.00000000000E+00  0.00000000000E+00  0.26472638445E+04  0.26472638445E+04  0.00000000000E+00 0.  1.
          1   -1    0    0  503    0 -0.00000000000E+00 -0.00000000000E+00 -0.10732209909E+04  0.10732209909E+04  0.00000000000E+00 0.  1.
         21    1    1    2  503  502 -0.12428750415E+03 -0.86276921266E+02 -0.14506771595E+03  0.20960852330E+03  0.00000000000E+00 0. -1.
         21    1    1    2  504  505  0.13958953519E+02  0.29395190556E+02  0.23806321718E+04  0.23808545665E+04  0.00000000000E+00 0.  1.
         21    1    1    2  505  501  0.78330273201E+02  0.33118330287E+02  0.22606935512E+03  0.24153635094E+03  0.00000000000E+00 0. -1.
          1    1    1    2  501    0  0.31998277434E+02  0.23763400423E+02 -0.88759095737E+03  0.88848539468E+03  0.00000000000E+00 0.  1.
<scales pt_clust_3="14000.00000" pt_clust_4="32.54120" pt_clust_5="110.98312" pt_clust_6="39.90533"></scales>
<clustering>
<clus scale="   32.541">  1  4  2 -1</clus>
<clus scale="   39.905">  2  6  1 -1</clus>
<clus scale="  110.983">  1  5  2 -1</clus>
<clus scale="   32.541">  1  3  2 -1</clus>
</clustering>
</event>
<event>
 6    0  0.4017242E+002  0.6191478E+02  0.7546771E-02  0.1389968E+00
          2   -1    0    0  504    0 -0.00000000000E+00  0.00000000000E+00  0.38833796983E+04  0.38833796983E+04  0.00000000000E+00 0. -1.
         21   -1    0    0  505  502  0.00000000000E+00 -0.00000000000E+00 -0.14607138316E+02  0.14607138316E+02  0.00000000000E+00 0.  1.
         21    1    1    2  503  501 -0.18796899817E+02  0.82454389764E+02  0.87455667845E+03  0.87863612131E+03  0.00000000000E+00 0.  1.
         21    1    1    2  504  502  0.52380527484E+02  0.18537644422E+02  0.11435466916E+03  0.12713911388E+03  0.00000000000E+00 0.  1.
         21    1    1    2  505  503 -0.56332344317E+02 -0.61181548517E+02  0.28352906294E+03  0.29547460877E+03  0.00000000000E+00 0.  1.
          2    1    1    2  501    0  0.22748716651E+02 -0.39810485669E+02  0.25963321495E+04  0.25967369927E+04  0.00000000000E+00 0. -1.
<scales pt_clust_3="55.43391" pt_clust_4="61.91478" pt_clust_5="14000.00000" pt_clust_6="45.85171"></scales>
<clustering>
<clus scale="   45.852">  1  6  2 -1</clus>
<clus scale="   55.434">  1  3  2 -1</clus>
<clus scale="   61.915">  2  4  1 -1</clus>
<clus scale="   61.915">  2  3  1 -1</clus>
</clustering>
</event>
<event>
 6    0  0.4017242E+002  0.8635007E+02  0.7546771E-02  0.1311939E+00
         21   -1    0    0  505  502  0.00000000000E+00  0.00000000000E+00  0.35240047139E+03  0.35240047139E+03  0.00000000000E+00 0. -1.
          2   -1    0    0  503    0 -0.00000000000E+00 -0.00000000000E+00 -0.15506930512E+03  0.15506930512E+03  0.00000000000E+00 0.  1.
         21    1    1    2  503  504  0.53897178560E+02 -0.27750159669E+02  0.93749892598E+01  0.61342217453E+02  0.00000000000E+00 0. -1.
         21    1    1    2  504  502  0.39390451858E+01  0.38151252925E+02  0.83536486064E+02  0.91920501960E+02  0.00000000000E+00 0.  1.
         21    1    1    2  505  501  0.27026689204E+02 -0.68441840129E+02  0.20044530480E+03  0.21352528568E+03  0.00000000000E+00 0. -1.
          2    1    1    2  501    0 -0.84862912950E+02  0.58040746873E+02 -0.96025613848E+02  0.14068177141E+03  0.00000000000E+00 0.  1.
<scales pt_clust_3="14000.00000" pt_clust_4="38.35406" pt_clust_5="48.95769" pt_clust_6="86.35007"></scales>
<clustering>
<clus scale="   38.354">  1  4  2 -1</clus>
<clus scale="   48.958">  1  5  2 -1</clus>
<clus scale="   86.350">  2  6  1 -1</clus>
<clus scale="   38.354">  1  3  2 -1</clus>
</clustering>
</event>
<event>
 6    0  0.4017242E+002  0.9483164E+02  0.7546771E-02  0.1291556E+00
         21   -1    0    0  505  502  0.00000000000E+00  0.00000000000E+00  0.10602564731E+03  0.10602564731E+03  0.00000000000E+00 0. -1.
          2   -1    0    0  504    0 -0.00000000000E+00 -0.00000000000E+00 -0.50803367910E+03  0.50803367910E+03  0.00000000000E+00 0. -1.
         21    1    1    2  503  501 -0.60957078819E+02 -0.52726197474E+02 -0.11994294751E+03  0.14450649818E+03  0.00000000000E+00 0.  1.
         21    1    1    2  504  502 -0.16017511414E+02  0.52146238318E+02  0.31249702002E+02  0.62867596724E+02  0.00000000000E+00 0. -1.
         21    1    1    2  505  503  0.88967688411E+02  0.34152156204E+02 -0.40616524019E+01  0.95384046752E+02  0.00000000000E+00 0. -1.
          2    1    1    2  501    0 -0.11993098177E+02 -0.33572197048E+02 -0.30925313388E+03  0.31130118476E+03  0.00000000000E+00 0. -1.
<scales pt_clust_3="14000.00000" pt_clust_4="52.29460" pt_clust_5="94.83164" pt_clust_6="35.65006"></scales>
<clustering>
<clus scale="   35.650">  2  6  1 -1</clus>
<clus scale="   52.295">  1  4  2 -1</clus>
<clus scale="   94.832">  1  5  2 -1</clus>
<clus scale="   52.295">  1  3  2 -1</clus>
</clustering>
</event>
<event>
 6    0  0.4017242E+002  0.9759991E+02  0.7546771E-02  0.1285426E+00
         21   -1    0    0  501  502  0.00000000000E+00  0.00000000000E+00  0.45974162122E+02  0.45974162122E+02  0.00000000000E+00 0. -1.
          2   -1    0    0  504    0 -0.00000000000E+00 -0.00000000000E+00 -0.20583046203E+04  0.20583046203E+04  0.00000000000E+00 0.  1.
         21    1    1    2  503  505 -0.29354424531E+02 -0.18679743113E+02 -0.64465267113E+03  0.64559095520E+03  0.00000000000E+00 0.  1.
         21    1    1    2  504  503  0.33220857723E+01 -0.34428955700E+02 -0.61946535812E+03  0.62043026938E+03  0.00000000000E+00 0.  1.
         21    1    1    2  505  502  0.99075355801E+02 -0.53982897067E+01 -0.16500365093E+02  0.10058493777E+03  0.00000000000E+00 0. -1.
          2    1    1    2  501    0 -0.73043017042E+02  0.58506988519E+02 -0.73171206388E+03  0.73767262012E+03  0.00000000000E+00 0.  1.
<scales pt_clust_3="44.05347" pt_clust_4="34.58886" pt_clust_5="14000.00000" pt_clust_6="97.59991"></scales>
<clustering>
<clus scale="   34.589">  2  4  1 -1</clus>
<clus scale="   44.053">  2  3  1 -1</clus>
<clus scale="   97.600">  2  6  1 -1</clus>
<clus scale="   97.600">  1  3  2 -1</clus>
</clustering>
</event>
<event>
 6    0  0.4017242E+002  0.7965564E+02  0.7546771E-02  0.1330032E+00
         21   -1    0    0  503  502  0.00000000000E+00  0.00000000000E+00  0.19030559849E+03  0.19030559849E+03  0.00000000000E+00 0.  1.
          2   -1    0    0  504    0 -0.00000000000E+00 -0.00000000000E+00 -0.90045290849E+03  0.90045290849E+03  0.00000000000E+00 0.  1.
         21    1    1    2  503  505  0.64152936258E+02 -0.26513634832E+02  0.10656768930E+03  0.12718193451E+03  0.00000000000E+00 0.  1.
         21    1    1    2  504  502 -0.94308122118E+02  0.32516776794E+02 -0.23375660560E+02  0.10245869498E+03  0.00000000000E+00 0.  1.
         21    1    1    2  505  501  0.17423074833E+02  0.73267917281E+02 -0.12716444497E+02  0.76377085569E+02  0.00000000000E+00 0.  1.
          2    1    1    2  501    0  0.12732111027E+02 -0.79271059242E+02 -0.78062289424E+03  0.78474079192E+03  0.00000000000E+00 0.  1.
<scales pt_clust_3="69.41594" pt_clust_4="62.48399" pt_clust_5="79.65564" pt_clust_6="14000.00000"></scales>
<clustering>
<clus scale="   69.416">  1  3  2 -1</clus>
<clus scale="   62.484">  1  4  2 -1</clus>
<clus scale="   79.656">  1  5  2 -1</clus>
<clus scale="   69.416">  1  3  2 -1</clus>
</clustering>
</event>
<event>
 6    0  0.4017242E+002  0.1075475E+03  0.7546771E-02  0.1265180E+00
         21   -1    0    0  503  502  0.00000000000E+00  0.00000000000E+00  0.59294133222E+03  0.59294133222E+03  0.00000000000E+00 0.  1.
          2   -1    0    0  504    0 -0.00000000000E+00 -0.00000000000E+00 -0.63298867749E+03  0.63298867749E+03  0.00000000000E+00 0.  1.
         21    1    1    2  503  501  0.61562034273E+01  0.30110710366E+02  0.76288772009E+02  0.82246765615E+02  0.00000000000E+00 0.  1.
         21    1    1    2  504  505 -0.96206363731E+02 -0.10565015393E+03  0.66501907526E+02  0.15760749714E+03  0.00000000000E+00 0.  1.
         21    1    1    2  505  502  0.96150876346E+02  0.32613845260E+01  0.39355155867E+03  0.40514004614E+03  0.00000000000E+00 0.  1.
          2    1    1    2  501    0 -0.61007160427E+01  0.72278059042E+02 -0.57638958347E+03  0.58093570082E+03  0.00000000000E+00 0.  1.
<scales pt_clust_3="30.73359" pt_clust_4="14000.00000" pt_clust_5="107.54746" pt_clust_6="72.66556"></scales>
<clustering>
<clus scale="   30.734">  1  3  2 -1</clus>
<clus scale="   72.666">  2  6  1 -1</clus>
<clus scale="  107.547">  1  5  2 -1</clus>
<clus scale="   30.734">  1  3  2 -1</clus>
</clustering>
</event>
<event>
 6    0  0.4017242E+002  0.1498024E+03  0.7546771E-02  0.1200716E+00
         21   -1    0    0  501  502  0.00000000000E+00  0.00000000000E+00  0.43615784658E+03  0.43615784658E+03  0.00000000000E+00 0. -1.
          1   -1    0    0  505    0 -0.00000000000E+00 -0.00000000000E+00 -0.85045464905E+03  0.85045464905E+03  0.00000000000E+00 0.  1.
         21    1    1    2  503  504 -0.48746579099E+02  0.46894187148E+02 -0.13497064331E+02  0.68974375732E+02  0.00000000000E+00 0. -1.
         21    1    1    2  504  502 -0.11307771085E+01 -0.52078856886E+02  0.35564178149E+03  0.35943645159E+03  0.00000000000E+00 0. -1.
         21    1    1    2  505  503  0.47474048433E+02  0.15400836075E+03 -0.11067274095E+03  0.19550144768E+03  0.00000000000E+00 0. -1.
          1    1    1    2  501    0  0.24033077740E+01 -0.14882369101E+03 -0.64576877868E+03  0.66270022062E+03  0.00000000000E+00 0.  1.
<scales pt_clust_3="56.82116" pt_clust_4="52.09113" pt_clust_5="14000.00000" pt_clust_6="149.80240"></scales>
<clustering>
<clus scale="   52.091">  1  4  2 -1</clus>
<clus scale="   56.821">  1  3  2 -1</clus>
<clus scale="  149.802">  2  6  1 -1</clus>
<clus scale="   52.091">  1  3  2 -1</clus>
</clustering>
</event>
<event>
 6    0  0.4017242E+002  0.1163026E+03  0.7546771E-02  0.1249324E+00
         -3   -1    0    0    0  501 -0.00000000000E+00  0.00000000000E+00  0.47065161978E+02  0.47065161978E+02  0.00000000000E+00 0. -1.
         21   -1    0    0  503  502  0.00000000000E+00 -0.00000000000E+00 -0.18645393724E+04  0.18645393724E+04  0.00000000000E+00 0. -1.
         21    1    1    2  503  501 -0.42707039756E+02  0.28500910598E+02 -0.64239199368E+03  0.64444058430E+03  0.00000000000E+00 0. -1.
         21    1    1    2  504  505  0.36936678809E+02 -0.47293199327E+02 -0.38695694739E+03  0.39158223157E+03  0.00000000000E+00 0. -1.
         21    1    1    2  505  502  0.29953087546E+01 -0.84659477619E+02 -0.76482508735E+03  0.76950218536E+03  0.00000000000E+00 0.  1.
         -3    1    1    2    0  504  0.27750521922E+01  0.10345176635E+03 -0.23300182011E+02  0.10607953317E+03  0.00000000000E+00 0. -1.
<scales pt_clust_3="51.34387" pt_clust_4="42.15894" pt_clust_5="42.15894" pt_clust_6="104.96287"></scales>
<clustering>
<clus scale="   42.159">  4  5 -1 -1</clus>
<clus scale="   51.344">  2  3  1 -1</clus>
<clus scale="  104.963">  1  6  2 -1</clus>
<clus scale="   51.344">  2  3  1 -1</clus>
</clustering>
</event>
<event>
 6    0  0.4017242E+002  0.3890656E+03  0.7546771E-02  0.1047633E+00
         21   -1    0    0  505  502  0.00000000000E+00  0.00000000000E+00  0.32497370383E+03  0.32497370383E+03  0.00000000000E+00 0. -1.
          3   -1    0    0  502    0 -0.00000000000E+00 -0.00000000000E+00 -0.71490492404E+03  0.71490492404E+03  0.00000000000E+00 0. -1.
         21    1    1    2  503  501  0.23761983972E+03  0.24970037509E+03 -0.20416844515E+03  0.40062229038E+03  0.00000000000E+00 0. -1.
         21    1    1    2  504  503 -0.22946520349E+03 -0.20557017558E+03 -0.47412495329E+01  0.30811662751E+03  0.00000000000E+00 0. -1.
         21    1    1    2  505  504 -0.54728737921E+02 -0.80373565196E+02  0.37930680780E+02  0.10437375763E+03  0.00000000000E+00 0. -1.
          3    1    1    2  501    0  0.46574101685E+02  0.36243365689E+02 -0.21895220631E+03  0.22676595236E+03  0.00000000000E+00 0. -1.
<scales pt_clust_3="380.59857" pt_clust_4="45.35248" pt_clust_5="45.35248" pt_clust_6="59.01465"></scales>
<clustering>
<clus scale="   45.352">  4  5 -1 -1</clus>
<clus scale="   59.015">  2  6  1 -1</clus>
<clus scale="  380.599">  2  3  1 -1</clus>
<clus scale="  389.066">  1  3  2 -1</clus>
</clustering>
</event>
<event>
 6    0  0.4017242E+002  0.1257889E+03  0.7546771E-02  0.1233842E+00
          2   -1    0    0  503    0 -0.00000000000E+00  0.00000000000E+00  0.35687448137E+04  0.35687448137E+04  0.00000000000E+00 0. -1.
         21   -1    0    0  505  502  0.00000000000E+00 -0.00000000000E+00 -0.95953135774E+02  0.95953135774E+02  0.00000000000E+00 0. -1.
         21    1    1    2  503  502 -0.68398800985E+02 -0.14947840340E+03  0.71677205384E+03  0.73538042279E+03  0.00000000000E+00 0. -1.
         21    1    1    2  504  501  0.12395460760E+01  0.12665884871E+03  0.35436722054E+03  0.37632449751E+03  0.00000000000E+00 0. -1.
         21    1    1    2  505  504 -0.35268051908E+02 -0.27201812351E+02 -0.67685635459E+02  0.81025423961E+02  0.00000000000E+00 0. -1.
          2    1    1    2  501    0  0.10242730682E+03  0.50021367032E+02  0.24693380391E+04  0.24719676053E+04  0.00000000000E+00 0. -1.
<scales pt_clust_3="125.78889" pt_clust_4="14000.00000" pt_clust_5="44.53958" pt_clust_6="111.33443"></scales>
<clustering>
<clus scale="   44.540">  2  5  1 -1</clus>
<clus scale="  111.334">  1  6  2 -1</clus>
<clus scale="  125.789">  1  3  2 -1</clus>
<clus scale="   44.540">  2  3  1 -1</clus>
</clustering>
</event>
<event>
 6    0  0.4017242E+002  0.6255945E+02  0.7546771E-02  0.1387394E+00
          3   -1    0    0  504    0 -0.00000000000E+00  0.00000000000E+00  0.11899982826E+03  0.11899982826E+03  0.00000000000E+00 0. -1.
         21   -1    0    0  505  502  0.00000000000E+00 -0.00000000000E+00 -0.30445388360E+04  0.30445388360E+04  0.00000000000E+00 0. -1.
         21    1    1    2  503  501 -0.86002800887E+02 -0.56530142079E+02 -0.22503637893E+04  0.22527159881E+04  0.00000000000E+00 0. -1.
         21    1    1    2  504  502 -0.13881884806E+02  0.48564258344E+02 -0.25732043607E+03  0.26223081576E+03  0.00000000000E+00 0. -1.
         21    1    1    2  505  503  0.57643070938E+02 -0.37985288282E+02 -0.52234056872E+03  0.52688260123E+03  0.00000000000E+00 0. -1.
          3    1    1    2  501    0  0.42241614754E+02  0.45951172017E+02  0.10448578634E+03  0.12170925920E+03  0.00000000000E+00 0. -1.
<scales pt_clust_3="62.55945" pt_clust_4="50.50934" pt_clust_5="62.12577" pt_clust_6="14000.00000"></scales>
<clustering>
<clus scale="   50.509">  2  4  1 -1</clus>
<clus scale="   62.126">  2  5  1 -1</clus>
<clus scale="   62.559">  2  3  1 -1</clus>
<clus scale="   50.509">  2  3  1 -1</clus>
</clustering>
</event>
<event>
 6    0  0.4017242E+002  0.8109529E+02  0.7546771E-02  0.1325972E+00
          1   -1    0    0  504    0 -0.00000000000E+00  0.00000000000E+00  0.12352738775E+03  0.12352738775E+03  0.00000000000E+00 0.  1.
         21   -1    0    0  503  502  0.00000000000E+00 -0.00000000000E+00 -0.33328034966E+03  0.33328034966E+03  0.00000000000E+00 0.  1.
         21    1    1    2  503  501  0.60257103658E+02 -0.38128517067E+02 -0.46848735977E+02  0.85320023544E+02  0.00000000000E+00 0.  1.
         21    1    1    2  504  505  0.59588163089E+01  0.47199368492E+02 -0.17894255360E+02  0.50828065601E+02  0.00000000000E+00 0.  1.
         21    1    1    2  505  502 -0.11513542827E+03  0.65558153733E+02 -0.18111136675E+03  0.22440001233E+03  0.00000000000E+00 0.  1.
          1    1    1    2  501    0  0.48919508308E+02 -0.74629005158E+02  0.36101396185E+02  0.96259635936E+02  0.00000000000E+00 0.  1.
<scales pt_clust_3="68.11831" pt_clust_4="47.57403" pt_clust_5="14000.00000" pt_clust_6="81.09529"></scales>
<clustering>
<clus scale="   47.574">  1  4  2 -1</clus>
<clus scale="   68.118">  2  3  1 -1</clus>
<clus scale="   81.095">  1  6  2 -1</clus>
<clus scale="   68.118">  2  3  1 -1</clus>
</clustering>
</event>
<event>
 6    0  0.4017242E+002  0.1311699E+03  0.7546771E-02  0.1225730E+00
         21   -1    0    0  503  502  0.00000000000E+00  0.00000000000E+00  0.18660234750E+02  0.18660234750E+02  0.00000000000E+00 0.  1.
          2   -1    0    0  504    0 -0.00000000000E+00 -0.00000000000E+00 -0.23022245229E+04  0.23022245229E+04  0.00000000000E+00 0.  1.
         21    1    1    2  503  501  0.22599702598E+02  0.33158786039E+02 -0.36554919876E+03  0.36774511331E+03  0.00000000000E+00 0.  1.
         21    1    1    2  504  505 -0.27077414351E+02 -0.61537378911E+02 -0.11087248935E+03  0.12966396672E+03  0.00000000000E+00 0.  1.
         21    1    1    2  505  502 -0.59400730055E+02 -0.21695135406E+02 -0.13198482952E+03  0.14635272753E+03  0.00000000000E+00 0.  1.
          2    1    1    2  501    0  0.63878441808E+02  0.50073728277E+02 -0.16751577706E+04  0.16771229501E+04  0.00000000000E+00 0.  1.
<scales pt_clust_3="35.81388" pt_clust_4="51.31444" pt_clust_5="51.31444" pt_clust_6="130.38582"></scales>
<clustering>
<clus scale="   35.814">  3  6 -1 -1</clus>
<clus scale="   51.314">  4  5 -1 -1</clus>
<clus scale="  130.386">  2  3  1 -1</clus>
<clus scale="  131.170">  1  3  2 -1</clus>
</clustering>
</event>
<event>
 6    0  0.4017242E+002  0.1710680E+03  0.7546771E-02  0.1176739E+00
         21   -1    0    0  501  502  0.00000000000E+00  0.00000000000E+00  0.29162181348E+03  0.29162181348E+03  0.00000000000E+00 0.  1.
          1   -1    0    0  505    0 -0.00000000000E+00 -0.00000000000E+00 -0.31516802251E+04  0.31516802251E+04  0.00000000000E+00 0. -1.
         21    1    1    2  503  504 -0.11924898147E+02  0.50535975525E+02 -0.72159545805E+02  0.88899314221E+02  0.00000000000E+00 0. -1.
         21    1    1    2  504  502  0.72157290653E+01  0.33465721830E+02  0.26279840383E+03  0.26501890940E+03  0.00000000000E+00 0.  1.
         21    1    1    2  505  503  0.12911678223E+03  0.10048461156E+03 -0.23149625545E+04  0.23207369367E+04  0.00000000000E+00 0. -1.
          1    1    1    2  501    0 -0.12440761315E+03 -0.18448630891E+03 -0.73573471512E+03  0.76864687823E+03  0.00000000000E+00 0. -1.
<scales pt_clust_3="61.42133" pt_clust_4="34.23480" pt_clust_5="14000.00000" pt_clust_6="171.06803"></scales>
<clustering>
<clus scale="   34.235">  1  4  2 -1</clus>
<clus scale="   61.421">  1  3  2 -1</clus>
<clus scale="  171.068">  1  6  2 -1</clus>
<clus scale="   34.235">  1  3  2 -1</clus>
</clustering>
</event>
<event>
 6    0  0.4017242E+002  0.2134648E+03  0.7546771E-02  0.1138851E+00
          2   -1    0    0  503    0 -0.00000000000E+00  0.00000000000E+00  0.75368654745E+03  0.75368654745E+03  0.00000000000E+00 0.  1.
         21   -1    0    0  504  502  0.00000000000E+00 -0.00000000000E+00 -0.13042958547E+03  0.13042958547E+03  0.00000000000E+00 0.  1.
         21    1    1    2  503  505  0.18385827875E+03  0.10124427816E+03  0.95887739191E+02  0.23075686133E+03  0.00000000000E+00 0.  1.
         21    1    1    2  504  501  0.50658909000E+00  0.42885494495E+02  0.22950908647E+02  0.48643257275E+02  0.00000000000E+00 0.  1.
         21    1    1    2  505  502 -0.33873482554E+02  0.12111818823E+02 -0.17135647813E+02  0.39846447790E+02  0.00000000000E+00 0. -1.
          2    1    1    2  501    0 -0.15049138529E+03 -0.15624159148E+03  0.52155396195E+03  0.56486956652E+03  0.00000000000E+00 0.  1.
<scales pt_clust_3="213.46484" pt_clust_4="44.57087" pt_clust_5="35.97373" pt_clust_6="14000.00000"></scales>
<clustering>
<clus scale="   35.974">  2  5  1 -1</clus>
<clus scale="   44.571">  2  4  1 -1</clus>
<clus scale="  213.465">  2  3  1 -1</clus>
<clus scale="   35.974">  2  3  1 -1</clus>
</clustering>
</event>
<event>
 6    0  0.4017242E+002  0.8105255E+02  0.7546771E-02  0.1326091E+00
         21   -1    0    0  503  502  0.00000000000E+00  0.00000000000E+00  0.84510526605E+02  0.84510526605E+02  0.00000000000E+00 0.  1.
          2   -1    0    0  505    0 -0.00000000000E+00 -0.00000000000E+00 -0.11552178247E+04  0.11552178247E+04  0.00000000000E+00 0. -1.
         21    1    1    2  503  501 -0.24153530789E+01  0.85695956722E+02 -0.31966619860E+03  0.33096239885E+03  0.00000000000E+00 0.  1.
         21    1    1    2  504  502  0.83428942353E+02 -0.28961767741E+01  0.47537349086E+02  0.96065476735E+02  0.00000000000E+00 0.  1.
         21    1    1    2  505  504 -0.53501600539E+02 -0.66230585505E+02 -0.26907152803E+03  0.28222047926E+03  0.00000000000E+00 0.  1.
          2    1    1    2  501    0 -0.27511988736E+02 -0.16569194442E+02 -0.52950692060E+03  0.53047999651E+03  0.00000000000E+00 0. -1.
<scales pt_clust_3="78.86962" pt_clust_4="81.05255" pt_clust_5="14000.00000" pt_clust_6="32.11616"></scales>
<clustering>
<clus scale="   32.116">  2  6  1 -1</clus>
<clus scale="   78.870">  2  3  1 -1</clus>
<clus scale="   81.053">  1  4  2 -1</clus>
<clus scale="   81.053">  1  3  2 -1</clus>
</clustering>
</event>
<event>
 6    0  0.4017242E+002  0.1084527E+03  0.7546771E-02  0.1263462E+00
         21   -1    0    0  501  502  0.00000000000E+00  0.00000000000E+00  0.13835234326E+03  0.13835234326E+03  0.00000000000E+00 0. -1.
          3   -1    0    0  505    0 -0.00000000000E+00 -0.00000000000E+00 -0.99020553278E+03  0.99020553278E+03  0.00000000000E+00 0. -1.
         21    1    1    2  503  504  0.55255680639E+01  0.73679730258E+02 -0.95554049853E+02  0.12078828998E+03  0.00000000000E+00 0.  1.
         21    1    1    2  504  502 -0.36328247802E+02 -0.47465304788E+02  0.98631610929E+02  0.11532949068E+03  0.00000000000E+00 0. -1.
         21    1    1    2  505  503 -0.25984433580E+02  0.50927720107E+02 -0.35219348173E+02  0.67150770282E+02  0.00000000000E+00 0.  1.
          3    1    1    2  501    0  0.56787113317E+02 -0.77142145577E+02 -0.81971140242E+03  0.82528932510E+03  0.00000000000E+00 0. -1.
<scales pt_clust_3="41.94630" pt_clust_4="59.77204" pt_clust_5="41.94630" pt_clust_6="97.40716"></scales>
<clustering>
<clus scale="   41.946">  3  5 -1 -1</clus>
<clus scale="   59.772">  1  4  2 -1</clus>
<clus scale="   97.407">  2  6  1 -1</clus>
<clus scale="   59.772">  1  3  2 -1</clus>
</clustering>
</event>
<event>
 6    0  0.4017242E+002  0.1134761E+03  0.7546771E-02  0.1254265E+00
         21   -1    0    0  504  502  0.00000000000E+00  0.00000000000E+00  0.61864090743E+02  0.61864090743E+02  0.00000000000E+00 0. -1.
          2   -1    0    0  503    0 -0.00000000000E+00 -0.00000000000E+00 -0.81049607527E+03  0.81049607527E+03  0.00000000000E+00 0.  1.
         21    1    1    2  503  505  0.57606998771E+02  0.83209232633E+02 -0.25800674945E+03  0.27714585594E+03  0.00000000000E+00 0. -1.
         21    1    1    2  504  501 -0.33992035302E+02  0.56008279801E+01  0.94804672954E+01  0.35731036903E+02  0.00000000000E+00 0. -1.
         21    1    1    2  505  502  0.93177141893E+01  0.33078556753E+02  0.85320079113E+01  0.35409121333E+02  0.00000000000E+00 0. -1.
          2    1    1    2  501    0 -0.32932677659E+02 -0.12188861737E+03 -0.50863771029E+03  0.52407415184E+03  0.00000000000E+00 0.  1.
<scales pt_clust_3="14000.00000" pt_clust_4="37.64384" pt_clust_5="34.36584" pt_clust_6="113.47611"></scales>
<clustering>
<clus scale="   34.366">  1  5  2 -1</clus>
<clus scale="   37.644">  1  4  2 -1</clus>
<clus scale="  113.476">  2  6  1 -1</clus>
<clus scale="   34.366">  1  3  2 -1</clus>
</clustering>
</event>
<event>
 6    0  0.4017242E+002  0.1022780E+03  0.7546771E-02  0.1275577E+00
          1   -1    0    0  503    0 -0.00000000000E+00  0.00000000000E+00  0.51780617893E+03  0.51780617893E+03  0.00000000000E+00 0. -1.
         21   -1    0    0  505  502  0.00000000000E+00 -0.00000000000E+00 -0.26297575241E+03  0.26297575241E+03  0.00000000000E+00 0. -1.
         21    1    1    2  503  502 -0.80599191755E+02 -0.33539678303E+02  0.11194180381E+02  0.88013915983E+02  0.00000000000E+00 0. -1.
         21    1    1    2  504  501 -0.56958610501E+02  0.45350275292E+02  0.50632292255E+02  0.88682353364E+02  0.00000000000E+00 0. -1.
         21    1    1    2  505  504  0.31580782327E+02  0.41035863716E+01 -0.19703520701E+03  0.19959222939E+03  0.00000000000E+00 0. -1.
          1    1    1    2  501    0  0.10597701993E+03 -0.15914183360E+02  0.39003916089E+03  0.40449343260E+03  0.00000000000E+00 0. -1.
<scales pt_clust_3="14000.00000" pt_clust_4="66.63138" pt_clust_5="31.84628" pt_clust_6="102.27802"></scales>
<clustering>
<clus scale="   31.846">  2  5  1 -1</clus>
<clus scale="   66.631">  2  4  1 -1</clus>
<clus scale="  102.278">  1  6  2 -1</clus>
<clus scale="   31.846">  2  3  1 -1</clus>
</clustering>
</event>
<event>
 6    0  0.4017242E+002  0.1279483E+03  0.7546771E-02  0.1230532E+00
          1   -1    0    0  505    0 -0.00000000000E+00  0.00000000000E+00  0.19036326966E+03  0.19036326966E+03  0.00000000000E+00 0. -1.
         21   -1    0    0  501  502  0.00000000000E+00 -0.00000000000E+00 -0.46358702507E+03  0.46358702507E+03  0.00000000000E+00 0. -1.
         21    1    1    2  503  502 -0.25944348406E+02  0.35392593626E+02 -0.34885316354E+03  0.35160243829E+03  0.00000000000E+00 0. -1.
         21    1    1    2  504  503 -0.61155237983E+02 -0.41999732695E+02 -0.48510359674E+02  0.88640823975E+02  0.00000000000E+00 0. -1.
         21    1    1    2  505  504 -0.34937897950E+02 -0.20459508305E+02  0.46035850018E+01  0.40748511483E+02  0.00000000000E+00 0. -1.
          1    1    1    2  501    0  0.12203748434E+03  0.27066647374E+02  0.11953618280E+03  0.17295852099E+03  0.00000000000E+00 0. -1.
<scales pt_clust_3="43.88331" pt_clust_4="30.26812" pt_clust_5="30.26812" pt_clust_6="121.21061"></scales>
<clustering>
<clus scale="   30.268">  4  5 -1 -1</clus>
<clus scale="   43.883">  2  3  1 -1</clus>
<clus scale="  121.211">  1  6  2 -1</clus>
<clus scale="   43.883">  2  3  1 -1</clus>
</clustering>
</event>
<event>
 6    0  0.4017242E+002  0.1278477E+03  0.7546771E-02  0.1230685E+00
         21   -1    0    0  503  502  0.00000000000E+00  0.00000000000E+00  0.79209828135E+02  0.79209828135E+02  0.00000000000E+00 0.  1.
          1   -1    0    0  505    0 -0.00000000000E+00 -0.00000000000E+00 -0.20110830394E+04  0.20110830394E+04  0.00000000000E+00 0.  1.
         21    1    1    2  503  501 -0.44676724529E+02 -0.12375453713E+03 -0.39502323354E+02  0.13737404677E+03  0.00000000000E+00 0.  1.
         21    1    1    2  504  502 -0.21902804974E+02  0.12809903171E+03 -0.23499159809E+03  0.26853332375E+03  0.00000000000E+00 0.  1.
         21    1    1    2  505  504  0.10115300879E+03 -0.13989824513E+02 -0.18294965844E+03  0.20951902993E+03  0.00000000000E+00 0.  1.
          1    1    1    2  501    0 -0.34573479283E+02  0.96453299301E+01 -0.14744296313E+04  0.14748664671E+04  0.00000000000E+00 0.  1.
<scales pt_clust_3="127.84774" pt_clust_4="14000.00000" pt_clust_5="89.12175" pt_clust_6="35.89370"></scales>
<clustering>
<clus scale="   35.894">  2  6  1 -1</clus>
<clus scale="   89.122">  2  5  1 -1</clus>
<clus scale="  127.848">  1  3  2 -1</clus>
<clus scale="  127.848">  1  3  2 -1</clus>
</clustering>
</event>
<event>
 6    0  0.4468160E+002  0.6297230E+02  0.7546771E-02  0.1385765E+00
          2   -1    0    0  504    0 -0.00000000000E+00  0.00000000000E+00  0.26060803621E+04  0.26060803621E+04  0.00000000000E+00 0.  1.
         21   -1    0    0  503  502  0.00000000000E+00 -0.00000000000E+00 -0.20787023273E+03  0.20787023273E+03  0.00000000000E+00 0.  1.
         21    1    1    2  503  501  0.21259332910E+02  0.11830486254E+03 -0.15807982559E+03  0.19858809379E+03  0.00000000000E+00 0.  1.
         21    1    1    2  504  505 -0.40925393499E+02 -0.40019066889E+02  0.97786477862E+02  0.11330758492E+03  0.00000000000E+00 0. -1.
         21    1    1    2  505  502  0.48260429553E+02 -0.22312195997E+02  0.11695506301E+02  0.54439765048E+02  0.00000000000E+00 0.  1.
          2    1    1    2  501    0 -0.28594368964E+02 -0.55973599658E+02  0.24468079708E+04  0.24476151510E+04  0.00000000000E+00 0.  1.
<scales pt_clust_3="62.97230" pt_clust_4="56.49112" pt_clust_5="53.16863" pt_clust_6="14000.00000"></scales>
<clustering>
<clus scale="   53.169">  2  5  1 -1</clus>
<clus scale="   56.491">  2  4  1 -1</clus>
<clus scale="   62.972">  2  3  1 -1</clus>
<clus scale="   53.169">  2  3  1 -1</clus>
</clustering>
</event>
<event>
 6    0  0.4017242E+002  0.1223599E+03  0.7546771E-02  0.1239254E+00
         -4   -1    0    0    0  501 -0.00000000000E+00  0.00000000000E+00  0.15674755977E+04  0.15674755977E+04  0.00000000000E+00 0.  1.
         21   -1    0    0  504  502  0.00000000000E+00 -0.00000000000E+00 -0.10840603860E+03  0.10840603860E+03  0.00000000000E+00 0.  1.
         21    1    1    2  503  501  0.18536549875E+03 -0.23316698782E+02  0.45574625076E+03  0.49255322723E+03  0.00000000000E+00 0.  1.
         21    1    1    2  504  503 -0.17140679257E+02  0.75628174237E+02  0.17462459734E+02  0.79488119387E+02  0.00000000000E+00 0.  1.
         21    1    1    2  505  502 -0.62937442829E+02 -0.68115137869E+01 -0.37827890409E+02  0.73745967501E+02  0.00000000000E+00 0.  1.
         -4    1    1    2    0  505 -0.10528737667E+03 -0.45499961668E+02  0.10236887390E+04  0.10300943222E+04  0.00000000000E+00 0.  1.
<scales pt_clust_3="122.35990" pt_clust_4="89.83282" pt_clust_5="63.30496" pt_clust_6="14000.00000"></scales>
<clustering>
<clus scale="   63.305">  2  5  1 -1</clus>
<clus scale="   89.833">  2  4  1 -1</clus>
<clus scale="  122.360">  2  3  1 -1</clus>
<clus scale="   63.305">  2  3  1 -1</clus>
</clustering>
</event>
<event>
 6    0  0.4017242E+002  0.7682047E+02  0.7546771E-02  0.1338325E+00
         21   -1    0    0  504  502  0.00000000000E+00  0.00000000000E+00  0.32848582192E+03  0.32848582192E+03  0.00000000000E+00 0. -1.
          2   -1    0    0  503    0 -0.00000000000E+00 -0.00000000000E+00 -0.82629209280E+03  0.82629209280E+03  0.00000000000E+00 0.  1.
         21    1    1    2  503  505 -0.29421545217E+02 -0.10769198094E+02 -0.64182653528E+03  0.64259077518E+03  0.00000000000E+00 0.  1.
         21    1    1    2  504  501  0.44686017456E+02  0.61253791192E+02  0.27163218308E+03  0.28201579739E+03  0.00000000000E+00 0. -1.
         21    1    1    2  505  502 -0.79163815752E+02 -0.71266932177E+02 -0.12315710917E+03  0.16282984642E+03  0.00000000000E+00 0.  1.
          2    1    1    2  501    0  0.63899343514E+02  0.20782339079E+02 -0.44548095160E+01  0.67341495728E+02  0.00000000000E+00 0.  1.
<scales pt_clust_3="31.33054" pt_clust_4="76.82047" pt_clust_5="14000.00000" pt_clust_6="61.08867"></scales>
<clustering>
<clus scale="   31.331">  2  3  1 -1</clus>
<clus scale="   61.089">  2  6  1 -1</clus>
<clus scale="   76.820">  1  4  2 -1</clus>
<clus scale="   76.820">  1  3  2 -1</clus>
</clustering>
</event>
<event>
 6    0  0.4017242E+002  0.1045733E+03  0.7546771E-02  0.1270963E+00
         21   -1    0    0  505  502  0.00000000000E+00  0.00000000000E+00  0.64412344175E+02  0.64412344175E+02  0.00000000000E+00 0.  1.
          1   -1    0    0  503    0 -0.00000000000E+00 -0.00000000000E+00 -0.60247280798E+03  0.60247280798E+03  0.00000000000E+00 0.  1.
         21    1    1    2  503  502  0.25129267696E+02  0.17801425837E+02 -0.22381863407E+02  0.38069918129E+02  0.00000000000E+00 0.  1.
         21    1    1    2  504  501 -0.42309782258E+02 -0.16984125260E+02 -0.25557519816E+02  0.52266289372E+02  0.00000000000E+00 0. -1.
         21    1    1    2  505  504 -0.50165202289E+02 -0.64477218506E+02 -0.41266205554E+01  0.81797849753E+02  0.00000000000E+00 0.  1.
          1    1    1    2  501    0  0.67345716851E+02  0.63659917929E+02 -0.48599446003E+03  0.49475109490E+03  0.00000000000E+00 0.  1.
<scales pt_clust_3="30.79563" pt_clust_4="34.48238" pt_clust_5="34.48238" pt_clust_6="95.03213"></scales>
<clustering>
<clus scale="   30.796">  1  3  2 -1</clus>
<clus scale="   34.482">  4  5 -1 -1</clus>
<clus scale="   95.032">  2  6  1 -1</clus>
<clus scale="   30.796">  1  3  2 -1</clus>
</clustering>
</event>
<event>
 6    0  0.4017242E+002  0.1248104E+03  0.7546771E-02  0.1235366E+00
          1   -1    0    0  503    0 -0.00000000000E+00  0.00000000000E+00  0.21012714630E+04  0.21012714630E+04  0.00000000000E+00 0.  1.
         21   -1    0    0  505  502  0.00000000000E+00 -0.00000000000E+00 -0.98322767773E+02  0.98322767773E+02  0.00000000000E+00 0.  1.
         21    1    1    2  503  502 -0.10078987810E+03 -0.19739174636E+02 -0.59924843606E+02  0.11890845817E+03  0.00000000000E+00 0.  1.
         21    1    1    2  504  501  0.54127005904E+02  0.70804376316E+02  0.79292954561E+03  0.79792246288E+03  0.00000000000E+00 0.  1.
         21    1    1    2  505  504  0.82199571651E+02  0.28039915091E+02  0.45472478498E+03  0.46294452852E+03  0.00000000000E+00 0.  1.
          1    1    1    2  501    0 -0.35536699453E+02 -0.79105116772E+02  0.81521920828E+03  0.81981878123E+03  0.00000000000E+00 0.  1.
<scales pt_clust_3="103.86778" pt_clust_4="68.31523" pt_clust_5="68.31523" pt_clust_6="86.72068"></scales>
<clustering>
<clus scale="   68.315">  4  5 -1 -1</clus>
<clus scale="   86.721">  1  6  2 -1</clus>
<clus scale="  103.868">  2  3  1 -1</clus>
<clus scale="  103.868">  2  3  1 -1</clus>
</clustering>
</event>
<event>
 6    0  0.4017242E+002  0.8140696E+02  0.7546771E-02  0.1325105E+00
         -3   -1    0    0    0  501 -0.00000000000E+00  0.00000000000E+00  0.21073733104E+04  0.21073733104E+04  0.00000000000E+00 0.  1.
         21   -1    0    0  503  502  0.00000000000E+00 -0.00000000000E+00 -0.30169110864E+03  0.30169110864E+03  0.00000000000E+00 0. -1.
         21    1    1    2  503  505 -0.93697076569E+02 -0.50596927604E+02  0.16478354147E+03  0.19619583782E+03  0.00000000000E+00 0.  1.
         21    1    1    2  504  502  0.35827715847E+02  0.17613363115E+02 -0.27854610529E+03  0.28139258796E+03  0.00000000000E+00 0. -1.
         21    1    1    2  505  501 -0.28105962557E+02 -0.70850039232E+02  0.52055608820E+03  0.52610675167E+03  0.00000000000E+00 0.  1.
         -3    1    1    2    0  504  0.85975323278E+02  0.10383360372E+03  0.13988886774E+04  0.14053692416E+04  0.00000000000E+00 0.  1.
<scales pt_clust_3="81.40696" pt_clust_4="39.92312" pt_clust_5="72.52236" pt_clust_6="14000.00000"></scales>
<clustering>
<clus scale="   39.923">  2  4  1 -1</clus>
<clus scale="   72.522">  1  5  2 -1</clus>
<clus scale="   81.407">  2  3  1 -1</clus>
<clus scale="   39.923">  2  3  1 -1</clus>
</clustering>
</event>
<event>
 6    0  0.4017242E+002  0.1504185E+03  0.7546771E-02  0.1199960E+00
          2   -1    0    0  505    0 -0.00000000000E+00  0.00000000000E+00  0.28325287256E+04  0.28325287256E+04  0.00000000000E+00 0.  1.
         21   -1    0    0  504  502  0.00000000000E+00 -0.00000000000E+00 -0.64631923237E+02  0.64631923237E+02  0.00000000000E+00 0. -1.
         21    1    1    2  503  502  0.22622369829E+02 -0.85546483238E+02  0.14197855659E+04  0.14225403423E+04  0.00000000000E+00 0.  1.
         21    1    1    2  504  501 -0.12402635767E+03  0.32394727874E+02  0.23303055623E+02  0.13028809690E+03  0.00000000000E+00 0. -1.
         21    1    1    2  505  503  0.44647772386E+02 -0.63388812258E+02  0.80015866659E+03  0.80390637316E+03  0.00000000000E+00 0. -1.
          2    1    1    2  501    0  0.56756215459E+02  0.11654056762E+03  0.52464951427E+03  0.54042583646E+03  0.00000000000E+00 0.  1.
<scales pt_clust_3="43.96114" pt_clust_4="128.18719" pt_clust_5="43.96114" pt_clust_6="142.89907"></scales>
<clustering>
<clus scale="   43.961">  3  5 -1 -1</clus>
<clus scale="  128.187">  2  4  1 -1</clus>
<clus scale="  142.899">  2  6  1 -1</clus>
<clus scale="  128.187">  2  3  1 -1</clus>
</clustering>
</event>
<event>
 6    0  0.4017242E+002  0.8354631E+02  0.7546771E-02  0.1319278E+00
          1   -1    0    0  502    0 -0.00000000000E+00  0.00000000000E+00  0.18028148917E+04  0.18028148917E+04  0.00000000000E+00 0. -1.
         21   -1    0    0  505  502  0.00000000000E+00 -0.00000000000E+00 -0.33011876979E+03  0.33011876979E+03  0.00000000000E+00 0. -1.
         21    1    1    2  503  504  0.45696377533E+02  0.30963366072E+02 -0.12081856527E+03  0.13283077456E+03  0.00000000000E+00 0. -1.
         21    1    1    2  504  501  0.23904522462E+02 -0.13161848831E+03  0.11318858368E+03  0.17523272564E+03  0.00000000000E+00 0. -1.
         21    1    1    2  505  503 -0.22464442772E+02  0.33227519442E+02 -0.16889813910E+03  0.17359522064E+03  0.00000000000E+00 0. -1.
          1    1    1    2  501    0 -0.47136457224E+02  0.67427602796E+02  0.16492242426E+04  0.16512749406E+04  0.00000000000E+00 0. -1.
<scales pt_clust_3="63.84129" pt_clust_4="14000.00000" pt_clust_5="40.10884" pt_clust_6="83.54631"></scales>
<clustering>
<clus scale="   40.109">  2  5  1 -1</clus>
<clus scale="   63.841">  2  3  1 -1</clus>
<clus scale="   83.546">  1  6  2 -1</clus>
<clus scale="   40.109">  2  3  1 -1</clus>
</clustering>
</event>
<event>
 6    0  0.4017242E+002  0.1123264E+03  0.7546771E-02  0.1256321E+00
         21   -1    0    0  503  502  0.00000000000E+00  0.00000000000E+00  0.72235907798E+03  0.72235907798E+03  0.00000000000E+00 0. -1.
          2   -1    0    0  505    0 -0.00000000000E+00 -0.00000000000E+00 -0.33092579505E+04  0.33092579505E+04  0.00000000000E+00 0.  1.
         21    1    1    2  503  504 -0.76389707150E+02  0.34299776119E+01  0.83431276813E+02  0.11317212579E+03  0.00000000000E+00 0. -1.
         21    1    1    2  504  501 -0.76481901153E+02 -0.47732936253E+02  0.55675415912E+02  0.10596068301E+03  0.00000000000E+00 0. -1.
         21    1    1    2  505  502  0.78640179001E+02  0.45303501597E+02  0.53902389859E+03  0.54661087463E+03  0.00000000000E+00 0. -1.
          2    1    1    2  501    0  0.74231429302E+02 -0.10005429553E+01 -0.32650294638E+04  0.32658733451E+04  0.00000000000E+00 0.  1.
<scales pt_clust_3="53.19326" pt_clust_4="53.19326" pt_clust_5="96.33893" pt_clust_6="74.23817"></scales>
<clustering>
<clus scale="   53.193">  3  4 -1 -1</clus>
<clus scale="   74.238">  2  6  1 -1</clus>
<clus scale="   96.339">  1  5  2 -1</clus>
<clus scale="   96.339">  1  3  2 -1</clus>
</clustering>
</event>
<event>
 6    0  0.4017242E+002  0.1130735E+03  0.7546771E-02  0.1254982E+00
         21   -1    0    0  504  502  0.00000000000E+00  0.00000000000E+00  0.22713180122E+04  0.22713180122E+04  0.00000000000E+00 0.  1.
          2   -1    0    0  503    0 -0.00000000000E+00 -0.00000000000E+00 -0.53577539776E+03  0.53577539776E+03  0.00000000000E+00 0. -1.
         21    1    1    2  503  502 -0.18087385655E+02  0.60744153874E+02  0.75594596811E+02  0.98648612848E+02  0.00000000000E+00 0. -1.
         21    1    1    2  504  505 -0.17953523983E+00  0.59085925403E+02  0.21071796024E+04  0.21080078405E+04  0.00000000000E+00 0.  1.
         21    1    1    2  505  501 -0.56214642771E+02 -0.29218356152E+02  0.55486081761E+02  0.84217003433E+02  0.00000000000E+00 0. -1.
          2    1    1    2  501    0  0.74481563666E+02 -0.90611723126E+02 -0.50271766659E+03  0.51621995312E+03  0.00000000000E+00 0. -1.
<scales pt_clust_3="113.07352" pt_clust_4="59.08620" pt_clust_5="56.43388" pt_clust_6="14000.00000"></scales>
<clustering>
<clus scale="   59.086">  1  4  2 -1</clus>
<clus scale="   56.434">  1  5  2 -1</clus>
<clus scale="  113.074">  1  3  2 -1</clus>
<clus scale="   59.086">  1  3  2 -1</clus>
</clustering>
</event>
<event>
 6    0  0.4017242E+002  0.9004171E+02  0.7546771E-02  0.1302751E+00
         21   -1    0    0  503  502  0.00000000000E+00  0.00000000000E+00  0.20529581287E+04  0.20529581287E+04  0.00000000000E+00 0.  1.
          2   -1    0    0  504    0 -0.00000000000E+00 -0.00000000000E+00 -0.48198418501E+03  0.48198418501E+03  0.00000000000E+00 0. -1.
         21    1    1    2  503  505  0.99040988439E+01 -0.52752437867E+02  0.36446693690E+03  0.36839796277E+03  0.00000000000E+00 0.  1.
         21    1    1    2  504  502 -0.22319035165E+02  0.56747878959E+02  0.48583715184E+03  0.48964905719E+03  0.00000000000E+00 0.  1.
         21    1    1    2  505  501  0.29574039058E+02 -0.73257663867E+02  0.11948084018E+04  0.11974173985E+04  0.00000000000E+00 0.  1.
          2    1    1    2  501    0 -0.17159102737E+02  0.69262222775E+02 -0.47413854694E+03  0.47947789522E+03  0.00000000000E+00 0. -1.
<scales pt_clust_3="45.15474" pt_clust_4="60.97919" pt_clust_5="45.15474" pt_clust_6="71.45919"></scales>
<clustering>
<clus scale="   45.155">  3  5 -1 -1</clus>
<clus scale="   60.979">  1  4  2 -1</clus>
<clus scale="   71.459">  2  6  1 -1</clus>
<clus scale="   60.979">  1  3  2 -1</clus>
</clustering>
</event>
<event>
 6    0  0.4017242E+002  0.1397706E+03  0.7546771E-02  0.1213638E+00
         21   -1    0    0  503  502  0.00000000000E+00  0.00000000000E+00  0.49057990772E+02  0.49057990772E+02  0.00000000000E+00 0.  1.
          2   -1    0    0  505    0 -0.00000000000E+00 -0.00000000000E+00 -0.23401195037E+04  0.23401195037E+04  0.00000000000E+00 0.  1.
         21    1    1    2  503  501  0.84485846753E+02 -0.10462927980E+03 -0.10805473171E+03  0.17251367928E+03  0.00000000000E+00 0.  1.
         21    1    1    2  504  502 -0.82065892303E+02 -0.21747259719E+02 -0.24778228012E+03  0.26192329474E+03  0.00000000000E+00 0.  1.
         21    1    1    2  505  504 -0.16272261860E+02  0.19744290781E+03 -0.12358877741E+04  0.12516657215E+04  0.00000000000E+00 0.  1.
          2    1    1    2  501    0  0.13852307411E+02 -0.71066368288E+02 -0.69933672700E+03  0.70307479891E+03  0.00000000000E+00 0.  1.
<scales pt_clust_3="139.77059" pt_clust_4="86.38068" pt_clust_5="14000.00000" pt_clust_6="72.40383"></scales>
<clustering>
<clus scale="   72.404">  2  6  1 -1</clus>
<clus scale="   86.381">  1  4  2 -1</clus>
<clus scale="  139.771">  1  3  2 -1</clus>
<clus scale="   86.381">  1  3  2 -1</clus>
</clustering>
</event>
<event>
 6    0  0.4017242E+002  0.1289200E+03  0.7546771E-02  0.1229067E+00
          2   -1    0    0  505    0 -0.00000000000E+00  0.00000000000E+00  0.24058377280E+04  0.24058377280E+04  0.00000000000E+00 0. -1.
         21   -1    0    0  504  502  0.00000000000E+00 -0.00000000000E+00 -0.29031232289E+03  0.29031232289E+03  0.00000000000E+00 0.  1.
         21    1    1    2  503  502 -0.30753506692E+02 -0.23230139737E+02 -0.82315930893E+02  0.90891859068E+02  0.00000000000E+00 0.  1.
         21    1    1    2  504  501 -0.13374322971E+03 -0.89001316145E+01  0.14515363473E+03  0.19757540716E+03  0.00000000000E+00 0. -1.
         21    1    1    2  505  503  0.71936937125E+02 -0.60330761403E+02 -0.16301624141E+03  0.18811969238E+03  0.00000000000E+00 0.  1.
          2    1    1    2  501    0  0.92559799282E+02  0.92461032755E+02  0.22157039427E+04  0.22195630923E+04  0.00000000000E+00 0. -1.
<scales pt_clust_3="38.54112" pt_clust_4="128.92003" pt_clust_5="92.30637" pt_clust_6="14000.00000"></scales>
<clustering>
<clus scale="   38.541">  2  3  1 -1</clus>
<clus scale="   92.306">  2  5  1 -1</clus>
<clus scale="  128.920">  2  4  1 -1</clus>
<clus scale="   38.541">  2  3  1 -1</clus>
</clustering>
</event>
<event>
 6    0  0.4017242E+002  0.6636358E+02  0.7546771E-02  0.1372914E+00
          2   -1    0    0  505    0 -0.00000000000E+00  0.00000000000E+00  0.64683982416E+03  0.64683982416E+03  0.00000000000E+00 0.  1.
         21   -1    0    0  504  502  0.00000000000E+00 -0.00000000000E+00 -0.31123415774E+03  0.31123415774E+03  0.00000000000E+00 0.  1.
         21    1    1    2  503  502 -0.33242174196E+02  0.50927937636E+02 -0.27090407376E+03  0.27764674347E+03  0.00000000000E+00 0.  1.
         21    1    1    2  504  501 -0.31175280629E+02 -0.40267663455E+02  0.12525814718E+01  0.50940669438E+02  0.00000000000E+00 0. -1.
         21    1    1    2  505  503 -0.40646887937E+02 -0.10819924414E+02  0.54743397352E+02  0.69036800454E+02  0.00000000000E+00 0. -1.
          2    1    1    2  501    0  0.10506434276E+03  0.15965023290E+00  0.55051376136E+03  0.56044976854E+03  0.00000000000E+00 0.  1.
<scales pt_clust_3="14000.00000" pt_clust_4="52.42944" pt_clust_5="42.06234" pt_clust_6="66.36358"></scales>
<clustering>
<clus scale="   42.062">  1  5  2 -1</clus>
<clus scale="   52.429">  2  4  1 -1</clus>
<clus scale="   66.364">  1  6  2 -1</clus>
<clus scale="   52.429">  2  3  1 -1</clus>
</clustering>
</event>
<event>
 6    0  0.4017242E+002  0.2711204E+03  0.7546771E-02  0.1100640E+00
         21   -1    0    0  504  502  0.00000000000E+00  0.00000000000E+00  0.53892689318E+03  0.53892689318E+03  0.00000000000E+00 0.  1.
          2   -1    0    0  505    0 -0.00000000000E+00 -0.00000000000E+00 -0.34376354401E+03  0.34376354401E+03  0.00000000000E+00 0. -1.
         21    1    1    2  503  502  0.68556606938E+01 -0.54839111233E+02  0.16693887203E+03  0.17584912624E+03  0.00000000000E+00 0.  1.
         21    1    1    2  504  501  0.15509231920E+01  0.18736163111E+03 -0.14029134557E+03  0.23406932268E+03  0.00000000000E+00 0. -1.
         21    1    1    2  505  503  0.22491822068E+02 -0.20306515139E+03  0.27423645210E+03  0.34197510060E+03  0.00000000000E+00 0.  1.
          2    1    1    2  501    0 -0.30898405953E+02  0.70542631510E+02 -0.10572062938E+03  0.13079688769E+03  0.00000000000E+00 0. -1.
<scales pt_clust_3="40.72218" pt_clust_4="46.36252" pt_clust_5="40.72218" pt_clust_6="269.45400"></scales>
<clustering>
<clus scale="   40.722">  3  5 -1 -1</clus>
<clus scale="   46.363">  4  6 -1 -1</clus>
<clus scale="  269.454">  2  4  1 -1</clus>
<clus scale="  271.120">  1  3  2 -1</clus>
</clustering>
</event>
<event>
 6    0  0.4017242E+002  0.3008999E+03  0.7546771E-02  0.1084792E+00
          1   -1    0    0  504    0 -0.00000000000E+00  0.00000000000E+00  0.11368922626E+04  0.11368922626E+04  0.00000000000E+00 0. -1.
         21   -1    0    0  505  502  0.00000000000E+00 -0.00000000000E+00 -0.60781768276E+03  0.60781768276E+03  0.00000000000E+00 0.  1.
         21    1    1    2  503  501 -0.98776398020E+02  0.11632268646E+03  0.52688372741E+03  0.54853824516E+03  0.00000000000E+00 0. -1.
         21    1    1    2  504  502  0.24492692388E+03 -0.15733405636E+03 -0.54164216685E+03  0.61491417308E+03  0.00000000000E+00 0.  1.
         21    1    1    2  505  503 -0.10590929254E+03  0.82412698979E+02  0.27129127217E+03  0.30266745044E+03  0.00000000000E+00 0. -1.
          1    1    1    2  501    0 -0.40241233327E+02 -0.41401329079E+02  0.27254174711E+03  0.27859007669E+03  0.00000000000E+00 0. -1.
<scales pt_clust_3="73.83113" pt_clust_4="290.62847" pt_clust_5="73.83113" pt_clust_6="57.73584"></scales>
<clustering>
<clus scale="   57.736">  1  6  2 -1</clus>
<clus scale="   73.831">  3  5 -1 -1</clus>
<clus scale="  290.628">  2  4  1 -1</clus>
<clus scale="  290.628">  2  3  1 -1</clus>
</clustering>
</event>
<event>
 6    0  0.4017242E+002  0.1188142E+03  0.7546771E-02  0.1245066E+00
         -1   -1    0    0    0  501 -0.00000000000E+00  0.00000000000E+00  0.28154038556E+03  0.28154038556E+03  0.00000000000E+00 0.  1.
         21   -1    0    0  504  502  0.00000000000E+00 -0.00000000000E+00 -0.21220165674E+03  0.21220165674E+03  0.00000000000E+00 0.  1.
         21    1    1    2  503  505 -0.10615155756E+03 -0.87309851509E+02 -0.12056570799E+03  0.18283121530E+03  0.00000000000E+00 0.  1.
         21    1    1    2  504  501  0.30836696553E+02  0.16213938434E+02 -0.14779706452E+02  0.37844859316E+02  0.00000000000E+00 0. -1.
         21    1    1    2  505  502 -0.27444448000E+02  0.14809253062E+02 -0.62226123610E+01  0.31799883755E+02  0.00000000000E+00 0. -1.
         -1    1    1    2    0  503  0.10275930901E+03  0.56286660013E+02  0.21090675563E+03  0.24126608393E+03  0.00000000000E+00 0.  1.
<scales pt_clust_3="118.81420" pt_clust_4="32.66056" pt_clust_5="31.18512" pt_clust_6="14000.00000"></scales>
<clustering>
<clus scale="   31.185">  2  5  1 -1</clus>
<clus scale="   32.661">  2  4  1 -1</clus>
<clus scale="  118.814">  2  3  1 -1</clus>
<clus scale="   31.185">  2  3  1 -1</clus>
</clustering>
</event>
<event>
 6    0  0.4017242E+002  0.1222268E+03  0.7546771E-02  0.1239468E+00
         21   -1    0    0  501  502  0.00000000000E+00  0.00000000000E+00  0.25199604365E+03  0.25199604365E+03  0.00000000000E+00 0.  1.
          2   -1    0    0  503    0 -0.00000000000E+00 -0.00000000000E+00 -0.51875439570E+03  0.51875439570E+03  0.00000000000E+00 0.  1.
         21    1    1    2  503  505 -0.75921607333E+01 -0.14259601386E+03 -0.14037791164E+03  0.20024290786E+03  0.00000000000E+00 0.  1.
         21    1    1    2  504  502  0.33498954188E+02 -0.85359746681E+02  0.11922340782E+03  0.15040840155E+03  0.00000000000E+00 0.  1.
         21    1    1    2  505  504 -0.82900329198E+02  0.12547967539E+03 -0.27478482153E+01  0.15041663534E+03  0.00000000000E+00 0.  1.
          2    1    1    2  501    0  0.56993535743E+02  0.10247608515E+03 -0.24285600002E+03  0.26968249459E+03  0.00000000000E+00 0.  1.
<scales pt_clust_3="122.22680" pt_clust_4="91.69769" pt_clust_5="94.64959" pt_clust_6="14000.00000"></scales>
<clustering>
<clus scale="   91.698">  1  4  2 -1</clus>
<clus scale="   94.650">  1  5  2 -1</clus>
<clus scale="  122.227">  1  3  2 -1</clus>
<clus scale="   91.698">  1  3  2 -1</clus>
</clustering>
</event>
<event>
 6    0  0.4017242E+002  0.1067356E+03  0.7546771E-02  0.1266737E+00
          1   -1    0    0  505    0 -0.00000000000E+00  0.00000000000E+00  0.44111961280E+04  0.44111961280E+04  0.00000000000E+00 0. -1.
         21   -1    0    0  501  502  0.00000000000E+00 -0.00000000000E+00 -0.83297903267E+03  0.83297903267E+03  0.00000000000E+00 0. -1.
         21    1    1    2  503  504 -0.98005380307E+01 -0.79617561371E+02  0.33539204859E+02  0.86947598511E+02  0.00000000000E+00 0. -1.
         21    1    1    2  504  502 -0.34216882324E+02 -0.20510213732E+02 -0.80439006975E+03  0.80537869864E+03  0.00000000000E+00 0. -1.
         21    1    1    2  505  503  0.73438128910E+01  0.97104064206E+02  0.18912463012E+04  0.18937517532E+04  0.00000000000E+00 0.  1.
          1    1    1    2  501    0  0.36673607463E+02  0.30237108965E+01  0.24578216589E+04  0.24580971103E+04  0.00000000000E+00 0. -1.
<scales pt_clust_3="106.73557" pt_clust_4="39.88480" pt_clust_5="14000.00000" pt_clust_6="36.79805"></scales>
<clustering>
<clus scale="   36.798">  1  6  2 -1</clus>
<clus scale="   39.885">  2  4  1 -1</clus>
<clus scale="  106.736">  2  3  1 -1</clus>
<clus scale="   39.885">  2  3  1 -1</clus>
</clustering>
</event>
<event>
 6    0  0.4017242E+002  0.1863739E+03  0.7546771E-02  0.1161773E+00
         21   -1    0    0  505  502  0.00000000000E+00  0.00000000000E+00  0.22990947880E+03  0.22990947880E+03  0.00000000000E+00 0.  1.
         -2   -1    0    0    0  501 -0.00000000000E+00 -0.00000000000E+00 -0.28771346318E+04  0.28771346318E+04  0.00000000000E+00 0. -1.
         21    1    1    2  503  502  0.72228508714E+02  0.66511903206E+01 -0.12578002446E+03  0.14519576563E+03  0.00000000000E+00 0. -1.
         21    1    1    2  504  501 -0.15069362890E+03 -0.13482515803E+03  0.63289722271E+01  0.20230286434E+03  0.00000000000E+00 0.  1.
         21    1    1    2  505  504  0.49994148957E+01 -0.43194693779E+02  0.10839467655E+03  0.11679118813E+03  0.00000000000E+00 0.  1.
         -2    1    1    2    0  503  0.73465705289E+02  0.17136866149E+03 -0.26361687773E+04  0.26427542925E+04  0.00000000000E+00 0. -1.
<scales pt_clust_3="72.70734" pt_clust_4="186.37389" pt_clust_5="43.48305" pt_clust_6="14000.00000"></scales>
<clustering>
<clus scale="   43.483">  1  5  2 -1</clus>
<clus scale="   72.707">  1  3  2 -1</clus>
<clus scale="  186.374">  1  4  2 -1</clus>
<clus scale="   43.483">  1  3  2 -1</clus>
</clustering>
</event>
<event>
 6    0  0.4017242E+002  0.1136629E+03  0.7546771E-02  0.1253933E+00
          1   -1    0    0  503    0 -0.00000000000E+00  0.00000000000E+00  0.13050377973E+04  0.13050377973E+04  0.00000000000E+00 0. -1.
         21   -1    0    0  504  502  0.00000000000E+00 -0.00000000000E+00 -0.58862251345E+02  0.58862251345E+02  0.00000000000E+00 0.  1.
         21    1    1    2  503  505  0.36344762229E+02 -0.78559251076E+02  0.19287608252E+03  0.21140880038E+03  0.00000000000E+00 0. -1.
         21    1    1    2  504  501 -0.65884922418E+02  0.11808453257E+03  0.12096687084E+03  0.18143253202E+03  0.00000000000E+00 0.  1.
         21    1    1    2  505  502 -0.50967982104E+02 -0.27369374103E+02  0.30201130386E+02  0.65260448322E+02  0.00000000000E+00 0.  1.
          1    1    1    2  501    0  0.80508142294E+02 -0.12155907390E+02  0.90213146219E+03  0.90579826790E+03  0.00000000000E+00 0. -1.
<scales pt_clust_3="14000.00000" pt_clust_4="113.66288" pt_clust_5="57.85169" pt_clust_6="79.38137"></scales>
<clustering>
<clus scale="   57.852">  2  5  1 -1</clus>
<clus scale="   79.381">  1  6  2 -1</clus>
<clus scale="  113.663">  2  4  1 -1</clus>
<clus scale="   57.852">  2  3  1 -1</clus>
</clustering>
</event>
<event>
 6    0  0.4017242E+002  0.8752574E+02  0.7546771E-02  0.1308957E+00
         21   -1    0    0  504  502  0.00000000000E+00  0.00000000000E+00  0.10433150317E+04  0.10433150317E+04  0.00000000000E+00 0.  1.
          2   -1    0    0  505    0 -0.00000000000E+00 -0.00000000000E+00 -0.11795449614E+04  0.11795449614E+04  0.00000000000E+00 0. -1.
         21    1    1    2  503  501  0.31113168973E+02  0.50722841833E+02  0.37315818777E+03  0.37787282129E+03  0.00000000000E+00 0.  1.
         21    1    1    2  504  503  0.54227413815E+02  0.62253223557E+02  0.31594348174E+03  0.32655223151E+03  0.00000000000E+00 0.  1.
         21    1    1    2  505  502 -0.61859733930E+02 -0.36910992548E+02  0.34143733354E+03  0.34895343642E+03  0.00000000000E+00 0. -1.
          2    1    1    2  501    0 -0.23480848858E+02 -0.76065072842E+02 -0.11667689327E+04  0.11694815039E+04  0.00000000000E+00 0. -1.
<scales pt_clust_3="30.69165" pt_clust_4="30.69165" pt_clust_5="72.03505" pt_clust_6="79.71084"></scales>
<clustering>
<clus scale="   30.692">  3  4 -1 -1</clus>
<clus scale="   72.035">  1  5  2 -1</clus>
<clus scale="   79.711">  2  6  1 -1</clus>
<clus scale="   72.035">  1  3  2 -1</clus>
</clustering>
</event>
<event>
 6    0  0.4017242E+002  0.9848165E+02  0.7546771E-02  0.1283522E+00
         21   -1    0    0  503  502  0.00000000000E+00  0.00000000000E+00  0.90250208275E+03  0.90250208275E+03  0.00000000000E+00 0. -1.
         -2   -1    0    0    0  501 -0.00000000000E+00 -0.00000000000E+00 -0.47666202962E+02  0.47666202962E+02  0.00000000000E+00 0. -1.
         21    1    1    2  503  501 -0.10633780369E+03 -0.57386379408E+00  0.62135492399E+03  0.63038876844E+03  0.00000000000E+00 0. -1.
         21    1    1    2  504  505  0.53631926140E+02 -0.35889424964E+02  0.23210262389E+02  0.68579520310E+02  0.00000000000E+00 0. -1.
         21    1    1    2  505  502  0.82416278936E+02  0.16066395316E+01  0.17482917738E+03  0.19328803788E+03  0.00000000000E+00 0. -1.
         -2    1    1    2    0  504 -0.29710401390E+02  0.34856649226E+02  0.35441516032E+02  0.57911959081E+02  0.00000000000E+00 0. -1.
<scales pt_clust_3="14000.00000" pt_clust_4="37.88768" pt_clust_5="98.48165" pt_clust_6="45.80059"></scales>
<clustering>
<clus scale="   45.801">  2  6  1 -1</clus>
<clus scale="   37.888">  2  4  1 -1</clus>
<clus scale="   98.482">  2  5  1 -1</clus>
<clus scale="   98.482">  1  3  2 -1</clus>
</clustering>
</event>
<event>
 6    0  0.4017242E+002  0.1356603E+03  0.7546771E-02  0.1219291E+00
          1   -1    0    0  503    0 -0.00000000000E+00  0.00000000000E+00  0.13295119662E+04  0.13295119662E+04  0.00000000000E+00 0. -1.
         21   -1    0    0  504  502  0.00000000000E+00 -0.00000000000E+00 -0.52982682815E+03  0.52982682815E+03  0.00000000000E+00 0. -1.
         21    1    1    2  503  505 -0.36176482267E+02 -0.65978155855E+02  0.79029472524E+01  0.75659179843E+02  0.00000000000E+00 0.  1.
         21    1    1    2  504  501  0.10395277307E+03 -0.94615224796E+02  0.57795234548E+03  0.59480007855E+03  0.00000000000E+00 0.  1.
         21    1    1    2  505  502 -0.72369387975E+02  0.11474675237E+03 -0.47730533849E+03  0.49621016882E+03  0.00000000000E+00 0. -1.
          1    1    1    2  501    0  0.45930971746E+01  0.45846628283E+02  0.69113518385E+03  0.69266936717E+03  0.00000000000E+00 0. -1.
<scales pt_clust_3="72.47599" pt_clust_4="135.66033" pt_clust_5="14000.00000" pt_clust_6="46.07613"></scales>
<clustering>
<clus scale="   46.076">  1  6  2 -1</clus>
<clus scale="   72.476">  1  3  2 -1</clus>
<clus scale="  135.660">  1  4  2 -1</clus>
<clus scale="  135.660">  2  3  1 -1</clus>
</clustering>
</event>
<event>
 6    0  0.4017242E+002  0.1146296E+03  0.7546771E-02  0.1252229E+00
         21   -1    0    0  504  502  0.00000000000E+00  0.00000000000E+00  0.14137858831E+03  0.14137858831E+03  0.00000000000E+00 0.  1.
          2   -1    0    0  505    0 -0.00000000000E+00 -0.00000000000E+00 -0.68037582116E+03  0.68037582116E+03  0.00000000000E+00 0. -1.
         21    1    1    2  503  502 -0.45966856025E+02  0.43764616462E+02 -0.31127674702E+02  0.70691057703E+02  0.00000000000E+00 0.  1.
         21    1    1    2  504  501 -0.30548269035E+02 -0.39704680095E+02  0.10290282042E+03  0.11444932859E+03  0.00000000000E+00 0.  1.
         21    1    1    2  505  503 -0.34386103169E+02 -0.42245901612E+01 -0.31509608578E+02  0.46830616971E+02  0.00000000000E+00 0.  1.
          2    1    1    2  501    0  0.11090122823E+03  0.16465379443E+00 -0.57926277000E+03  0.58978340621E+03  0.00000000000E+00 0. -1.
<scales pt_clust_3="31.93118" pt_clust_4="50.09649" pt_clust_5="31.93118" pt_clust_6="106.16990"></scales>
<clustering>
<clus scale="   31.931">  3  5 -1 -1</clus>
<clus scale="   50.096">  1  4  2 -1</clus>
<clus scale="  106.170">  2  6  1 -1</clus>
<clus scale="   50.096">  1  3  2 -1</clus>
</clustering>
</event>
<event>
 6    0  0.4017242E+002  0.8820238E+02  0.7546771E-02  0.1307264E+00
          3   -1    0    0  505    0 -0.00000000000E+00  0.00000000000E+00  0.56296578559E+02  0.56296578559E+02  0.00000000000E+00 0. -1.
         21   -1    0    0  504  502  0.00000000000E+00 -0.00000000000E+00 -0.77798628779E+03  0.77798628779E+03  0.00000000000E+00 0. -1.
         21    1    1    2  503  502 -0.66104112269E+02  0.36730844218E+02 -0.33157833046E+03  0.34009277824E+03  0.00000000000E+00 0. -1.
         21    1    1    2  504  501  0.23075160310E+02 -0.70582714668E+02 -0.16408846066E+03  0.18010942661E+03  0.00000000000E+00 0.  1.
         21    1    1    2  505  503  0.19194009976E+02  0.11328472744E+03 -0.19341351092E+03  0.22496805484E+03  0.00000000000E+00 0. -1.
          3    1    1    2  501    0  0.23834941983E+02 -0.79432856993E+02 -0.32609407191E+02  0.89112606666E+02  0.00000000000E+00 0. -1.
<scales pt_clust_3="53.36749" pt_clust_4="74.25889" pt_clust_5="88.20238" pt_clust_6="14000.00000"></scales>
<clustering>
<clus scale="   74.259">  2  4  1 -1</clus>
<clus scale="   53.367">  2  3  1 -1</clus>
<clus scale="   88.202">  2  5  1 -1</clus>
<clus scale="   74.259">  2  3  1 -1</clus>
</clustering>
</event>
<event>
 6    0  0.4017242E+002  0.1621227E+03  0.7546771E-02  0.1186321E+00
         -1   -1    0    0    0  501 -0.00000000000E+00  0.00000000000E+00  0.38265027518E+04  0.38265027518E+04  0.00000000000E+00 0.  1.
         21   -1    0    0  503  502  0.00000000000E+00 -0.00000000000E+00 -0.28215404690E+03  0.28215404690E+03  0.00000000000E+00 0. -1.
         21    1    1    2  503  504 -0.10661241574E+02  0.69250700023E+02 -0.42813954729E+02  0.82111852038E+02  0.00000000000E+00 0. -1.
         21    1    1    2  504  501 -0.95574590469E+02  0.11426546291E+01 -0.19779634538E+03  0.21967977206E+03  0.00000000000E+00 0. -1.
         21    1    1    2  505  502 -0.29346617300E+02  0.19748546957E+02  0.24840945700E+02  0.43223854955E+02  0.00000000000E+00 0.  1.
         -1    1    1    2    0  505  0.13558244934E+03 -0.90141901609E+02  0.37601180593E+04  0.37636413196E+04  0.00000000000E+00 0.  1.
<scales pt_clust_3="75.78877" pt_clust_4="14000.00000" pt_clust_5="35.37272" pt_clust_6="162.12267"></scales>
<clustering>
<clus scale="   35.373">  2  5  1 -1</clus>
<clus scale="   75.789">  2  3  1 -1</clus>
<clus scale="  162.123">  1  6  2 -1</clus>
<clus scale="   35.373">  2  3  1 -1</clus>
</clustering>
</event>
<event>
 6    0  0.4017242E+002  0.1781787E+03  0.7546771E-02  0.1169577E+00
         21   -1    0    0  505  502  0.00000000000E+00  0.00000000000E+00  0.22764051798E+04  0.22764051798E+04  0.00000000000E+00 0. -1.
          1   -1    0    0  504    0 -0.00000000000E+00 -0.00000000000E+00 -0.15024695315E+03  0.15024695315E+03  0.00000000000E+00 0.  1.
         21    1    1    2  503  502  0.32377508074E+02 -0.88207916828E+02  0.94505043282E+03  0.94971009271E+03  0.00000000000E+00 0. -1.
         21    1    1    2  504  503 -0.20109348695E+02 -0.82690020935E+02  0.91484713767E+03  0.91879666454E+03  0.00000000000E+00 0. -1.
         21    1    1    2  505  501  0.30799015313E+02  0.60729823038E+01  0.36157526035E+03  0.36293543414E+03  0.00000000000E+00 0. -1.
          1    1    1    2  501    0 -0.43067174692E+02  0.16482495546E+03 -0.95314604246E+02  0.19520994150E+03  0.00000000000E+00 0.  1.
<scales pt_clust_3="47.39418" pt_clust_4="47.39418" pt_clust_5="31.39204" pt_clust_6="170.31070"></scales>
<clustering>
<clus scale="   31.392">  1  5  2 -1</clus>
<clus scale="   47.394">  3  4 -1 -1</clus>
<clus scale="  170.311">  2  6  1 -1</clus>
<clus scale="   31.392">  1  3  2 -1</clus>
</clustering>
</event>
<event>
 6    0  0.4017242E+002  0.9633423E+02  0.7546771E-02  0.1288199E+00
         21   -1    0    0  505  502  0.00000000000E+00  0.00000000000E+00  0.62493077661E+03  0.62493077661E+03  0.00000000000E+00 0. -1.
         -4   -1    0    0    0  501 -0.00000000000E+00 -0.00000000000E+00 -0.33225631452E+03  0.33225631452E+03  0.00000000000E+00 0. -1.
         21    1    1    2  503  502  0.38917927330E+02  0.47493547244E+01  0.22576387110E+03  0.22914293996E+03  0.00000000000E+00 0. -1.
         21    1    1    2  504  501 -0.37895293587E+02 -0.11138544540E+03  0.27715977765E+02  0.12087574673E+03  0.00000000000E+00 0. -1.
         21    1    1    2  505  504 -0.56636706908E+02  0.88015850662E+02  0.31150283110E+03  0.32861606826E+03  0.00000000000E+00 0. -1.
         -4    1    1    2    0  503  0.55614073165E+02  0.18620240017E+02 -0.27230821787E+03  0.27855233618E+03  0.00000000000E+00 0. -1.
<scales pt_clust_3="39.20665" pt_clust_4="96.33423" pt_clust_5="14000.00000" pt_clust_6="58.95018"></scales>
<clustering>
<clus scale="   39.207">  1  3  2 -1</clus>
<clus scale="   58.950">  2  6  1 -1</clus>
<clus scale="   96.334">  2  4  1 -1</clus>
<clus scale="   39.207">  1  3  2 -1</clus>
</clustering>
</event>
<event>
 6    0  0.4017242E+002  0.7132732E+02  0.7546771E-02  0.1355637E+00
         -3   -1    0    0    0  501 -0.00000000000E+00  0.00000000000E+00  0.98277851205E+02  0.98277851205E+02  0.00000000000E+00 0. -1.
         21   -1    0    0  505  502  0.00000000000E+00 -0.00000000000E+00 -0.27434631451E+03  0.27434631451E+03  0.00000000000E+00 0. -1.
         21    1    1    2  503  504 -0.51321314438E+02 -0.51127432921E+02 -0.31088073925E+02  0.78831212429E+02  0.00000000000E+00 0. -1.
         21    1    1    2  504  501  0.61367187586E+02 -0.17392772772E+02 -0.77977757476E+02  0.10074210102E+03  0.00000000000E+00 0. -1.
         21    1    1    2  505  503  0.32189326622E+02  0.64399290089E+02 -0.11075547264E+03  0.13209919013E+03  0.00000000000E+00 0. -1.
         -3    1    1    2    0  502 -0.42235199771E+02  0.41209156035E+01  0.43752840736E+02  0.60951662140E+02  0.00000000000E+00 0. -1.
<scales pt_clust_3="71.32732" pt_clust_4="53.46773" pt_clust_5="14000.00000" pt_clust_6="42.43576"></scales>
<clustering>
<clus scale="   42.436">  1  6  2 -1</clus>
<clus scale="   53.468">  1  4  2 -1</clus>
<clus scale="   71.327">  1  3  2 -1</clus>
<clus scale="   71.327">  2  3  1 -1</clus>
</clustering>
</event>
<event>
 6    0  0.4017242E+002  0.1687811E+03  0.7546771E-02  0.1179125E+00
          2   -1    0    0  503    0 -0.00000000000E+00  0.00000000000E+00  0.16598841846E+04  0.16598841846E+04  0.00000000000E+00 0. -1.
         21   -1    0    0  501  502  0.00000000000E+00 -0.00000000000E+00 -0.20071921735E+03  0.20071921735E+03  0.00000000000E+00 0.  1.
         21    1    1    2  503  504 -0.56980226722E+02  0.45886272473E+02  0.15007327675E+03  0.16695593620E+03  0.00000000000E+00 0.  1.
         21    1    1    2  504  505  0.17242052869E+03  0.34320536016E+02  0.10922037305E+03  0.20696818064E+03  0.00000000000E+00 0.  1.
         21    1    1    2  505  502  0.41910069791E+00 -0.87880204772E+02 -0.12716270458E+03  0.15457509331E+03  0.00000000000E+00 0.  1.
          2    1    1    2  501    0 -0.11585940267E+03  0.76733962832E+01  0.13270340221E+04  0.13321041918E+04  0.00000000000E+00 0. -1.
<scales pt_clust_3="73.15939" pt_clust_4="168.78110" pt_clust_5="87.46136" pt_clust_6="14000.00000"></scales>
<clustering>
<clus scale="   73.159">  1  3  2 -1</clus>
<clus scale="   87.461">  2  5  1 -1</clus>
<clus scale="  168.781">  2  4  1 -1</clus>
<clus scale="   87.461">  2  3  1 -1</clus>
</clustering>
</event>
<event>
 6    0  0.4017242E+002  0.7007001E+02  0.7546771E-02  0.1359855E+00
         21   -1    0    0  505  502  0.00000000000E+00  0.00000000000E+00  0.74100788566E+03  0.74100788566E+03  0.00000000000E+00 0. -1.
         -1   -1    0    0    0  501 -0.00000000000E+00 -0.00000000000E+00 -0.41537902124E+03  0.41537902124E+03  0.00000000000E+00 0.  1.
         21    1    1    2  503  502  0.24424743255E+02 -0.59409344304E+02  0.29421772519E+03  0.30114798371E+03  0.00000000000E+00 0.  1.
         21    1    1    2  504  501 -0.31048500586E+02 -0.76009196920E+02  0.13735191293E+03  0.16002173412E+03  0.00000000000E+00 0. -1.
         21    1    1    2  505  504  0.22914680448E+02  0.85439502574E+02  0.28620515051E+03  0.29956364826E+03  0.00000000000E+00 0. -1.
         -1    1    1    2    0  503 -0.16290923117E+02  0.49979038651E+02 -0.39214592421E+03  0.39565354081E+03  0.00000000000E+00 0.  1.
<scales pt_clust_3="55.78134" pt_clust_4="14000.00000" pt_clust_5="70.07001" pt_clust_6="52.56709"></scales>
<clustering>
<clus scale="   52.567">  2  6  1 -1</clus>
<clus scale="   55.781">  1  3  2 -1</clus>
<clus scale="   70.070">  1  5  2 -1</clus>
<clus scale="   55.781">  1  3  2 -1</clus>
</clustering>
</event>
<event>
 6    0  0.4017242E+002  0.8076224E+02  0.7546771E-02  0.1326902E+00
          1   -1    0    0  505    0 -0.00000000000E+00  0.00000000000E+00  0.24386494243E+04  0.24386494243E+04  0.00000000000E+00 0. -1.
         21   -1    0    0  504  502  0.00000000000E+00 -0.00000000000E+00 -0.14025874303E+03  0.14025874303E+03  0.00000000000E+00 0.  1.
         21    1    1    2  503  501  0.62014904522E+02  0.36621539318E+02  0.10436549024E+03  0.12680355310E+03  0.00000000000E+00 0.  1.
         21    1    1    2  504  503 -0.42144620155E+02  0.82791871292E+01  0.79824158060E+02  0.90645519236E+02  0.00000000000E+00 0.  1.
         21    1    1    2  505  502 -0.98680314375E+02 -0.61748077615E+02 -0.95328812454E+02  0.15046000139E+03  0.00000000000E+00 0.  1.
          1    1    1    2  501    0  0.78810030007E+02  0.16847351168E+02  0.22095298454E+04  0.22109990936E+04  0.00000000000E+00 0. -1.
<scales pt_clust_3="69.39247" pt_clust_4="42.95013" pt_clust_5="14000.00000" pt_clust_6="80.76224"></scales>
<clustering>
<clus scale="   42.950">  2  4  1 -1</clus>
<clus scale="   69.392">  2  3  1 -1</clus>
<clus scale="   80.762">  1  6  2 -1</clus>
<clus scale="   42.950">  2  3  1 -1</clus>
</clustering>
</event>
<event>
 6    0  0.4017242E+002  0.1011344E+03  0.7546771E-02  0.1277928E+00
         21   -1    0    0  504  502  0.00000000000E+00  0.00000000000E+00  0.21394941017E+03  0.21394941017E+03  0.00000000000E+00 0. -1.
          2   -1    0    0  503    0 -0.00000000000E+00 -0.00000000000E+00 -0.19857050110E+04  0.19857050110E+04  0.00000000000E+00 0.  1.
         21    1    1    2  503  505 -0.15410234302E+03  0.18011615585E+00  0.10081273982E+03  0.18414877973E+03  0.00000000000E+00 0. -1.
         21    1    1    2  504  501 -0.21036674495E+02  0.63573228064E+02 -0.43526495780E+02  0.79866468779E+02  0.00000000000E+00 0. -1.
         21    1    1    2  505  502  0.94047459083E+02 -0.36967577359E+01  0.92557345624E+01  0.94574093704E+02  0.00000000000E+00 0. -1.
          2    1    1    2  501    0  0.81091558434E+02 -0.60056586484E+02 -0.18382975795E+04  0.18410650790E+04  0.00000000000E+00 0.  1.
<scales pt_clust_3="101.13445" pt_clust_4="66.96340" pt_clust_5="89.44274" pt_clust_6="14000.00000"></scales>
<clustering>
<clus scale="   66.963">  1  4  2 -1</clus>
<clus scale="   89.443">  1  5  2 -1</clus>
<clus scale="  101.134">  1  3  2 -1</clus>
<clus scale="   66.963">  1  3  2 -1</clus>
</clustering>
</event>
<event>
 6    0  0.4017242E+002  0.1026704E+03  0.7546771E-02  0.1274779E+00
          3   -1    0    0  505    0 -0.00000000000E+00  0.00000000000E+00  0.45646076121E+03  0.45646076121E+03  0.00000000000E+00 0.  1.
         21   -1    0    0  504  502  0.00000000000E+00 -0.00000000000E+00 -0.36335952709E+03  0.36335952709E+03  0.00000000000E+00 0.  1.
         21    1    1    2  503  502 -0.57065324365E+02 -0.91367824699E+02 -0.20758873532E+03  0.23387520960E+03  0.00000000000E+00 0.  1.
         21    1    1    2  504  501  0.22698760154E+02 -0.40779778856E+02 -0.41633930786E+02  0.62542851460E+02  0.00000000000E+00 0.  1.
         21    1    1    2  505  503  0.52643206540E+02  0.70611179898E+02 -0.66001876946E+02  0.11006131783E+03  0.00000000000E+00 0.  1.
          3    1    1    2  501    0 -0.18276642329E+02  0.61536423657E+02  0.40832577717E+03  0.41334090941E+03  0.00000000000E+00 0.  1.
<scales pt_clust_3="14000.00000" pt_clust_4="46.67145" pt_clust_5="102.67041" pt_clust_6="63.82627"></scales>
<clustering>
<clus scale="   46.671">  2  4  1 -1</clus>
<clus scale="   63.826">  1  6  2 -1</clus>
<clus scale="  102.670">  1  5  2 -1</clus>
<clus scale="   46.671">  2  3  1 -1</clus>
</clustering>
</event>
<event>
 6    0  0.4017242E+002  0.1089140E+03  0.7546771E-02  0.1262594E+00
          1   -1    0    0  505    0 -0.00000000000E+00  0.00000000000E+00  0.31274196063E+03  0.31274196063E+03  0.00000000000E+00 0.  1.
         21   -1    0    0  503  502  0.00000000000E+00 -0.00000000000E+00 -0.16812996560E+03  0.16812996560E+03  0.00000000000E+00 0. -1.
         21    1    1    2  503  501  0.58005620967E+02 -0.15055387101E+02  0.39990981760E+02  0.72045786599E+02  0.00000000000E+00 0. -1.
         21    1    1    2  504  502  0.12386615748E+02  0.11444201701E+03 -0.10707594760E+03  0.15721215621E+03  0.00000000000E+00 0. -1.
         21    1    1    2  505  504 -0.69688733883E+02 -0.65719677219E+02  0.11761292267E+03  0.15168518445E+03  0.00000000000E+00 0. -1.
          1    1    1    2  501    0 -0.70350283260E+00 -0.33666952686E+02  0.94084038202E+02  0.99928798971E+02  0.00000000000E+00 0.  1.
<scales pt_clust_3="62.52848" pt_clust_4="108.91405" pt_clust_5="14000.00000" pt_clust_6="33.67430"></scales>
<clustering>
<clus scale="   33.674">  1  6  2 -1</clus>
<clus scale="   62.528">  1  3  2 -1</clus>
<clus scale="  108.914">  2  4  1 -1</clus>
<clus scale="  108.914">  2  3  1 -1</clus>
</clustering>
</event>
<event>
 6    0  0.4017242E+002  0.1279730E+03  0.7546771E-02  0.1230495E+00
         21   -1    0    0  504  502  0.00000000000E+00  0.00000000000E+00  0.37113126280E+03  0.37113126280E+03  0.00000000000E+00 0.  1.
          2   -1    0    0  503    0 -0.00000000000E+00 -0.00000000000E+00 -0.29899961615E+04  0.29899961615E+04  0.00000000000E+00 0. -1.
         21    1    1    2  503  502  0.71063423882E+01 -0.39028333359E+02 -0.44426007361E+03  0.44602771652E+03  0.00000000000E+00 0. -1.
         21    1    1    2  504  505 -0.22148546072E+02  0.12679831940E+03  0.35082978693E+03  0.37369762013E+03  0.00000000000E+00 0.  1.
         21    1    1    2  505  501 -0.22138362504E+02 -0.10782061477E+03 -0.38175395510E+03  0.39730526588E+03  0.00000000000E+00 0. -1.
          2    1    1    2  501    0  0.37180566188E+02  0.20050628722E+02 -0.21436806569E+04  0.21440968217E+04  0.00000000000E+00 0. -1.
<scales pt_clust_3="39.67003" pt_clust_4="14000.00000" pt_clust_5="127.97296" pt_clust_6="45.03310"></scales>
<clustering>
<clus scale="   39.670">  2  3  1 -1</clus>
<clus scale="   45.033">  2  6  1 -1</clus>
<clus scale="  127.973">  2  5  1 -1</clus>
<clus scale="  127.973">  1  3  2 -1</clus>
</clustering>
</event>
<event>
 6    0  0.4017242E+002  0.9602538E+02  0.7546771E-02  0.1288883E+00
         -3   -1    0    0    0  501 -0.00000000000E+00  0.00000000000E+00  0.78051546987E+03  0.78051546987E+03  0.00000000000E+00 0. -1.
         21   -1    0    0  504  502  0.00000000000E+00 -0.00000000000E+00 -0.12832503081E+03  0.12832503081E+03  0.00000000000E+00 0.  1.
         21    1    1    2  503  502 -0.72551235226E+02 -0.66124537182E+02 -0.60858912236E+02  0.11549867250E+03  0.00000000000E+00 0.  1.
         21    1    1    2  504  501  0.64941674320E+02  0.63396131703E+02  0.37468085357E+02  0.98185273838E+02  0.00000000000E+00 0. -1.
         21    1    1    2  505  503  0.49701413771E+02 -0.22602159266E+02  0.76071584834E+02  0.93637461272E+02  0.00000000000E+00 0. -1.
         -3    1    1    2    0  505 -0.42091852864E+02  0.25330564744E+02  0.59950968111E+03  0.60151909307E+03  0.00000000000E+00 0. -1.
<scales pt_clust_3="96.02538" pt_clust_4="14000.00000" pt_clust_5="31.70502" pt_clust_6="49.12598"></scales>
<clustering>
<clus scale="   49.126">  1  6  2 -1</clus>
<clus scale="   31.705">  1  5  2 -1</clus>
<clus scale="   96.025">  2  3  1 -1</clus>
<clus scale="   96.025">  2  3  1 -1</clus>
</clustering>
</event>
<event>
 6    0  0.4017242E+002  0.7330689E+02  0.7546771E-02  0.1349196E+00
          2   -1    0    0  505    0 -0.00000000000E+00  0.00000000000E+00  0.14596134262E+04  0.14596134262E+04  0.00000000000E+00 0. -1.
         21   -1    0    0  504  502  0.00000000000E+00 -0.00000000000E+00 -0.26284786329E+03  0.26284786329E+03  0.00000000000E+00 0. -1.
         21    1    1    2  503  502 -0.23921375296E+02  0.69557594242E+02 -0.21568401290E+03  0.22788173366E+03  0.00000000000E+00 0. -1.
         21    1    1    2  504  501  0.41208916187E+02 -0.59742808749E+02  0.62206143577E+02  0.95587563361E+02  0.00000000000E+00 0. -1.
         21    1    1    2  505  503 -0.64759876420E+02  0.27726596212E+02  0.28706901314E+02  0.76070309020E+02  0.00000000000E+00 0.  1.
          2    1    1    2  501    0  0.47472335528E+02 -0.37541381704E+02  0.13215365310E+04  0.13229216835E+04  0.00000000000E+00 0. -1.
<scales pt_clust_3="14000.00000" pt_clust_4="73.30689" pt_clust_5="48.54646" pt_clust_6="60.52254"></scales>
<clustering>
<clus scale="   60.523">  1  6  2 -1</clus>
<clus scale="   48.546">  1  5  2 -1</clus>
<clus scale="   73.307">  1  4  2 -1</clus>
<clus scale="   73.307">  2  3  1 -1</clus>
</clustering>
</event>
<event>
 6    0  0.4017242E+002  0.1235912E+03  0.7546771E-02  0.1237288E+00
          1   -1    0    0  504    0 -0.00000000000E+00  0.00000000000E+00  0.33466216521E+04  0.33466216521E+04  0.00000000000E+00 0. -1.
         21   -1    0    0  503  502  0.00000000000E+00 -0.00000000000E+00 -0.86449592937E+02  0.86449592937E+02  0.00000000000E+00 0. -1.
         21    1    1    2  503  505 -0.10643703486E+03  0.41811483039E+02  0.21622980669E+03  0.24460656534E+03  0.00000000000E+00 0. -1.
         21    1    1    2  504  502 -0.17999249229E+02 -0.39356788322E+02 -0.52950919616E+02  0.68386618926E+02  0.00000000000E+00 0. -1.
         21    1    1    2  505  501  0.14430395879E+03  0.60754120502E+02  0.53782152797E+03  0.56014881204E+03  0.00000000000E+00 0. -1.
          1    1    1    2  501    0 -0.19867674699E+02 -0.63208815219E+02  0.25590716441E+04  0.25599292488E+04  0.00000000000E+00 0. -1.
<scales pt_clust_3="14000.00000" pt_clust_4="43.27736" pt_clust_5="123.59118" pt_clust_6="66.97198"></scales>
<clustering>
<clus scale="   43.277">  2  4  1 -1</clus>
<clus scale="   66.972">  1  6  2 -1</clus>
<clus scale="  123.591">  1  5  2 -1</clus>
<clus scale="   43.277">  2  3  1 -1</clus>
</clustering>
</event>
<event>
 6    0  0.4017242E+002  0.1525095E+03  0.7546771E-02  0.1197423E+00
         21   -1    0    0  503  502  0.00000000000E+00  0.00000000000E+00  0.42908561224E+03  0.42908561224E+03  0.00000000000E+00 0.  1.
          2   -1    0    0  505    0 -0.00000000000E+00 -0.00000000000E+00 -0.25298686178E+03  0.25298686178E+03  0.00000000000E+00 0.  1.
         21    1    1    2  503  504 -0.15981914480E+02 -0.54676099347E+02  0.10920091393E+03  0.12316548638E+03  0.00000000000E+00 0.  1.
         21    1    1    2  504  501 -0.75465336786E+02 -0.33099929493E+02  0.84055932527E+02  0.11771160598E+03  0.00000000000E+00 0.  1.
         21    1    1    2  505  502  0.24305733965E+02 -0.32812913739E+02  0.18885623167E+03  0.19322042401E+03  0.00000000000E+00 0.  1.
          2    1    1    2  501    0  0.67141517302E+02  0.12058894258E+03 -0.20601432768E+03  0.24797495766E+03  0.00000000000E+00 0.  1.
<scales pt_clust_3="63.71434" pt_clust_4="63.71434" pt_clust_5="40.83450" pt_clust_6="136.57529"></scales>
<clustering>
<clus scale="   40.834">  1  5  2 -1</clus>
<clus scale="   63.714">  3  4 -1 -1</clus>
<clus scale="  136.575">  2  6  1 -1</clus>
<clus scale="   40.834">  1  3  2 -1</clus>
</clustering>
</event>
<event>
 6    0  0.4017242E+002  0.1462371E+03  0.7546771E-02  0.1205175E+00
          2   -1    0    0  504    0 -0.00000000000E+00  0.00000000000E+00  0.24997796473E+03  0.24997796473E+03  0.00000000000E+00 0. -1.
         21   -1    0    0  505  502  0.00000000000E+00 -0.00000000000E+00 -0.23713744162E+03  0.23713744162E+03  0.00000000000E+00 0. -1.
         21    1    1    2  503  501  0.90634779056E+02 -0.93823633310E+02 -0.59696238624E+01  0.13058780093E+03  0.00000000000E+00 0. -1.
         21    1    1    2  504  502  0.43198645895E+01  0.12343633636E+03 -0.55691959112E+02  0.13548721222E+03  0.00000000000E+00 0. -1.
         21    1    1    2  505  503  0.21400056659E+02 -0.29868725808E+02 -0.42397575396E+02  0.56103989215E+02  0.00000000000E+00 0. -1.
          2    1    1    2  501    0 -0.11635470030E+03  0.25602275579E+00  0.11689968149E+03  0.16493640399E+03  0.00000000000E+00 0. -1.
<scales pt_clust_3="36.24036" pt_clust_4="129.31531" pt_clust_5="36.24036" pt_clust_6="116.35498"></scales>
<clustering>
<clus scale="   36.240">  3  5 -1 -1</clus>
<clus scale="  116.355">  1  6  2 -1</clus>
<clus scale="  129.315">  2  4  1 -1</clus>
<clus scale="  129.315">  2  3  1 -1</clus>
</clustering>
</event>
<event>
 6    0  0.4017242E+002  0.7815292E+02  0.7546771E-02  0.1334376E+00
          2   -1    0    0  503    0 -0.00000000000E+00  0.00000000000E+00  0.84538804364E+03  0.84538804364E+03  0.00000000000E+00 0.  1.
         21   -1    0    0  505  502  0.00000000000E+00 -0.00000000000E+00 -0.72302605001E+02  0.72302605001E+02  0.00000000000E+00 0. -1.
         21    1    1    2  503  504  0.55444733730E+02  0.10828795473E+02  0.10608097232E+03  0.12018549828E+03  0.00000000000E+00 0. -1.
         21    1    1    2  504  502 -0.85274443785E+02 -0.73175608882E+00 -0.14741905069E+02  0.86542417316E+02  0.00000000000E+00 0. -1.
         21    1    1    2  505  501  0.25313770075E+01 -0.57109583977E+02  0.47315414120E+02  0.74206878825E+02  0.00000000000E+00 0. -1.
          2    1    1    2  501    0  0.27298333047E+02  0.47012544593E+02  0.63443095727E+03  0.63675585421E+03  0.00000000000E+00 0.  1.
<scales pt_clust_3="78.15292" pt_clust_4="14000.00000" pt_clust_5="44.72858" pt_clust_6="54.36339"></scales>
<clustering>
<clus scale="   54.363">  1  6  2 -1</clus>
<clus scale="   44.729">  1  5  2 -1</clus>
<clus scale="   78.153">  1  3  2 -1</clus>
<clus scale="   78.153">  2  3  1 -1</clus>
</clustering>
</event>
<event>
 6    0  0.4017242E+002  0.2536266E+03  0.7546771E-02  0.1111034E+00
         -2   -1    0    0    0  501 -0.00000000000E+00  0.00000000000E+00  0.42391433305E+03  0.42391433305E+03  0.00000000000E+00 0.  1.
         21   -1    0    0  505  502  0.00000000000E+00 -0.00000000000E+00 -0.66419589481E+03  0.66419589481E+03  0.00000000000E+00 0. -1.
         21    1    1    2  503  502 -0.15479242759E+03  0.10927709719E+03 -0.46793504123E+03  0.50484193806E+03  0.00000000000E+00 0. -1.
         21    1    1    2  504  501  0.68509578875E+02 -0.10581396162E+03  0.10885011786E+03  0.16654880675E+03  0.00000000000E+00 0.  1.
         21    1    1    2  505  504  0.16636825550E+03 -0.13092395151E+03 -0.19104453377E+02  0.21256636059E+03  0.00000000000E+00 0.  1.
         -2    1    1    2    0  503 -0.80085406784E+02  0.12746081594E+03  0.13790781498E+03  0.20415312246E+03  0.00000000000E+00 0.  1.
<scales pt_clust_3="199.66182" pt_clust_4="120.68622" pt_clust_5="120.68622" pt_clust_6="150.53216"></scales>
<clustering>
<clus scale="  120.686">  4  5 -1 -1</clus>
<clus scale="  150.532">  1  6  2 -1</clus>
<clus scale="  199.662">  2  3  1 -1</clus>
<clus scale="  199.662">  2  3  1 -1</clus>
</clustering>
</event>
<event>
 6    0  0.4017242E+002  0.9462307E+02  0.7546771E-02  0.1292027E+00
         -3   -1    0    0    0  501 -0.00000000000E+00  0.00000000000E+00  0.17517812644E+04  0.17517812644E+04  0.00000000000E+00 0.  1.
         21   -1    0    0  504  502  0.00000000000E+00 -0.00000000000E+00 -0.20904537693E+03  0.20904537693E+03  0.00000000000E+00 0. -1.
         21    1    1    2  503  505  0.38680268136E+02 -0.37916322677E+02  0.35679859292E+02  0.64860334777E+02  0.00000000000E+00 0.  1.
         21    1    1    2  504  501 -0.19979090422E+02  0.88849216227E+02  0.51649651496E+03  0.52446353281E+03  0.00000000000E+00 0. -1.
         21    1    1    2  505  502 -0.16192176451E+02 -0.93466093748E+02 -0.17824906163E+03  0.20191786753E+03  0.00000000000E+00 0. -1.
         -3    1    1    2    0  503 -0.25090012626E+01  0.42533200197E+02  0.11688085748E+04  0.11695849062E+04  0.00000000000E+00 0.  1.
<scales pt_clust_3="51.50014" pt_clust_4="94.62307" pt_clust_5="14000.00000" pt_clust_6="42.60714"></scales>
<clustering>
<clus scale="   42.607">  1  6  2 -1</clus>
<clus scale="   51.500">  1  3  2 -1</clus>
<clus scale="   94.623">  1  4  2 -1</clus>
<clus scale="   94.623">  2  3  1 -1</clus>
</clustering>
</event>
<event>
 6    0  0.4017242E+002  0.1485092E+03  0.7546771E-02  0.1202317E+00
          1   -1    0    0  503    0 -0.00000000000E+00  0.00000000000E+00  0.15969211134E+04  0.15969211134E+04  0.00000000000E+00 0.  1.
         21   -1    0    0  504  502  0.00000000000E+00 -0.00000000000E+00 -0.50084283714E+02  0.50084283714E+02  0.00000000000E+00 0.  1.
         21    1    1    2  503  502 -0.41448418232E+02 -0.22677979939E+02  0.12112772988E+03  0.13001611090E+03  0.00000000000E+00 0.  1.
         21    1    1    2  504  505  0.53107510044E+02 -0.26069530376E+02  0.97178823694E+02  0.11377061049E+03  0.00000000000E+00 0.  1.
         21    1    1    2  505  501 -0.97880575988E+01  0.19115816757E+03  0.24766244980E+03  0.31300789150E+03  0.00000000000E+00 0.  1.
          1    1    1    2  501    0 -0.18710342135E+01 -0.14241065726E+03  0.10808678263E+04  0.10902107842E+04  0.00000000000E+00 0.  1.
<scales pt_clust_3="47.24682" pt_clust_4="54.66701" pt_clust_5="148.50918" pt_clust_6="14000.00000"></scales>
<clustering>
<clus scale="   47.247">  2  3  1 -1</clus>
<clus scale="   54.667">  2  4  1 -1</clus>
<clus scale="  148.509">  2  5  1 -1</clus>
<clus scale="   47.247">  2  3  1 -1</clus>
</clustering>
</event>
<event>
 6    0  0.4017242E+002  0.1060904E+03  0.7546771E-02  0.1267986E+00
         21   -1    0    0  505  502  0.00000000000E+00  0.00000000000E+00  0.94812778718E+02  0.94812778718E+02  0.00000000000E+00 0. -1.
          2   -1    0    0  504    0 -0.00000000000E+00 -0.00000000000E+00 -0.18851163176E+04  0.18851163176E+04  0.00000000000E+00 0. -1.
         21    1    1    2  503  501 -0.37015903038E+02 -0.44440578240E+02 -0.27307855567E+03  0.27913623849E+03  0.00000000000E+00 0. -1.
         21    1    1    2  504  502  0.21730325678E+02 -0.24952037758E+02 -0.91838986381E+02  0.97617675970E+02  0.00000000000E+00 0.  1.
         21    1    1    2  505  503  0.67816157125E+02  0.89558859060E+02  0.52653261757E+02  0.12406525048E+03  0.00000000000E+00 0. -1.
          2    1    1    2  501    0 -0.52530579765E+02 -0.20166243062E+02 -0.14780392586E+04  0.14791099314E+04  0.00000000000E+00 0. -1.
<scales pt_clust_3="14000.00000" pt_clust_4="33.08793" pt_clust_5="106.09037" pt_clust_6="53.46510"></scales>
<clustering>
<clus scale="   33.088">  2  4  1 -1</clus>
<clus scale="   53.465">  2  6  1 -1</clus>
<clus scale="  106.090">  1  5  2 -1</clus>
<clus scale="  106.090">  1  3  2 -1</clus>
</clustering>
</event>
<event>
 6    0  0.4017242E+002  0.1428233E+03  0.7546771E-02  0.1209580E+00
          2   -1    0    0  503    0 -0.00000000000E+00  0.00000000000E+00  0.13220981325E+04  0.13220981325E+04  0.00000000000E+00 0. -1.
         21   -1    0    0  504  502  0.00000000000E+00 -0.00000000000E+00 -0.21767801948E+03  0.21767801948E+03  0.00000000000E+00 0. -1.
         21    1    1    2  503  502 -0.51770548021E+02  0.10542085817E+03  0.25388114507E+03  0.27973091142E+03  0.00000000000E+00 0.  1.
         21    1    1    2  504  505  0.57943120607E+02  0.25728320810E+01 -0.91158997985E+02  0.10804622901E+03  0.00000000000E+00 0. -1.
         21    1    1    2  505  501  0.26763867452E+02 -0.13056267111E+03 -0.62361672691E+02  0.14714582532E+03  0.00000000000E+00 0. -1.
          2    1    1    2  501    0 -0.32936440038E+02  0.22568980858E+02  0.10040596386E+04  0.10048531862E+04  0.00000000000E+00 0. -1.
<scales pt_clust_3="14000.00000" pt_clust_4="57.15573" pt_clust_5="142.82335" pt_clust_6="39.92703"></scales>
<clustering>
<clus scale="   39.927">  1  6  2 -1</clus>
<clus scale="   57.156">  2  4  1 -1</clus>
<clus scale="  142.823">  2  5  1 -1</clus>
<clus scale="   57.156">  2  3  1 -1</clus>
</clustering>
</event>
<event>
 6    0  0.4017242E+002  0.1094664E+03  0.7546771E-02  0.1261561E+00
          2   -1    0    0  504    0 -0.00000000000E+00  0.00000000000E+00  0.15954964133E+04  0.15954964133E+04  0.00000000000E+00 0. -1.
         21   -1    0    0  505  502  0.00000000000E+00 -0.00000000000E+00 -0.80151279426E+02  0.80151279426E+02  0.00000000000E+00 0.  1.
         21    1    1    2  503  502  0.87690714745E+02  0.71400993275E+02 -0.30048651251E+02  0.11700719950E+03  0.00000000000E+00 0.  1.
         21    1    1    2  504  503 -0.54959979605E+02  0.19234635828E+02  0.39674764475E+03  0.40099783564E+03  0.00000000000E+00 0.  1.
         21    1    1    2  505  501 -0.51918223828E+02 -0.59181320660E+02  0.37775097020E+03  0.38586749820E+03  0.00000000000E+00 0.  1.
          2    1    1    2  501    0  0.19187488688E+02 -0.31454308442E+02  0.77089517017E+03  0.77177515938E+03  0.00000000000E+00 0. -1.
<scales pt_clust_3="14000.00000" pt_clust_4="45.84956" pt_clust_5="109.46642" pt_clust_6="36.84472"></scales>
<clustering>
<clus scale="   36.845">  1  6  2 -1</clus>
<clus scale="   45.850">  1  4  2 -1</clus>
<clus scale="  109.466">  1  5  2 -1</clus>
<clus scale="  109.466">  2  3  1 -1</clus>
</clustering>
</event>
<event>
 6    0  0.4017242E+002  0.8516404E+02  0.7546771E-02  0.1315004E+00
         21   -1    0    0  505  502  0.00000000000E+00  0.00000000000E+00  0.38563432411E+02  0.38563432411E+02  0.00000000000E+00 0. -1.
          1   -1    0    0  504    0 -0.00000000000E+00 -0.00000000000E+00 -0.14028524375E+04  0.14028524375E+04  0.00000000000E+00 0.  1.
         21    1    1    2  503  501 -0.53314555881E+02 -0.76302041545E+02 -0.10487853153E+03  0.14022820611E+03  0.00000000000E+00 0. -1.
         21    1    1    2  504  502  0.28366113135E+02  0.71691695079E+02 -0.13443160870E+03  0.15497158751E+03  0.00000000000E+00 0. -1.
         21    1    1    2  505  503 -0.28197815343E+02  0.14973412441E+02 -0.15631518555E+02  0.35548055398E+02  0.00000000000E+00 0. -1.
          1    1    1    2  501    0  0.53146258088E+02 -0.10363065975E+02 -0.11093473463E+04  0.11106680209E+04  0.00000000000E+00 0.  1.
<scales pt_clust_3="85.16404" pt_clust_4="14000.00000" pt_clust_5="31.92679" pt_clust_6="53.44256"></scales>
<clustering>
<clus scale="   31.927">  1  5  2 -1</clus>
<clus scale="   53.443">  2  6  1 -1</clus>
<clus scale="   85.164">  1  3  2 -1</clus>
<clus scale="   31.927">  1  3  2 -1</clus>
</clustering>
</event>
<event>
 6    0  0.4017242E+002  0.1623911E+03  0.7546771E-02  0.1186023E+00
         21   -1    0    0  504  502  0.00000000000E+00  0.00000000000E+00  0.35156712947E+03  0.35156712947E+03  0.00000000000E+00 0.  1.
          2   -1    0    0  503    0 -0.00000000000E+00 -0.00000000000E+00 -0.34145123469E+03  0.34145123469E+03  0.00000000000E+00 0. -1.
         21    1    1    2  503  502 -0.37588172432E+01  0.16380970855E+03 -0.27677576937E+02  0.16617399793E+03  0.00000000000E+00 0.  1.
         21    1    1    2  504  505 -0.44908463144E+02  0.21196289440E+02  0.83463192565E+02  0.97119293969E+02  0.00000000000E+00 0. -1.
         21    1    1    2  505  501 -0.16729857012E+02 -0.17069432139E+03  0.14691741598E+03  0.22583437867E+03  0.00000000000E+00 0.  1.
          2    1    1    2  501    0  0.65397137400E+02 -0.14311676602E+02 -0.19258713683E+03  0.20389069360E+03  0.00000000000E+00 0. -1.
<scales pt_clust_3="14000.00000" pt_clust_4="49.65937" pt_clust_5="162.39113" pt_clust_6="65.89827"></scales>
<clustering>
<clus scale="   49.659">  1  4  2 -1</clus>
<clus scale="   65.898">  2  6  1 -1</clus>
<clus scale="  162.391">  1  5  2 -1</clus>
<clus scale="   49.659">  1  3  2 -1</clus>
</clustering>
</event>
<event>
 6    0  0.4017242E+002  0.2214796E+03  0.7546771E-02  0.1132785E+00
          1   -1    0    0  503    0 -0.00000000000E+00  0.00000000000E+00  0.32033302184E+03  0.32033302184E+03  0.00000000000E+00 0.  1.
         21   -1    0    0  504  502  0.00000000000E+00 -0.00000000000E+00 -0.24469937684E+04  0.24469937684E+04  0.00000000000E+00 0.  1.
         21    1    1    2  503  505 -0.12079824591E+02  0.27966553882E+03 -0.13457268429E+04  0.13745324556E+04  0.00000000000E+00 0.  1.
         21    1    1    2  504  501  0.37357285632E+01 -0.40838238168E+02 -0.13821273861E+03  0.14416822978E+03  0.00000000000E+00 0. -1.
         21    1    1    2  505  502 -0.88060735498E+02 -0.40622865581E+02 -0.90264173464E+03  0.90783644532E+03  0.00000000000E+00 0.  1.
          1    1    1    2  501    0  0.96404831525E+02 -0.19820443507E+03  0.25992056953E+03  0.34078965960E+03  0.00000000000E+00 0.  1.
<scales pt_clust_3="221.47964" pt_clust_4="41.00875" pt_clust_5="103.48140" pt_clust_6="14000.00000"></scales>
<clustering>
<clus scale="   41.009">  2  4  1 -1</clus>
<clus scale="  103.481">  2  5  1 -1</clus>
<clus scale="  221.480">  2  3  1 -1</clus>
<clus scale="   41.009">  2  3  1 -1</clus>
</clustering>
</event>
<event>
 6    0  0.4017242E+002  0.1340405E+03  0.7546771E-02  0.1221581E+00
         21   -1    0    0  503  502  0.00000000000E+00  0.00000000000E+00  0.33451521957E+03  0.33451521957E+03  0.00000000000E+00 0.  1.
          2   -1    0    0  504    0 -0.00000000000E+00 -0.00000000000E+00 -0.24809523961E+04  0.24809523961E+04  0.00000000000E+00 0. -1.
         21    1    1    2  503  505  0.56106252715E+01  0.50731297367E+02 -0.14544212096E+02  0.53072382215E+02  0.00000000000E+00 0.  1.
         21    1    1    2  504  502 -0.86499040837E+02 -0.93050664610E+02  0.28668541440E+03  0.31357461167E+03  0.00000000000E+00 0.  1.
         21    1    1    2  505  501  0.49438499587E+02  0.17136778465E+02 -0.30828405113E+02  0.60730758100E+02  0.00000000000E+00 0.  1.
          2    1    1    2  501    0  0.31449915979E+02  0.25182588778E+02 -0.23877499737E+04  0.23880898637E+04  0.00000000000E+00 0. -1.
<scales pt_clust_3="53.31578" pt_clust_4="121.28836" pt_clust_5="53.31578" pt_clust_6="40.28970"></scales>
<clustering>
<clus scale="   40.290">  2  6  1 -1</clus>
<clus scale="   53.316">  3  5 -1 -1</clus>
<clus scale="  121.288">  1  4  2 -1</clus>
<clus scale="  121.288">  1  3  2 -1</clus>
</clustering>
</event>
<event>
 6    0  0.4017242E+002  0.8910675E+02  0.7546771E-02  0.1305029E+00
          2   -1    0    0  503    0 -0.00000000000E+00  0.00000000000E+00  0.33648056393E+04  0.33648056393E+04  0.00000000000E+00 0. -1.
         21   -1    0    0  505  502  0.00000000000E+00 -0.00000000000E+00 -0.13317908381E+02  0.13317908381E+02  0.00000000000E+00 0. -1.
         21    1    1    2  503  504  0.64898616476E+02 -0.75628159550E+01  0.33912999487E+03  0.34536673266E+03  0.00000000000E+00 0. -1.
         21    1    1    2  504  502 -0.26755106570E+01 -0.75955465261E+02  0.17633110864E+03  0.19201315303E+03  0.00000000000E+00 0. -1.
         21    1    1    2  505  501  0.22735877729E+02  0.35499848425E+02  0.31248751745E+03  0.31531826451E+03  0.00000000000E+00 0. -1.
          2    1    1    2  501    0 -0.84958983548E+02  0.48018432791E+02  0.25235391100E+04  0.25254253975E+04  0.00000000000E+00 0. -1.
<scales pt_clust_3="89.10675" pt_clust_4="53.98955" pt_clust_5="42.15637" pt_clust_6="14000.00000"></scales>
<clustering>
<clus scale="   42.156">  2  5  1 -1</clus>
<clus scale="   53.990">  2  4  1 -1</clus>
<clus scale="   89.107">  2  3  1 -1</clus>
<clus scale="   42.156">  2  3  1 -1</clus>
</clustering>
</event>
<event>
 6    0  0.4017242E+002  0.1354986E+03  0.7546771E-02  0.1219518E+00
         21   -1    0    0  504  502  0.00000000000E+00  0.00000000000E+00  0.54073266908E+02  0.54073266908E+02  0.00000000000E+00 0.  1.
          1   -1    0    0  502    0 -0.00000000000E+00 -0.00000000000E+00 -0.12767781456E+04  0.12767781456E+04  0.00000000000E+00 0. -1.
         21    1    1    2  503  505 -0.52212770308E+02 -0.33843831255E+02 -0.24775701529E+03  0.25545081116E+03  0.00000000000E+00 0. -1.
         21    1    1    2  504  503  0.91190512048E+02  0.86036940016E+02 -0.40934634392E+02  0.13188521080E+03  0.00000000000E+00 0.  1.
         21    1    1    2  505  501 -0.57712132798E+01 -0.65597657637E+02 -0.24879960151E+03  0.25736666704E+03  0.00000000000E+00 0.  1.
          1    1    1    2  501    0 -0.33206528460E+02  0.13404548876E+02 -0.68521362745E+03  0.68614872346E+03  0.00000000000E+00 0. -1.
<scales pt_clust_3="52.62469" pt_clust_4="123.27741" pt_clust_5="52.62469" pt_clust_6="35.80999"></scales>
<clustering>
<clus scale="   35.810">  2  6  1 -1</clus>
<clus scale="   52.625">  3  5 -1 -1</clus>
<clus scale="  123.277">  1  4  2 -1</clus>
<clus scale="  123.277">  1  3  2 -1</clus>
</clustering>
</event>
<event>
 6    0  0.4017242E+002  0.2144427E+03  0.7546771E-02  0.1138095E+00
          4   -1    0    0  503    0 -0.00000000000E+00  0.00000000000E+00  0.68100465580E+03  0.68100465580E+03  0.00000000000E+00 0.  1.
         21   -1    0    0  504  502  0.00000000000E+00 -0.00000000000E+00 -0.19094760946E+03  0.19094760946E+03  0.00000000000E+00 0.  1.
         21    1    1    2  503  505 -0.28273998185E+02 -0.28261331013E+02  0.56232833033E+02  0.68994589026E+02  0.00000000000E+00 0. -1.
         21    1    1    2  504  501 -0.41852568354E+02  0.12378133772E+03  0.21510892872E+03  0.25168493849E+03  0.00000000000E+00 0.  1.
         21    1    1    2  505  502  0.75424905638E+02 -0.17860017056E+03 -0.10259989831E+03  0.21934829940E+03  0.00000000000E+00 0.  1.
          4    1    1    2  501    0 -0.52983390991E+01  0.83080163858E+02  0.32131518289E+03  0.33192443836E+03  0.00000000000E+00 0.  1.
<scales pt_clust_3="39.97652" pt_clust_4="66.82691" pt_clust_5="195.32408" pt_clust_6="66.82691"></scales>
<clustering>
<clus scale="   39.977">  1  3  2 -1</clus>
<clus scale="   66.827">  4  6 -1 -1</clus>
<clus scale="  195.324">  2  5  1 -1</clus>
<clus scale="  195.324">  2  3  1 -1</clus>
</clustering>
</event>
<event>
 6    0  0.4017242E+002  0.1564730E+03  0.7546771E-02  0.1192737E+00
         -1   -1    0    0    0  501 -0.00000000000E+00  0.00000000000E+00  0.58141277656E+03  0.58141277656E+03  0.00000000000E+00 0.  1.
         21   -1    0    0  505  502  0.00000000000E+00 -0.00000000000E+00 -0.13472735626E+03  0.13472735626E+03  0.00000000000E+00 0.  1.
         21    1    1    2  503  501  0.88296041263E+02  0.98091499049E+02  0.18846595588E+01  0.13199123088E+03  0.00000000000E+00 0.  1.
         21    1    1    2  504  502 -0.15768967196E+03 -0.64448578451E+02  0.23449158081E+03  0.28983780530E+03  0.00000000000E+00 0.  1.
         21    1    1    2  505  503  0.90003268525E+02 -0.68045714647E+02  0.40576859550E+02  0.11990533415E+03  0.00000000000E+00 0. -1.
         -1    1    1    2    0  504 -0.20609637825E+02  0.34402794049E+02  0.16973232037E+03  0.17440576249E+03  0.00000000000E+00 0.  1.
<scales pt_clust_3="156.47298" pt_clust_4="14000.00000" pt_clust_5="105.58227" pt_clust_6="40.10373"></scales>
<clustering>
<clus scale="   40.104">  1  6  2 -1</clus>
<clus scale="  105.582">  2  5  1 -1</clus>
<clus scale="  156.473">  2  3  1 -1</clus>
<clus scale="  105.582">  2  3  1 -1</clus>
</clustering>
</event>
<event>
 6    0  0.4017242E+002  0.2090285E+03  0.7546771E-02  0.1142338E+00
          1   -1    0    0  502    0 -0.00000000000E+00  0.00000000000E+00  0.20282073338E+04  0.20282073338E+04  0.00000000000E+00 0.  1.
         21   -1    0    0  505  502  0.00000000000E+00 -0.00000000000E+00 -0.34636959964E+03  0.34636959964E+03  0.00000000000E+00 0. -1.
         21    1    1    2  503  501  0.16904767705E+03  0.82826463055E+02  0.37433489422E+03  0.41900352400E+03  0.00000000000E+00 0.  1.
         21    1    1    2  504  503 -0.64104819386E+02 -0.93741821050E+02 -0.12385298830E+03  0.16803725656E+03  0.00000000000E+00 0.  1.
         21    1    1    2  505  504 -0.88727010837E+02 -0.23122899477E+02 -0.16605113644E+03  0.18968429256E+03  0.00000000000E+00 0. -1.
          1    1    1    2  501    0 -0.16215846829E+02  0.34038257472E+02  0.15974069647E+04  0.15978518603E+04  0.00000000000E+00 0.  1.
<scales pt_clust_3="191.80083" pt_clust_4="75.06738" pt_clust_5="75.06738" pt_clust_6="37.70354"></scales>
<clustering>
<clus scale="   37.704">  1  6  2 -1</clus>
<clus scale="   75.067">  4  5 -1 -1</clus>
<clus scale="  191.801">  1  3  2 -1</clus>
<clus scale="  209.029">  2  3  1 -1</clus>
</clustering>
</event>
<event>
 6    0  0.4017242E+002  0.1028837E+03  0.7546771E-02  0.1274346E+00
         21   -1    0    0  505  502  0.00000000000E+00  0.00000000000E+00  0.65645741000E+02  0.65645741000E+02  0.00000000000E+00 0. -1.
          1   -1    0    0  504    0 -0.00000000000E+00 -0.00000000000E+00 -0.93271987027E+03  0.93271987027E+03  0.00000000000E+00 0.  1.
         21    1    1    2  503  502 -0.10287482459E+03  0.83909353552E+01 -0.36309102715E+02  0.10941658133E+03  0.00000000000E+00 0. -1.
         21    1    1    2  504  503 -0.11630679814E+02  0.33438225486E+02 -0.13479221454E+03  0.13936401521E+03  0.00000000000E+00 0. -1.
         21    1    1    2  505  501  0.17669250057E+02  0.45315903762E+02 -0.78854803187E+01  0.49273870674E+02  0.00000000000E+00 0.  1.
          1    1    1    2  501    0  0.96836254343E+02 -0.87145064604E+02 -0.68808733170E+03  0.70031114405E+03  0.00000000000E+00 0.  1.
<scales pt_clust_3="14000.00000" pt_clust_4="35.40322" pt_clust_5="49.61296" pt_clust_6="102.88370"></scales>
<clustering>
<clus scale="   35.403">  2  4  1 -1</clus>
<clus scale="   49.613">  1  5  2 -1</clus>
<clus scale="  102.884">  2  6  1 -1</clus>
<clus scale="   49.613">  1  3  2 -1</clus>
</clustering>
</event>
<event>
 6    0  0.4017242E+002  0.9093207E+02  0.7546771E-02  0.1300610E+00
         -4   -1    0    0    0  501 -0.00000000000E+00  0.00000000000E+00  0.54782556707E+03  0.54782556707E+03  0.00000000000E+00 0.  1.
         21   -1    0    0  503  502  0.00000000000E+00 -0.00000000000E+00 -0.98816893798E+02  0.98816893798E+02  0.00000000000E+00 0. -1.
         21    1    1    2  503  501  0.97921196653E+02  0.21934869576E+02 -0.24184562751E+01  0.10037703018E+03  0.00000000000E+00 0. -1.
         21    1    1    2  504  502  0.34809950972E+01  0.55824827947E+02  0.36786274769E+02  0.66945939037E+02  0.00000000000E+00 0. -1.
         21    1    1    2  505  504 -0.80884688272E+02  0.11098801307E+01  0.30215914998E+02  0.86351410816E+02  0.00000000000E+00 0.  1.
         -4    1    1    2    0  505 -0.20517503478E+02 -0.78869577653E+02  0.38442493978E+03  0.39296808083E+03  0.00000000000E+00 0.  1.
<scales pt_clust_3="90.93207" pt_clust_4="55.93325" pt_clust_5="14000.00000" pt_clust_6="78.69584"></scales>
<clustering>
<clus scale="   55.933">  2  4  1 -1</clus>
<clus scale="   78.696">  1  6  2 -1</clus>
<clus scale="   90.932">  2  3  1 -1</clus>
<clus scale="   55.933">  2  3  1 -1</clus>
</clustering>
</event>
<event>
 6    0  0.4017242E+002  0.1021233E+03  0.7546771E-02  0.1275893E+00
          2   -1    0    0  503    0 -0.00000000000E+00  0.00000000000E+00  0.26682625309E+04  0.26682625309E+04  0.00000000000E+00 0. -1.
         21   -1    0    0  504  502  0.00000000000E+00 -0.00000000000E+00 -0.31976394666E+02  0.31976394666E+02  0.00000000000E+00 0.  1.
         21    1    1    2  503  502  0.44821036068E+02  0.11380436622E+02  0.31091404811E+02  0.55723559336E+02  0.00000000000E+00 0. -1.
         21    1    1    2  504  505 -0.51061055165E+02  0.61449993249E+01  0.13207209294E+03  0.14173224794E+03  0.00000000000E+00 0.  1.
         21    1    1    2  505  501  0.62285194338E+01  0.85941261404E+02  0.12186851757E+03  0.14925357765E+03  0.00000000000E+00 0.  1.
          2    1    1    2  501    0  0.11499663098E-01 -0.10346669735E+03  0.23512541209E+04  0.23535295407E+04  0.00000000000E+00 0. -1.
<scales pt_clust_3="46.24327" pt_clust_4="41.03546" pt_clust_5="14000.00000" pt_clust_6="102.12329"></scales>
<clustering>
<clus scale="   46.243">  2  3  1 -1</clus>
<clus scale="   41.035">  2  4  1 -1</clus>
<clus scale="  102.123">  1  6  2 -1</clus>
<clus scale="   46.243">  2  3  1 -1</clus>
</clustering>
</event>
<event>
 6    0  0.4017242E+002  0.1439335E+03  0.7546771E-02  0.1208132E+00
         21   -1    0    0  505  502  0.00000000000E+00  0.00000000000E+00  0.35586577846E+03  0.35586577846E+03  0.00000000000E+00 0. -1.
          1   -1    0    0  503    0 -0.00000000000E+00 -0.00000000000E+00 -0.12559271056E+04  0.12559271056E+04  0.00000000000E+00 0. -1.
         21    1    1    2  503  502 -0.21909501233E+01  0.30746851793E+02  0.24368717527E+03  0.24562900592E+03  0.00000000000E+00 0. -1.
         21    1    1    2  504  501  0.41069868416E+02 -0.81733823221E+02 -0.66835425950E+03  0.67458473755E+03  0.00000000000E+00 0. -1.
         21    1    1    2  505  504 -0.80475535059E+02  0.80290549704E+02  0.76707086592E+02  0.13713811012E+03  0.00000000000E+00 0. -1.
          1    1    1    2  501    0  0.41596616767E+02 -0.29303578276E+02 -0.55210132954E+03  0.55444103050E+03  0.00000000000E+00 0. -1.
<scales pt_clust_3="30.82481" pt_clust_4="31.97582" pt_clust_5="137.43145" pt_clust_6="31.97582"></scales>
<clustering>
<clus scale="   30.825">  1  3  2 -1</clus>
<clus scale="   31.976">  4  6 -1 -1</clus>
<clus scale="  137.431">  1  5  2 -1</clus>
<clus scale="   30.825">  1  3  2 -1</clus>
</clustering>
</event>
<event>
 6    0  0.4017242E+002  0.4056285E+03  0.7546771E-02  0.1041848E+00
         21   -1    0    0  503  502  0.00000000000E+00  0.00000000000E+00  0.28209883355E+03  0.28209883355E+03  0.00000000000E+00 0. -1.
          2   -1    0    0  502    0 -0.00000000000E+00 -0.00000000000E+00 -0.86038908436E+03  0.86038908436E+03  0.00000000000E+00 0. -1.
         21    1    1    2  503  504 -0.75548087601E+02  0.63048848138E+02  0.41203639956E+02  0.10667900795E+03  0.00000000000E+00 0. -1.
         21    1    1    2  504  505 -0.24902388595E+03  0.15051512921E+03  0.51437437317E+01  0.29102260736E+03  0.00000000000E+00 0. -1.
         21    1    1    2  505  501  0.16783479306E+03 -0.60595482989E+02 -0.20767880721E+03  0.27380799346E+03  0.00000000000E+00 0. -1.
          2    1    1    2  501    0  0.15673718050E+03 -0.15296849436E+03 -0.41695882729E+03  0.47097830913E+03  0.00000000000E+00 0. -1.
<scales pt_clust_3="41.37410" pt_clust_4="394.99177" pt_clust_5="105.17873" pt_clust_6="105.17873"></scales>
<clustering>
<clus scale="   41.374">  3  4 -1 -1</clus>
<clus scale="  105.179">  5  6 -1 -1</clus>
<clus scale="  394.992">  1  3  2 -1</clus>
<clus scale="  394.992">  1  3  2 -1</clus>
</clustering>
</event>
<event>
 6    0  0.4017242E+002  0.9688175E+02  0.7546771E-02  0.1286993E+00
          2   -1    0    0  503    0 -0.00000000000E+00  0.00000000000E+00  0.84799954777E+03  0.84799954777E+03  0.00000000000E+00 0.  1.
         21   -1    0    0  504  502  0.00000000000E+00 -0.00000000000E+00 -0.83402020188E+03  0.83402020188E+03  0.00000000000E+00 0. -1.
         21    1    1    2  503  502 -0.72506552550E+02 -0.70453500707E+02 -0.60211259121E+03  0.61054112754E+03  0.00000000000E+00 0. -1.
         21    1    1    2  504  505  0.49955212012E+02 -0.33097229870E+02 -0.17381676607E+03  0.18385651470E+03  0.00000000000E+00 0. -1.
         21    1    1    2  505  501  0.16906435450E+01  0.77563610271E+02 -0.17495685392E+02  0.79530314480E+02  0.00000000000E+00 0. -1.
          2    1    1    2  501    0  0.20860696993E+02  0.25987120306E+02  0.80740438856E+03  0.80809179291E+03  0.00000000000E+00 0.  1.
<scales pt_clust_3="14000.00000" pt_clust_4="60.44516" pt_clust_5="96.88175" pt_clust_6="33.32415"></scales>
<clustering>
<clus scale="   33.324">  1  6  2 -1</clus>
<clus scale="   60.445">  2  4  1 -1</clus>
<clus scale="   96.882">  1  5  2 -1</clus>
<clus scale="   60.445">  2  3  1 -1</clus>
</clustering>
</event>
<event>
 6    0  0.4017242E+002  0.1130506E+03  0.7546771E-02  0.1255023E+00
          3   -1    0    0  503    0 -0.00000000000E+00  0.00000000000E+00  0.67873800775E+03  0.67873800775E+03  0.00000000000E+00 0.  1.
         21   -1    0    0  504  502  0.00000000000E+00 -0.00000000000E+00 -0.10201193413E+03  0.10201193413E+03  0.00000000000E+00 0.  1.
         21    1    1    2  503  505 -0.20973611687E+02 -0.49534608453E+02  0.12645254589E+03  0.13741839827E+03  0.00000000000E+00 0.  1.
         21    1    1    2  504  501  0.78030111716E+02  0.53462096521E+02 -0.47553634518E+02  0.10586898627E+03  0.00000000000E+00 0.  1.
         21    1    1    2  505  502 -0.43839146419E+02 -0.60810806736E+02  0.60719803497E+02  0.96471340362E+02  0.00000000000E+00 0.  1.
          3    1    1    2  501    0 -0.13217353610E+02  0.56883318668E+02  0.43710735874E+03  0.44099121697E+03  0.00000000000E+00 0.  1.
<scales pt_clust_3="48.61803" pt_clust_4="97.39778" pt_clust_5="48.61803" pt_clust_6="58.39872"></scales>
<clustering>
<clus scale="   48.618">  3  5 -1 -1</clus>
<clus scale="   58.399">  1  6  2 -1</clus>
<clus scale="   97.398">  2  4  1 -1</clus>
<clus scale="   97.398">  2  3  1 -1</clus>
</clustering>
</event>
<event>
 6    0  0.4017242E+002  0.3696586E+03  0.7546771E-02  0.1054824E+00
          2   -1    0    0  503    0 -0.00000000000E+00  0.00000000000E+00  0.40168206223E+03  0.40168206223E+03  0.00000000000E+00 0. -1.
         21   -1    0    0  504  502  0.00000000000E+00 -0.00000000000E+00 -0.19351898180E+04  0.19351898180E+04  0.00000000000E+00 0. -1.
         21    1    1    2  503  502  0.40864949807E+02 -0.48974258299E+03 -0.26051851099E+03  0.55622624560E+03  0.00000000000E+00 0. -1.
         21    1    1    2  504  505  0.59967749685E+02  0.34875687588E+03 -0.14365393944E+04  0.14794840051E+04  0.00000000000E+00 0. -1.
         21    1    1    2  505  501 -0.10993730307E+03  0.17215368106E+03  0.94923947580E+02  0.22524132910E+03  0.00000000000E+00 0. -1.
          2    1    1    2  501    0  0.91046035745E+01 -0.31167973944E+02  0.68626202093E+02  0.75920300446E+02  0.00000000000E+00 0. -1.
<scales pt_clust_3="369.65865" pt_clust_4="14000.00000" pt_clust_5="189.16695" pt_clust_6="32.47055"></scales>
<clustering>
<clus scale="   32.471">  1  6  2 -1</clus>
<clus scale="  189.167">  1  5  2 -1</clus>
<clus scale="  369.659">  1  3  2 -1</clus>
<clus scale="  369.659">  2  3  1 -1</clus>
</clustering>
</event>
<event>
 6    0  0.4017242E+002  0.1022449E+03  0.7546771E-02  0.1275645E+00
          4   -1    0    0  504    0 -0.00000000000E+00  0.00000000000E+00  0.85976071073E+03  0.85976071073E+03  0.00000000000E+00 0.  1.
         21   -1    0    0  505  502  0.00000000000E+00 -0.00000000000E+00 -0.26293301258E+02  0.26293301258E+02  0.00000000000E+00 0.  1.
         21    1    1    2  503  502  0.12855469918E+02 -0.11769913403E+03  0.25492220204E+03  0.28107592987E+03  0.00000000000E+00 0.  1.
         21    1    1    2  504  503  0.51027549210E+02  0.68770801601E+02  0.28799974616E+03  0.30046145796E+03  0.00000000000E+00 0.  1.
         21    1    1    2  505  501 -0.21126939149E+02  0.42759150351E+02  0.14035631201E+03  0.14823827717E+03  0.00000000000E+00 0.  1.
          4    1    1    2  501    0 -0.42756079979E+02  0.61691820784E+01  0.15018914926E+03  0.15627834699E+03  0.00000000000E+00 0.  1.
<scales pt_clust_3="92.81882" pt_clust_4="85.63430" pt_clust_5="40.80932" pt_clust_6="40.80932"></scales>
<clustering>
<clus scale="   40.809">  5  6 -1 -1</clus>
<clus scale="   85.634">  1  4  2 -1</clus>
<clus scale="   92.819">  2  3  1 -1</clus>
<clus scale="   92.819">  2  3  1 -1</clus>
</clustering>
</event>
<event>
 6    0  0.4017242E+002  0.6042910E+03  0.7546771E-02  0.9896543E-01
          1   -1    0    0  503    0 -0.00000000000E+00  0.00000000000E+00  0.26489750929E+04  0.26489750929E+04  0.00000000000E+00 0. -1.
         21   -1    0    0  504  502  0.00000000000E+00 -0.00000000000E+00 -0.11133621669E+04  0.11133621669E+04  0.00000000000E+00 0. -1.
         21    1    1    2  503  502  0.23198658603E+02  0.20164219691E+02 -0.21871475691E+01  0.30814884897E+02  0.00000000000E+00 0.  1.
         21    1    1    2  504  505 -0.38434547854E+03  0.64080865535E+02 -0.71935655777E+03  0.81810858779E+03  0.00000000000E+00 0. -1.
         21    1    1    2  505  501 -0.20472995311E+03  0.80949260932E+02 -0.25276360422E+03  0.33519632480E+03  0.00000000000E+00 0. -1.
          1    1    1    2  501    0  0.56587677305E+03 -0.16519434616E+03  0.25099202356E+04  0.25782174624E+04  0.00000000000E+00 0. -1.
<scales pt_clust_3="30.73717" pt_clust_4="99.04107" pt_clust_5="99.04107" pt_clust_6="590.01407"></scales>
<clustering>
<clus scale="   30.737">  2  3  1 -1</clus>
<clus scale="   99.041">  4  5 -1 -1</clus>
<clus scale="  590.014">  1  6  2 -1</clus>
<clus scale="   30.737">  2  3  1 -1</clus>
</clustering>
</event>
<event>
 6    0  0.4017242E+002  0.1768395E+03  0.7546771E-02  0.1170897E+00
         21   -1    0    0  501  502  0.00000000000E+00  0.00000000000E+00  0.15205398466E+03  0.15205398466E+03  0.00000000000E+00 0. -1.
          2   -1    0    0  505    0 -0.00000000000E+00 -0.00000000000E+00 -0.81531289386E+03  0.81531289386E+03  0.00000000000E+00 0.  1.
         21    1    1    2  503  502 -0.24088174341E+02  0.19083397998E+02  0.50811437327E+02  0.59381970205E+02  0.00000000000E+00 0. -1.
         21    1    1    2  504  503 -0.51834123857E+02  0.30778089764E+02 -0.55094717871E+01  0.60534465265E+02  0.00000000000E+00 0. -1.
         21    1    1    2  505  504  0.25066246901E+02  0.13229431258E+03 -0.23398507690E+02  0.13666598713E+03  0.00000000000E+00 0. -1.
          2    1    1    2  501    0  0.50856051297E+02 -0.18215580034E+03 -0.68516236705E+03  0.71078445592E+03  0.00000000000E+00 0.  1.
<scales pt_clust_3="30.73136" pt_clust_4="68.93504" pt_clust_5="176.83949" pt_clust_6="14000.00000"></scales>
<clustering>
<clus scale="   30.731">  1  3  2 -1</clus>
<clus scale="   68.935">  1  4  2 -1</clus>
<clus scale="  176.839">  1  5  2 -1</clus>
<clus scale="   30.731">  1  3  2 -1</clus>
</clustering>
</event>
<event>
 6    0  0.4017242E+002  0.1398668E+03  0.7546771E-02  0.1213508E+00
         21   -1    0    0  503  502  0.00000000000E+00  0.00000000000E+00  0.19675614338E+03  0.19675614338E+03  0.00000000000E+00 0.  1.
          2   -1    0    0  505    0 -0.00000000000E+00 -0.00000000000E+00 -0.36250819098E+04  0.36250819098E+04  0.00000000000E+00 0. -1.
         21    1    1    2  503  504 -0.26557371046E+02  0.19992720190E+02  0.69910058357E+02  0.77410716809E+02  0.00000000000E+00 0.  1.
         21    1    1    2  504  501  0.28694699473E+02 -0.53753931393E+02 -0.37371997007E+02  0.71481026002E+02  0.00000000000E+00 0.  1.
         21    1    1    2  505  502  0.13764323154E+03  0.27667257173E+02  0.57562989773E+02  0.15173870337E+03  0.00000000000E+00 0.  1.
          2    1    1    2  501    0 -0.13978055997E+03  0.60939540298E+01 -0.35184268175E+04  0.35212076070E+04  0.00000000000E+00 0. -1.
<scales pt_clust_3="33.24158" pt_clust_4="56.79025" pt_clust_5="14000.00000" pt_clust_6="139.86675"></scales>
<clustering>
<clus scale="   33.242">  1  3  2 -1</clus>
<clus scale="   56.790">  1  4  2 -1</clus>
<clus scale="  139.867">  2  6  1 -1</clus>
<clus scale="   33.242">  1  3  2 -1</clus>
</clustering>
</event>
<event>
 6    0  0.4017242E+002  0.9005855E+02  0.7546771E-02  0.1302710E+00
         21   -1    0    0  504  502  0.00000000000E+00  0.00000000000E+00  0.14402560329E+03  0.14402560329E+03  0.00000000000E+00 0.  1.
          1   -1    0    0  505    0 -0.00000000000E+00 -0.00000000000E+00 -0.24814906656E+03  0.24814906656E+03  0.00000000000E+00 0. -1.
         21    1    1    2  503  501 -0.32816844711E+02 -0.50147921384E+02 -0.69552746668E+02  0.91811458353E+02  0.00000000000E+00 0.  1.
         21    1    1    2  504  503 -0.42999763551E+02  0.97527487511E+02  0.55615347769E+02  0.12022336459E+03  0.00000000000E+00 0.  1.
         21    1    1    2  505  502  0.27417991214E+02 -0.67098279226E+02  0.38187295506E+01  0.72584488788E+02  0.00000000000E+00 0.  1.
          1    1    1    2  501    0  0.48398617048E+02  0.19718713099E+02 -0.94004793928E+02  0.10755535812E+03  0.00000000000E+00 0. -1.
<scales pt_clust_3="39.85642" pt_clust_4="90.05855" pt_clust_5="14000.00000" pt_clust_6="52.26140"></scales>
<clustering>
<clus scale="   52.261">  2  6  1 -1</clus>
<clus scale="   39.856">  2  3  1 -1</clus>
<clus scale="   90.059">  1  4  2 -1</clus>
<clus scale="   90.059">  1  3  2 -1</clus>
</clustering>
</event>
<event>
 6    0  0.4017242E+002  0.1462381E+03  0.7546771E-02  0.1205173E+00
          2   -1    0    0  504    0 -0.00000000000E+00  0.00000000000E+00  0.10857662239E+04  0.10857662239E+04  0.00000000000E+00 0. -1.
         21   -1    0    0  503  502  0.00000000000E+00 -0.00000000000E+00 -0.91518504759E+02  0.91518504759E+02  0.00000000000E+00 0.  1.
         21    1    1    2  503  501  0.26560920769E+02  0.22836299286E+02 -0.46543935601E+01  0.35336135281E+02  0.00000000000E+00 0.  1.
         21    1    1    2  504  505 -0.19467920984E+02  0.56213474750E+02  0.13854386891E+03  0.15077585451E+03  0.00000000000E+00 0.  1.
         21    1    1    2  505  502  0.56263836438E+02 -0.15082848449E+03  0.40839465787E+02  0.16608044132E+03  0.00000000000E+00 0.  1.
          2    1    1    2  501    0 -0.63356836223E+02  0.71778710451E+02  0.81951877802E+03  0.82509229756E+03  0.00000000000E+00 0. -1.
<scales pt_clust_3="35.02826" pt_clust_4="60.65505" pt_clust_5="146.23812" pt_clust_6="14000.00000"></scales>
<clustering>
<clus scale="   35.028">  2  3  1 -1</clus>
<clus scale="   60.655">  1  4  2 -1</clus>
<clus scale="  146.238">  2  5  1 -1</clus>
<clus scale="   35.028">  2  3  1 -1</clus>
</clustering>
</event>
<event>
 6    0  0.4017242E+002  0.9438226E+02  0.7546771E-02  0.1292573E+00
         21   -1    0    0  504  502  0.00000000000E+00  0.00000000000E+00  0.80578391466E+03  0.80578391466E+03  0.00000000000E+00 0.  1.
          2   -1    0    0  503    0 -0.00000000000E+00 -0.00000000000E+00 -0.16164958539E+04  0.16164958539E+04  0.00000000000E+00 0.  1.
         21    1    1    2  503  502  0.72266577832E+02 -0.61381317622E+02  0.79360498173E+03  0.79924901717E+03  0.00000000000E+00 0.  1.
         21    1    1    2  504  505 -0.47441034334E+02  0.38272061988E+02 -0.21321471047E+03  0.22175643222E+03  0.00000000000E+00 0. -1.
         21    1    1    2  505  501  0.10816392303E+02  0.62100066593E+02 -0.21662936858E+03  0.22561404199E+03  0.00000000000E+00 0. -1.
          2    1    1    2  501    0 -0.35641935801E+02 -0.38990810958E+02 -0.11744728419E+04  0.11756602772E+04  0.00000000000E+00 0.  1.
<scales pt_clust_3="94.38226" pt_clust_4="14000.00000" pt_clust_5="43.14650" pt_clust_6="52.82642"></scales>
<clustering>
<clus scale="   52.826">  2  6  1 -1</clus>
<clus scale="   43.146">  2  5  1 -1</clus>
<clus scale="   94.382">  1  3  2 -1</clus>
<clus scale="   94.382">  1  3  2 -1</clus>
</clustering>
</event>
<event>
 6    0  0.4017242E+002  0.7277821E+02  0.7546771E-02  0.1350893E+00
          1   -1    0    0  504    0 -0.00000000000E+00  0.00000000000E+00  0.13340099689E+04  0.13340099689E+04  0.00000000000E+00 0. -1.
         21   -1    0    0  503  502  0.00000000000E+00 -0.00000000000E+00 -0.21217731202E+02  0.21217731202E+02  0.00000000000E+00 0. -1.
         21    1    1    2  503  501 -0.47982118401E+02 -0.70318036409E+02  0.25460215650E+03  0.26845701337E+03  0.00000000000E+00 0. -1.
         21    1    1    2  504  505  0.42199006050E+02 -0.66284867046E+02  0.27129054713E+03  0.28244114550E+03  0.00000000000E+00 0. -1.
         21    1    1    2  505  502  0.21058390488E+01  0.64786186620E+02  0.15030796092E+03  0.16368924109E+03  0.00000000000E+00 0. -1.
          1    1    1    2  501    0  0.36772733021E+01  0.71816716836E+02  0.63659157314E+03  0.64064030013E+03  0.00000000000E+00 0. -1.
<scales pt_clust_3="14000.00000" pt_clust_4="59.71016" pt_clust_5="64.82040" pt_clust_6="72.77821"></scales>
<clustering>
<clus scale="   64.820">  2  5  1 -1</clus>
<clus scale="   59.710">  2  4  1 -1</clus>
<clus scale="   72.778">  1  6  2 -1</clus>
<clus scale="   64.820">  2  3  1 -1</clus>
</clustering>
</event>
<event>
 6    0  0.4017242E+002  0.3287213E+03  0.7546771E-02  0.1071704E+00
         21   -1    0    0  505  502  0.00000000000E+00  0.00000000000E+00  0.10595516542E+04  0.10595516542E+04  0.00000000000E+00 0.  1.
         -1   -1    0    0    0  501 -0.00000000000E+00 -0.00000000000E+00 -0.37050674004E+03  0.37050674004E+03  0.00000000000E+00 0.  1.
         21    1    1    2  503  502 -0.40333377779E+02 -0.12958963461E+03  0.75218413885E+03  0.76433057868E+03  0.00000000000E+00 0.  1.
         21    1    1    2  504  501 -0.52280922773E+02  0.17520907726E+03 -0.59471720004E+02  0.19227168569E+03  0.00000000000E+00 0.  1.
         21    1    1    2  505  504 -0.12407770063E+03  0.13614063364E+03 -0.39437644035E+02  0.18837429678E+03  0.00000000000E+00 0.  1.
         -1    1    1    2    0  503  0.21669200118E+03 -0.18176007629E+03  0.35770139391E+02  0.28508183313E+03  0.00000000000E+00 0.  1.
<scales pt_clust_3="135.72124" pt_clust_4="83.75700" pt_clust_5="83.75700" pt_clust_6="317.78986"></scales>
<clustering>
<clus scale="   83.757">  4  5 -1 -1</clus>
<clus scale="  135.721">  1  3  2 -1</clus>
<clus scale="  317.790">  1  6  2 -1</clus>
<clus scale="  135.721">  1  3  2 -1</clus>
</clustering>
</event>
<event>
 6    0  0.4017242E+002  0.1364764E+03  0.7546771E-02  0.1218150E+00
          1   -1    0    0  503    0 -0.00000000000E+00  0.00000000000E+00  0.15724742460E+04  0.15724742460E+04  0.00000000000E+00 0.  1.
         21   -1    0    0  504  502  0.00000000000E+00 -0.00000000000E+00 -0.18085202378E+03  0.18085202378E+03  0.00000000000E+00 0. -1.
         21    1    1    2  503  502 -0.12963742257E+03  0.29113399066E+02  0.38105302276E+02  0.13822252131E+03  0.00000000000E+00 0. -1.
         21    1    1    2  504  505  0.13888532562E+02  0.54212068565E+02 -0.74497719159E+02  0.93175908231E+02  0.00000000000E+00 0. -1.
         21    1    1    2  505  501  0.12962712172E+03 -0.56615990558E+02  0.60112771748E+02  0.15369484832E+03  0.00000000000E+00 0.  1.
          1    1    1    2  501    0 -0.13878231711E+02 -0.26709477073E+02  0.13679018674E+04  0.13682329919E+04  0.00000000000E+00 0.  1.
<scales pt_clust_3="136.47643" pt_clust_4="54.62422" pt_clust_5="14000.00000" pt_clust_6="30.09986"></scales>
<clustering>
<clus scale="   30.100">  1  6  2 -1</clus>
<clus scale="   54.624">  2  4  1 -1</clus>
<clus scale="  136.476">  2  3  1 -1</clus>
<clus scale="   54.624">  2  3  1 -1</clus>
</clustering>
</event>
<event>
 6    0  0.4017242E+002  0.7913272E+02  0.7546771E-02  0.1331531E+00
         21   -1    0    0  504  502  0.00000000000E+00  0.00000000000E+00  0.20739208689E+04  0.20739208689E+04  0.00000000000E+00 0. -1.
          2   -1    0    0  503    0 -0.00000000000E+00 -0.00000000000E+00 -0.27428443146E+03  0.27428443146E+03  0.00000000000E+00 0. -1.
         21    1    1    2  503  505  0.14469779477E+02 -0.78606438978E+02  0.61611460352E+03  0.62127735468E+03  0.00000000000E+00 0. -1.
         21    1    1    2  504  501  0.38629757940E+02 -0.85357256455E+01  0.32648510655E+03  0.32887329112E+03  0.00000000000E+00 0. -1.
         21    1    1    2  505  502  0.22940486518E+02  0.63838669341E+02  0.11206522376E+04  0.11227034690E+04  0.00000000000E+00 0. -1.
          2    1    1    2  501    0 -0.76040023935E+02  0.23303495283E+02 -0.26361551026E+03  0.27535118555E+03  0.00000000000E+00 0. -1.
<scales pt_clust_3="14000.00000" pt_clust_4="39.56156" pt_clust_5="75.40448" pt_clust_6="79.13272"></scales>
<clustering>
<clus scale="   39.562">  1  4  2 -1</clus>
<clus scale="   75.404">  1  5  2 -1</clus>
<clus scale="   79.133">  2  6  1 -1</clus>
<clus scale="   39.562">  1  3  2 -1</clus>
</clustering>
</event>
<event>
 6    0  0.4017242E+002  0.7163952E+02  0.7546771E-02  0.1354605E+00
          4   -1    0    0  505    0 -0.00000000000E+00  0.00000000000E+00  0.32960122341E+03  0.32960122341E+03  0.00000000000E+00 0. -1.
         21   -1    0    0  501  502  0.00000000000E+00 -0.00000000000E+00 -0.15672462476E+04  0.15672462476E+04  0.00000000000E+00 0. -1.
         21    1    1    2  503  502 -0.35643989530E+02  0.31376767391E+02 -0.14431486072E+04  0.14439296721E+04  0.00000000000E+00 0. -1.
         21    1    1    2  504  503  0.77527214417E+02 -0.64023566763E+01 -0.42834748577E+02  0.88804700506E+02  0.00000000000E+00 0. -1.
         21    1    1    2  505  504 -0.10073252744E+03 -0.36439958688E+02 -0.15505681118E+01  0.10713224041E+03  0.00000000000E+00 0. -1.
          4    1    1    2  501    0  0.58849302553E+02  0.11465547973E+02  0.24988889968E+03  0.25698085801E+03  0.00000000000E+00 0. -1.
<scales pt_clust_3="47.48679" pt_clust_4="71.63952" pt_clust_5="14000.00000" pt_clust_6="59.13478"></scales>
<clustering>
<clus scale="   47.487">  2  3  1 -1</clus>
<clus scale="   59.135">  1  6  2 -1</clus>
<clus scale="   71.640">  2  4  1 -1</clus>
<clus scale="   47.487">  2  3  1 -1</clus>
</clustering>
</event>
<event>
 6    0  0.4017242E+002  0.7077993E+02  0.7546771E-02  0.1357461E+00
         21   -1    0    0  505  502  0.00000000000E+00  0.00000000000E+00  0.18454354243E+04  0.18454354243E+04  0.00000000000E+00 0.  1.
         -4   -1    0    0    0  501 -0.00000000000E+00 -0.00000000000E+00 -0.34144882460E+03  0.34144882460E+03  0.00000000000E+00 0. -1.
         21    1    1    2  503  502  0.61401251051E+01  0.71055398049E+02  0.16556499646E+04  0.16571853777E+04  0.00000000000E+00 0.  1.
         21    1    1    2  504  503 -0.48324523987E+02 -0.16554374833E+02 -0.63511591501E+01  0.51474694436E+02  0.00000000000E+00 0.  1.
         21    1    1    2  505  501  0.76991004313E+02 -0.64609458047E+02  0.15007449501E+03  0.18062212175E+03  0.00000000000E+00 0.  1.
         -4    1    1    2    0  504 -0.34806605431E+02  0.10108434831E+02 -0.29538670070E+03  0.29760205508E+03  0.00000000000E+00 0. -1.
<scales pt_clust_3="70.77993" pt_clust_4="71.42181" pt_clust_5="14000.00000" pt_clust_6="36.24473"></scales>
<clustering>
<clus scale="   36.245">  2  6  1 -1</clus>
<clus scale="   71.422">  2  4  1 -1</clus>
<clus scale="   70.780">  1  3  2 -1</clus>
<clus scale="   70.780">  1  3  2 -1</clus>
</clustering>
</event>
<event>
 6    0  0.4017242E+002  0.1818226E+03  0.7546771E-02  0.1166051E+00
          2   -1    0    0  504    0 -0.00000000000E+00  0.00000000000E+00  0.66022655350E+03  0.66022655350E+03  0.00000000000E+00 0. -1.
         21   -1    0    0  501  502  0.00000000000E+00 -0.00000000000E+00 -0.26443926755E+03  0.26443926755E+03  0.00000000000E+00 0.  1.
         21    1    1    2  503  505 -0.74998923621E+02 -0.67290523209E+02 -0.99481658953E+02  0.14159609291E+03  0.00000000000E+00 0.  1.
         21    1    1    2  504  503  0.52045062157E+02  0.57864818713E+02  0.10511379922E+03  0.13078966521E+03  0.00000000000E+00 0.  1.
         21    1    1    2  505  502 -0.40192179212E+02 -0.74904954050E+02 -0.11120304220E+03  0.13997242588E+03  0.00000000000E+00 0.  1.
          2    1    1    2  501    0  0.63146040676E+02  0.84330658546E+02  0.50135818789E+03  0.51230763706E+03  0.00000000000E+00 0. -1.
<scales pt_clust_3="34.41923" pt_clust_4="77.82690" pt_clust_5="34.41923" pt_clust_6="177.91913"></scales>
<clustering>
<clus scale="   34.419">  3  5 -1 -1</clus>
<clus scale="   77.827">  1  4  2 -1</clus>
<clus scale="  177.919">  1  6  2 -1</clus>
<clus scale="  181.823">  2  3  1 -1</clus>
</clustering>
</event>
<event>
 6    0  0.4017242E+002  0.1266875E+03  0.7546771E-02  0.1232455E+00
         21   -1    0    0  505  502  0.00000000000E+00  0.00000000000E+00  0.65033604345E+02  0.65033604345E+02  0.00000000000E+00 0.  1.
          1   -1    0    0  503    0 -0.00000000000E+00 -0.00000000000E+00 -0.89761201168E+03  0.89761201168E+03  0.00000000000E+00 0.  1.
         21    1    1    2  503  502  0.87377716992E+02 -0.16750601828E+02 -0.20104211233E+03  0.21984853654E+03  0.00000000000E+00 0.  1.
         21    1    1    2  504  501 -0.72752156010E+02 -0.15777416277E+02 -0.26027982735E+03  0.27071644130E+03  0.00000000000E+00 0.  1.
         21    1    1    2  505  504  0.52706151265E+02  0.11189021175E+02  0.32012222429E+02  0.62673080033E+02  0.00000000000E+00 0.  1.
          1    1    1    2  501    0 -0.67331712247E+02  0.21338996930E+02 -0.40326869009E+03  0.40940755815E+03  0.00000000000E+00 0.  1.
<scales pt_clust_3="115.89705" pt_clust_4="49.83566" pt_clust_5="53.88073" pt_clust_6="49.83566"></scales>
<clustering>
<clus scale="   49.836">  4  6 -1 -1</clus>
<clus scale="   53.881">  1  5  2 -1</clus>
<clus scale="  115.897">  1  3  2 -1</clus>
<clus scale="   53.881">  1  3  2 -1</clus>
</clustering>
</event>
<event>
 6    0  0.4017242E+002  0.9696724E+02  0.7546771E-02  0.1286806E+00
          2   -1    0    0  505    0 -0.00000000000E+00  0.00000000000E+00  0.19089739307E+04  0.19089739307E+04  0.00000000000E+00 0. -1.
         21   -1    0    0  504  502  0.00000000000E+00 -0.00000000000E+00 -0.14136901643E+03  0.14136901643E+03  0.00000000000E+00 0. -1.
         21    1    1    2  503  502  0.32526981509E+01 -0.30106365890E+02  0.35081552009E+02  0.46343161348E+02  0.00000000000E+00 0.  1.
         21    1    1    2  504  501 -0.44206908706E+02 -0.55051503932E+02 -0.10479366009E+03  0.12635913128E+03  0.00000000000E+00 0. -1.
         21    1    1    2  505  503  0.77568860142E+02 -0.54115386041E+01  0.61500002754E+02  0.99138605762E+02  0.00000000000E+00 0. -1.
          2    1    1    2  501    0 -0.36614649587E+02  0.90569408426E+02  0.17758170196E+04  0.17785020488E+04  0.00000000000E+00 0. -1.
<scales pt_clust_3="30.28157" pt_clust_4="96.96724" pt_clust_5="78.60647" pt_clust_6="14000.00000"></scales>
<clustering>
<clus scale="   30.282">  2  3  1 -1</clus>
<clus scale="   78.606">  2  5  1 -1</clus>
<clus scale="   96.967">  2  4  1 -1</clus>
<clus scale="   30.282">  2  3  1 -1</clus>
</clustering>
</event>
<event>
 6    0  0.4017242E+002  0.9887355E+02  0.7546771E-02  0.1282683E+00
         21   -1    0    0  505  502  0.00000000000E+00  0.00000000000E+00  0.22894052525E+02  0.22894052525E+02  0.00000000000E+00 0.  1.
          2   -1    0    0  504    0 -0.00000000000E+00 -0.00000000000E+00 -0.31657259288E+04  0.31657259288E+04  0.00000000000E+00 0.  1.
         21    1    1    2  503  501  0.44378643858E+02  0.27747081017E+01 -0.95065231613E+02  0.10495028012E+03  0.00000000000E+00 0.  1.
         21    1    1    2  504  502 -0.44965051504E+02 -0.62633711530E+02 -0.11793373736E+03  0.14090139845E+03  0.00000000000E+00 0. -1.
         21    1    1    2  505  503  0.27619342757E+02 -0.30469513565E+02 -0.68600576429E+02  0.79982863400E+02  0.00000000000E+00 0.  1.
          2    1    1    2  501    0 -0.27032935111E+02  0.90328516993E+02 -0.28612323309E+04  0.28627854394E+04  0.00000000000E+00 0.  1.
<scales pt_clust_3="36.78495" pt_clust_4="77.10277" pt_clust_5="36.78495" pt_clust_6="91.17522"></scales>
<clustering>
<clus scale="   36.785">  3  5 -1 -1</clus>
<clus scale="   77.103">  1  4  2 -1</clus>
<clus scale="   91.175">  2  6  1 -1</clus>
<clus scale="   77.103">  1  3  2 -1</clus>
</clustering>
</event>
<event>
 6    0  0.4017242E+002  0.7913446E+02  0.7546771E-02  0.1331526E+00
         21   -1    0    0  503  502  0.00000000000E+00  0.00000000000E+00  0.11820888689E+04  0.11820888689E+04  0.00000000000E+00 0. -1.
         -1   -1    0    0    0  501 -0.00000000000E+00 -0.00000000000E+00 -0.14772690411E+03  0.14772690411E+03  0.00000000000E+00 0. -1.
         21    1    1    2  503  505  0.77145148560E+02  0.16017572790E+02  0.10904236399E+04  0.10932665051E+04  0.00000000000E+00 0. -1.
         21    1    1    2  504  502 -0.10505214767E+03 -0.12773416735E+02 -0.83047193659E+02  0.13452118897E+03  0.00000000000E+00 0. -1.
         21    1    1    2  505  501 -0.30814448167E+02 -0.29179613964E+01  0.30164564299E+02  0.43219736856E+02  0.00000000000E+00 0. -1.
         -1    1    1    2    0  504  0.58721447281E+02 -0.32619465859E+00 -0.31790457615E+01  0.58808342144E+02  0.00000000000E+00 0. -1.
<scales pt_clust_3="14000.00000" pt_clust_4="79.13446" pt_clust_5="30.95230" pt_clust_6="51.96657"></scales>
<clustering>
<clus scale="   30.952">  2  5  1 -1</clus>
<clus scale="   51.967">  2  6  1 -1</clus>
<clus scale="   79.134">  2  4  1 -1</clus>
<clus scale="   79.134">  1  3  2 -1</clus>
</clustering>
</event>
<event>
 6    0  0.4017242E+002  0.6580288E+02  0.7546771E-02  0.1374977E+00
         21   -1    0    0  505  502  0.00000000000E+00  0.00000000000E+00  0.64377702099E+02  0.64377702099E+02  0.00000000000E+00 0.  1.
          2   -1    0    0  503    0 -0.00000000000E+00 -0.00000000000E+00 -0.70522161107E+03  0.70522161107E+03  0.00000000000E+00 0.  1.
         21    1    1    2  503  504 -0.82059529249E+01  0.76452599247E+02 -0.95737909100E+02  0.12279285335E+03  0.00000000000E+00 0.  1.
         21    1    1    2  504  502 -0.40851535118E+02 -0.53538009307E+02 -0.43322948967E+01  0.67482850719E+02  0.00000000000E+00 0.  1.
         21    1    1    2  505  501  0.76930692097E+02  0.13273894485E+01 -0.61157688324E+02  0.98287111008E+02  0.00000000000E+00 0.  1.
          2    1    1    2  501    0 -0.27873204054E+02 -0.24241979388E+02 -0.47961601665E+03  0.48103649809E+03  0.00000000000E+00 0.  1.
<scales pt_clust_3="65.80288" pt_clust_4="14000.00000" pt_clust_5="67.44257" pt_clust_6="36.94034"></scales>
<clustering>
<clus scale="   36.940">  2  6  1 -1</clus>
<clus scale="   67.443">  2  5  1 -1</clus>
<clus scale="   65.803">  2  3  1 -1</clus>
<clus scale="   65.803">  1  3  2 -1</clus>
</clustering>
</event>
<event>
 6    0  0.4017242E+002  0.1710630E+03  0.7546771E-02  0.1176744E+00
          2   -1    0    0  504    0 -0.00000000000E+00  0.00000000000E+00  0.34367806175E+03  0.34367806175E+03  0.00000000000E+00 0. -1.
         21   -1    0    0  505  502  0.00000000000E+00 -0.00000000000E+00 -0.70607878729E+03  0.70607878729E+03  0.00000000000E+00 0. -1.
         21    1    1    2  503  502 -0.38859184529E+02 -0.90050937214E-01 -0.22890437860E+03  0.23217936789E+03  0.00000000000E+00 0. -1.
         21    1    1    2  504  503 -0.14227769305E+03  0.45545554629E+02 -0.40306078869E+03  0.42985502075E+03  0.00000000000E+00 0. -1.
         21    1    1    2  505  501  0.40611385582E+02  0.27044018174E+02 -0.23928162673E+02  0.54343541721E+02  0.00000000000E+00 0. -1.
          2    1    1    2  501    0  0.14052549199E+03 -0.72499521865E+02  0.29349260442E+03  0.33337891868E+03  0.00000000000E+00 0. -1.
<scales pt_clust_3="32.38840" pt_clust_4="32.38840" pt_clust_5="48.79204" pt_clust_6="158.83881"></scales>
<clustering>
<clus scale="   32.388">  3  4 -1 -1</clus>
<clus scale="   48.792">  2  5  1 -1</clus>
<clus scale="  158.839">  1  6  2 -1</clus>
<clus scale="   48.792">  2  3  1 -1</clus>
</clustering>
</event>
<event>
 6    0  0.4017242E+002  0.3066426E+03  0.7546771E-02  0.1081966E+00
         21   -1    0    0  504  502  0.00000000000E+00  0.00000000000E+00  0.12043272663E+04  0.12043272663E+04  0.00000000000E+00 0. -1.
          2   -1    0    0  503    0 -0.00000000000E+00 -0.00000000000E+00 -0.14562371872E+04  0.14562371872E+04  0.00000000000E+00 0. -1.
         21    1    1    2  503  502 -0.25462780755E+02 -0.35548005801E+02  0.22928274059E+03  0.23341505747E+03  0.00000000000E+00 0. -1.
         21    1    1    2  504  505 -0.13072330943E+03  0.45521185437E+02  0.62730401681E+03  0.64239480964E+03  0.00000000000E+00 0. -1.
         21    1    1    2  505  501 -0.10144663143E+03 -0.18756056461E+03  0.28534631734E+03  0.35622030437E+03  0.00000000000E+00 0. -1.
          2    1    1    2  501    0  0.25763272161E+03  0.17758738498E+03 -0.13938429957E+04  0.14285342821E+04  0.00000000000E+00 0. -1.
<scales pt_clust_3="43.72658" pt_clust_4="149.01933" pt_clust_5="14000.00000" pt_clust_6="306.64258"></scales>
<clustering>
<clus scale="   43.727">  1  3  2 -1</clus>
<clus scale="  149.019">  1  4  2 -1</clus>
<clus scale="  306.643">  2  6  1 -1</clus>
<clus scale="   43.727">  1  3  2 -1</clus>
</clustering>
</event>
<event>
 6    0  0.4017242E+002  0.1384568E+03  0.7546771E-02  0.1215421E+00
         21   -1    0    0  503  502  0.00000000000E+00  0.00000000000E+00  0.35892926514E+03  0.35892926514E+03  0.00000000000E+00 0.  1.
          2   -1    0    0  505    0 -0.00000000000E+00 -0.00000000000E+00 -0.16369277141E+04  0.16369277141E+04  0.00000000000E+00 0. -1.
         21    1    1    2  503  504  0.15161648788E+02 -0.12493445583E+03  0.28172000661E+03  0.30855251736E+03  0.00000000000E+00 0.  1.
         21    1    1    2  504  501 -0.12270401237E+02  0.12742242923E+03 -0.50034544128E+02  0.13744269287E+03  0.00000000000E+00 0.  1.
         21    1    1    2  505  502  0.26760517250E+02 -0.14483066239E+02  0.83006754103E+01  0.31540223579E+02  0.00000000000E+00 0.  1.
          2    1    1    2  501    0 -0.29651764802E+02  0.11995092839E+02 -0.15179845869E+04  0.15183215455E+04  0.00000000000E+00 0. -1.
<scales pt_clust_3="138.45681" pt_clust_4="14000.00000" pt_clust_5="30.42835" pt_clust_6="31.97105"></scales>
<clustering>
<clus scale="   30.428">  1  5  2 -1</clus>
<clus scale="   31.971">  2  6  1 -1</clus>
<clus scale="  138.457">  1  3  2 -1</clus>
<clus scale="   30.428">  1  3  2 -1</clus>
</clustering>
</event>
<event>
 6    0  0.4017242E+002  0.1288497E+03  0.7546771E-02  0.1229173E+00
          2   -1    0    0  505    0 -0.00000000000E+00  0.00000000000E+00  0.10428472241E+04  0.10428472241E+04  0.00000000000E+00 0.  1.
         21   -1    0    0  504  502  0.00000000000E+00 -0.00000000000E+00 -0.86746074947E+02  0.86746074947E+02  0.00000000000E+00 0. -1.
         21    1    1    2  503  502 -0.19011352090E+02  0.85047265291E+02 -0.64513628370E+01  0.87384717910E+02  0.00000000000E+00 0. -1.
         21    1    1    2  504  501 -0.10991167719E+03 -0.93602114312E+02  0.17597890271E+03  0.22761921444E+03  0.00000000000E+00 0. -1.
         21    1    1    2  505  503  0.11790508789E+03  0.44035200710E+02  0.28393675920E+03  0.31058137722E+03  0.00000000000E+00 0. -1.
          2    1    1    2  501    0  0.11017941389E+02 -0.35480351689E+02  0.50263685004E+03  0.50400798943E+03  0.00000000000E+00 0.  1.
<scales pt_clust_3="84.36919" pt_clust_4="128.84967" pt_clust_5="14000.00000" pt_clust_6="37.15172"></scales>
<clustering>
<clus scale="   37.152">  1  6  2 -1</clus>
<clus scale="   84.369">  2  3  1 -1</clus>
<clus scale="  128.850">  2  4  1 -1</clus>
<clus scale="   84.369">  2  3  1 -1</clus>
</clustering>
</event>
<event>
 6    0  0.4017242E+002  0.9722131E+02  0.7546771E-02  0.1286250E+00
         21   -1    0    0  505  502  0.00000000000E+00  0.00000000000E+00  0.64056400404E+02  0.64056400404E+02  0.00000000000E+00 0.  1.
          2   -1    0    0  503    0 -0.00000000000E+00 -0.00000000000E+00 -0.20274902718E+04  0.20274902718E+04  0.00000000000E+00 0. -1.
         21    1    1    2  503  502  0.19498125427E+02  0.44488914556E+02 -0.19124457812E+03  0.19731682410E+03  0.00000000000E+00 0. -1.
         21    1    1    2  504  501  0.26693685593E+02  0.92933436181E+02 -0.68787347915E+02  0.11866286548E+03  0.00000000000E+00 0.  1.
         21    1    1    2  505  504 -0.14909529173E+02 -0.45334379905E+02  0.18306453242E+02  0.51113856163E+02  0.00000000000E+00 0.  1.
          2    1    1    2  501    0 -0.31282281846E+02 -0.92087970832E+02 -0.17217083986E+04  0.17244531264E+04  0.00000000000E+00 0. -1.
<scales pt_clust_3="43.66164" pt_clust_4="97.22131" pt_clust_5="47.72316" pt_clust_6="14000.00000"></scales>
<clustering>
<clus scale="   47.723">  1  5  2 -1</clus>
<clus scale="   43.662">  1  3  2 -1</clus>
<clus scale="   97.221">  1  4  2 -1</clus>
<clus scale="   47.723">  1  3  2 -1</clus>
</clustering>
</event>
<event>
 6    0  0.4017242E+002  0.9826914E+02  0.7546771E-02  0.1283978E+00
          2   -1    0    0  505    0 -0.00000000000E+00  0.00000000000E+00  0.20749767796E+04  0.20749767796E+04  0.00000000000E+00 0. -1.
         21   -1    0    0  503  502  0.00000000000E+00 -0.00000000000E+00 -0.98866372418E+02  0.98866372418E+02  0.00000000000E+00 0.  1.
         21    1    1    2  503  501 -0.43309120791E+02  0.19960435768E+02  0.19589217335E+02  0.51554208126E+02  0.00000000000E+00 0. -1.
         21    1    1    2  504  502  0.37976903172E+02 -0.14349655963E+02 -0.44952881472E+02  0.60571605175E+02  0.00000000000E+00 0.  1.
         21    1    1    2  505  504  0.10179935821E+03 -0.22944836037E+02  0.65377197999E+02  0.12314119072E+03  0.00000000000E+00 0.  1.
          2    1    1    2  501    0 -0.96467140591E+02  0.17334056231E+02  0.19360968733E+04  0.19385761480E+04  0.00000000000E+00 0. -1.
<scales pt_clust_3="33.66365" pt_clust_4="40.59751" pt_clust_5="98.26914" pt_clust_6="14000.00000"></scales>
<clustering>
<clus scale="   40.598">  2  4  1 -1</clus>
<clus scale="   33.664">  2  3  1 -1</clus>
<clus scale="   98.269">  2  5  1 -1</clus>
<clus scale="   40.598">  2  3  1 -1</clus>
</clustering>
</event>
<event>
 6    0  0.4017242E+002  0.7937549E+02  0.7546771E-02  0.1330833E+00
         21   -1    0    0  501  502  0.00000000000E+00  0.00000000000E+00  0.12654333333E+03  0.12654333333E+03  0.00000000000E+00 0. -1.
         -1   -1    0    0    0  501 -0.00000000000E+00 -0.00000000000E+00 -0.18968140719E+04  0.18968140719E+04  0.00000000000E+00 0. -1.
         21    1    1    2  503  504  0.14447443274E+02 -0.61377456760E+02 -0.22921977148E+03  0.23773435691E+03  0.00000000000E+00 0. -1.
         21    1    1    2  504  505 -0.56206785574E+02  0.72410445336E+02 -0.34902802898E+02  0.98085070161E+02  0.00000000000E+00 0. -1.
         21    1    1    2  505  502 -0.19211294760E+02 -0.27546357221E+02  0.86938404623E+02  0.93199580691E+02  0.00000000000E+00 0.  1.
         -1    1    1    2    0  503  0.60970637060E+02  0.16513368644E+02 -0.15930865688E+04  0.15943383974E+04  0.00000000000E+00 0. -1.
<scales pt_clust_3="14000.00000" pt_clust_4="79.37549" pt_clust_5="33.58386" pt_clust_6="62.72662"></scales>
<clustering>
<clus scale="   33.584">  1  5  2 -1</clus>
<clus scale="   62.727">  2  6  1 -1</clus>
<clus scale="   79.375">  1  4  2 -1</clus>
<clus scale="   33.584">  1  3  2 -1</clus>
</clustering>
</event>
<event>
 6    0  0.4017242E+002  0.1408585E+03  0.7546771E-02  0.1212178E+00
         21   -1    0    0  503  502  0.00000000000E+00  0.00000000000E+00  0.10333063897E+04  0.10333063897E+04  0.00000000000E+00 0.  1.
          1   -1    0    0  505    0 -0.00000000000E+00 -0.00000000000E+00 -0.32833939829E+03  0.32833939829E+03  0.00000000000E+00 0. -1.
         21    1    1    2  503  504  0.43829623862E+02 -0.58857356407E+02  0.59314087570E+03  0.59766321850E+03  0.00000000000E+00 0.  1.
         21    1    1    2  504  501  0.96927256883E+02  0.27289721279E+02  0.38847881581E+03  0.40131709700E+03  0.00000000000E+00 0.  1.
         21    1    1    2  505  502 -0.15515205561E+03  0.63667047119E+02 -0.13094968707E+03  0.21277564192E+03  0.00000000000E+00 0. -1.
          1    1    1    2  501    0  0.14395174863E+02 -0.32099411992E+02 -0.14570301302E+03  0.14988983058E+03  0.00000000000E+00 0. -1.
<scales pt_clust_3="73.81427" pt_clust_4="14000.00000" pt_clust_5="140.85848" pt_clust_6="35.17944"></scales>
<clustering>
<clus scale="   35.179">  2  6  1 -1</clus>
<clus scale="   73.814">  1  3  2 -1</clus>
<clus scale="  140.858">  2  5  1 -1</clus>
<clus scale="   73.814">  1  3  2 -1</clus>
</clustering>
</event>
<event>
 6    0  0.4017242E+002  0.1399536E+03  0.7546771E-02  0.1213391E+00
          2   -1    0    0  505    0 -0.00000000000E+00  0.00000000000E+00  0.45692478121E+03  0.45692478121E+03  0.00000000000E+00 0. -1.
         21   -1    0    0  501  502  0.00000000000E+00 -0.00000000000E+00 -0.16659619116E+03  0.16659619116E+03  0.00000000000E+00 0. -1.
         21    1    1    2  503  504 -0.50249234851E+02  0.35358640839E+02  0.55642585147E+02  0.82893403640E+02  0.00000000000E+00 0.  1.
         21    1    1    2  504  502  0.95118639171E+02 -0.89591481493E+02 -0.82722487374E+02  0.15465186385E+03  0.00000000000E+00 0. -1.
         21    1    1    2  505  503 -0.84551814233E+02  0.36614785945E+02  0.32386008883E+02  0.97665272288E+02  0.00000000000E+00 0. -1.
          2    1    1    2  501    0  0.39682409913E+02  0.17618054709E+02  0.28502248339E+03  0.28831043260E+03  0.00000000000E+00 0. -1.
<scales pt_clust_3="31.63659" pt_clust_4="134.48456" pt_clust_5="31.63659" pt_clust_6="43.41762"></scales>
<clustering>
<clus scale="   31.637">  3  5 -1 -1</clus>
<clus scale="   43.418">  1  6  2 -1</clus>
<clus scale="  134.485">  2  4  1 -1</clus>
<clus scale="  134.485">  2  3  1 -1</clus>
</clustering>
</event>
<event>
 6    0  0.6824015E+002  0.1330677E+03  0.7546771E-02  0.1222973E+00
          2   -1    0    0  504    0 -0.00000000000E+00  0.00000000000E+00  0.18159134478E+04  0.18159134478E+04  0.00000000000E+00 0.  1.
         21   -1    0    0  505  502  0.00000000000E+00 -0.00000000000E+00 -0.56950560885E+03  0.56950560885E+03  0.00000000000E+00 0. -1.
         21    1    1    2  503  501  0.46853731116E+02  0.27685095181E+02 -0.27733163261E+03  0.28262089636E+03  0.00000000000E+00 0. -1.
         21    1    1    2  504  502  0.29805128724E+02  0.12251761215E+02 -0.16613542187E+02  0.36255497998E+02  0.00000000000E+00 0.  1.
         21    1    1    2  505  503  0.20186293539E+02  0.45754377212E+02 -0.25837605804E+03  0.26317130704E+03  0.00000000000E+00 0. -1.
          2    1    1    2  501    0 -0.96845153379E+02 -0.85691233609E+02  0.17987290718E+04  0.18033713552E+04  0.00000000000E+00 0.  1.
<scales pt_clust_3="30.59554" pt_clust_4="32.22501" pt_clust_5="30.59554" pt_clust_6="129.18336"></scales>
<clustering>
<clus scale="   30.596">  3  5 -1 -1</clus>
<clus scale="   32.225">  2  4  1 -1</clus>
<clus scale="  129.183">  1  6  2 -1</clus>
<clus scale="   32.225">  2  3  1 -1</clus>
</clustering>
</event>
<event>
 6    0  0.4017242E+002  0.1023320E+03  0.7546771E-02  0.1275467E+00
          1   -1    0    0  503    0 -0.00000000000E+00  0.00000000000E+00  0.51210058826E+03  0.51210058826E+03  0.00000000000E+00 0.  1.
         21   -1    0    0  505  502  0.00000000000E+00 -0.00000000000E+00 -0.16032474879E+03  0.16032474879E+03  0.00000000000E+00 0. -1.
         21    1    1    2  503  504 -0.10053461399E+03  0.23905423367E+02  0.17650366546E+03  0.20452926880E+03  0.00000000000E+00 0.  1.
         21    1    1    2  504  502  0.59079786687E+02 -0.81687983708E+02 -0.50706644836E+02  0.11284729375E+03  0.00000000000E+00 0. -1.
         21    1    1    2  505  501  0.26737777286E+02  0.20023594294E+02 -0.58678857295E+02  0.67520821649E+02  0.00000000000E+00 0. -1.
          1    1    1    2  501    0  0.14717050021E+02  0.37758966047E+02  0.28465767614E+03  0.28752795284E+03  0.00000000000E+00 0.  1.
<scales pt_clust_3="14000.00000" pt_clust_4="102.33197" pt_clust_5="33.40439" pt_clust_6="40.94523"></scales>
<clustering>
<clus scale="   33.404">  2  5  1 -1</clus>
<clus scale="   40.945">  1  6  2 -1</clus>
<clus scale="  102.332">  2  4  1 -1</clus>
<clus scale="   33.404">  2  3  1 -1</clus>
</clustering>
</event>
<event>
 6    0  0.4017242E+002  0.7487992E+02  0.7546771E-02  0.1344243E+00
         -1   -1    0    0    0  501 -0.00000000000E+00  0.00000000000E+00  0.98567182128E+02  0.98567182128E+02  0.00000000000E+00 0.  1.
         21   -1    0    0  503  502  0.00000000000E+00 -0.00000000000E+00 -0.43858768690E+03  0.43858768690E+03  0.00000000000E+00 0. -1.
         21    1    1    2  503  504  0.21434087100E+02  0.67666499295E+02 -0.25141719017E+03  0.26124467215E+03  0.00000000000E+00 0. -1.
         21    1    1    2  504  501  0.43503368043E+02  0.29758993005E+02 -0.53669519133E+02  0.75223387186E+02  0.00000000000E+00 0.  1.
         21    1    1    2  505  502 -0.87749300464E+00 -0.45470158779E+02 -0.90465975891E+02  0.10125412647E+03  0.00000000000E+00 0. -1.
         -1    1    1    2    0  505 -0.64059962138E+02 -0.51955333520E+02  0.55532180419E+02  0.99432683220E+02  0.00000000000E+00 0.  1.
<scales pt_clust_3="39.55535" pt_clust_4="74.87992" pt_clust_5="45.47863" pt_clust_6="14000.00000"></scales>
<clustering>
<clus scale="   45.479">  2  5  1 -1</clus>
<clus scale="   39.555">  2  3  1 -1</clus>
<clus scale="   74.880">  2  4  1 -1</clus>
<clus scale="   45.479">  2  3  1 -1</clus>
</clustering>
</event>
<event>
 6    0  0.4017242E+002  0.9762649E+02  0.7546771E-02  0.1285368E+00
         21   -1    0    0  503  502  0.00000000000E+00  0.00000000000E+00  0.96253828481E+02  0.96253828481E+02  0.00000000000E+00 0. -1.
          2   -1    0    0  504    0 -0.00000000000E+00 -0.00000000000E+00 -0.19426538886E+04  0.19426538886E+04  0.00000000000E+00 0. -1.
         21    1    1    2  503  505 -0.31395792032E+02 -0.34274475282E+02  0.26542030830E+02  0.53524899007E+02  0.00000000000E+00 0. -1.
         21    1    1    2  504  502  0.40074770274E+02  0.46497586077E+02 -0.37636409610E+02  0.72003555828E+02  0.00000000000E+00 0.  1.
         21    1    1    2  505  501 -0.41129122088E+02 -0.85278846284E+02 -0.20574851067E+02  0.96888651573E+02  0.00000000000E+00 0. -1.
          2    1    1    2  501    0  0.32450143846E+02  0.73055735489E+02 -0.18147308303E+04  0.18164906107E+04  0.00000000000E+00 0. -1.
<scales pt_clust_3="38.60497" pt_clust_4="61.38414" pt_clust_5="38.60497" pt_clust_6="80.59257"></scales>
<clustering>
<clus scale="   38.605">  3  5 -1 -1</clus>
<clus scale="   61.384">  1  4  2 -1</clus>
<clus scale="   80.593">  2  6  1 -1</clus>
<clus scale="   61.384">  1  3  2 -1</clus>
</clustering>
</event>
<event>
 6    0  0.4017242E+002  0.1020039E+03  0.7546771E-02  0.1276137E+00
          2   -1    0    0  505    0 -0.00000000000E+00  0.00000000000E+00  0.15893048776E+04  0.15893048776E+04  0.00000000000E+00 0.  1.
         21   -1    0    0  504  502  0.00000000000E+00 -0.00000000000E+00 -0.14998334077E+03  0.14998334077E+03  0.00000000000E+00 0.  1.
         21    1    1    2  503  501 -0.48812129366E+02 -0.25799125915E+02  0.61494699618E+01  0.55552091338E+02  0.00000000000E+00 0.  1.
         21    1    1    2  504  503  0.15328314650E+02  0.28232122220E+02  0.38084873346E+02  0.49824366858E+02  0.00000000000E+00 0.  1.
         21    1    1    2  505  502 -0.61222360783E+02 -0.41487387167E+02 -0.10604604085E+03  0.12928705865E+03  0.00000000000E+00 0.  1.
          2    1    1    2  501    0  0.94706175499E+02  0.39054390862E+02  0.15011332344E+04  0.15046247015E+04  0.00000000000E+00 0.  1.
<scales pt_clust_3="50.71848" pt_clust_4="32.12491" pt_clust_5="102.00394" pt_clust_6="14000.00000"></scales>
<clustering>
<clus scale="   32.125">  2  4  1 -1</clus>
<clus scale="   50.718">  2  3  1 -1</clus>
<clus scale="  102.004">  2  5  1 -1</clus>
<clus scale="   32.125">  2  3  1 -1</clus>
</clustering>
</event>
<event>
 6    0  0.4017242E+002  0.1708334E+03  0.7546771E-02  0.1176982E+00
          1   -1    0    0  505    0 -0.00000000000E+00  0.00000000000E+00  0.20162317888E+03  0.20162317888E+03  0.00000000000E+00 0.  1.
         21   -1    0    0  504  502  0.00000000000E+00 -0.00000000000E+00 -0.46148052945E+03  0.46148052945E+03  0.00000000000E+00 0. -1.
         21    1    1    2  503  501 -0.73743848163E+02 -0.13377735180E+02  0.11683607671E+02  0.75852657360E+02  0.00000000000E+00 0.  1.
         21    1    1    2  504  503  0.15376835793E+03  0.11658517239E+02 -0.34585977357E+03  0.37868141214E+03  0.00000000000E+00 0. -1.
         21    1    1    2  505  502  0.41532005832E+02 -0.33998585763E+02 -0.12338248723E+02  0.55073076216E+02  0.00000000000E+00 0. -1.
          1    1    1    2  501    0 -0.12155651560E+03  0.35717803704E+02  0.86657064049E+02  0.15349656262E+03  0.00000000000E+00 0.  1.
<scales pt_clust_3="50.36967" pt_clust_4="157.78205" pt_clust_5="53.67319" pt_clust_6="50.36967"></scales>
<clustering>
<clus scale="   50.370">  3  6 -1 -1</clus>
<clus scale="   53.673">  1  5  2 -1</clus>
<clus scale="  157.782">  2  4  1 -1</clus>
<clus scale="  157.782">  2  3  1 -1</clus>
</clustering>
</event>
<event>
 6    0  0.4017242E+002  0.9865885E+02  0.7546771E-02  0.1283142E+00
         21   -1    0    0  503  502  0.00000000000E+00  0.00000000000E+00  0.18003455762E+03  0.18003455762E+03  0.00000000000E+00 0.  1.
          2   -1    0    0  504    0 -0.00000000000E+00 -0.00000000000E+00 -0.24581634800E+03  0.24581634800E+03  0.00000000000E+00 0.  1.
         21    1    1    2  503  505 -0.68433615305E+02 -0.44740795602E+02  0.35868180275E+02  0.89282836262E+02  0.00000000000E+00 0.  1.
         21    1    1    2  504  502  0.77390683120E+02 -0.26277769331E+02  0.91762917297E+01  0.82243804172E+02  0.00000000000E+00 0.  1.
         21    1    1    2  505  501 -0.58054834499E+02  0.23803112124E+01  0.47409438453E+02  0.74991229784E+02  0.00000000000E+00 0.  1.
          2    1    1    2  501    0  0.49097766684E+02  0.68638253720E+02 -0.15823570084E+03  0.17933303540E+03  0.00000000000E+00 0.  1.
<scales pt_clust_3="40.04979" pt_clust_4="81.73028" pt_clust_5="40.04979" pt_clust_6="86.46676"></scales>
<clustering>
<clus scale="   40.050">  3  5 -1 -1</clus>
<clus scale="   81.730">  1  4  2 -1</clus>
<clus scale="   86.467">  2  6  1 -1</clus>
<clus scale="   81.730">  1  3  2 -1</clus>
</clustering>
</event>
<event>
 6    0  0.4017242E+002  0.9436035E+02  0.7546771E-02  0.1292623E+00
          1   -1    0    0  505    0 -0.00000000000E+00  0.00000000000E+00  0.57298514391E+03  0.57298514391E+03  0.00000000000E+00 0. -1.
         21   -1    0    0  504  502  0.00000000000E+00 -0.00000000000E+00 -0.39360756103E+03  0.39360756103E+03  0.00000000000E+00 0.  1.
         21    1    1    2  503  502  0.14457400203E+02 -0.28185394905E+02 -0.17624202684E+03  0.17906614680E+03  0.00000000000E+00 0.  1.
         21    1    1    2  504  501 -0.13933014256E+02  0.84080191020E+02 -0.18589795125E+03  0.20450343686E+03  0.00000000000E+00 0.  1.
         21    1    1    2  505  503  0.17724274173E+02  0.36998871182E+02  0.87990479491E+01  0.41958188813E+02  0.00000000000E+00 0.  1.
          1    1    1    2  501    0 -0.18248660120E+02 -0.92893667297E+02  0.53271851303E+03  0.54106493246E+03  0.00000000000E+00 0. -1.
<scales pt_clust_3="31.67701" pt_clust_4="94.36035" pt_clust_5="39.60055" pt_clust_6="14000.00000"></scales>
<clustering>
<clus scale="   31.677">  2  3  1 -1</clus>
<clus scale="   39.601">  2  5  1 -1</clus>
<clus scale="   94.360">  2  4  1 -1</clus>
<clus scale="   31.677">  2  3  1 -1</clus>
</clustering>
</event>
<event>
 6    0  0.4017242E+002  0.2132804E+03  0.7546771E-02  0.1138994E+00
         21   -1    0    0  501  502  0.00000000000E+00  0.00000000000E+00  0.14612466849E+03  0.14612466849E+03  0.00000000000E+00 0. -1.
          2   -1    0    0  505    0 -0.00000000000E+00 -0.00000000000E+00 -0.74359292347E+03  0.74359292347E+03  0.00000000000E+00 0. -1.
         21    1    1    2  503  502  0.18044187163E+02 -0.27051792063E+02  0.29768479431E+02  0.44085763142E+02  0.00000000000E+00 0. -1.
         21    1    1    2  504  503  0.11208611528E+03  0.18579204229E+03 -0.87829516879E+02  0.23408546357E+03  0.00000000000E+00 0. -1.
         21    1    1    2  505  504 -0.34713398067E+02  0.45801928225E+02 -0.16088248209E+03  0.17083913392E+03  0.00000000000E+00 0.  1.
          2    1    1    2  501    0 -0.95416904375E+02 -0.20454217846E+03 -0.37852473544E+03  0.44070723133E+03  0.00000000000E+00 0. -1.
<scales pt_clust_3="32.51757" pt_clust_4="14000.00000" pt_clust_5="55.99060" pt_clust_6="213.28045"></scales>
<clustering>
<clus scale="   32.518">  1  3  2 -1</clus>
<clus scale="   55.991">  2  5  1 -1</clus>
<clus scale="  213.280">  2  6  1 -1</clus>
<clus scale="   32.518">  1  3  2 -1</clus>
</clustering>
</event>
<event>
 6    0  0.4017242E+002  0.2090407E+03  0.7546771E-02  0.1142328E+00
         21   -1    0    0  501  502  0.00000000000E+00  0.00000000000E+00  0.30890215615E+02  0.30890215615E+02  0.00000000000E+00 0. -1.
          2   -1    0    0  503    0 -0.00000000000E+00 -0.00000000000E+00 -0.33052129818E+04  0.33052129818E+04  0.00000000000E+00 0. -1.
         21    1    1    2  503  504 -0.89078064574E+02 -0.48654760496E+02 -0.89677843119E+03  0.90250415066E+03  0.00000000000E+00 0. -1.
         21    1    1    2  504  505 -0.73455041076E+02 -0.70691608837E+01 -0.44182160245E+03  0.44794189856E+03  0.00000000000E+00 0. -1.
         21    1    1    2  505  502 -0.57190508106E+02 -0.64209402829E+02 -0.95578999745E+02  0.12856495176E+03  0.00000000000E+00 0. -1.
          2    1    1    2  501    0  0.21972361376E+03  0.11993332421E+03 -0.18401437328E+04  0.18570921964E+04  0.00000000000E+00 0. -1.
<scales pt_clust_3="41.17874" pt_clust_4="41.17874" pt_clust_5="85.98605" pt_clust_6="203.38557"></scales>
<clustering>
<clus scale="   41.179">  3  4 -1 -1</clus>
<clus scale="   85.986">  1  5  2 -1</clus>
<clus scale="  203.386">  1  6  2 -1</clus>
<clus scale="   85.986">  1  3  2 -1</clus>
</clustering>
</event>
<event>
 6    0  0.4017242E+002  0.1197854E+03  0.7546771E-02  0.1243451E+00
         -1   -1    0    0    0  501 -0.00000000000E+00  0.00000000000E+00  0.25086386470E+03  0.25086386470E+03  0.00000000000E+00 0. -1.
         21   -1    0    0  503  502  0.00000000000E+00 -0.00000000000E+00 -0.13934266465E+04  0.13934266465E+04  0.00000000000E+00 0.  1.
         21    1    1    2  503  504  0.49941435068E+02  0.59745464807E+02 -0.11378286469E+04  0.11404901127E+04  0.00000000000E+00 0.  1.
         21    1    1    2  504  505 -0.13431197835E+03  0.36709960474E+02 -0.19900928967E+03  0.24288274147E+03  0.00000000000E+00 0.  1.
         21    1    1    2  505  501  0.80967171022E+01 -0.77142056827E+02  0.38938836713E+02  0.86791052326E+02  0.00000000000E+00 0. -1.
         -1    1    1    2    0  502  0.76273826184E+02 -0.19313368455E+02  0.15533631804E+03  0.17412660470E+03  0.00000000000E+00 0. -1.
<scales pt_clust_3="77.48836" pt_clust_4="119.78542" pt_clust_5="77.56580" pt_clust_6="14000.00000"></scales>
<clustering>
<clus scale="   77.566">  1  5  2 -1</clus>
<clus scale="   77.488">  2  3  1 -1</clus>
<clus scale="  119.785">  2  4  1 -1</clus>
<clus scale="   77.488">  2  3  1 -1</clus>
</clustering>
</event>
<event>
 6    0  0.4017242E+002  0.1869649E+03  0.7546771E-02  0.1161228E+00
          1   -1    0    0  505    0 -0.00000000000E+00  0.00000000000E+00  0.20512737891E+03  0.20512737891E+03  0.00000000000E+00 0.  1.
         21   -1    0    0  503  502  0.00000000000E+00 -0.00000000000E+00 -0.21652614560E+03  0.21652614560E+03  0.00000000000E+00 0.  1.
         21    1    1    2  503  501 -0.36295069938E+02 -0.11915220267E+01 -0.26485768770E+02  0.44947166473E+02  0.00000000000E+00 0.  1.
         21    1    1    2  504  502  0.11174877199E+00 -0.53264075263E+02 -0.41296830096E+01  0.53424044055E+02  0.00000000000E+00 0.  1.
         21    1    1    2  505  504  0.16990310590E+03  0.76749815712E+02  0.52790649116E+00  0.18643464885E+03  0.00000000000E+00 0.  1.
          1    1    1    2  501    0 -0.13371978474E+03 -0.22294218422E+02  0.18688778598E+02  0.13684766513E+03  0.00000000000E+00 0.  1.
<scales pt_clust_3="30.75903" pt_clust_4="53.26419" pt_clust_5="177.26795" pt_clust_6="30.75903"></scales>
<clustering>
<clus scale="   30.759">  3  6 -1 -1</clus>
<clus scale="   53.264">  2  4  1 -1</clus>
<clus scale="  177.268">  2  5  1 -1</clus>
<clus scale="   53.264">  2  3  1 -1</clus>
</clustering>
</event>
<event>
 6    0  0.4017242E+002  0.8837417E+02  0.7546771E-02  0.1306837E+00
          2   -1    0    0  504    0 -0.00000000000E+00  0.00000000000E+00  0.39611082497E+04  0.39611082497E+04  0.00000000000E+00 0. -1.
         21   -1    0    0  503  502  0.00000000000E+00 -0.00000000000E+00 -0.70232215530E+02  0.70232215530E+02  0.00000000000E+00 0.  1.
         21    1    1    2  503  505 -0.26753492861E+02 -0.32613689212E+02  0.45934046743E+02  0.62364563291E+02  0.00000000000E+00 0. -1.
         21    1    1    2  504  502 -0.47174543803E+02  0.57606485731E+02 -0.32805866307E+02  0.81364424938E+02  0.00000000000E+00 0.  1.
         21    1    1    2  505  501 -0.76019342252E+01 -0.60727529467E+02  0.20881785313E+03  0.21760174178E+03  0.00000000000E+00 0. -1.
          2    1    1    2  501    0  0.81529970889E+02  0.35734732948E+02  0.36689300006E+04  0.36700097352E+04  0.00000000000E+00 0. -1.
<scales pt_clust_3="42.18296" pt_clust_4="88.37417" pt_clust_5="63.74850" pt_clust_6="14000.00000"></scales>
<clustering>
<clus scale="   42.183">  2  3  1 -1</clus>
<clus scale="   63.748">  2  5  1 -1</clus>
<clus scale="   88.374">  2  4  1 -1</clus>
<clus scale="   42.183">  2  3  1 -1</clus>
</clustering>
</event>
<event>
 6    0  0.4017242E+002  0.1007434E+03  0.7546771E-02  0.1278740E+00
         21   -1    0    0  503  502  0.00000000000E+00  0.00000000000E+00  0.42114904290E+03  0.42114904290E+03  0.00000000000E+00 0. -1.
          2   -1    0    0  505    0 -0.00000000000E+00 -0.00000000000E+00 -0.12609698473E+04  0.12609698473E+04  0.00000000000E+00 0.  1.
         21    1    1    2  503  501  0.47540987095E+02  0.47661598733E+02  0.36641752394E+01  0.67418095701E+02  0.00000000000E+00 0. -1.
         21    1    1    2  504  502  0.85211985151E+01 -0.10616220746E+03  0.36820783831E+03  0.38330149661E+03  0.00000000000E+00 0. -1.
         21    1    1    2  505  504 -0.99878380046E+01  0.49060097014E+02 -0.57474420978E+02  0.76223087669E+02  0.00000000000E+00 0. -1.
          2    1    1    2  501    0 -0.46074347605E+02  0.94405117143E+01 -0.11542183970E+04  0.11551762102E+04  0.00000000000E+00 0.  1.
<scales pt_clust_3="60.71792" pt_clust_4="100.74342" pt_clust_5="14000.00000" pt_clust_6="47.03157"></scales>
<clustering>
<clus scale="   47.032">  2  6  1 -1</clus>
<clus scale="   60.718">  2  3  1 -1</clus>
<clus scale="  100.743">  1  4  2 -1</clus>
<clus scale="  100.743">  1  3  2 -1</clus>
</clustering>
</event>
<event>
 6    0  0.4017242E+002  0.2273859E+03  0.7546771E-02  0.1128493E+00
          2   -1    0    0  504    0 -0.00000000000E+00  0.00000000000E+00  0.19695049192E+04  0.19695049192E+04  0.00000000000E+00 0. -1.
         21   -1    0    0  503  502  0.00000000000E+00 -0.00000000000E+00 -0.12024589140E+04  0.12024589140E+04  0.00000000000E+00 0.  1.
         21    1    1    2  503  505  0.15281326865E+02  0.14085013047E+03 -0.36499810839E+03  0.39153019977E+03  0.00000000000E+00 0.  1.
         21    1    1    2  504  502 -0.55031151864E+02 -0.11205355284E+03 -0.66597487696E+03  0.67757432295E+03  0.00000000000E+00 0.  1.
         21    1    1    2  505  501 -0.18581802878E+03  0.13001106172E+02 -0.85828622112E+02  0.20509490719E+03  0.00000000000E+00 0.  1.
          2    1    1    2  501    0  0.22556785378E+03 -0.41797683799E+02  0.18838476126E+04  0.18977644033E+04  0.00000000000E+00 0. -1.
<scales pt_clust_3="65.51241" pt_clust_4="124.83760" pt_clust_5="14000.00000" pt_clust_6="227.38592"></scales>
<clustering>
<clus scale="  124.838">  2  4  1 -1</clus>
<clus scale="   65.512">  2  3  1 -1</clus>
<clus scale="  227.386">  1  6  2 -1</clus>
<clus scale="  124.838">  2  3  1 -1</clus>
</clustering>
</event>
<event>
 6    0  0.4017242E+002  0.1331702E+03  0.7546771E-02  0.1222826E+00
          2   -1    0    0  504    0 -0.00000000000E+00  0.00000000000E+00  0.74568212668E+03  0.74568212668E+03  0.00000000000E+00 0. -1.
         21   -1    0    0  503  502  0.00000000000E+00 -0.00000000000E+00 -0.19393685372E+03  0.19393685372E+03  0.00000000000E+00 0.  1.
         21    1    1    2  503  505 -0.86151046440E+02  0.21320321784E+02 -0.21190962444E+01  0.88775275233E+02  0.00000000000E+00 0.  1.
         21    1    1    2  504  502  0.20191164569E+03  0.20270541655E+02 -0.34526655834E+02  0.20584289515E+03  0.00000000000E+00 0.  1.
         21    1    1    2  505  501 -0.95893452253E+02 -0.64283973747E+02  0.91804837088E+02  0.14749953077E+03  0.00000000000E+00 0.  1.
          2    1    1    2  501    0 -0.19867146992E+02  0.22693110308E+02  0.49658618795E+03  0.49750127924E+03  0.00000000000E+00 0. -1.
<scales pt_clust_3="93.10924" pt_clust_4="133.17019" pt_clust_5="14000.00000" pt_clust_6="30.16091"></scales>
<clustering>
<clus scale="   30.161">  1  6  2 -1</clus>
<clus scale="   93.109">  2  3  1 -1</clus>
<clus scale="  133.170">  2  4  1 -1</clus>
<clus scale="   93.109">  2  3  1 -1</clus>
</clustering>
</event>
<event>
 6    0  0.4017242E+002  0.2029177E+03  0.7546771E-02  0.1147300E+00
          1   -1    0    0  504    0 -0.00000000000E+00  0.00000000000E+00  0.23962845199E+04  0.23962845199E+04  0.00000000000E+00 0. -1.
         21   -1    0    0  505  502  0.00000000000E+00 -0.00000000000E+00 -0.49232881134E+03  0.49232881134E+03  0.00000000000E+00 0.  1.
         21    1    1    2  503  502  0.35272997334E+02 -0.91301735315E+02 -0.18608702588E+03  0.21025834684E+03  0.00000000000E+00 0.  1.
         21    1    1    2  504  503  0.10194974653E+02 -0.10444843995E+03 -0.27217723338E+03  0.29170851974E+03  0.00000000000E+00 0.  1.
         21    1    1    2  505  501 -0.52517074801E+02  0.14539386388E+03  0.49154143553E+03  0.51527701447E+03  0.00000000000E+00 0.  1.
          1    1    1    2  501    0  0.70491028134E+01  0.50356311383E+02  0.18706785323E+04  0.18713694502E+04  0.00000000000E+00 0. -1.
<scales pt_clust_3="38.37716" pt_clust_4="38.37716" pt_clust_5="198.98861" pt_clust_6="50.84730"></scales>
<clustering>
<clus scale="   38.377">  3  4 -1 -1</clus>
<clus scale="   50.847">  1  6  2 -1</clus>
<clus scale="  198.989">  1  5  2 -1</clus>
<clus scale="  202.918">  2  3  1 -1</clus>
</clustering>
</event>
<event>
 6    0  0.4017242E+002  0.1622217E+03  0.7546771E-02  0.1186211E+00
         21   -1    0    0  504  502  0.00000000000E+00  0.00000000000E+00  0.92423803977E+02  0.92423803977E+02  0.00000000000E+00 0.  1.
          1   -1    0    0  505    0 -0.00000000000E+00 -0.00000000000E+00 -0.11766056333E+04  0.11766056333E+04  0.00000000000E+00 0.  1.
         21    1    1    2  503  502 -0.79965450130E+01 -0.29795466133E+02  0.35667356285E+02  0.47157977465E+02  0.00000000000E+00 0.  1.
         21    1    1    2  504  501  0.44689238268E+02  0.18131542688E+03 -0.26315891147E+03  0.32268409432E+03  0.00000000000E+00 0.  1.
         21    1    1    2  505  503 -0.92530154648E+02  0.55123951522E+00 -0.16899814377E+03  0.19267201660E+03  0.00000000000E+00 0.  1.
          1    1    1    2  501    0  0.55837461393E+02 -0.15207120026E+03 -0.68769213035E+03  0.70651534887E+03  0.00000000000E+00 0.  1.
<scales pt_clust_3="30.84987" pt_clust_4="162.22174" pt_clust_5="94.59994" pt_clust_6="14000.00000"></scales>
<clustering>
<clus scale="   30.850">  1  3  2 -1</clus>
<clus scale="   94.600">  1  5  2 -1</clus>
<clus scale="  162.222">  1  4  2 -1</clus>
<clus scale="   30.850">  1  3  2 -1</clus>
</clustering>
</event>
<event>
 6    0  0.4017242E+002  0.1319879E+03  0.7546771E-02  0.1224536E+00
         21   -1    0    0  503  502  0.00000000000E+00  0.00000000000E+00  0.13595406320E+02  0.13595406320E+02  0.00000000000E+00 0.  1.
          2   -1    0    0  502    0 -0.00000000000E+00 -0.00000000000E+00 -0.36884395963E+04  0.36884395963E+04  0.00000000000E+00 0. -1.
         21    1    1    2  503  504  0.29945151488E+02 -0.41210335962E+02 -0.23870944217E+03  0.24408441505E+03  0.00000000000E+00 0.  1.
         21    1    1    2  504  505  0.23025077789E+02 -0.86923071473E+02 -0.23364508594E+03  0.25035135459E+03  0.00000000000E+00 0.  1.
         21    1    1    2  505  501 -0.34763973078E+02  0.87600828241E+02 -0.94833348357E+03  0.95300516000E+03  0.00000000000E+00 0.  1.
          2    1    1    2  501    0 -0.18206256198E+02  0.40532579193E+02 -0.22541561783E+04  0.22545940729E+04  0.00000000000E+00 0. -1.
<scales pt_clust_3="34.68747" pt_clust_4="34.68747" pt_clust_5="123.68059" pt_clust_6="44.43375"></scales>
<clustering>
<clus scale="   34.687">  3  4 -1 -1</clus>
<clus scale="   44.434">  2  6  1 -1</clus>
<clus scale="  123.681">  2  5  1 -1</clus>
<clus scale="  131.988">  1  3  2 -1</clus>
</clustering>
</event>
<event>
 6    0  0.4017242E+002  0.9106784E+02  0.7546771E-02  0.1300286E+00
         21   -1    0    0  503  502  0.00000000000E+00  0.00000000000E+00  0.26696749040E+03  0.26696749040E+03  0.00000000000E+00 0.  1.
         -3   -1    0    0    0  501 -0.00000000000E+00 -0.00000000000E+00 -0.35386102514E+03  0.35386102514E+03  0.00000000000E+00 0. -1.
         21    1    1    2  503  504  0.34006437422E+02 -0.80916728128E+01  0.18201089620E+03  0.18533720428E+03  0.00000000000E+00 0.  1.
         21    1    1    2  504  501 -0.89220567843E+02 -0.26073223597E+01 -0.24699116691E+03  0.26262472159E+03  0.00000000000E+00 0. -1.
         21    1    1    2  505  502 -0.45806594614E+02  0.44749727691E+02 -0.23468990033E-01  0.64037354641E+02  0.00000000000E+00 0. -1.
         -3    1    1    2    0  505  0.10102072504E+03 -0.34050732518E+02 -0.21889795030E+02  0.10882923503E+03  0.00000000000E+00 0. -1.
<scales pt_clust_3="34.95587" pt_clust_4="14000.00000" pt_clust_5="52.96946" pt_clust_6="91.06784"></scales>
<clustering>
<clus scale="   34.956">  1  3  2 -1</clus>
<clus scale="   52.969">  1  5  2 -1</clus>
<clus scale="   91.068">  1  6  2 -1</clus>
<clus scale="   34.956">  1  3  2 -1</clus>
</clustering>
</event>
<event>
 6    0  0.4017242E+002  0.2278617E+03  0.7546771E-02  0.1128154E+00
          2   -1    0    0  505    0 -0.00000000000E+00  0.00000000000E+00  0.24023352269E+04  0.24023352269E+04  0.00000000000E+00 0.  1.
         21   -1    0    0  503  502  0.00000000000E+00 -0.00000000000E+00 -0.11884991379E+03  0.11884991379E+03  0.00000000000E+00 0.  1.
         21    1    1    2  503  504  0.76631792460E+02 -0.31928513363E+02 -0.87635280992E+01  0.83478506251E+02  0.00000000000E+00 0.  1.
         21    1    1    2  504  501  0.13733423728E+03  0.17294152896E+02  0.33474078808E+02  0.14240889862E+03  0.00000000000E+00 0.  1.
         21    1    1    2  505  502 -0.13577323560E+01 -0.34754836969E+02  0.10329233435E+02  0.36282712044E+02  0.00000000000E+00 0.  1.
          2    1    1    2  501    0 -0.21260829738E+03  0.49389197436E+02  0.22484455289E+04  0.22590150237E+04  0.00000000000E+00 0.  1.
<scales pt_clust_3="53.77888" pt_clust_4="53.77888" pt_clust_5="34.78135" pt_clust_6="217.94965"></scales>
<clustering>
<clus scale="   34.781">  2  5  1 -1</clus>
<clus scale="   53.779">  3  4 -1 -1</clus>
<clus scale="  217.950">  1  6  2 -1</clus>
<clus scale="   34.781">  2  3  1 -1</clus>
</clustering>
</event>
<event>
 6    0  0.4017242E+002  0.1081704E+03  0.7546771E-02  0.1263996E+00
         21   -1    0    0  503  502  0.00000000000E+00  0.00000000000E+00  0.17288763226E+03  0.17288763226E+03  0.00000000000E+00 0. -1.
         -1   -1    0    0    0  501 -0.00000000000E+00 -0.00000000000E+00 -0.20042247202E+04  0.20042247202E+04  0.00000000000E+00 0. -1.
         21    1    1    2  503  501  0.69139334620E+02 -0.44055248015E+02  0.11315157966E+03  0.13972971212E+03  0.00000000000E+00 0. -1.
         21    1    1    2  504  502 -0.56336213177E+01  0.37507236251E+02  0.23858641710E+02  0.44808093517E+02  0.00000000000E+00 0. -1.
         21    1    1    2  505  504  0.45118878221E+02  0.51361507265E+01 -0.38110636030E+02  0.59283334883E+02  0.00000000000E+00 0.  1.
         -1    1    1    2    0  505 -0.10862459152E+03  0.14118610371E+01 -0.19302366733E+04  0.19332912119E+04  0.00000000000E+00 0. -1.
<scales pt_clust_3="14000.00000" pt_clust_4="37.92796" pt_clust_5="45.39920" pt_clust_6="108.17040"></scales>
<clustering>
<clus scale="   37.928">  1  4  2 -1</clus>
<clus scale="   45.399">  1  5  2 -1</clus>
<clus scale="  108.170">  2  6  1 -1</clus>
<clus scale="   37.928">  1  3  2 -1</clus>
</clustering>
</event>
<event>
 6    0  0.4017242E+002  0.1704498E+03  0.7546771E-02  0.1177380E+00
          2   -1    0    0  503    0 -0.00000000000E+00  0.00000000000E+00  0.67534696285E+03  0.67534696285E+03  0.00000000000E+00 0.  1.
         21   -1    0    0  504  502  0.00000000000E+00 -0.00000000000E+00 -0.41811038212E+03  0.41811038212E+03  0.00000000000E+00 0. -1.
         21    1    1    2  503  502 -0.23550009326E+02 -0.28172190513E+02 -0.12264953151E+03  0.12802805488E+03  0.00000000000E+00 0. -1.
         21    1    1    2  504  505 -0.12179169212E+02  0.37019261084E+02 -0.39552069194E+02  0.55525886138E+02  0.00000000000E+00 0. -1.
         21    1    1    2  505  501 -0.13638971427E+03 -0.97083288407E+01 -0.21374732510E+03  0.25374066445E+03  0.00000000000E+00 0. -1.
          2    1    1    2  501    0  0.17211889281E+03  0.86125826960E+00  0.63318550653E+03  0.65616273950E+03  0.00000000000E+00 0.  1.
<scales pt_clust_3="36.71887" pt_clust_4="36.17684" pt_clust_5="14000.00000" pt_clust_6="170.44983"></scales>
<clustering>
<clus scale="   36.719">  2  3  1 -1</clus>
<clus scale="   36.177">  2  4  1 -1</clus>
<clus scale="  170.450">  1  6  2 -1</clus>
<clus scale="   36.719">  2  3  1 -1</clus>
</clustering>
</event>
<event>
 6    0  0.4017242E+002  0.1525934E+03  0.7546771E-02  0.1197322E+00
          2   -1    0    0  503    0 -0.00000000000E+00  0.00000000000E+00  0.34364640081E+03  0.34364640081E+03  0.00000000000E+00 0. -1.
         21   -1    0    0  501  502  0.00000000000E+00 -0.00000000000E+00 -0.25583662596E+03  0.25583662596E+03  0.00000000000E+00 0. -1.
         21    1    1    2  503  504 -0.41506463287E+02 -0.41668545296E+02 -0.45748009640E+02  0.74511304832E+02  0.00000000000E+00 0.  1.
         21    1    1    2  504  505 -0.63806366280E+02  0.30360912020E+02 -0.68516567514E+02  0.98425389918E+02  0.00000000000E+00 0. -1.
         21    1    1    2  505  502 -0.28414426223E+02 -0.11451360978E+02 -0.95080317155E+02  0.99893843635E+02  0.00000000000E+00 0.  1.
          2    1    1    2  501    0  0.13372725579E+03  0.22758994253E+02  0.29715466916E+03  0.32665248838E+03  0.00000000000E+00 0. -1.
<scales pt_clust_3="68.97909" pt_clust_4="68.97909" pt_clust_5="30.63516" pt_clust_6="132.86350"></scales>
<clustering>
<clus scale="   30.635">  2  5  1 -1</clus>
<clus scale="   68.979">  3  4 -1 -1</clus>
<clus scale="  132.863">  1  6  2 -1</clus>
<clus scale="   30.635">  2  3  1 -1</clus>
</clustering>
</event>
<event>
 6    0  0.4017242E+002  0.1169013E+03  0.7546771E-02  0.1248298E+00
         21   -1    0    0  505  502  0.00000000000E+00  0.00000000000E+00  0.76629652212E+02  0.76629652212E+02  0.00000000000E+00 0.  1.
          2   -1    0    0  503    0 -0.00000000000E+00 -0.00000000000E+00 -0.85334155029E+03  0.85334155029E+03  0.00000000000E+00 0.  1.
         21    1    1    2  503  504  0.88624294177E+02 -0.10662114229E+02 -0.94696686345E+02  0.13013611568E+03  0.00000000000E+00 0.  1.
         21    1    1    2  504  502  0.39491219071E+02 -0.31913771516E+02 -0.11329619909E+02  0.52023124506E+02  0.00000000000E+00 0.  1.
         21    1    1    2  505  501 -0.58006728882E+02  0.70176277378E+02 -0.20565629774E+02  0.93340428702E+02  0.00000000000E+00 0. -1.
          2    1    1    2  501    0 -0.70108784366E+02 -0.27600391633E+02 -0.65011996205E+03  0.65447153362E+03  0.00000000000E+00 0.  1.
<scales pt_clust_3="45.96360" pt_clust_4="45.96360" pt_clust_5="99.75869" pt_clust_6="75.34602"></scales>
<clustering>
<clus scale="   45.964">  3  4 -1 -1</clus>
<clus scale="   75.346">  2  6  1 -1</clus>
<clus scale="   99.759">  1  5  2 -1</clus>
<clus scale="   99.759">  1  3  2 -1</clus>
</clustering>
</event>
<event>
 6    0  0.4017242E+002  0.3073480E+03  0.7546771E-02  0.1081624E+00
         21   -1    0    0  503  502  0.00000000000E+00  0.00000000000E+00  0.57796771148E+03  0.57796771148E+03  0.00000000000E+00 0. -1.
          2   -1    0    0  505    0 -0.00000000000E+00 -0.00000000000E+00 -0.28204479123E+04  0.28204479123E+04  0.00000000000E+00 0. -1.
         21    1    1    2  503  501  0.33551296588E+02  0.19750768747E+02  0.52760160779E+03  0.52903614141E+03  0.00000000000E+00 0. -1.
         21    1    1    2  504  502  0.18510666381E+02  0.16345979186E+03 -0.34782761125E+03  0.38476719646E+03  0.00000000000E+00 0.  1.
         21    1    1    2  505  504  0.32191709801E+02  0.10891985954E+03 -0.13145336495E+03  0.17372342714E+03  0.00000000000E+00 0.  1.
          2    1    1    2  501    0 -0.84253672770E+02 -0.29213042015E+03 -0.22908008324E+04  0.23108888588E+04  0.00000000000E+00 0. -1.
<scales pt_clust_3="38.93305" pt_clust_4="62.88660" pt_clust_5="62.88660" pt_clust_6="298.36670"></scales>
<clustering>
<clus scale="   38.933">  1  3  2 -1</clus>
<clus scale="   62.887">  4  5 -1 -1</clus>
<clus scale="  298.367">  2  6  1 -1</clus>
<clus scale="   38.933">  1  3  2 -1</clus>
</clustering>
</event>
<event>
 6    0  0.4017242E+002  0.1430645E+03  0.7546771E-02  0.1209264E+00
          1   -1    0    0  504    0 -0.00000000000E+00  0.00000000000E+00  0.26927909715E+04  0.26927909715E+04  0.00000000000E+00 0. -1.
         21   -1    0    0  503  502  0.00000000000E+00 -0.00000000000E+00 -0.23608405724E+02  0.23608405724E+02  0.00000000000E+00 0. -1.
         21    1    1    2  503  505  0.29893255855E+02 -0.21678433460E+02  0.40186721635E+02  0.54575945422E+02  0.00000000000E+00 0. -1.
         21    1    1    2  504  502 -0.84183208147E+01 -0.29121346754E+02  0.96445557283E+02  0.10109731194E+03  0.00000000000E+00 0. -1.
         21    1    1    2  505  501  0.95571286141E+02  0.12923097033E+03  0.54549847916E+03  0.56868541848E+03  0.00000000000E+00 0. -1.
          1    1    1    2  501    0 -0.11704622118E+03 -0.78431190115E+02  0.19870518077E+04  0.19920407014E+04  0.00000000000E+00 0. -1.
<scales pt_clust_3="41.53626" pt_clust_4="30.31371" pt_clust_5="143.06452" pt_clust_6="14000.00000"></scales>
<clustering>
<clus scale="   30.314">  2  4  1 -1</clus>
<clus scale="   41.536">  2  3  1 -1</clus>
<clus scale="  143.065">  2  5  1 -1</clus>
<clus scale="   30.314">  2  3  1 -1</clus>
</clustering>
</event>
<event>
 6    0  0.4017242E+002  0.2394191E+03  0.7546771E-02  0.1120180E+00
         21   -1    0    0  501  502  0.00000000000E+00  0.00000000000E+00  0.30477940472E+03  0.30477940472E+03  0.00000000000E+00 0.  1.
          2   -1    0    0  503    0 -0.00000000000E+00 -0.00000000000E+00 -0.65058928393E+03  0.65058928393E+03  0.00000000000E+00 0.  1.
         21    1    1    2  503  505  0.71566721027E+02  0.13836446917E+03  0.71409388136E+01  0.15594074161E+03  0.00000000000E+00 0.  1.
         21    1    1    2  504  502  0.46071675248E+02  0.10829698328E+02  0.13991884035E+03  0.14770634215E+03  0.00000000000E+00 0.  1.
         21    1    1    2  505  504  0.20155963758E+02  0.37342284678E+02  0.47496758467E+02  0.63691845357E+02  0.00000000000E+00 0.  1.
          2    1    1    2  501    0 -0.13779436003E+03 -0.18653645217E+03 -0.54036641684E+03  0.58802975953E+03  0.00000000000E+00 0.  1.
<scales pt_clust_3="40.31784" pt_clust_4="47.32739" pt_clust_5="40.31784" pt_clust_6="226.61476"></scales>
<clustering>
<clus scale="   40.318">  3  5 -1 -1</clus>
<clus scale="   47.327">  1  4  2 -1</clus>
<clus scale="  226.615">  2  6  1 -1</clus>
<clus scale="   47.327">  1  3  2 -1</clus>
</clustering>
</event>
<event>
 6    0  0.4017242E+002  0.1671051E+03  0.7546771E-02  0.1180901E+00
          1   -1    0    0  504    0 -0.00000000000E+00  0.00000000000E+00  0.39273577558E+04  0.39273577558E+04  0.00000000000E+00 0. -1.
         21   -1    0    0  505  502  0.00000000000E+00 -0.00000000000E+00 -0.32230592604E+03  0.32230592604E+03  0.00000000000E+00 0. -1.
         21    1    1    2  503  501  0.12444586306E+03 -0.44365973736E+02 -0.22168884245E+03  0.25807180266E+03  0.00000000000E+00 0. -1.
         21    1    1    2  504  502  0.21328497356E+02  0.23889563599E+02  0.59804424227E+01  0.32578854185E+02  0.00000000000E+00 0. -1.
         21    1    1    2  505  503  0.18891434408E+02  0.51175929593E+02 -0.56266537033E+02  0.78369542894E+02  0.00000000000E+00 0. -1.
          1    1    1    2  501    0 -0.16466579482E+03 -0.30699519457E+02  0.38770267669E+04  0.38806434821E+04  0.00000000000E+00 0. -1.
<scales pt_clust_3="167.10505" pt_clust_4="32.02524" pt_clust_5="61.09645" pt_clust_6="14000.00000"></scales>
<clustering>
<clus scale="   32.025">  2  4  1 -1</clus>
<clus scale="   61.096">  2  5  1 -1</clus>
<clus scale="  167.105">  2  3  1 -1</clus>
<clus scale="   32.025">  2  3  1 -1</clus>
</clustering>
</event>
<event>
 6    0  0.4017242E+002  0.8177769E+02  0.7546771E-02  0.1324081E+00
         21   -1    0    0  505  502  0.00000000000E+00  0.00000000000E+00  0.17981490296E+03  0.17981490296E+03  0.00000000000E+00 0. -1.
          1   -1    0    0  503    0 -0.00000000000E+00 -0.00000000000E+00 -0.15585886818E+04  0.15585886818E+04  0.00000000000E+00 0. -1.
         21    1    1    2  503  502  0.98995400372E+02 -0.18138746360E+02  0.66415360029E+01  0.10086234885E+03  0.00000000000E+00 0.  1.
         21    1    1    2  504  501 -0.51078663268E+02 -0.36479889826E+02 -0.59663424012E+02  0.86599863556E+02  0.00000000000E+00 0. -1.
         21    1    1    2  505  504  0.81786717747E+01  0.59687010658E+02  0.10394172701E+03  0.12013872201E+03  0.00000000000E+00 0. -1.
          1    1    1    2  501    0 -0.56095408879E+02 -0.50683744723E+01 -0.14296936178E+04  0.14308026503E+04  0.00000000000E+00 0. -1.
<scales pt_clust_3="81.77769" pt_clust_4="14000.00000" pt_clust_5="59.54816" pt_clust_6="56.32391"></scales>
<clustering>
<clus scale="   56.324">  2  6  1 -1</clus>
<clus scale="   59.548">  1  5  2 -1</clus>
<clus scale="   81.778">  1  3  2 -1</clus>
<clus scale="   59.548">  1  3  2 -1</clus>
</clustering>
</event>
<event>
 6    0  0.4017242E+002  0.1311749E+03  0.7546771E-02  0.1225723E+00
         21   -1    0    0  503  502  0.00000000000E+00  0.00000000000E+00  0.16151721023E+03  0.16151721023E+03  0.00000000000E+00 0. -1.
          1   -1    0    0  505    0 -0.00000000000E+00 -0.00000000000E+00 -0.11313039605E+04  0.11313039605E+04  0.00000000000E+00 0.  1.
         21    1    1    2  503  501  0.95695061109E+02 -0.87298547295E+02  0.10791379924E+03  0.16859409582E+03  0.00000000000E+00 0. -1.
         21    1    1    2  504  502 -0.19141075671E+02  0.38571214595E+02 -0.14666932857E+02  0.45488880977E+02  0.00000000000E+00 0.  1.
         21    1    1    2  505  504 -0.44982225247E+02  0.20474871029E+02 -0.75142215117E+02  0.89938720385E+02  0.00000000000E+00 0. -1.
          1    1    1    2  501    0 -0.31571760191E+02  0.28252461671E+02 -0.98789140156E+03  0.98879947355E+03  0.00000000000E+00 0.  1.
<scales pt_clust_3="120.54100" pt_clust_4="43.39097" pt_clust_5="43.39097" pt_clust_6="42.36718"></scales>
<clustering>
<clus scale="   42.367">  2  6  1 -1</clus>
<clus scale="   43.391">  4  5 -1 -1</clus>
<clus scale="  120.541">  1  3  2 -1</clus>
<clus scale="  120.541">  1  3  2 -1</clus>
</clustering>
</event>
<event>
 6    0  0.4017242E+002  0.9311185E+02  0.7546771E-02  0.1295486E+00
         -3   -1    0    0    0  501 -0.00000000000E+00  0.00000000000E+00  0.82238278349E+03  0.82238278349E+03  0.00000000000E+00 0.  1.
         21   -1    0    0  505  502  0.00000000000E+00 -0.00000000000E+00 -0.12085846458E+04  0.12085846458E+04  0.00000000000E+00 0. -1.
         21    1    1    2  503  502 -0.76187066167E+02  0.49345073310E+02 -0.10472192551E+04  0.10511458384E+04  0.00000000000E+00 0. -1.
         21    1    1    2  504  503  0.12410624968E+03 -0.14955186683E+02 -0.16925692953E+01  0.12501553347E+03  0.00000000000E+00 0.  1.
         21    1    1    2  505  501  0.42342137785E+02 -0.16840670362E+02 -0.87674196414E+02  0.98809055897E+02  0.00000000000E+00 0.  1.
         -3    1    1    2    0  504 -0.90261321297E+02 -0.17549216265E+02  0.75038415846E+03  0.75599700157E+03  0.00000000000E+00 0.  1.
<scales pt_clust_3="49.43964" pt_clust_4="93.11185" pt_clust_5="45.56824" pt_clust_6="14000.00000"></scales>
<clustering>
<clus scale="   45.568">  2  5  1 -1</clus>
<clus scale="   49.440">  2  3  1 -1</clus>
<clus scale="   93.112">  2  4  1 -1</clus>
<clus scale="   45.568">  2  3  1 -1</clus>
</clustering>
</event>
<event>
 6    0  0.4017242E+002  0.9599408E+02  0.7546771E-02  0.1288953E+00
         21   -1    0    0  504  502  0.00000000000E+00  0.00000000000E+00  0.41042913828E+03  0.41042913828E+03  0.00000000000E+00 0.  1.
         -4   -1    0    0    0  501 -0.00000000000E+00 -0.00000000000E+00 -0.99491814488E+02  0.99491814488E+02  0.00000000000E+00 0.  1.
         21    1    1    2  503  505 -0.25302668167E+02 -0.12998414475E+03  0.24812551601E+03  0.28125144373E+03  0.00000000000E+00 0.  1.
         21    1    1    2  504  503  0.22099246323E+02  0.20388431243E+02  0.86531285384E+02  0.91606376235E+02  0.00000000000E+00 0.  1.
         21    1    1    2  505  501 -0.19397375875E+02  0.61720397814E+02  0.20728949472E+02  0.67936404405E+02  0.00000000000E+00 0.  1.
         -4    1    1    2    0  502  0.22600797719E+02  0.47875315693E+02 -0.44448427075E+02  0.69126728402E+02  0.00000000000E+00 0.  1.
<scales pt_clust_3="95.99408" pt_clust_4="30.06767" pt_clust_5="14000.00000" pt_clust_6="54.01378"></scales>
<clustering>
<clus scale="   30.068">  1  4  2 -1</clus>
<clus scale="   54.014">  2  6  1 -1</clus>
<clus scale="   95.994">  1  3  2 -1</clus>
<clus scale="   30.068">  1  3  2 -1</clus>
</clustering>
</event>
<event>
 6    0  0.4017242E+002  0.1030808E+03  0.7546771E-02  0.1273948E+00
         21   -1    0    0  505  502  0.00000000000E+00  0.00000000000E+00  0.84197447455E+02  0.84197447455E+02  0.00000000000E+00 0.  1.
          2   -1    0    0  503    0 -0.00000000000E+00 -0.00000000000E+00 -0.31002692417E+04  0.31002692417E+04  0.00000000000E+00 0.  1.
         21    1    1    2  503  502 -0.61753565689E+02 -0.84835847445E+02  0.70797200100E+01  0.10517008283E+03  0.00000000000E+00 0.  1.
         21    1    1    2  504  501  0.42287508155E+01  0.80738079947E+02 -0.86485914635E+02  0.11839059641E+03  0.00000000000E+00 0.  1.
         21    1    1    2  505  504 -0.46042731547E+02 -0.89844103340E+00 -0.36170206579E+02  0.58557870253E+02  0.00000000000E+00 0.  1.
          2    1    1    2  501    0  0.10356754642E+03  0.49962085313E+01 -0.29004953930E+04  0.29023481397E+04  0.00000000000E+00 0.  1.
<scales pt_clust_3="103.08084" pt_clust_4="80.75265" pt_clust_5="46.05150" pt_clust_6="14000.00000"></scales>
<clustering>
<clus scale="   46.051">  1  5  2 -1</clus>
<clus scale="   80.753">  1  4  2 -1</clus>
<clus scale="  103.081">  1  3  2 -1</clus>
<clus scale="   46.051">  1  3  2 -1</clus>
</clustering>
</event>
<event>
 6    0  0.4017242E+002  0.1885115E+03  0.7546771E-02  0.1159811E+00
         21   -1    0    0  503  502  0.00000000000E+00  0.00000000000E+00  0.81787396877E+03  0.81787396877E+03  0.00000000000E+00 0.  1.
          1   -1    0    0  504    0 -0.00000000000E+00 -0.00000000000E+00 -0.27763784931E+03  0.27763784931E+03  0.00000000000E+00 0.  1.
         21    1    1    2  503  505 -0.40554516105E+02 -0.91484281771E+02  0.96044661334E+02  0.13870335093E+03  0.00000000000E+00 0.  1.
         21    1    1    2  504  502 -0.35905412896E+02  0.14044908638E+02  0.55531538618E+03  0.55665216811E+03  0.00000000000E+00 0.  1.
         21    1    1    2  505  501  0.21237687102E+02 -0.91616951603E+02  0.91043741574E+02  0.13089563803E+03  0.00000000000E+00 0.  1.
          1    1    1    2  501    0  0.55222241899E+02  0.16905632474E+03 -0.20216766963E+03  0.26926066103E+03  0.00000000000E+00 0.  1.
<scales pt_clust_3="56.34731" pt_clust_4="38.55461" pt_clust_5="56.34731" pt_clust_6="178.19722"></scales>
<clustering>
<clus scale="   38.555">  1  4  2 -1</clus>
<clus scale="   56.347">  3  5 -1 -1</clus>
<clus scale="  178.197">  2  6  1 -1</clus>
<clus scale="   38.555">  1  3  2 -1</clus>
</clustering>
</event>
<event>
 6    0  0.4017242E+002  0.8026115E+02  0.7546771E-02  0.1328312E+00
         21   -1    0    0  504  502  0.00000000000E+00  0.00000000000E+00  0.72164176377E+03  0.72164176377E+03  0.00000000000E+00 0. -1.
          4   -1    0    0  505    0 -0.00000000000E+00 -0.00000000000E+00 -0.12722714030E+03  0.12722714030E+03  0.00000000000E+00 0.  1.
         21    1    1    2  503  501 -0.76697134082E+02  0.19783842521E+01  0.13130716174E+03  0.15207871351E+03  0.00000000000E+00 0. -1.
         21    1    1    2  504  503  0.12187171840E+02  0.56510451396E+02  0.15848217442E+03  0.16869664455E+03  0.00000000000E+00 0. -1.
         21    1    1    2  505  502  0.70435425621E+02  0.15308904902E+02  0.40051467588E+03  0.40694903532E+03  0.00000000000E+00 0. -1.
          4    1    1    2  501    0 -0.59254633790E+01 -0.73797740550E+02 -0.95889388579E+02  0.12114451068E+03  0.00000000000E+00 0.  1.
<scales pt_clust_3="80.26115" pt_clust_4="57.80967" pt_clust_5="14000.00000" pt_clust_6="72.73877"></scales>
<clustering>
<clus scale="   57.810">  1  4  2 -1</clus>
<clus scale="   72.739">  2  6  1 -1</clus>
<clus scale="   80.261">  2  3  1 -1</clus>
<clus scale="   57.810">  1  3  2 -1</clus>
</clustering>
</event>
<event>
 6    0  0.4017242E+002  0.8505902E+02  0.7546771E-02  0.1315278E+00
         21   -1    0    0  504  502  0.00000000000E+00  0.00000000000E+00  0.33886178915E+02  0.33886178915E+02  0.00000000000E+00 0.  1.
          2   -1    0    0  503    0 -0.00000000000E+00 -0.00000000000E+00 -0.17341803806E+04  0.17341803806E+04  0.00000000000E+00 0.  1.
         21    1    1    2  503  505  0.28504665335E+02  0.61760847209E+02 -0.25733638693E+03  0.26617463108E+03  0.00000000000E+00 0.  1.
         21    1    1    2  504  501 -0.24148198903E+02 -0.30380308661E+02 -0.97629514468E+01  0.40017669666E+02  0.00000000000E+00 0.  1.
         21    1    1    2  505  502  0.28840260730E+02  0.53213202528E+02 -0.58491042952E+02  0.84170111488E+02  0.00000000000E+00 0.  1.
          2    1    1    2  501    0 -0.33196727162E+02 -0.84593741077E+02 -0.13747038204E+04  0.13777041473E+04  0.00000000000E+00 0.  1.
<scales pt_clust_3="85.05902" pt_clust_4="38.80849" pt_clust_5="34.67846" pt_clust_6="14000.00000"></scales>
<clustering>
<clus scale="   38.808">  1  4  2 -1</clus>
<clus scale="   34.678">  1  5  2 -1</clus>
<clus scale="   85.059">  1  3  2 -1</clus>
<clus scale="   38.808">  1  3  2 -1</clus>
</clustering>
</event>
<event>
 6    0  0.4017242E+002  0.1293591E+03  0.7546771E-02  0.1228410E+00
         21   -1    0    0  505  502  0.00000000000E+00  0.00000000000E+00  0.11321575408E+03  0.11321575408E+03  0.00000000000E+00 0.  1.
          2   -1    0    0  503    0 -0.00000000000E+00 -0.00000000000E+00 -0.80245375569E+03  0.80245375569E+03  0.00000000000E+00 0.  1.
         21    1    1    2  503  504  0.57760880970E+02  0.54077896466E+01 -0.29688511184E+02  0.65168790503E+02  0.00000000000E+00 0.  1.
         21    1    1    2  504  502  0.95137438036E+02  0.23331991860E+02  0.20791122227E+02  0.10013882725E+03  0.00000000000E+00 0.  1.
         21    1    1    2  505  501 -0.38182826565E+02 -0.24914177198E+02  0.13139114945E+02  0.47447663920E+02  0.00000000000E+00 0.  1.
          2    1    1    2  501    0 -0.11471549244E+03 -0.38256043086E+01 -0.69347972760E+03  0.70291422809E+03  0.00000000000E+00 0.  1.
<scales pt_clust_3="42.45602" pt_clust_4="42.45602" pt_clust_5="45.59215" pt_clust_6="117.00514"></scales>
<clustering>
<clus scale="   42.456">  3  4 -1 -1</clus>
<clus scale="   45.592">  1  5  2 -1</clus>
<clus scale="  117.005">  2  6  1 -1</clus>
<clus scale="   45.592">  1  3  2 -1</clus>
</clustering>
</event>
<event>
 6    0  0.4017242E+002  0.9318152E+02  0.7546771E-02  0.1295325E+00
         21   -1    0    0  503  502  0.00000000000E+00  0.00000000000E+00  0.31306631091E+02  0.31306631091E+02  0.00000000000E+00 0. -1.
          1   -1    0    0  505    0 -0.00000000000E+00 -0.00000000000E+00 -0.22670558404E+04  0.22670558404E+04  0.00000000000E+00 0. -1.
         21    1    1    2  503  501  0.18108377182E+02  0.92444633830E+02 -0.10749734461E+03  0.14293216135E+03  0.00000000000E+00 0. -1.
         21    1    1    2  504  502 -0.91334018480E+02 -0.64150024960E+02 -0.25141334081E+03  0.27507416558E+03  0.00000000000E+00 0. -1.
         21    1    1    2  505  504  0.69762817548E+02  0.57016074571E+01 -0.82542907294E+03  0.82839152186E+03  0.00000000000E+00 0. -1.
          1    1    1    2  501    0  0.34628237490E+01 -0.33996216328E+02 -0.10514094510E+04  0.10519646227E+04  0.00000000000E+00 0. -1.
<scales pt_clust_3="93.18152" pt_clust_4="14000.00000" pt_clust_5="74.19492" pt_clust_6="34.17212"></scales>
<clustering>
<clus scale="   34.172">  2  6  1 -1</clus>
<clus scale="   74.195">  2  5  1 -1</clus>
<clus scale="   93.182">  1  3  2 -1</clus>
<clus scale="   93.182">  1  3  2 -1</clus>
</clustering>
</event>
<event>
 6    0  0.4017242E+002  0.7862602E+02  0.7546771E-02  0.1332996E+00
         21   -1    0    0  501  502  0.00000000000E+00  0.00000000000E+00  0.93295609853E+03  0.93295609853E+03  0.00000000000E+00 0. -1.
          3   -1    0    0  505    0 -0.00000000000E+00 -0.00000000000E+00 -0.14183066513E+03  0.14183066513E+03  0.00000000000E+00 0. -1.
         21    1    1    2  503  504 -0.90833977233E+02  0.12703959840E+02  0.31272279850E+03  0.32589530637E+03  0.00000000000E+00 0. -1.
         21    1    1    2  504  502  0.39138605190E+02  0.24518339276E+02  0.44177920770E+03  0.44418672620E+03  0.00000000000E+00 0. -1.
         21    1    1    2  505  503  0.86420936177E+02 -0.23413294092E+02  0.15586096688E+03  0.17974816146E+03  0.00000000000E+00 0. -1.
          3    1    1    2  501    0 -0.34725564134E+02 -0.13809005024E+02 -0.11923753968E+03  0.12495656963E+03  0.00000000000E+00 0. -1.
<scales pt_clust_3="78.62602" pt_clust_4="43.94379" pt_clust_5="14000.00000" pt_clust_6="37.37049"></scales>
<clustering>
<clus scale="   37.370">  2  6  1 -1</clus>
<clus scale="   43.944">  1  4  2 -1</clus>
<clus scale="   78.626">  1  3  2 -1</clus>
<clus scale="   43.944">  1  3  2 -1</clus>
</clustering>
</event>
<event>
 6    0  0.4017242E+002  0.1030465E+03  0.7546771E-02  0.1274017E+00
         21   -1    0    0  505  502  0.00000000000E+00  0.00000000000E+00  0.36503501847E+02  0.36503501847E+02  0.00000000000E+00 0.  1.
          2   -1    0    0  503    0 -0.00000000000E+00 -0.00000000000E+00 -0.15644264963E+04  0.15644264963E+04  0.00000000000E+00 0.  1.
         21    1    1    2  503  504  0.73355338701E+02 -0.47993888588E+02 -0.44017947744E+03  0.44882334099E+03  0.00000000000E+00 0.  1.
         21    1    1    2  504  502 -0.35066525475E+02  0.11927462963E+03 -0.12831861969E+03  0.17866663551E+03  0.00000000000E+00 0.  1.
         21    1    1    2  505  501 -0.25100281637E+02 -0.27703876210E+02 -0.47817101422E+02  0.60695997263E+02  0.00000000000E+00 0.  1.
          2    1    1    2  501    0 -0.13188531589E+02 -0.43576864836E+02 -0.91160779592E+03  0.91274402441E+03  0.00000000000E+00 0.  1.
<scales pt_clust_3="103.04646" pt_clust_4="14000.00000" pt_clust_5="37.38354" pt_clust_6="46.16835"></scales>
<clustering>
<clus scale="   37.384">  1  5  2 -1</clus>
<clus scale="   46.168">  2  6  1 -1</clus>
<clus scale="  103.046">  2  3  1 -1</clus>
<clus scale="   37.384">  1  3  2 -1</clus>
</clustering>
</event>
<event>
 6    0  0.4017242E+002  0.1174724E+03  0.7546771E-02  0.1247326E+00
          4   -1    0    0  504    0 -0.00000000000E+00  0.00000000000E+00  0.21022949397E+03  0.21022949397E+03  0.00000000000E+00 0.  1.
         21   -1    0    0  503  502  0.00000000000E+00 -0.00000000000E+00 -0.71360431628E+03  0.71360431628E+03  0.00000000000E+00 0. -1.
         21    1    1    2  503  501  0.56387063770E+02 -0.43565470625E+02 -0.41637949948E+03  0.42243264408E+03  0.00000000000E+00 0. -1.
         21    1    1    2  504  505  0.66952622145E+02  0.44052217159E+01 -0.15417984134E+03  0.16814720653E+03  0.00000000000E+00 0. -1.
         21    1    1    2  505  502 -0.37436001280E+02 -0.43955862024E+02 -0.10724458151E+03  0.12179890091E+03  0.00000000000E+00 0.  1.
          4    1    1    2  501    0 -0.85903684636E+02  0.83116110933E+02  0.17442910002E+03  0.21145505873E+03  0.00000000000E+00 0.  1.
<scales pt_clust_3="117.47238" pt_clust_4="57.36356" pt_clust_5="57.73709" pt_clust_6="14000.00000"></scales>
<clustering>
<clus scale="   57.737">  2  5  1 -1</clus>
<clus scale="   57.364">  2  4  1 -1</clus>
<clus scale="  117.472">  2  3  1 -1</clus>
<clus scale="   57.737">  2  3  1 -1</clus>
</clustering>
</event>
<event>
 6    0  0.4017242E+002  0.1274011E+03  0.7546771E-02  0.1231364E+00
          2   -1    0    0  505    0 -0.00000000000E+00  0.00000000000E+00  0.23431622452E+04  0.23431622452E+04  0.00000000000E+00 0.  1.
         21   -1    0    0  503  502  0.00000000000E+00 -0.00000000000E+00 -0.76279739296E+02  0.76279739296E+02  0.00000000000E+00 0.  1.
         21    1    1    2  503  504  0.69356614699E+02 -0.82809488560E+02  0.10287778927E+03  0.14916967160E+03  0.00000000000E+00 0.  1.
         21    1    1    2  504  501 -0.15751545366E+01 -0.55408700670E+02  0.21674868880E+02  0.59518107855E+02  0.00000000000E+00 0.  1.
         21    1    1    2  505  502  0.74022105981E+01  0.95592139578E+02  0.35633603550E+02  0.10228589137E+03  0.00000000000E+00 0.  1.
          2    1    1    2  501    0 -0.75183670761E+02  0.42626049652E+02  0.21066962442E+04  0.21084683137E+04  0.00000000000E+00 0.  1.
<scales pt_clust_3="47.18525" pt_clust_4="47.18525" pt_clust_5="109.05231" pt_clust_6="86.42664"></scales>
<clustering>
<clus scale="   47.185">  3  4 -1 -1</clus>
<clus scale="   86.427">  1  6  2 -1</clus>
<clus scale="  109.052">  2  5  1 -1</clus>
<clus scale="  109.052">  2  3  1 -1</clus>
</clustering>
</event>
<event>
 6    0  0.4017242E+002  0.9617617E+02  0.7546771E-02  0.1288549E+00
          2   -1    0    0  504    0 -0.00000000000E+00  0.00000000000E+00  0.62815999896E+02  0.62815999896E+02  0.00000000000E+00 0. -1.
         21   -1    0    0  505  502  0.00000000000E+00 -0.00000000000E+00 -0.55170907902E+03  0.55170907902E+03  0.00000000000E+00 0. -1.
         21    1    1    2  503  502 -0.81447556452E+02 -0.80806656952E+02 -0.15325046345E+03  0.19143961139E+03  0.00000000000E+00 0. -1.
         21    1    1    2  504  503 -0.53761137216E+02  0.24196836145E+02 -0.69162461186E+02  0.90880101185E+02  0.00000000000E+00 0. -1.
         21    1    1    2  505  501  0.45920036460E+02  0.75331647745E+02 -0.20218462590E+03  0.22059494521E+03  0.00000000000E+00 0. -1.
          2    1    1    2  501    0  0.89288657208E+02 -0.18721826938E+02 -0.64295528585E+02  0.11161042113E+03  0.00000000000E+00 0. -1.
<scales pt_clust_3="14000.00000" pt_clust_4="58.95546" pt_clust_5="96.17617" pt_clust_6="65.26615"></scales>
<clustering>
<clus scale="   58.955">  1  4  2 -1</clus>
<clus scale="   65.266">  1  6  2 -1</clus>
<clus scale="   96.176">  2  5  1 -1</clus>
<clus scale="   96.176">  2  3  1 -1</clus>
</clustering>
</event>
<event>
 6    0  0.4017242E+002  0.2035865E+03  0.7546771E-02  0.1146748E+00
         21   -1    0    0  504  502  0.00000000000E+00  0.00000000000E+00  0.13781727589E+04  0.13781727589E+04  0.00000000000E+00 0. -1.
          2   -1    0    0  505    0 -0.00000000000E+00 -0.00000000000E+00 -0.89267463725E+03  0.89267463725E+03  0.00000000000E+00 0. -1.
         21    1    1    2  503  502  0.15399584565E+01 -0.20408758228E+03  0.12531864922E+04  0.12696970099E+04  0.00000000000E+00 0. -1.
         21    1    1    2  504  501 -0.21938168048E+02  0.48868578680E+02  0.53017485441E+02  0.75367598887E+02  0.00000000000E+00 0.  1.
         21    1    1    2  505  503  0.83585014204E+01  0.19266282115E+03 -0.12687455746E+03  0.23083756308E+03  0.00000000000E+00 0. -1.
          2    1    1    2  501    0  0.12039708171E+02 -0.37443817542E+02 -0.69383129849E+03  0.69494522432E+03  0.00000000000E+00 0. -1.
<scales pt_clust_3="203.58652" pt_clust_4="51.36450" pt_clust_5="14000.00000" pt_clust_6="39.33185"></scales>
<clustering>
<clus scale="   39.332">  2  6  1 -1</clus>
<clus scale="   51.365">  2  4  1 -1</clus>
<clus scale="  203.587">  1  3  2 -1</clus>
<clus scale="  203.587">  1  3  2 -1</clus>
</clustering>
</event>
<event>
 6    0  0.4017242E+002  0.1887400E+03  0.7546771E-02  0.1159603E+00
          2   -1    0    0  504    0 -0.00000000000E+00  0.00000000000E+00  0.24641607468E+04  0.24641607468E+04  0.00000000000E+00 0. -1.
         21   -1    0    0  505  502  0.00000000000E+00 -0.00000000000E+00 -0.11292211380E+03  0.11292211380E+03  0.00000000000E+00 0. -1.
         21    1    1    2  503  502  0.13066513397E+02  0.46192696685E+02  0.28816431509E+02  0.55990050226E+02  0.00000000000E+00 0.  1.
         21    1    1    2  504  503 -0.13773664456E+03 -0.23524334461E+02 -0.31673223842E+02  0.14327585517E+03  0.00000000000E+00 0. -1.
         21    1    1    2  505  501 -0.66417799442E+02 -0.26935841562E+02  0.15889833183E+03  0.17431449596E+03  0.00000000000E+00 0. -1.
          2    1    1    2  501    0  0.19108793060E+03  0.42674793374E+01  0.21951970935E+04  0.22035024592E+04  0.00000000000E+00 0. -1.
<scales pt_clust_3="48.00520" pt_clust_4="188.73998" pt_clust_5="69.44752" pt_clust_6="14000.00000"></scales>
<clustering>
<clus scale="   48.005">  2  3  1 -1</clus>
<clus scale="   69.448">  2  5  1 -1</clus>
<clus scale="  188.740">  2  4  1 -1</clus>
<clus scale="   48.005">  2  3  1 -1</clus>
</clustering>
</event>
<event>
 6    0  0.4017242E+002  0.1803451E+03  0.7546771E-02  0.1167470E+00
          2   -1    0    0  502    0 -0.00000000000E+00  0.00000000000E+00  0.19499892753E+04  0.19499892753E+04  0.00000000000E+00 0. -1.
         21   -1    0    0  504  502  0.00000000000E+00 -0.00000000000E+00 -0.74065240383E+02  0.74065240383E+02  0.00000000000E+00 0.  1.
         21    1    1    2  503  501  0.36357585892E+02 -0.13486784804E+02  0.15692913550E+03  0.16164937670E+03  0.00000000000E+00 0.  1.
         21    1    1    2  504  505 -0.14136829261E+03  0.11981211045E+03  0.77010189377E+02  0.20067512361E+03  0.00000000000E+00 0.  1.
         21    1    1    2  505  503  0.50666835280E+02 -0.90554127246E+02  0.28062630810E+03  0.29919609448E+03  0.00000000000E+00 0.  1.
          2    1    1    2  501    0  0.54343871438E+02 -0.15771198401E+02  0.13613584020E+04  0.13625339209E+04  0.00000000000E+00 0. -1.
<scales pt_clust_3="30.72474" pt_clust_4="173.20023" pt_clust_5="30.72474" pt_clust_6="56.58610"></scales>
<clustering>
<clus scale="   30.725">  3  5 -1 -1</clus>
<clus scale="   56.586">  1  6  2 -1</clus>
<clus scale="  173.200">  2  4  1 -1</clus>
<clus scale="  173.200">  2  3  1 -1</clus>
</clustering>
</event>
<event>
 6    0  0.4017242E+002  0.1001052E+03  0.7546771E-02  0.1280075E+00
         21   -1    0    0  504  502  0.00000000000E+00  0.00000000000E+00  0.97944786070E+02  0.97944786070E+02  0.00000000000E+00 0. -1.
          2   -1    0    0  503    0 -0.00000000000E+00 -0.00000000000E+00 -0.88644247584E+03  0.88644247584E+03  0.00000000000E+00 0. -1.
         21    1    1    2  503  502  0.66753094874E+02  0.39414485244E+02 -0.26487647109E+02  0.81921137514E+02  0.00000000000E+00 0. -1.
         21    1    1    2  504  505  0.71847692416E+02 -0.45078866495E+02  0.96207533906E+01  0.85362485940E+02  0.00000000000E+00 0. -1.
         21    1    1    2  505  501 -0.10442202605E+03 -0.13050316712E+02 -0.10271293459E+03  0.14705175015E+03  0.00000000000E+00 0. -1.
          2    1    1    2  501    0 -0.34178761240E+02  0.18714697963E+02 -0.66891786146E+03  0.67005188831E+03  0.00000000000E+00 0. -1.
<scales pt_clust_3="73.02603" pt_clust_4="14000.00000" pt_clust_5="100.10525" pt_clust_6="38.96701"></scales>
<clustering>
<clus scale="   38.967">  2  6  1 -1</clus>
<clus scale="   73.026">  1  3  2 -1</clus>
<clus scale="  100.105">  2  5  1 -1</clus>
<clus scale="   73.026">  1  3  2 -1</clus>
</clustering>
</event>
<event>
 6    0  0.4017242E+002  0.1407175E+03  0.7546771E-02  0.1212367E+00
         21   -1    0    0  505  502  0.00000000000E+00  0.00000000000E+00  0.54542790905E+03  0.54542790905E+03  0.00000000000E+00 0. -1.
         -1   -1    0    0    0  501 -0.00000000000E+00 -0.00000000000E+00 -0.81440549821E+02  0.81440549821E+02  0.00000000000E+00 0.  1.
         21    1    1    2  503  502 -0.33959978188E+02 -0.27408409504E+01  0.25822169804E+03  0.26045966610E+03  0.00000000000E+00 0. -1.
         21    1    1    2  504  501 -0.26634699194E+02 -0.72445872451E+02  0.73112579118E+02  0.10631679482E+03  0.00000000000E+00 0. -1.
         21    1    1    2  505  504  0.60719104242E+01 -0.44089066553E+02  0.12041409539E+03  0.12837549710E+03  0.00000000000E+00 0. -1.
         -1    1    1    2    0  503  0.54522766958E+02  0.11927577995E+03  0.12238986679E+02  0.13171650085E+03  0.00000000000E+00 0.  1.
<scales pt_clust_3="34.07040" pt_clust_4="45.07908" pt_clust_5="45.07908" pt_clust_6="127.18775"></scales>
<clustering>
<clus scale="   34.070">  1  3  2 -1</clus>
<clus scale="   45.079">  4  5 -1 -1</clus>
<clus scale="  127.188">  2  6  1 -1</clus>
<clus scale="   34.070">  1  3  2 -1</clus>
</clustering>
</event>
<event>
 6    0  0.4017242E+002  0.1366418E+03  0.7546771E-02  0.1217920E+00
         21   -1    0    0  505  502  0.00000000000E+00  0.00000000000E+00  0.21276437335E+03  0.21276437335E+03  0.00000000000E+00 0. -1.
          2   -1    0    0  504    0 -0.00000000000E+00 -0.00000000000E+00 -0.95917088488E+03  0.95917088488E+03  0.00000000000E+00 0. -1.
         21    1    1    2  503  502  0.20990009098E+02  0.71434591289E+02  0.88955600857E+02  0.11600250100E+03  0.00000000000E+00 0. -1.
         21    1    1    2  504  503 -0.32614326252E+02  0.42533949413E+02  0.68453747416E+02  0.86941052817E+02  0.00000000000E+00 0. -1.
         21    1    1    2  505  501  0.38561598574E+02  0.74755551017E+01  0.14812099078E+02  0.41979507950E+02  0.00000000000E+00 0. -1.
          2    1    1    2  501    0 -0.26937281420E+02 -0.12144409580E+03 -0.91862795889E+03  0.92701219646E+03  0.00000000000E+00 0. -1.
<scales pt_clust_3="42.88026" pt_clust_4="42.88026" pt_clust_5="39.27952" pt_clust_6="124.04258"></scales>
<clustering>
<clus scale="   39.280">  1  5  2 -1</clus>
<clus scale="   42.880">  3  4 -1 -1</clus>
<clus scale="  124.043">  2  6  1 -1</clus>
<clus scale="   39.280">  1  3  2 -1</clus>
</clustering>
</event>
<event>
 6    0  0.4017242E+002  0.1888472E+03  0.7546771E-02  0.1159505E+00
          2   -1    0    0  505    0 -0.00000000000E+00  0.00000000000E+00  0.95782205259E+03  0.95782205259E+03  0.00000000000E+00 0. -1.
         21   -1    0    0  503  502  0.00000000000E+00 -0.00000000000E+00 -0.35962179605E+03  0.35962179605E+03  0.00000000000E+00 0. -1.
         21    1    1    2  503  504  0.22920849561E+02  0.66622670125E+02 -0.11136148027E+03  0.13177755806E+03  0.00000000000E+00 0. -1.
         21    1    1    2  504  501  0.19466570184E+02  0.36800577407E+02 -0.14616648108E+03  0.15197983434E+03  0.00000000000E+00 0. -1.
         21    1    1    2  505  502  0.87037655506E+02  0.31692610506E+02 -0.52441966838E+02  0.10644310651E+03  0.00000000000E+00 0. -1.
          2    1    1    2  501    0 -0.12942507525E+03 -0.13511585804E+03  0.90817018474E+03  0.92724334975E+03  0.00000000000E+00 0. -1.
<scales pt_clust_3="31.73669" pt_clust_4="31.73669" pt_clust_5="92.62815" pt_clust_6="184.27893"></scales>
<clustering>
<clus scale="   31.737">  3  4 -1 -1</clus>
<clus scale="   92.628">  2  5  1 -1</clus>
<clus scale="  184.279">  1  6  2 -1</clus>
<clus scale="   92.628">  2  3  1 -1</clus>
</clustering>
</event>
<event>
 6    0  0.4017242E+002  0.8586895E+02  0.7546771E-02  0.1313176E+00
          1   -1    0    0  504    0 -0.00000000000E+00  0.00000000000E+00  0.19924956947E+03  0.19924956947E+03  0.00000000000E+00 0. -1.
         21   -1    0    0  503  502  0.00000000000E+00 -0.00000000000E+00 -0.30025587365E+03  0.30025587365E+03  0.00000000000E+00 0. -1.
         21    1    1    2  503  501  0.29781712403E+02  0.57436555186E+02 -0.72886335280E+01  0.65107852399E+02  0.00000000000E+00 0. -1.
         21    1    1    2  504  505  0.18104822453E+01 -0.11547015008E+03 -0.78745158153E+02  0.13977636902E+03  0.00000000000E+00 0. -1.
         21    1    1    2  505  502 -0.76730055670E+02  0.26159042018E+02 -0.13783350861E+03  0.15990582546E+03  0.00000000000E+00 0. -1.
          1    1    1    2  501    0  0.45137861021E+02  0.31874552872E+02  0.12286099611E+03  0.13471539624E+03  0.00000000000E+00 0. -1.
<scales pt_clust_3="14000.00000" pt_clust_4="85.86895" pt_clust_5="76.30834" pt_clust_6="55.25770"></scales>
<clustering>
<clus scale="   55.258">  1  6  2 -1</clus>
<clus scale="   76.308">  2  5  1 -1</clus>
<clus scale="   85.869">  2  4  1 -1</clus>
<clus scale="   76.308">  2  3  1 -1</clus>
</clustering>
</event>
<event>
 6    0  0.4017242E+002  0.9643090E+02  0.7546771E-02  0.1287985E+00
         21   -1    0    0  503  502  0.00000000000E+00  0.00000000000E+00  0.55784244520E+02  0.55784244520E+02  0.00000000000E+00 0.  1.
          2   -1    0    0  505    0 -0.00000000000E+00 -0.00000000000E+00 -0.68819013940E+03  0.68819013940E+03  0.00000000000E+00 0. -1.
         21    1    1    2  503  501 -0.27209489564E+02  0.73609229631E+02 -0.12098623326E+03  0.14420937434E+03  0.00000000000E+00 0. -1.
         21    1    1    2  504  502  0.43474387888E+02 -0.62060512353E+02 -0.38686801132E+02  0.85077600916E+02  0.00000000000E+00 0.  1.
         21    1    1    2  505  504  0.38310596798E+02 -0.73419094248E+02 -0.86537294430E+02  0.11977799695E+03  0.00000000000E+00 0.  1.
          2    1    1    2  501    0 -0.54575495122E+02  0.61870376969E+02 -0.38619556605E+03  0.39490941170E+03  0.00000000000E+00 0. -1.
<scales pt_clust_3="78.47723" pt_clust_4="33.70027" pt_clust_5="33.70027" pt_clust_6="89.76460"></scales>
<clustering>
<clus scale="   33.700">  4  5 -1 -1</clus>
<clus scale="   78.477">  1  3  2 -1</clus>
<clus scale="   89.765">  2  6  1 -1</clus>
<clus scale="   78.477">  1  3  2 -1</clus>
</clustering>
</event>
<event>
 6    0  0.4017242E+002  0.6813049E+02  0.7546771E-02  0.1366568E+00
          2   -1    0    0  503    0 -0.00000000000E+00  0.00000000000E+00  0.13805867013E+04  0.13805867013E+04  0.00000000000E+00 0.  1.
         21   -1    0    0  504  502  0.00000000000E+00 -0.00000000000E+00 -0.66065784931E+02  0.66065784931E+02  0.00000000000E+00 0.  1.
         21    1    1    2  503  505  0.47978993599E+02 -0.99235551982E+00  0.39339197057E+02  0.62052727751E+02  0.00000000000E+00 0.  1.
         21    1    1    2  504  501 -0.72911631581E+02  0.86445515407E+02  0.16774351799E+03  0.20230378390E+03  0.00000000000E+00 0.  1.
         21    1    1    2  505  502  0.24234607442E+02 -0.31898175733E+02 -0.25893162579E+02  0.47699745086E+02  0.00000000000E+00 0.  1.
          2    1    1    2  501    0  0.69803054035E+00 -0.53554984154E+02  0.11333313639E+04  0.11345962295E+04  0.00000000000E+00 0.  1.
<scales pt_clust_3="68.13049" pt_clust_4="14000.00000" pt_clust_5="40.06008" pt_clust_6="54.25797"></scales>
<clustering>
<clus scale="   40.060">  2  5  1 -1</clus>
<clus scale="   54.258">  1  6  2 -1</clus>
<clus scale="   68.130">  2  3  1 -1</clus>
<clus scale="   40.060">  2  3  1 -1</clus>
</clustering>
</event>
<event>
 6    0  0.4017242E+002  0.9480452E+02  0.7546771E-02  0.1291617E+00
          1   -1    0    0  503    0 -0.00000000000E+00  0.00000000000E+00  0.33707043310E+03  0.33707043310E+03  0.00000000000E+00 0.  1.
         21   -1    0    0  505  502  0.00000000000E+00 -0.00000000000E+00 -0.15170954663E+03  0.15170954663E+03  0.00000000000E+00 0. -1.
         21    1    1    2  503  504  0.34072947524E+02 -0.50474946232E+01  0.86549406747E+02  0.93151719056E+02  0.00000000000E+00 0.  1.
         21    1    1    2  504  502 -0.48537717825E+02  0.35731008429E+02 -0.92613803078E+02  0.11049855898E+03  0.00000000000E+00 0. -1.
         21    1    1    2  505  501  0.77273695993E+02  0.54275673339E+02  0.45101893168E+02  0.10464823733E+03  0.00000000000E+00 0. -1.
          1    1    1    2  501    0 -0.62808925691E+02 -0.84959187144E+02  0.14632338963E+03  0.18048146437E+03  0.00000000000E+00 0.  1.
<scales pt_clust_3="34.44478" pt_clust_4="59.17328" pt_clust_5="94.80452" pt_clust_6="14000.00000"></scales>
<clustering>
<clus scale="   34.445">  1  3  2 -1</clus>
<clus scale="   59.173">  2  4  1 -1</clus>
<clus scale="   94.805">  2  5  1 -1</clus>
<clus scale="   59.173">  2  3  1 -1</clus>
</clustering>
</event>
<event>
 6    0  0.4017242E+002  0.1022365E+03  0.7546771E-02  0.1275662E+00
          2   -1    0    0  505    0 -0.00000000000E+00  0.00000000000E+00  0.10997679917E+04  0.10997679917E+04  0.00000000000E+00 0. -1.
         21   -1    0    0  503  502  0.00000000000E+00 -0.00000000000E+00 -0.68804939594E+02  0.68804939594E+02  0.00000000000E+00 0. -1.
         21    1    1    2  503  504  0.20525833174E+02  0.28420846799E+02 -0.36784822617E+01  0.35250327545E+02  0.00000000000E+00 0. -1.
         21    1    1    2  504  501 -0.53934412858E+02 -0.12237985249E+03  0.15831423227E+03  0.20724175575E+03  0.00000000000E+00 0. -1.
         21    1    1    2  505  502  0.48867918838E+02 -0.55293404097E+01  0.55382690100E+01  0.49490600325E+02  0.00000000000E+00 0. -1.
          2    1    1    2  501    0 -0.15459339153E+02  0.99488346104E+02  0.87078903311E+03  0.87659024770E+03  0.00000000000E+00 0. -1.
<scales pt_clust_3="35.05787" pt_clust_4="14000.00000" pt_clust_5="58.44652" pt_clust_6="102.23650"></scales>
<clustering>
<clus scale="   35.058">  2  3  1 -1</clus>
<clus scale="   58.447">  2  5  1 -1</clus>
<clus scale="  102.237">  1  6  2 -1</clus>
<clus scale="   35.058">  2  3  1 -1</clus>
</clustering>
</event>
<event>
 6    0  0.4017242E+002  0.1205325E+03  0.7546771E-02  0.1242221E+00
         21   -1    0    0  503  502  0.00000000000E+00  0.00000000000E+00  0.13492937804E+04  0.13492937804E+04  0.00000000000E+00 0. -1.
         -4   -1    0    0    0  501 -0.00000000000E+00 -0.00000000000E+00 -0.15775594491E+03  0.15775594491E+03  0.00000000000E+00 0. -1.
         21    1    1    2  503  501 -0.78196018295E+02  0.12929580034E+03  0.80370285204E+03  0.81778377071E+03  0.00000000000E+00 0. -1.
         21    1    1    2  504  502  0.32055833886E+01 -0.30425667409E+02  0.45143888148E+03  0.45247437575E+03  0.00000000000E+00 0. -1.
         21    1    1    2  505  504 -0.19274527306E+02 -0.24790522956E+02  0.58043988889E+02  0.65993803326E+02  0.00000000000E+00 0. -1.
         -4    1    1    2    0  505  0.94264962212E+02 -0.74079609980E+02 -0.12164788695E+03  0.17079777550E+03  0.00000000000E+00 0. -1.
<scales pt_clust_3="120.53251" pt_clust_4="30.59407" pt_clust_5="32.95860" pt_clust_6="14000.00000"></scales>
<clustering>
<clus scale="   30.594">  1  4  2 -1</clus>
<clus scale="   32.959">  1  5  2 -1</clus>
<clus scale="  120.533">  1  3  2 -1</clus>
<clus scale="   30.594">  1  3  2 -1</clus>
</clustering>
</event>
<event>
 6    0  0.4017242E+002  0.1294072E+03  0.7546771E-02  0.1228338E+00
          2   -1    0    0  502    0 -0.00000000000E+00  0.00000000000E+00  0.19340589702E+03  0.19340589702E+03  0.00000000000E+00 0.  1.
         21   -1    0    0  503  502  0.00000000000E+00 -0.00000000000E+00 -0.29780087091E+03  0.29780087091E+03  0.00000000000E+00 0. -1.
         21    1    1    2  503  504 -0.20097889074E+02 -0.52251313746E+02 -0.15944163876E+03  0.16898449960E+03  0.00000000000E+00 0. -1.
         21    1    1    2  504  505  0.77096028734E+02  0.50981815047E+02 -0.16591298605E+02  0.93905347566E+02  0.00000000000E+00 0. -1.
         21    1    1    2  505  501  0.56552240360E+02 -0.11779152629E+00 -0.39846663519E+02  0.69180389983E+02  0.00000000000E+00 0. -1.
          2    1    1    2  501    0 -0.11355038002E+03  0.13872902253E+01  0.11148462699E+03  0.15913653079E+03  0.00000000000E+00 0.  1.
<scales pt_clust_3="55.98326" pt_clust_4="42.57628" pt_clust_5="42.57628" pt_clust_6="117.40318"></scales>
<clustering>
<clus scale="   42.576">  4  5 -1 -1</clus>
<clus scale="   55.983">  2  3  1 -1</clus>
<clus scale="  117.403">  1  6  2 -1</clus>
<clus scale="   55.983">  2  3  1 -1</clus>
</clustering>
</event>
<event>
 6    0  0.4017242E+002  0.7743880E+02  0.7546771E-02  0.1336481E+00
         21   -1    0    0  503  502  0.00000000000E+00  0.00000000000E+00  0.86109454140E+03  0.86109454140E+03  0.00000000000E+00 0.  1.
          3   -1    0    0  504    0 -0.00000000000E+00 -0.00000000000E+00 -0.42603520408E+02  0.42603520408E+02  0.00000000000E+00 0.  1.
         21    1    1    2  503  501 -0.21883905986E+02 -0.94124829310E+02  0.25023409880E+03  0.26824521065E+03  0.00000000000E+00 0.  1.
         21    1    1    2  504  505 -0.41768285786E+02 -0.80283821764E+01  0.52145535255E+02  0.67291912329E+02  0.00000000000E+00 0.  1.
         21    1    1    2  505  502  0.24123409881E+00  0.35610119957E+02  0.45806869882E+03  0.45945083706E+03  0.00000000000E+00 0.  1.
          3    1    1    2  501    0  0.63410957673E+02  0.66543091529E+02  0.58042688119E+02  0.10871010177E+03  0.00000000000E+00 0.  1.
<scales pt_clust_3="77.43880" pt_clust_4="41.82251" pt_clust_5="35.61094" pt_clust_6="14000.00000"></scales>
<clustering>
<clus scale="   35.611">  1  5  2 -1</clus>
<clus scale="   41.823">  2  4  1 -1</clus>
<clus scale="   77.439">  1  3  2 -1</clus>
<clus scale="   35.611">  1  3  2 -1</clus>
</clustering>
</event>
<event>
 6    0  0.4017242E+002  0.9441848E+02  0.7546771E-02  0.1292491E+00
          2   -1    0    0  505    0 -0.00000000000E+00  0.00000000000E+00  0.17490170851E+04  0.17490170851E+04  0.00000000000E+00 0. -1.
         21   -1    0    0  503  502  0.00000000000E+00 -0.00000000000E+00 -0.39072025661E+03  0.39072025661E+03  0.00000000000E+00 0.  1.
         21    1    1    2  503  504 -0.61161620636E+02  0.17573178915E+02 -0.21163824143E+02  0.67063163573E+02  0.00000000000E+00 0.  1.
         21    1    1    2  504  501  0.21989530184E+02 -0.11517449621E+03 -0.12050343882E+03  0.16813620306E+03  0.00000000000E+00 0.  1.
         21    1    1    2  505  502 -0.25914866395E+02  0.28880774077E+02 -0.19909674306E+03  0.20284277781E+03  0.00000000000E+00 0.  1.
          2    1    1    2  501    0  0.65086956847E+02  0.68720543214E+02  0.16990608345E+04  0.17016951973E+04  0.00000000000E+00 0. -1.
<scales pt_clust_3="71.44148" pt_clust_4="94.41848" pt_clust_5="38.80309" pt_clust_6="14000.00000"></scales>
<clustering>
<clus scale="   38.803">  2  5  1 -1</clus>
<clus scale="   71.441">  2  3  1 -1</clus>
<clus scale="   94.418">  2  4  1 -1</clus>
<clus scale="   38.803">  2  3  1 -1</clus>
</clustering>
</event>
<event>
 6    0  0.4017242E+002  0.2539895E+03  0.7546771E-02  0.1110809E+00
         21   -1    0    0  505  502  0.00000000000E+00  0.00000000000E+00  0.12330786993E+04  0.12330786993E+04  0.00000000000E+00 0. -1.
         -3   -1    0    0    0  501 -0.00000000000E+00 -0.00000000000E+00 -0.65615041680E+02  0.65615041680E+02  0.00000000000E+00 0. -1.
         21    1    1    2  503  502 -0.29940702693E+02  0.63897281196E+01  0.20162270122E+03  0.20393378325E+03  0.00000000000E+00 0. -1.
         21    1    1    2  504  501  0.93999331027E+02  0.76366208285E+02  0.20572717737E+03  0.23872859801E+03  0.00000000000E+00 0. -1.
         21    1    1    2  505  504  0.94492660591E+02  0.10046313598E+03  0.17559204226E+03  0.22328069755E+03  0.00000000000E+00 0. -1.
         -3    1    1    2    0  503 -0.15855128893E+03 -0.18321907238E+03  0.58452173677E+03  0.63275066216E+03  0.00000000000E+00 0. -1.
<scales pt_clust_3="30.61494" pt_clust_4="32.93720" pt_clust_5="32.93720" pt_clust_6="251.51593"></scales>
<clustering>
<clus scale="   30.615">  1  3  2 -1</clus>
<clus scale="   32.937">  4  5 -1 -1</clus>
<clus scale="  251.516">  1  6  2 -1</clus>
<clus scale="   30.615">  1  3  2 -1</clus>
</clustering>
</event>
<event>
 6    0  0.4017242E+002  0.3318433E+03  0.7546771E-02  0.1070324E+00
         21   -1    0    0  504  502  0.00000000000E+00  0.00000000000E+00  0.11469585444E+04  0.11469585444E+04  0.00000000000E+00 0. -1.
          1   -1    0    0  505    0 -0.00000000000E+00 -0.00000000000E+00 -0.13569738460E+04  0.13569738460E+04  0.00000000000E+00 0. -1.
         21    1    1    2  503  502 -0.35759516493E+02 -0.78737095111E+01  0.33937714991E+01  0.36773033684E+02  0.00000000000E+00 0.  1.
         21    1    1    2  504  501  0.10115151478E+03 -0.37743541696E+03  0.87708059224E+03  0.96018721518E+03  0.00000000000E+00 0. -1.
         21    1    1    2  505  503  0.89068994217E+02  0.24498153568E+03  0.11402104532E+03  0.28451720042E+03  0.00000000000E+00 0. -1.
          1    1    1    2  501    0 -0.15446099250E+03  0.14032759079E+03 -0.12045107107E+04  0.12224549411E+04  0.00000000000E+00 0. -1.
<scales pt_clust_3="36.61609" pt_clust_4="14000.00000" pt_clust_5="331.84329" pt_clust_6="208.85516"></scales>
<clustering>
<clus scale="   36.616">  1  3  2 -1</clus>
<clus scale="  208.855">  2  6  1 -1</clus>
<clus scale="  331.843">  2  5  1 -1</clus>
<clus scale="   36.616">  1  3  2 -1</clus>
</clustering>
</event>
<event>
 6    0  0.4017242E+002  0.1313239E+03  0.7546771E-02  0.1225504E+00
          2   -1    0    0  505    0 -0.00000000000E+00  0.00000000000E+00  0.40532906954E+04  0.40532906954E+04  0.00000000000E+00 0.  1.
         21   -1    0    0  504  502  0.00000000000E+00 -0.00000000000E+00 -0.31572020527E+02  0.31572020527E+02  0.00000000000E+00 0.  1.
         21    1    1    2  503  502  0.83502775969E+02  0.24050906582E+01  0.41668268272E+03  0.42497406525E+03  0.00000000000E+00 0.  1.
         21    1    1    2  504  501 -0.11979203433E+03  0.47138494443E+02  0.26089706027E+03  0.29092859125E+03  0.00000000000E+00 0.  1.
         21    1    1    2  505  503  0.79061563767E+02  0.78992091965E+02  0.27513117222E+03  0.29696404393E+03  0.00000000000E+00 0.  1.
          2    1    1    2  501    0 -0.42772305402E+02 -0.12853567707E+03  0.30690077596E+04  0.30719960155E+04  0.00000000000E+00 0.  1.
<scales pt_clust_3="83.53741" pt_clust_4="88.51541" pt_clust_5="131.32386" pt_clust_6="14000.00000"></scales>
<clustering>
<clus scale="   83.537">  2  3  1 -1</clus>
<clus scale="   88.515">  2  4  1 -1</clus>
<clus scale="  131.324">  2  5  1 -1</clus>
<clus scale="   83.537">  2  3  1 -1</clus>
</clustering>
</event>
<event>
 6    0  0.4017242E+002  0.1058376E+03  0.7546771E-02  0.1268478E+00
         21   -1    0    0  504  502  0.00000000000E+00  0.00000000000E+00  0.35715840978E+02  0.35715840978E+02  0.00000000000E+00 0. -1.
          1   -1    0    0  503    0 -0.00000000000E+00 -0.00000000000E+00 -0.63830757551E+03  0.63830757551E+03  0.00000000000E+00 0.  1.
         21    1    1    2  503  505 -0.46545448955E+02 -0.15589725416E+02 -0.98610808923E+02  0.11015266676E+03  0.00000000000E+00 0. -1.
         21    1    1    2  504  501  0.39763245664E+02  0.47527627402E+02 -0.58597746346E+02  0.85285912958E+02  0.00000000000E+00 0.  1.
         21    1    1    2  505  502 -0.28713692116E+02 -0.93650796630E+02 -0.19417079670E+03  0.21747930043E+03  0.00000000000E+00 0. -1.
          1    1    1    2  501    0  0.35495895407E+02  0.61712894644E+02 -0.25121238256E+03  0.26110553634E+03  0.00000000000E+00 0.  1.
<scales pt_clust_3="44.90680" pt_clust_4="61.96766" pt_clust_5="44.90680" pt_clust_6="84.71942"></scales>
<clustering>
<clus scale="   44.907">  3  5 -1 -1</clus>
<clus scale="   61.968">  1  4  2 -1</clus>
<clus scale="   84.719">  2  6  1 -1</clus>
<clus scale="   61.968">  1  3  2 -1</clus>
</clustering>
</event>
<event>
 6    0  0.4017242E+002  0.1192371E+03  0.7546771E-02  0.1244361E+00
          3   -1    0    0  503    0 -0.00000000000E+00  0.00000000000E+00  0.36518706849E+03  0.36518706849E+03  0.00000000000E+00 0. -1.
         21   -1    0    0  505  502  0.00000000000E+00 -0.00000000000E+00 -0.83635637424E+03  0.83635637424E+03  0.00000000000E+00 0.  1.
         21    1    1    2  503  502 -0.14839182694E+01  0.49348678985E+02 -0.27026257740E+02  0.56284213937E+02  0.00000000000E+00 0. -1.
         21    1    1    2  504  501  0.68725045576E+02 -0.55766717054E+02 -0.46648730756E+03  0.47480887390E+03  0.00000000000E+00 0.  1.
         21    1    1    2  505  504  0.38590878341E+02  0.69071396667E+01 -0.31472471125E+03  0.31715707204E+03  0.00000000000E+00 0.  1.
          3    1    1    2  501    0 -0.10583200565E+03 -0.48910159849E+00  0.33706897080E+03  0.35329328287E+03  0.00000000000E+00 0. -1.
<scales pt_clust_3="49.37098" pt_clust_4="36.53808" pt_clust_5="36.53808" pt_clust_6="105.84715"></scales>
<clustering>
<clus scale="   36.538">  4  5 -1 -1</clus>
<clus scale="   49.371">  2  3  1 -1</clus>
<clus scale="  105.847">  1  6  2 -1</clus>
<clus scale="   49.371">  2  3  1 -1</clus>
</clustering>
</event>
<event>
 6    0  0.4017242E+002  0.1303303E+03  0.7546771E-02  0.1226966E+00
         21   -1    0    0  504  502  0.00000000000E+00  0.00000000000E+00  0.59208702415E+03  0.59208702415E+03  0.00000000000E+00 0. -1.
         -1   -1    0    0    0  501 -0.00000000000E+00 -0.00000000000E+00 -0.42610332608E+03  0.42610332608E+03  0.00000000000E+00 0. -1.
         21    1    1    2  503  505 -0.81255081780E+02 -0.32555703999E+02 -0.14480494558E+03  0.16920618914E+03  0.00000000000E+00 0.  1.
         21    1    1    2  504  501 -0.73605537381E+02  0.35153511163E+02  0.31003462847E+03  0.32058542595E+03  0.00000000000E+00 0. -1.
         21    1    1    2  505  502  0.19771534383E+03  0.15774504290E+02  0.22466137978E+03  0.29968805071E+03  0.00000000000E+00 0.  1.
         -1    1    1    2    0  503 -0.42854724669E+02 -0.18372311454E+02 -0.22390736460E+03  0.22871068444E+03  0.00000000000E+00 0. -1.
<scales pt_clust_3="14000.00000" pt_clust_4="82.38646" pt_clust_5="130.33034" pt_clust_6="46.62692"></scales>
<clustering>
<clus scale="   46.627">  2  6  1 -1</clus>
<clus scale="   82.386">  1  4  2 -1</clus>
<clus scale="  130.330">  1  5  2 -1</clus>
<clus scale="   82.386">  1  3  2 -1</clus>
</clustering>
</event>
<event>
 6    0  0.4017242E+002  0.1945809E+03  0.7546771E-02  0.1154393E+00
         -2   -1    0    0    0  501 -0.00000000000E+00  0.00000000000E+00  0.12167320028E+04  0.12167320028E+04  0.00000000000E+00 0. -1.
         21   -1    0    0  504  502  0.00000000000E+00 -0.00000000000E+00 -0.21697156813E+03  0.21697156813E+03  0.00000000000E+00 0.  1.
         21    1    1    2  503  502  0.15094674418E+03  0.18677185497E+03 -0.58583533950E+02  0.24718550895E+03  0.00000000000E+00 0.  1.
         21    1    1    2  504  505  0.20526463313E+02 -0.72658267888E+02 -0.29301247642E+01  0.75558885776E+02  0.00000000000E+00 0.  1.
         21    1    1    2  505  501 -0.16830670181E+03 -0.71469163593E+01  0.31652959771E+03  0.35856548986E+03  0.00000000000E+00 0. -1.
         -2    1    1    2    0  503 -0.31665056808E+01 -0.10696667072E+03  0.74474449565E+03  0.75239368631E+03  0.00000000000E+00 0. -1.
<scales pt_clust_3="194.58093" pt_clust_4="75.50205" pt_clust_5="14000.00000" pt_clust_6="108.56444"></scales>
<clustering>
<clus scale="   75.502">  2  4  1 -1</clus>
<clus scale="  108.564">  1  6  2 -1</clus>
<clus scale="  194.581">  2  3  1 -1</clus>
<clus scale="   75.502">  2  3  1 -1</clus>
</clustering>
</event>
<event>
 6    0  0.4017242E+002  0.1177315E+03  0.7546771E-02  0.1246887E+00
         21   -1    0    0  505  502  0.00000000000E+00  0.00000000000E+00  0.71377735454E+03  0.71377735454E+03  0.00000000000E+00 0.  1.
          2   -1    0    0  504    0 -0.00000000000E+00 -0.00000000000E+00 -0.39401189183E+03  0.39401189183E+03  0.00000000000E+00 0. -1.
         21    1    1    2  503  502  0.31234589530E+02  0.18718611277E+02  0.26832968220E+03  0.27078922493E+03  0.00000000000E+00 0.  1.
         21    1    1    2  504  503 -0.79463449099E+02  0.66209268675E+02  0.15377771429E+03  0.18532590864E+03  0.00000000000E+00 0.  1.
         21    1    1    2  505  501  0.68880401539E+02 -0.11927705230E+03  0.25621125336E+03  0.29088783280E+03  0.00000000000E+00 0.  1.
          2    1    1    2  501    0 -0.20651541969E+02  0.34349172352E+02 -0.35855318714E+03  0.36078628000E+03  0.00000000000E+00 0. -1.
<scales pt_clust_3="36.41409" pt_clust_4="14000.00000" pt_clust_5="117.73148" pt_clust_6="40.07929"></scales>
<clustering>
<clus scale="   36.414">  1  3  2 -1</clus>
<clus scale="   40.079">  2  6  1 -1</clus>
<clus scale="  117.731">  2  5  1 -1</clus>
<clus scale="   36.414">  1  3  2 -1</clus>
</clustering>
</event>
<event>
 6    0  0.4017242E+002  0.9190940E+02  0.7546771E-02  0.1298293E+00
         21   -1    0    0  503  502  0.00000000000E+00  0.00000000000E+00  0.14827703791E+03  0.14827703791E+03  0.00000000000E+00 0. -1.
          2   -1    0    0  504    0 -0.00000000000E+00 -0.00000000000E+00 -0.76116101820E+03  0.76116101820E+03  0.00000000000E+00 0. -1.
         21    1    1    2  503  501 -0.42703013476E+02 -0.94412037330E+01 -0.24979167426E+02  0.50365092010E+02  0.00000000000E+00 0. -1.
         21    1    1    2  504  505  0.12301101057E+03 -0.23728441789E+02  0.55741186286E+01  0.12540262545E+03  0.00000000000E+00 0. -1.
         21    1    1    2  505  502 -0.41146409023E+02  0.61532055348E+02  0.49389382124E+02  0.88986133062E+02  0.00000000000E+00 0. -1.
          2    1    1    2  501    0 -0.39161588072E+02 -0.28362409826E+02 -0.64286831362E+03  0.64468420558E+03  0.00000000000E+00 0. -1.
<scales pt_clust_3="43.73424" pt_clust_4="14000.00000" pt_clust_5="91.90940" pt_clust_6="48.62228"></scales>
<clustering>
<clus scale="   43.734">  1  3  2 -1</clus>
<clus scale="   48.622">  2  6  1 -1</clus>
<clus scale="   91.909">  1  5  2 -1</clus>
<clus scale="   43.734">  1  3  2 -1</clus>
</clustering>
</event>
<event>
 6    0  0.4017242E+002  0.8426039E+02  0.7546771E-02  0.1317378E+00
         -2   -1    0    0    0  501 -0.00000000000E+00  0.00000000000E+00  0.43007425182E+02  0.43007425182E+02  0.00000000000E+00 0.  1.
         21   -1    0    0  505  502  0.00000000000E+00 -0.00000000000E+00 -0.15715380573E+04  0.15715380573E+04  0.00000000000E+00 0.  1.
         21    1    1    2  503  502  0.40570047289E+02  0.94377485711E+02 -0.71829882633E+03  0.72560749890E+03  0.00000000000E+00 0.  1.
         21    1    1    2  504  501 -0.28593810932E+02 -0.59123738146E+02 -0.12685376836E+03  0.14284642447E+03  0.00000000000E+00 0.  1.
         21    1    1    2  505  504 -0.16844253478E+02 -0.72804417711E+02 -0.70054323834E+03  0.70451759446E+03  0.00000000000E+00 0.  1.
         -2    1    1    2    0  503  0.48680171203E+01  0.37550670145E+02  0.17165200882E+02  0.41573964694E+02  0.00000000000E+00 0.  1.
<scales pt_clust_3="14000.00000" pt_clust_4="45.15990" pt_clust_5="84.26039" pt_clust_6="37.86490"></scales>
<clustering>
<clus scale="   37.865">  1  6  2 -1</clus>
<clus scale="   45.160">  1  4  2 -1</clus>
<clus scale="   84.260">  2  5  1 -1</clus>
<clus scale="   84.260">  2  3  1 -1</clus>
</clustering>
</event>
<event>
 6    0  0.4017242E+002  0.1084777E+03  0.7546771E-02  0.1263415E+00
         21   -1    0    0  501  502  0.00000000000E+00  0.00000000000E+00  0.68116701483E+03  0.68116701483E+03  0.00000000000E+00 0. -1.
          1   -1    0    0  503    0 -0.00000000000E+00 -0.00000000000E+00 -0.60411880625E+02  0.60411880625E+02  0.00000000000E+00 0. -1.
         21    1    1    2  503  504  0.30563133593E+02  0.74076991817E+00  0.41682497568E+02  0.51692209070E+02  0.00000000000E+00 0.  1.
         21    1    1    2  504  505 -0.77529565423E+02  0.55800435350E+02  0.47013198188E+03  0.47973805611E+03  0.00000000000E+00 0. -1.
         21    1    1    2  505  502  0.50835332324E+01  0.33786825629E+02  0.10509409615E+03  0.11050864646E+03  0.00000000000E+00 0. -1.
          1    1    1    2  501    0  0.41882898598E+02 -0.90328030897E+02  0.38465586070E+01  0.99639983811E+02  0.00000000000E+00 0. -1.
<scales pt_clust_3="30.57211" pt_clust_4="14000.00000" pt_clust_5="34.45653" pt_clust_6="108.47771"></scales>
<clustering>
<clus scale="   30.572">  2  3  1 -1</clus>
<clus scale="   34.457">  1  5  2 -1</clus>
<clus scale="  108.478">  2  6  1 -1</clus>
<clus scale="   34.457">  1  3  2 -1</clus>
</clustering>
</event>
<event>
 6    0  0.4017242E+002  0.1072963E+03  0.7546771E-02  0.1265660E+00
          2   -1    0    0  503    0 -0.00000000000E+00  0.00000000000E+00  0.11056075739E+04  0.11056075739E+04  0.00000000000E+00 0. -1.
         21   -1    0    0  505  502  0.00000000000E+00 -0.00000000000E+00 -0.34389409730E+02  0.34389409730E+02  0.00000000000E+00 0. -1.
         21    1    1    2  503  502 -0.17556785285E+02 -0.69414842321E+02  0.94248771690E+02  0.11836169992E+03  0.00000000000E+00 0. -1.
         21    1    1    2  504  501 -0.40678871859E+02  0.64626839119E+02  0.88281748621E+02  0.11672645840E+03  0.00000000000E+00 0. -1.
         21    1    1    2  505  504 -0.37522973130E+02  0.12360799325E+01  0.60543209482E+02  0.71238905245E+02  0.00000000000E+00 0. -1.
          2    1    1    2  501    0  0.95758630273E+02  0.35519232689E+01  0.82814443441E+03  0.83366992010E+03  0.00000000000E+00 0. -1.
<scales pt_clust_3="71.60071" pt_clust_4="36.62669" pt_clust_5="36.62669" pt_clust_6="93.72209"></scales>
<clustering>
<clus scale="   36.627">  4  5 -1 -1</clus>
<clus scale="   71.601">  2  3  1 -1</clus>
<clus scale="   93.722">  1  6  2 -1</clus>
<clus scale="   71.601">  2  3  1 -1</clus>
</clustering>
</event>
<event>
 6    0  0.4017242E+002  0.6913558E+02  0.7546771E-02  0.1363057E+00
         21   -1    0    0  505  502  0.00000000000E+00  0.00000000000E+00  0.27026756271E+04  0.27026756271E+04  0.00000000000E+00 0. -1.
          2   -1    0    0  503    0 -0.00000000000E+00 -0.00000000000E+00 -0.66311960213E+03  0.66311960213E+03  0.00000000000E+00 0. -1.
         21    1    1    2  503  504  0.69963318494E+02 -0.63137509009E+02  0.18860601870E+03  0.21083984744E+03  0.00000000000E+00 0.  1.
         21    1    1    2  504  502  0.31174208157E+02  0.52973151747E+02  0.16706284628E+04  0.16717587884E+04  0.00000000000E+00 0. -1.
         21    1    1    2  505  501 -0.39230996650E+02  0.18129195709E+02  0.82970028256E+03  0.83082507047E+03  0.00000000000E+00 0. -1.
          2    1    1    2  501    0 -0.61906530001E+02 -0.79648384472E+01 -0.64937873907E+03  0.65237152288E+03  0.00000000000E+00 0. -1.
<scales pt_clust_3="14000.00000" pt_clust_4="69.13558" pt_clust_5="43.21734" pt_clust_6="62.44605"></scales>
<clustering>
<clus scale="   43.217">  1  5  2 -1</clus>
<clus scale="   62.446">  2  6  1 -1</clus>
<clus scale="   69.136">  1  4  2 -1</clus>
<clus scale="   43.217">  1  3  2 -1</clus>
</clustering>
</event>
<event>
 6    0  0.4017242E+002  0.1000948E+03  0.7546771E-02  0.1280097E+00
         21   -1    0    0  503  502  0.00000000000E+00  0.00000000000E+00  0.11060832446E+03  0.11060832446E+03  0.00000000000E+00 0. -1.
          1   -1    0    0  505    0 -0.00000000000E+00 -0.00000000000E+00 -0.32417663329E+03  0.32417663329E+03  0.00000000000E+00 0. -1.
         21    1    1    2  503  501  0.71821195821E+01 -0.50410755666E+02  0.26209186239E+01  0.50987217446E+02  0.00000000000E+00 0. -1.
         21    1    1    2  504  502  0.61462357739E+01  0.30862847838E+02  0.36025144394E+02  0.47834115644E+02  0.00000000000E+00 0. -1.
         21    1    1    2  505  504  0.86265966311E+02  0.43108171093E+02 -0.48409807013E+02  0.10790570316E+03  0.00000000000E+00 0. -1.
          1    1    1    2  501    0 -0.99594321667E+02 -0.23560263265E+02 -0.20380456484E+03  0.22805792150E+03  0.00000000000E+00 0. -1.
<scales pt_clust_3="39.54375" pt_clust_4="31.46890" pt_clust_5="14000.00000" pt_clust_6="100.09483"></scales>
<clustering>
<clus scale="   31.469">  1  4  2 -1</clus>
<clus scale="   39.544">  1  3  2 -1</clus>
<clus scale="  100.095">  2  6  1 -1</clus>
<clus scale="   31.469">  1  3  2 -1</clus>
</clustering>
</event>
<event>
 6    0  0.4017242E+002  0.8307816E+02  0.7546771E-02  0.1320536E+00
         21   -1    0    0  503  502  0.00000000000E+00  0.00000000000E+00  0.19804307259E+04  0.19804307259E+04  0.00000000000E+00 0. -1.
          4   -1    0    0  505    0 -0.00000000000E+00 -0.00000000000E+00 -0.17286050716E+04  0.17286050716E+04  0.00000000000E+00 0. -1.
         21    1    1    2  503  504 -0.32463092507E+01 -0.35646138942E+02  0.63629281294E+02  0.73005966765E+02  0.00000000000E+00 0. -1.
         21    1    1    2  504  501  0.87078754505E+02 -0.26151994212E+02 -0.33524612561E+03  0.34735659059E+03  0.00000000000E+00 0. -1.
         21    1    1    2  505  502 -0.71670724796E+02 -0.10298210936E+01  0.19046428830E+04  0.19059911504E+04  0.00000000000E+00 0. -1.
          4    1    1    2  501    0 -0.12161720458E+02  0.62827954248E+02 -0.13812003845E+04  0.13826820898E+04  0.00000000000E+00 0. -1.
<scales pt_clust_3="35.79366" pt_clust_4="14000.00000" pt_clust_5="83.07816" pt_clust_6="63.98089"></scales>
<clustering>
<clus scale="   35.794">  1  3  2 -1</clus>
<clus scale="   63.981">  2  6  1 -1</clus>
<clus scale="   83.078">  1  5  2 -1</clus>
<clus scale="   35.794">  1  3  2 -1</clus>
</clustering>
</event>
<event>
 6    0  0.4017242E+002  0.1210132E+03  0.7546771E-02  0.1241435E+00
         21   -1    0    0  505  502  0.00000000000E+00  0.00000000000E+00  0.11828308630E+03  0.11828308630E+03  0.00000000000E+00 0.  1.
          2   -1    0    0  503    0 -0.00000000000E+00 -0.00000000000E+00 -0.26388407538E+04  0.26388407538E+04  0.00000000000E+00 0.  1.
         21    1    1    2  503  504 -0.11294722520E+03 -0.11503244105E+02 -0.50593727171E+03  0.51851897093E+03  0.00000000000E+00 0. -1.
         21    1    1    2  504  502 -0.13579481992E+02  0.33988001224E+02  0.22205999414E+02  0.42809963423E+02  0.00000000000E+00 0.  1.
         21    1    1    2  505  501  0.94414241667E+01 -0.15064815665E+03  0.64163173714E+00  0.15094508698E+03  0.00000000000E+00 0.  1.
          2    1    1    2  501    0  0.11708528302E+03  0.12816339953E+03 -0.20374680270E+04  0.20448498188E+04  0.00000000000E+00 0.  1.
<scales pt_clust_3="114.29888" pt_clust_4="36.60036" pt_clust_5="121.01320" pt_clust_6="14000.00000"></scales>
<clustering>
<clus scale="   36.600">  1  4  2 -1</clus>
<clus scale="  114.299">  2  3  1 -1</clus>
<clus scale="  121.013">  1  5  2 -1</clus>
<clus scale="   36.600">  1  3  2 -1</clus>
</clustering>
</event>
<event>
 6    0  0.4017242E+002  0.1782686E+03  0.7546771E-02  0.1169489E+00
         -2   -1    0    0    0  501 -0.00000000000E+00  0.00000000000E+00  0.71699632291E+02  0.71699632291E+02  0.00000000000E+00 0.  1.
         21   -1    0    0  505  502  0.00000000000E+00 -0.00000000000E+00 -0.21950409015E+04  0.21950409015E+04  0.00000000000E+00 0.  1.
         21    1    1    2  503  502  0.13060871153E+03  0.87770047263E+02 -0.19955324289E+03  0.25413325928E+03  0.00000000000E+00 0.  1.
         21    1    1    2  504  501 -0.18696001942E+03 -0.29588481386E+02 -0.15538666383E+04  0.15653533329E+04  0.00000000000E+00 0.  1.
         21    1    1    2  505  504  0.18338109055E+02 -0.45255793612E+02 -0.39624567062E+03  0.39924303950E+03  0.00000000000E+00 0.  1.
         -2    1    1    2    0  503  0.38013198830E+02 -0.12925772266E+02  0.26324282580E+02  0.48010902172E+02  0.00000000000E+00 0.  1.
<scales pt_clust_3="178.26861" pt_clust_4="14000.00000" pt_clust_5="49.98691" pt_clust_6="40.15070"></scales>
<clustering>
<clus scale="   40.151">  1  6  2 -1</clus>
<clus scale="   49.987">  2  5  1 -1</clus>
<clus scale="  178.269">  1  3  2 -1</clus>
<clus scale="   49.987">  2  3  1 -1</clus>
</clustering>
</event>
<event>
 6    0  0.4017242E+002  0.7658402E+02  0.7546771E-02  0.1339035E+00
         21   -1    0    0  505  502  0.00000000000E+00  0.00000000000E+00  0.26436314337E+02  0.26436314337E+02  0.00000000000E+00 0. -1.
          2   -1    0    0  504    0 -0.00000000000E+00 -0.00000000000E+00 -0.20527967860E+04  0.20527967860E+04  0.00000000000E+00 0. -1.
         21    1    1    2  503  501  0.40639335801E+02 -0.76503174282E+02 -0.53665248493E+03  0.54359928336E+03  0.00000000000E+00 0. -1.
         21    1    1    2  504  502 -0.17706292937E+02  0.85138901503E+02 -0.89617942998E+02  0.12487402078E+03  0.00000000000E+00 0. -1.
         21    1    1    2  505  503  0.42927504175E+02 -0.11333789240E+02 -0.10509792454E+03  0.11409118781E+03  0.00000000000E+00 0. -1.
          2    1    1    2  501    0 -0.65860547039E+02  0.26980620195E+01 -0.12949921192E+04  0.12966686084E+04  0.00000000000E+00 0. -1.
<scales pt_clust_3="76.58402" pt_clust_4="14000.00000" pt_clust_5="44.39848" pt_clust_6="64.26036"></scales>
<clustering>
<clus scale="   44.398">  1  5  2 -1</clus>
<clus scale="   64.260">  2  6  1 -1</clus>
<clus scale="   76.584">  2  3  1 -1</clus>
<clus scale="   44.398">  1  3  2 -1</clus>
</clustering>
</event>
<event>
 6    0  0.4712407E+002  0.1969721E+03  0.7546771E-02  0.1152319E+00
         21   -1    0    0  503  502  0.00000000000E+00  0.00000000000E+00  0.77626895764E+03  0.77626895764E+03  0.00000000000E+00 0.  1.
          2   -1    0    0  505    0 -0.00000000000E+00 -0.00000000000E+00 -0.89596371410E+03  0.89596371410E+03  0.00000000000E+00 0.  1.
         21    1    1    2  503  501 -0.13035619854E+02 -0.34601532138E+02  0.25616144187E+01  0.37064204830E+02  0.00000000000E+00 0. -1.
         21    1    1    2  504  502 -0.17552740860E+02  0.13769481266E+03  0.62388733854E+03  0.63914268465E+03  0.00000000000E+00 0.  1.
         21    1    1    2  505  504 -0.13895426322E+03  0.12778053726E+02  0.68819256172E+02  0.15558809706E+03  0.00000000000E+00 0. -1.
          2    1    1    2  501    0  0.16954262394E+03 -0.11587133425E+03 -0.81496296559E+03  0.84043768521E+03  0.00000000000E+00 0.  1.
<scales pt_clust_3="36.97558" pt_clust_4="112.46248" pt_clust_5="14000.00000" pt_clust_6="196.97215"></scales>
<clustering>
<clus scale="   36.976">  1  3  2 -1</clus>
<clus scale="  112.462">  1  4  2 -1</clus>
<clus scale="  196.972">  2  6  1 -1</clus>
<clus scale="   36.976">  1  3  2 -1</clus>
</clustering>
</event>
<event>
 6    0  0.4017242E+002  0.1414081E+03  0.7546771E-02  0.1211447E+00
         21   -1    0    0  501  502  0.00000000000E+00  0.00000000000E+00  0.20754292100E+02  0.20754292100E+02  0.00000000000E+00 0.  1.
          2   -1    0    0  505    0 -0.00000000000E+00 -0.00000000000E+00 -0.45117126010E+04  0.45117126010E+04  0.00000000000E+00 0. -1.
         21    1    1    2  503  502  0.64035727211E+02 -0.10680545223E+02 -0.52643116222E+02  0.83581972287E+02  0.00000000000E+00 0.  1.
         21    1    1    2  504  503 -0.51849527730E+02 -0.41705913268E+02 -0.43762085925E+03  0.44265084793E+03  0.00000000000E+00 0. -1.
         21    1    1    2  505  504 -0.25765327053E+02 -0.72587826893E+02 -0.10273068193E+04  0.10301903444E+04  0.00000000000E+00 0. -1.
          2    1    1    2  501    0  0.13579127572E+02  0.12497428538E+03 -0.29733875141E+04  0.29760437285E+04  0.00000000000E+00 0. -1.
<scales pt_clust_3="64.92032" pt_clust_4="59.95514" pt_clust_5="59.95514" pt_clust_6="125.83839"></scales>
<clustering>
<clus scale="   59.955">  4  5 -1 -1</clus>
<clus scale="   64.920">  1  3  2 -1</clus>
<clus scale="  125.838">  2  6  1 -1</clus>
<clus scale="   64.920">  1  3  2 -1</clus>
</clustering>
</event>
<event>
 6    0  0.4017242E+002  0.7796298E+02  0.7546771E-02  0.1334934E+00
          1   -1    0    0  504    0 -0.00000000000E+00  0.00000000000E+00  0.29179429839E+04  0.29179429839E+04  0.00000000000E+00 0. -1.
         21   -1    0    0  505  502  0.00000000000E+00 -0.00000000000E+00 -0.43118048179E+02  0.43118048179E+02  0.00000000000E+00 0.  1.
         21    1    1    2  503  502  0.11625248749E+01 -0.36491794249E+02  0.34509902351E+02  0.50238788519E+02  0.00000000000E+00 0.  1.
         21    1    1    2  504  503  0.10293300203E+03  0.34870071966E+02  0.64918707710E+03  0.65822107677E+03  0.00000000000E+00 0. -1.
         21    1    1    2  505  501 -0.71087810539E+02  0.86988407399E+01  0.11290777138E+02  0.72502608821E+02  0.00000000000E+00 0.  1.
          1    1    1    2  501    0 -0.33007716370E+02 -0.70771184562E+01  0.21798371792E+04  0.21800985580E+04  0.00000000000E+00 0. -1.
<scales pt_clust_3="36.90544" pt_clust_4="14000.00000" pt_clust_5="77.96298" pt_clust_6="33.75789"></scales>
<clustering>
<clus scale="   33.758">  1  6  2 -1</clus>
<clus scale="   36.905">  2  3  1 -1</clus>
<clus scale="   77.963">  2  5  1 -1</clus>
<clus scale="   36.905">  2  3  1 -1</clus>
</clustering>
</event>
<event>
 6    0  0.4017242E+002  0.1155806E+03  0.7546771E-02  0.1250571E+00
          2   -1    0    0  504    0 -0.00000000000E+00  0.00000000000E+00  0.31418394582E+03  0.31418394582E+03  0.00000000000E+00 0. -1.
         21   -1    0    0  505  502  0.00000000000E+00 -0.00000000000E+00 -0.42945631547E+03  0.42945631547E+03  0.00000000000E+00 0.  1.
         21    1    1    2  503  502 -0.58105038751E+02  0.72539365073E+02 -0.27775564377E+03  0.29289307377E+03  0.00000000000E+00 0.  1.
         21    1    1    2  504  503  0.51244584763E+02  0.78836430435E+02 -0.36705957993E+02  0.10093818694E+03  0.00000000000E+00 0.  1.
         21    1    1    2  505  501  0.26026901401E+02 -0.31612199318E+02 -0.54763330542E+02  0.68379478752E+02  0.00000000000E+00 0.  1.
          2    1    1    2  501    0 -0.19166447413E+02 -0.11976359619E+03  0.25395256266E+03  0.28142952183E+03  0.00000000000E+00 0. -1.
<scales pt_clust_3="61.18764" pt_clust_4="14000.00000" pt_clust_5="40.94790" pt_clust_6="115.58059"></scales>
<clustering>
<clus scale="   40.948">  2  5  1 -1</clus>
<clus scale="   61.188">  2  3  1 -1</clus>
<clus scale="  115.581">  1  6  2 -1</clus>
<clus scale="   40.948">  2  3  1 -1</clus>
</clustering>
</event>
<event>
 6    0  0.4017242E+002  0.1190503E+03  0.7546771E-02  0.1244672E+00
          1   -1    0    0  503    0 -0.00000000000E+00  0.00000000000E+00  0.31194700444E+04  0.31194700444E+04  0.00000000000E+00 0. -1.
         21   -1    0    0  504  502  0.00000000000E+00 -0.00000000000E+00 -0.39145411992E+02  0.39145411992E+02  0.00000000000E+00 0.  1.
         21    1    1    2  503  502  0.15560501822E+03 -0.46155904206E+02  0.35233289467E+03  0.38791978276E+03  0.00000000000E+00 0.  1.
         21    1    1    2  504  505 -0.60684894948E+02  0.55539690963E+02  0.11447643668E+03  0.14096867845E+03  0.00000000000E+00 0.  1.
         21    1    1    2  505  501 -0.10959881126E+03 -0.43122799556E+02  0.42820490386E+03  0.44410687335E+03  0.00000000000E+00 0.  1.
          1    1    1    2  501    0  0.14678687982E+02  0.33739012799E+02  0.21853103972E+04  0.21856201218E+04  0.00000000000E+00 0. -1.
<scales pt_clust_3="14000.00000" pt_clust_4="84.03271" pt_clust_5="119.05028" pt_clust_6="36.79382"></scales>
<clustering>
<clus scale="   36.794">  1  6  2 -1</clus>
<clus scale="   84.033">  2  4  1 -1</clus>
<clus scale="  119.050">  1  5  2 -1</clus>
<clus scale="   84.033">  2  3  1 -1</clus>
</clustering>
</event>
<event>
 6    0  0.4017242E+002  0.1690685E+03  0.7546771E-02  0.1178823E+00
          4   -1    0    0  503    0 -0.00000000000E+00  0.00000000000E+00  0.49591364074E+02  0.49591364074E+02  0.00000000000E+00 0.  1.
         21   -1    0    0  501  502  0.00000000000E+00 -0.00000000000E+00 -0.20746263655E+04  0.20746263655E+04  0.00000000000E+00 0.  1.
         21    1    1    2  503  504  0.33619924352E+02  0.67148819741E+02 -0.35950409073E+03  0.36726346750E+03  0.00000000000E+00 0.  1.
         21    1    1    2  504  505 -0.74249458101E+02  0.15558639878E+03 -0.86826337782E+03  0.88521263139E+03  0.00000000000E+00 0.  1.
         21    1    1    2  505  502 -0.37189137654E+02 -0.11999545261E+03 -0.69758514106E+03  0.70880672234E+03  0.00000000000E+00 0.  1.
          4    1    1    2  501    0  0.77818671403E+02 -0.10273976591E+03 -0.99682391801E+02  0.16293490833E+03  0.00000000000E+00 0.  1.
<scales pt_clust_3="66.07138" pt_clust_4="66.07138" pt_clust_5="125.62619" pt_clust_6="136.24415"></scales>
<clustering>
<clus scale="   66.071">  3  4 -1 -1</clus>
<clus scale="  125.626">  2  5  1 -1</clus>
<clus scale="  136.244">  1  6  2 -1</clus>
<clus scale="  125.626">  2  3  1 -1</clus>
</clustering>
</event>
<event>
 6    0  0.4017242E+002  0.2263551E+03  0.7546771E-02  0.1129232E+00
          2   -1    0    0  503    0 -0.00000000000E+00  0.00000000000E+00  0.41301975720E+04  0.41301975720E+04  0.00000000000E+00 0. -1.
         21   -1    0    0  504  502  0.00000000000E+00 -0.00000000000E+00 -0.11415311516E+03  0.11415311516E+03  0.00000000000E+00 0. -1.
         21    1    1    2  503  502 -0.31968652490E+02 -0.96686977718E+01 -0.69211950120E+02  0.76849024054E+02  0.00000000000E+00 0. -1.
         21    1    1    2  504  505 -0.66913055761E+02  0.21998529099E+03  0.32686923687E+03  0.39964281964E+03  0.00000000000E+00 0. -1.
         21    1    1    2  505  501  0.60405036136E+02 -0.18648865239E+03  0.21724842403E+04  0.21813102852E+04  0.00000000000E+00 0. -1.
          2    1    1    2  501    0  0.38476672116E+02 -0.23827940830E+02  0.15859029298E+04  0.15865485583E+04  0.00000000000E+00 0. -1.
<scales pt_clust_3="33.39878" pt_clust_4="14000.00000" pt_clust_5="226.35507" pt_clust_6="45.08435"></scales>
<clustering>
<clus scale="   33.399">  2  3  1 -1</clus>
<clus scale="   45.084">  1  6  2 -1</clus>
<clus scale="  226.355">  1  5  2 -1</clus>
<clus scale="   33.399">  2  3  1 -1</clus>
</clustering>
</event>
<event>
 6    0  0.4017242E+002  0.6670160E+02  0.7546771E-02  0.1371683E+00
         21   -1    0    0  505  502  0.00000000000E+00  0.00000000000E+00  0.93119176299E+02  0.93119176299E+02  0.00000000000E+00 0.  1.
          2   -1    0    0  503    0 -0.00000000000E+00 -0.00000000000E+00 -0.10126321334E+04  0.10126321334E+04  0.00000000000E+00 0.  1.
         21    1    1    2  503  502  0.24471681574E+02 -0.27460265461E+02 -0.29621650125E+02  0.47226809488E+02  0.00000000000E+00 0. -1.
         21    1    1    2  504  501  0.26268972605E+02  0.92265448221E+02 -0.15816316747E+03  0.18498259215E+03  0.00000000000E+00 0. -1.
         21    1    1    2  505  504 -0.57929491046E+02 -0.75353845199E+00  0.57536004816E+02  0.81650386425E+02  0.00000000000E+00 0.  1.
          2    1    1    2  501    0  0.71888368670E+01 -0.64051644308E+02 -0.78926414431E+03  0.79189152162E+03  0.00000000000E+00 0.  1.
<scales pt_clust_3="36.78219" pt_clust_4="14000.00000" pt_clust_5="44.40797" pt_clust_6="66.70160"></scales>
<clustering>
<clus scale="   36.782">  1  3  2 -1</clus>
<clus scale="   44.408">  1  5  2 -1</clus>
<clus scale="   66.702">  2  6  1 -1</clus>
<clus scale="   36.782">  1  3  2 -1</clus>
</clustering>
</event>
<event>
 6    0  0.4017242E+002  0.9330945E+02  0.7546771E-02  0.1295030E+00
         21   -1    0    0  503  502  0.00000000000E+00  0.00000000000E+00  0.57057236951E+03  0.57057236951E+03  0.00000000000E+00 0. -1.
         -2   -1    0    0    0  501 -0.00000000000E+00 -0.00000000000E+00 -0.13217841408E+03  0.13217841408E+03  0.00000000000E+00 0. -1.
         21    1    1    2  503  505  0.55095662088E+02  0.12171148756E+02  0.33194506319E+02  0.65464067188E+02  0.00000000000E+00 0. -1.
         21    1    1    2  504  502 -0.72204156361E+02  0.10874131393E+02  0.35800908308E+03  0.36537951571E+03  0.00000000000E+00 0. -1.
         21    1    1    2  505  501  0.74302232534E+02  0.24223516446E+02  0.13558698727E+03  0.15649738536E+03  0.00000000000E+00 0. -1.
         -2    1    1    2    0  504 -0.57193738261E+02 -0.47268796595E+02 -0.88396621240E+02  0.11540981533E+03  0.00000000000E+00 0. -1.
<scales pt_clust_3="44.24393" pt_clust_4="73.01840" pt_clust_5="44.24393" pt_clust_6="77.42962"></scales>
<clustering>
<clus scale="   44.244">  3  5 -1 -1</clus>
<clus scale="   73.018">  1  4  2 -1</clus>
<clus scale="   77.430">  2  6  1 -1</clus>
<clus scale="   73.018">  1  3  2 -1</clus>
</clustering>
</event>
<event>
 6    0  0.4017242E+002  0.1403938E+03  0.7546771E-02  0.1212800E+00
          1   -1    0    0  505    0 -0.00000000000E+00  0.00000000000E+00  0.24953921725E+03  0.24953921725E+03  0.00000000000E+00 0. -1.
         21   -1    0    0  503  502  0.00000000000E+00 -0.00000000000E+00 -0.28222865192E+03  0.28222865192E+03  0.00000000000E+00 0.  1.
         21    1    1    2  503  501  0.12679477668E+03  0.31654966159E+02 -0.20831032446E+03  0.24591084473E+03  0.00000000000E+00 0.  1.
         21    1    1    2  504  502 -0.68869996913E+02  0.13676752751E+02  0.87425046928E+01  0.70757059216E+02  0.00000000000E+00 0.  1.
         21    1    1    2  505  504 -0.64402982235E+02  0.20731282997E+02  0.67338268639E+02  0.95456653193E+02  0.00000000000E+00 0. -1.
          1    1    1    2  501    0  0.64782024708E+01 -0.66063001906E+02  0.99540116464E+02  0.11964331203E+03  0.00000000000E+00 0. -1.
<scales pt_clust_3="129.68154" pt_clust_4="52.79904" pt_clust_5="52.79904" pt_clust_6="66.37987"></scales>
<clustering>
<clus scale="   52.799">  4  5 -1 -1</clus>
<clus scale="   66.380">  1  6  2 -1</clus>
<clus scale="  129.682">  2  3  1 -1</clus>
<clus scale="  129.682">  2  3  1 -1</clus>
</clustering>
</event>
<event>
 6    0  0.4017242E+002  0.1022338E+03  0.7546771E-02  0.1275668E+00
          1   -1    0    0  504    0 -0.00000000000E+00  0.00000000000E+00  0.19577329050E+04  0.19577329050E+04  0.00000000000E+00 0. -1.
         21   -1    0    0  501  502  0.00000000000E+00 -0.00000000000E+00 -0.10191100816E+03  0.10191100816E+03  0.00000000000E+00 0.  1.
         21    1    1    2  503  505 -0.51255119082E+02  0.75698835111E+02 -0.65823603464E+02  0.11265055545E+03  0.00000000000E+00 0.  1.
         21    1    1    2  504  503  0.27706282864E+02 -0.40620121517E+02  0.16122909101E+03  0.16855993643E+03  0.00000000000E+00 0.  1.
         21    1    1    2  505  502 -0.48356017685E+02 -0.36767375325E+02  0.10389136736E+03  0.12034766531E+03  0.00000000000E+00 0.  1.
          1    1    1    2  501    0  0.71904853904E+02  0.16886617318E+01  0.16565250420E+04  0.16580857560E+04  0.00000000000E+00 0. -1.
<scales pt_clust_3="102.23377" pt_clust_4="49.16943" pt_clust_5="60.98219" pt_clust_6="14000.00000"></scales>
<clustering>
<clus scale="   49.169">  1  4  2 -1</clus>
<clus scale="   60.982">  2  5  1 -1</clus>
<clus scale="  102.234">  2  3  1 -1</clus>
<clus scale="   60.982">  2  3  1 -1</clus>
</clustering>
</event>
<event>
 6    0  0.4017242E+002  0.1311791E+03  0.7546771E-02  0.1225717E+00
         21   -1    0    0  505  502  0.00000000000E+00  0.00000000000E+00  0.87651879527E+03  0.87651879527E+03  0.00000000000E+00 0. -1.
         -2   -1    0    0    0  501 -0.00000000000E+00 -0.00000000000E+00 -0.39155909010E+03  0.39155909010E+03  0.00000000000E+00 0.  1.
         21    1    1    2  503  501 -0.68540941022E+02 -0.67887472812E+01  0.39706096214E+03  0.40299051520E+03  0.00000000000E+00 0. -1.
         21    1    1    2  504  502  0.90582361488E+02  0.34156838886E+02  0.64106001798E+02  0.11610957463E+03  0.00000000000E+00 0. -1.
         21    1    1    2  505  503 -0.57238066017E+02 -0.38575179787E+02  0.38234629532E+03  0.38852661459E+03  0.00000000000E+00 0. -1.
         -2    1    1    2    0  504  0.35196645551E+02  0.11207088182E+02 -0.35855355410E+03  0.36045118094E+03  0.00000000000E+00 0.  1.
<scales pt_clust_3="33.80839" pt_clust_4="126.73795" pt_clust_5="33.80839" pt_clust_6="36.93782"></scales>
<clustering>
<clus scale="   33.808">  3  5 -1 -1</clus>
<clus scale="   36.938">  2  6  1 -1</clus>
<clus scale="  126.738">  2  4  1 -1</clus>
<clus scale="  131.179">  1  3  2 -1</clus>
</clustering>
</event>
<event>
 6    0  0.4017242E+002  0.5122355E+03  0.7546771E-02  0.1010634E+00
         21   -1    0    0  504  502  0.00000000000E+00  0.00000000000E+00  0.20099918575E+04  0.20099918575E+04  0.00000000000E+00 0. -1.
          2   -1    0    0  502    0 -0.00000000000E+00 -0.00000000000E+00 -0.27181605185E+04  0.27181605185E+04  0.00000000000E+00 0. -1.
         21    1    1    2  503  501  0.56147542272E+02 -0.14664632384E+03  0.55919131191E+03  0.58082063851E+03  0.00000000000E+00 0. -1.
         21    1    1    2  504  505 -0.38526034187E+02 -0.23117388067E+02  0.14822555541E+03  0.15488539059E+03  0.00000000000E+00 0.  1.
         21    1    1    2  505  503 -0.97689334230E+01 -0.30886263555E+03  0.12482555256E+04  0.12859367858E+04  0.00000000000E+00 0. -1.
          2    1    1    2  501    0 -0.78525746624E+01  0.47862634746E+03 -0.26638410540E+04  0.27065095611E+04  0.00000000000E+00 0. -1.
<scales pt_clust_3="82.73743" pt_clust_4="43.91824" pt_clust_5="82.73743" pt_clust_6="478.69076"></scales>
<clustering>
<clus scale="   43.918">  4  5 -1 -1</clus>
<clus scale="   82.737">  3  4 -1 -1</clus>
<clus scale="  478.691">  2  6  1 -1</clus>
<clus scale="  512.235">  1  3  2 -1</clus>
</clustering>
</event>
<event>
 6    0  0.4017242E+002  0.1364935E+03  0.7546771E-02  0.1218127E+00
         21   -1    0    0  503  502  0.00000000000E+00  0.00000000000E+00  0.10864044275E+03  0.10864044275E+03  0.00000000000E+00 0. -1.
          2   -1    0    0  504    0 -0.00000000000E+00 -0.00000000000E+00 -0.14922711790E+04  0.14922711790E+04  0.00000000000E+00 0. -1.
         21    1    1    2  503  505 -0.39425822495E+02  0.76949683420E+02 -0.21189850804E+01  0.86487798883E+02  0.00000000000E+00 0. -1.
         21    1    1    2  504  502  0.13028159424E+03 -0.11401998486E+02 -0.21773065052E+03  0.25398806181E+03  0.00000000000E+00 0.  1.
         21    1    1    2  505  501 -0.98782020138E+02 -0.15095809111E+03 -0.12822236055E+03  0.22133053679E+03  0.00000000000E+00 0. -1.
          2    1    1    2  501    0  0.79262483976E+01  0.85410406171E+02 -0.10355587401E+04  0.10391052243E+04  0.00000000000E+00 0. -1.
<scales pt_clust_3="93.61958" pt_clust_4="136.49348" pt_clust_5="14000.00000" pt_clust_6="85.77740"></scales>
<clustering>
<clus scale="   85.777">  2  6  1 -1</clus>
<clus scale="   93.620">  1  3  2 -1</clus>
<clus scale="  136.493">  2  4  1 -1</clus>
<clus scale="   93.620">  1  3  2 -1</clus>
</clustering>
</event>
<event>
 6    0  0.4017242E+002  0.7594974E+02  0.7546771E-02  0.1340955E+00
         21   -1    0    0  504  502  0.00000000000E+00  0.00000000000E+00  0.35779496326E+03  0.35779496326E+03  0.00000000000E+00 0.  1.
         -1   -1    0    0    0  501 -0.00000000000E+00 -0.00000000000E+00 -0.66561935163E+03  0.66561935163E+03  0.00000000000E+00 0.  1.
         21    1    1    2  503  505  0.33355867969E+02  0.31300975095E+02  0.86737341690E+02  0.98059835882E+02  0.00000000000E+00 0.  1.
         21    1    1    2  504  501  0.43091949524E+02  0.50428566849E+02 -0.79464195797E+02  0.10351094088E+03  0.00000000000E+00 0.  1.
         21    1    1    2  505  502  0.28766183046E+02  0.19506538083E+02  0.24273924613E+03  0.24521488521E+03  0.00000000000E+00 0.  1.
         -1    1    1    2    0  503 -0.10521400054E+03 -0.10123608003E+03 -0.55783678039E+03  0.57662865292E+03  0.00000000000E+00 0.  1.
<scales pt_clust_3="75.94974" pt_clust_4="69.87959" pt_clust_5="34.75627" pt_clust_6="14000.00000"></scales>
<clustering>
<clus scale="   34.756">  1  5  2 -1</clus>
<clus scale="   69.880">  2  4  1 -1</clus>
<clus scale="   75.950">  1  3  2 -1</clus>
<clus scale="   34.756">  1  3  2 -1</clus>
</clustering>
</event>
<event>
 6    0  0.4017242E+002  0.1168339E+03  0.7546771E-02  0.1248413E+00
          3   -1    0    0  504    0 -0.00000000000E+00  0.00000000000E+00  0.61262497871E+03  0.61262497871E+03  0.00000000000E+00 0. -1.
         21   -1    0    0  503  502  0.00000000000E+00 -0.00000000000E+00 -0.45686023429E+03  0.45686023429E+03  0.00000000000E+00 0.  1.
         21    1    1    2  503  501  0.14665153140E+03  0.15057874537E+02 -0.31964299037E+03  0.35200149508E+03  0.00000000000E+00 0.  1.
         21    1    1    2  504  505 -0.91877297485E+02  0.24063923732E+02 -0.17798494828E+02  0.96629688175E+02  0.00000000000E+00 0.  1.
         21    1    1    2  505  502 -0.26320808109E+02 -0.25094524758E+02 -0.58150344355E+02  0.68585586394E+02  0.00000000000E+00 0.  1.
          3    1    1    2  501    0 -0.28453425807E+02 -0.14027273511E+02  0.55135657397E+03  0.55226844334E+03  0.00000000000E+00 0. -1.
<scales pt_clust_3="116.83395" pt_clust_4="14000.00000" pt_clust_5="38.97235" pt_clust_6="31.72321"></scales>
<clustering>
<clus scale="   31.723">  1  6  2 -1</clus>
<clus scale="   38.972">  2  5  1 -1</clus>
<clus scale="  116.834">  2  3  1 -1</clus>
<clus scale="   38.972">  2  3  1 -1</clus>
</clustering>
</event>
<event>
 6    0  0.4017242E+002  0.1791967E+03  0.7546771E-02  0.1168583E+00
         21   -1    0    0  505  502  0.00000000000E+00  0.00000000000E+00  0.11943462397E+03  0.11943462397E+03  0.00000000000E+00 0.  1.
          2   -1    0    0  504    0 -0.00000000000E+00 -0.00000000000E+00 -0.17206109575E+04  0.17206109575E+04  0.00000000000E+00 0.  1.
         21    1    1    2  503  501 -0.64056172856E+01  0.39398838359E+02 -0.53711044612E+02  0.66919180435E+02  0.00000000000E+00 0.  1.
         21    1    1    2  504  502  0.27109465937E+02 -0.17949827998E+03 -0.34855200202E+02  0.18484977858E+03  0.00000000000E+00 0.  1.
         21    1    1    2  505  503 -0.82992116675E+02  0.96079331788E+02 -0.72608323966E+02  0.14625627554E+03  0.00000000000E+00 0.  1.
          2    1    1    2  501    0  0.62288268025E+02  0.44020109838E+02 -0.14400017647E+04  0.14420203469E+04  0.00000000000E+00 0.  1.
<scales pt_clust_3="31.42444" pt_clust_4="170.20741" pt_clust_5="31.42444" pt_clust_6="76.27318"></scales>
<clustering>
<clus scale="   31.424">  3  5 -1 -1</clus>
<clus scale="   76.273">  2  6  1 -1</clus>
<clus scale="  170.207">  1  4  2 -1</clus>
<clus scale="  170.207">  1  3  2 -1</clus>
</clustering>
</event>
<event>
 6    0  0.4017242E+002  0.2411901E+03  0.7546771E-02  0.1119003E+00
         21   -1    0    0  505  502  0.00000000000E+00  0.00000000000E+00  0.58355726080E+02  0.58355726080E+02  0.00000000000E+00 0. -1.
          2   -1    0    0  504    0 -0.00000000000E+00 -0.00000000000E+00 -0.28936949967E+04  0.28936949967E+04  0.00000000000E+00 0. -1.
         21    1    1    2  503  502 -0.85967623651E+02  0.63494633004E+01 -0.21296766645E+03  0.22975198575E+03  0.00000000000E+00 0. -1.
         21    1    1    2  504  503  0.26157418986E+03 -0.21073586946E+02 -0.55036679495E+03  0.60972843287E+03  0.00000000000E+00 0. -1.
         21    1    1    2  505  501  0.43533128212E+02  0.11974164892E+03 -0.33076099089E+03  0.35445172990E+03  0.00000000000E+00 0. -1.
          2    1    1    2  501    0 -0.21913969442E+03 -0.10501752527E+03 -0.17412438183E+04  0.17581185742E+04  0.00000000000E+00 0. -1.
<scales pt_clust_3="86.20179" pt_clust_4="241.19010" pt_clust_5="123.43760" pt_clust_6="14000.00000"></scales>
<clustering>
<clus scale="   86.202">  1  3  2 -1</clus>
<clus scale="  123.438">  1  5  2 -1</clus>
<clus scale="  241.190">  1  4  2 -1</clus>
<clus scale="   86.202">  1  3  2 -1</clus>
</clustering>
</event>
<event>
 6    0  0.4017242E+002  0.1206543E+03  0.7546771E-02  0.1242022E+00
          1   -1    0    0  504    0 -0.00000000000E+00  0.00000000000E+00  0.17368324192E+04  0.17368324192E+04  0.00000000000E+00 0.  1.
         21   -1    0    0  501  502  0.00000000000E+00 -0.00000000000E+00 -0.18411320210E+02  0.18411320210E+02  0.00000000000E+00 0.  1.
         21    1    1    2  503  502 -0.33490605349E+02 -0.76524276586E+01  0.24795032771E+02  0.42367132849E+02  0.00000000000E+00 0.  1.
         21    1    1    2  504  505 -0.26020833147E+02  0.22134256584E+02  0.15168992273E+03  0.15548904055E+03  0.00000000000E+00 0. -1.
         21    1    1    2  505  503  0.12430201174E+02  0.85089065658E+02  0.35145021343E+03  0.36181751135E+03  0.00000000000E+00 0.  1.
          1    1    1    2  501    0  0.47081237322E+02 -0.99570894583E+02  0.11904859300E+04  0.11955700546E+04  0.00000000000E+00 0.  1.
<scales pt_clust_3="34.35375" pt_clust_4="33.19964" pt_clust_5="33.19964" pt_clust_6="108.54921"></scales>
<clustering>
<clus scale="   33.200">  4  5 -1 -1</clus>
<clus scale="   34.354">  2  3  1 -1</clus>
<clus scale="  108.549">  1  6  2 -1</clus>
<clus scale="   34.354">  2  3  1 -1</clus>
</clustering>
</event>
<event>
 6    0  0.4017242E+002  0.8765378E+02  0.7546771E-02  0.1308635E+00
          2   -1    0    0  504    0 -0.00000000000E+00  0.00000000000E+00  0.24709858027E+04  0.24709858027E+04  0.00000000000E+00 0. -1.
         21   -1    0    0  505  502  0.00000000000E+00 -0.00000000000E+00 -0.53493267107E+02  0.53493267107E+02  0.00000000000E+00 0. -1.
         21    1    1    2  503  501 -0.32437182336E+02 -0.20119586669E+02  0.19901010650E+03  0.20263758550E+03  0.00000000000E+00 0.  1.
         21    1    1    2  504  502 -0.26342458222E+01  0.89683611538E+02  0.14406947924E+03  0.16972361144E+03  0.00000000000E+00 0. -1.
         21    1    1    2  505  503 -0.32090855652E+02 -0.10429187265E+02 -0.30391625297E+02  0.45411913104E+02  0.00000000000E+00 0. -1.
          2    1    1    2  501    0  0.67162283810E+02 -0.59134837604E+02  0.21048045751E+04  0.21067059597E+04  0.00000000000E+00 0. -1.
<scales pt_clust_3="41.99258" pt_clust_4="14000.00000" pt_clust_5="33.74301" pt_clust_6="87.65378"></scales>
<clustering>
<clus scale="   33.743">  2  5  1 -1</clus>
<clus scale="   41.993">  2  3  1 -1</clus>
<clus scale="   87.654">  1  6  2 -1</clus>
<clus scale="   33.743">  2  3  1 -1</clus>
</clustering>
</event>
<event>
 6    0  0.4017242E+002  0.1366382E+03  0.7546771E-02  0.1217925E+00
         21   -1    0    0  501  502  0.00000000000E+00  0.00000000000E+00  0.83338057903E+02  0.83338057903E+02  0.00000000000E+00 0. -1.
          1   -1    0    0  504    0 -0.00000000000E+00 -0.00000000000E+00 -0.26053144621E+04  0.26053144621E+04  0.00000000000E+00 0.  1.
         21    1    1    2  503  502 -0.32189348900E+02 -0.16226882487E+02  0.68729741025E+02  0.77609556107E+02  0.00000000000E+00 0. -1.
         21    1    1    2  504  505  0.51351437647E+02  0.97303273340E+02 -0.64413304730E+03  0.65346176612E+03  0.00000000000E+00 0.  1.
         21    1    1    2  505  503  0.31865182030E+02  0.27895442689E+02 -0.12384924722E+03  0.13088995983E+03  0.00000000000E+00 0.  1.
          1    1    1    2  501    0 -0.51027270777E+02 -0.10897183354E+03 -0.18227238507E+04  0.18266912380E+04  0.00000000000E+00 0.  1.
<scales pt_clust_3="36.04811" pt_clust_4="32.89471" pt_clust_5="32.89471" pt_clust_6="125.93207"></scales>
<clustering>
<clus scale="   32.895">  4  5 -1 -1</clus>
<clus scale="   36.048">  1  3  2 -1</clus>
<clus scale="  125.932">  2  6  1 -1</clus>
<clus scale="   36.048">  1  3  2 -1</clus>
</clustering>
</event>
<event>
 6    0  0.4017242E+002  0.1297832E+03  0.7546771E-02  0.1227778E+00
         -1   -1    0    0    0  501 -0.00000000000E+00  0.00000000000E+00  0.43632257890E+03  0.43632257890E+03  0.00000000000E+00 0.  1.
         21   -1    0    0  504  502  0.00000000000E+00 -0.00000000000E+00 -0.16642007209E+03  0.16642007209E+03  0.00000000000E+00 0.  1.
         21    1    1    2  503  501 -0.10887164900E+03 -0.82342125780E+02  0.51956710121E+02  0.14605739064E+03  0.00000000000E+00 0.  1.
         21    1    1    2  504  503  0.69583372475E+02 -0.26524549592E+01 -0.70043730223E+02  0.98767430795E+02  0.00000000000E+00 0.  1.
         21    1    1    2  505  502 -0.74857898441E+02  0.27406175168E+02  0.74711371674E+02  0.10925471365E+03  0.00000000000E+00 0.  1.
         -1    1    1    2    0  505  0.11414617497E+03  0.57588405571E+02  0.21327815523E+03  0.24866311591E+03  0.00000000000E+00 0.  1.
<scales pt_clust_3="129.78316" pt_clust_4="69.63391" pt_clust_5="65.91912" pt_clust_6="14000.00000"></scales>
<clustering>
<clus scale="   69.634">  2  4  1 -1</clus>
<clus scale="   65.919">  2  5  1 -1</clus>
<clus scale="  129.783">  2  3  1 -1</clus>
<clus scale="   69.634">  2  3  1 -1</clus>
</clustering>
</event>
<event>
 6    0  0.4017242E+002  0.1453741E+03  0.7546771E-02  0.1206275E+00
          2   -1    0    0  504    0 -0.00000000000E+00  0.00000000000E+00  0.36215536463E+04  0.36215536463E+04  0.00000000000E+00 0. -1.
         21   -1    0    0  505  502  0.00000000000E+00 -0.00000000000E+00 -0.30993311821E+02  0.30993311821E+02  0.00000000000E+00 0.  1.
         21    1    1    2  503  502 -0.88172085072E+01  0.17991340033E+03  0.28097308455E+03  0.33375507341E+03  0.00000000000E+00 0.  1.
         21    1    1    2  504  503 -0.10578146497E+02 -0.31033702234E+02  0.15485547629E+04  0.15489018179E+04  0.00000000000E+00 0.  1.
         21    1    1    2  505  501 -0.11663327219E+02 -0.84761125380E+02  0.53583709089E+03  0.54262498058E+03  0.00000000000E+00 0.  1.
          2    1    1    2  501    0  0.31058682224E+02 -0.64118572718E+02  0.12251953961E+04  0.12272650862E+04  0.00000000000E+00 0. -1.
<scales pt_clust_3="14000.00000" pt_clust_4="32.78701" pt_clust_5="145.37406" pt_clust_6="86.12545"></scales>
<clustering>
<clus scale="   32.787">  1  4  2 -1</clus>
<clus scale="   86.125">  1  6  2 -1</clus>
<clus scale="  145.374">  1  5  2 -1</clus>
<clus scale="  145.374">  2  3  1 -1</clus>
</clustering>
</event>
<event>
 6    0  0.4017242E+002  0.5791260E+02  0.7546771E-02  0.1406806E+00
          2   -1    0    0  503    0 -0.00000000000E+00  0.00000000000E+00  0.29158400286E+03  0.29158400286E+03  0.00000000000E+00 0.  1.
         21   -1    0    0  501  502  0.00000000000E+00 -0.00000000000E+00 -0.90095679272E+03  0.90095679272E+03  0.00000000000E+00 0. -1.
         21    1    1    2  503  505 -0.49730069428E+02  0.77552156277E+02 -0.26919783177E+03  0.28452572710E+03  0.00000000000E+00 0. -1.
         21    1    1    2  504  502  0.42789975178E+02  0.34596496280E+02 -0.26815183588E+03  0.27373948677E+03  0.00000000000E+00 0. -1.
         21    1    1    2  505  504 -0.24794131223E+02 -0.64145605492E+02 -0.34679231300E+03  0.35354535212E+03  0.00000000000E+00 0. -1.
          2    1    1    2  501    0  0.31734225473E+02 -0.48003047065E+02  0.27476919080E+03  0.28073022959E+03  0.00000000000E+00 0.  1.
<scales pt_clust_3="14000.00000" pt_clust_4="55.02635" pt_clust_5="44.92777" pt_clust_6="57.91260"></scales>
<clustering>
<clus scale="   55.026">  2  4  1 -1</clus>
<clus scale="   44.928">  2  5  1 -1</clus>
<clus scale="   57.913">  1  6  2 -1</clus>
<clus scale="   55.026">  2  3  1 -1</clus>
</clustering>
</event>
<event>
 6    0  0.4017242E+002  0.4051806E+03  0.7546771E-02  0.1042000E+00
          2   -1    0    0  504    0 -0.00000000000E+00  0.00000000000E+00  0.23669899309E+04  0.23669899309E+04  0.00000000000E+00 0. -1.
         21   -1    0    0  505  502  0.00000000000E+00 -0.00000000000E+00 -0.23857531337E+04  0.23857531337E+04  0.00000000000E+00 0. -1.
         21    1    1    2  503  501  0.32484703560E+03 -0.21628375147E+03 -0.10606618781E+04  0.11301804623E+04  0.00000000000E+00 0. -1.
         21    1    1    2  504  502 -0.37073095721E+03  0.23195780001E+03 -0.71038111040E+03  0.83419852890E+03  0.00000000000E+00 0.  1.
         21    1    1    2  505  503  0.24162760968E+02  0.53611711782E+02 -0.51579046289E+03  0.51913182937E+03  0.00000000000E+00 0. -1.
          2    1    1    2  501    0  0.21721160646E+02 -0.69285760314E+02  0.22680702485E+04  0.22692322441E+04  0.00000000000E+00 0. -1.
<scales pt_clust_3="405.18058" pt_clust_4="14000.00000" pt_clust_5="58.80523" pt_clust_6="72.59712"></scales>
<clustering>
<clus scale="   58.805">  2  5  1 -1</clus>
<clus scale="   72.597">  1  6  2 -1</clus>
<clus scale="  405.181">  2  3  1 -1</clus>
<clus scale="   58.805">  2  3  1 -1</clus>
</clustering>
</event>
<event>
 6    0  0.4017242E+002  0.8319204E+02  0.7546771E-02  0.1320229E+00
          1   -1    0    0  504    0 -0.00000000000E+00  0.00000000000E+00  0.39927647184E+02  0.39927647184E+02  0.00000000000E+00 0.  1.
         21   -1    0    0  503  502  0.00000000000E+00 -0.00000000000E+00 -0.77623722676E+03  0.77623722676E+03  0.00000000000E+00 0.  1.
         21    1    1    2  503  501 -0.13274000299E+02  0.28218816856E+02 -0.72043211241E+02  0.78503025385E+02  0.00000000000E+00 0.  1.
         21    1    1    2  504  505  0.56710488384E+02 -0.15643293929E+02 -0.19817770892E+03  0.20672492944E+03  0.00000000000E+00 0.  1.
         21    1    1    2  505  502  0.37753349661E+02 -0.56327260790E+02 -0.42429831628E+03  0.42968260021E+03  0.00000000000E+00 0.  1.
          1    1    1    2  501    0 -0.81189837747E+02  0.43751737863E+02 -0.41790343126E+02  0.10125431891E+03  0.00000000000E+00 0.  1.
<scales pt_clust_3="31.18494" pt_clust_4="14000.00000" pt_clust_5="49.11143" pt_clust_6="83.19204"></scales>
<clustering>
<clus scale="   31.185">  2  3  1 -1</clus>
<clus scale="   49.111">  2  5  1 -1</clus>
<clus scale="   83.192">  1  6  2 -1</clus>
<clus scale="   31.185">  2  3  1 -1</clus>
</clustering>
</event>
<event>
 6    0  0.4017242E+002  0.9386113E+02  0.7546771E-02  0.1293762E+00
         21   -1    0    0  504  502  0.00000000000E+00  0.00000000000E+00  0.35764807475E+02  0.35764807475E+02  0.00000000000E+00 0.  1.
         -4   -1    0    0    0  501 -0.00000000000E+00 -0.00000000000E+00 -0.13716254168E+04  0.13716254168E+04  0.00000000000E+00 0.  1.
         21    1    1    2  503  502 -0.28044610478E+02  0.40951214106E+02 -0.36469094038E+00  0.49635019020E+02  0.00000000000E+00 0.  1.
         21    1    1    2  504  501  0.43582610164E+02  0.53126294368E+01 -0.15305527420E+03  0.15922809081E+03  0.00000000000E+00 0.  1.
         21    1    1    2  505  503  0.29262761263E+02  0.66913556165E+02 -0.38763855242E+03  0.39445833813E+03  0.00000000000E+00 0.  1.
         -4    1    1    2    0  505 -0.44800760949E+02 -0.11317739971E+03 -0.79480209173E+03  0.80406877629E+03  0.00000000000E+00 0.  1.
<scales pt_clust_3="49.22386" pt_clust_4="43.90522" pt_clust_5="14000.00000" pt_clust_6="93.86113"></scales>
<clustering>
<clus scale="   43.905">  2  4  1 -1</clus>
<clus scale="   49.224">  1  3  2 -1</clus>
<clus scale="   93.861">  2  6  1 -1</clus>
<clus scale="   49.224">  1  3  2 -1</clus>
</clustering>
</event>
<event>
 6    0  0.4017242E+002  0.1823876E+03  0.7546771E-02  0.1165512E+00
          2   -1    0    0  505    0 -0.00000000000E+00  0.00000000000E+00  0.11378752406E+04  0.11378752406E+04  0.00000000000E+00 0.  1.
         21   -1    0    0  504  502  0.00000000000E+00 -0.00000000000E+00 -0.11571768307E+04  0.11571768307E+04  0.00000000000E+00 0. -1.
         21    1    1    2  503  501  0.23281219729E+02 -0.80438941487E+02 -0.17281420075E+03  0.19203433672E+03  0.00000000000E+00 0. -1.
         21    1    1    2  504  503 -0.74238917780E+01 -0.88723125975E+02 -0.21567056017E+03  0.23332530462E+03  0.00000000000E+00 0.  1.
         21    1    1    2  505  502  0.34931524592E+02 -0.29467829196E+01 -0.74264719039E+03  0.74347410469E+03  0.00000000000E+00 0. -1.
          2    1    1    2  501    0 -0.50788852543E+02  0.17210885038E+03  0.11118303612E+04  0.11262183252E+04  0.00000000000E+00 0.  1.
<scales pt_clust_3="32.79019" pt_clust_4="32.79019" pt_clust_5="35.05560" pt_clust_6="179.22632"></scales>
<clustering>
<clus scale="   32.790">  3  4 -1 -1</clus>
<clus scale="   35.056">  2  5  1 -1</clus>
<clus scale="  179.226">  1  6  2 -1</clus>
<clus scale="   35.056">  2  3  1 -1</clus>
</clustering>
</event>
<event>
 6    0  0.4017242E+002  0.8547251E+02  0.7546771E-02  0.1314201E+00
         21   -1    0    0  505  502  0.00000000000E+00  0.00000000000E+00  0.10390169136E+02  0.10390169136E+02  0.00000000000E+00 0. -1.
          2   -1    0    0  504    0 -0.00000000000E+00 -0.00000000000E+00 -0.27455574731E+04  0.27455574731E+04  0.00000000000E+00 0.  1.
         21    1    1    2  503  501 -0.27940808696E+02  0.11951250706E+03 -0.82369051970E+03  0.83278448615E+03  0.00000000000E+00 0.  1.
         21    1    1    2  504  502 -0.29030616340E+02 -0.38212149636E+02 -0.29859936647E+03  0.30243102804E+03  0.00000000000E+00 0. -1.
         21    1    1    2  505  503  0.40381764138E+02 -0.59117705148E+01 -0.13984766610E+03  0.14568117798E+03  0.00000000000E+00 0. -1.
          2    1    1    2  501    0  0.16589660898E+02 -0.75388586913E+02 -0.14730297517E+04  0.14750509500E+04  0.00000000000E+00 0.  1.
<scales pt_clust_3="14000.00000" pt_clust_4="43.89963" pt_clust_5="40.81220" pt_clust_6="85.47251"></scales>
<clustering>
<clus scale="   40.812">  1  5  2 -1</clus>
<clus scale="   43.900">  1  4  2 -1</clus>
<clus scale="   85.473">  2  6  1 -1</clus>
<clus scale="   40.812">  1  3  2 -1</clus>
</clustering>
</event>
<event>
 6    0  0.4017242E+002  0.1657941E+03  0.7546771E-02  0.1182306E+00
          2   -1    0    0  503    0 -0.00000000000E+00  0.00000000000E+00  0.14083885509E+04  0.14083885509E+04  0.00000000000E+00 0.  1.
         21   -1    0    0  504  502  0.00000000000E+00 -0.00000000000E+00 -0.63095123167E+02  0.63095123167E+02  0.00000000000E+00 0.  1.
         21    1    1    2  503  502  0.11162349884E+02  0.61459881971E+02 -0.20649552561E+02  0.65789962515E+02  0.00000000000E+00 0.  1.
         21    1    1    2  504  505 -0.74682134055E+02 -0.11776893371E+03  0.54397390587E+03  0.56156438025E+03  0.00000000000E+00 0.  1.
         21    1    1    2  505  501  0.34024104763E+01 -0.60423929652E+02  0.28266675508E+03  0.28907286641E+03  0.00000000000E+00 0.  1.
          2    1    1    2  501    0  0.60117373694E+02  0.11673298139E+03  0.53930231936E+03  0.55505646491E+03  0.00000000000E+00 0.  1.
<scales pt_clust_3="62.46531" pt_clust_4="38.49986" pt_clust_5="38.49986" pt_clust_6="155.15231"></scales>
<clustering>
<clus scale="   38.500">  4  5 -1 -1</clus>
<clus scale="   62.465">  2  3  1 -1</clus>
<clus scale="  155.152">  1  6  2 -1</clus>
<clus scale="   62.465">  2  3  1 -1</clus>
</clustering>
</event>
<event>
 6    0  0.4017242E+002  0.8891080E+02  0.7546771E-02  0.1305511E+00
          1   -1    0    0  504    0 -0.00000000000E+00  0.00000000000E+00  0.11917283017E+04  0.11917283017E+04  0.00000000000E+00 0.  1.
         21   -1    0    0  503  502  0.00000000000E+00 -0.00000000000E+00 -0.12560451704E+03  0.12560451704E+03  0.00000000000E+00 0.  1.
         21    1    1    2  503  501  0.11547636317E+03 -0.32231191797E+02 -0.37035384831E+02  0.12548011757E+03  0.00000000000E+00 0.  1.
         21    1    1    2  504  505 -0.33901696349E+02  0.23863912459E+02  0.88157250505E+02  0.97419259645E+02  0.00000000000E+00 0.  1.
         21    1    1    2  505  502 -0.35838855171E+02  0.75520840194E+02  0.77961809038E+01  0.83955948450E+02  0.00000000000E+00 0.  1.
          1    1    1    2  501    0 -0.45735811651E+02 -0.67153560856E+02  0.10072057381E+04  0.10104774931E+04  0.00000000000E+00 0.  1.
<scales pt_clust_3="14000.00000" pt_clust_4="41.45855" pt_clust_5="85.10422" pt_clust_6="88.91080"></scales>
<clustering>
<clus scale="   41.459">  1  4  2 -1</clus>
<clus scale="   85.104">  2  5  1 -1</clus>
<clus scale="   88.911">  1  6  2 -1</clus>
<clus scale="   85.104">  2  3  1 -1</clus>
</clustering>
</event>
<event>
 6    0  0.4017242E+002  0.8955852E+02  0.7546771E-02  0.1303924E+00
         21   -1    0    0  504  502  0.00000000000E+00  0.00000000000E+00  0.22370028659E+03  0.22370028659E+03  0.00000000000E+00 0.  1.
         -2   -1    0    0    0  501 -0.00000000000E+00 -0.00000000000E+00 -0.13460115917E+04  0.13460115917E+04  0.00000000000E+00 0. -1.
         21    1    1    2  503  501 -0.29951498707E+02  0.13206633268E+02 -0.10895031281E+03  0.11376149655E+03  0.00000000000E+00 0. -1.
         21    1    1    2  504  503 -0.74445212371E+02 -0.48952129660E+02 -0.20283565933E+03  0.22154165599E+03  0.00000000000E+00 0. -1.
         21    1    1    2  505  502  0.86410480902E+02 -0.28851824574E+02  0.20099060566E+03  0.22067265928E+03  0.00000000000E+00 0.  1.
         -2    1    1    2    0  505  0.17986230175E+02  0.64597320966E+02 -0.10115159387E+04  0.10137360665E+04  0.00000000000E+00 0. -1.
<scales pt_clust_3="32.73389" pt_clust_4="89.55852" pt_clust_5="14000.00000" pt_clust_6="75.71536"></scales>
<clustering>
<clus scale="   32.734">  2  3  1 -1</clus>
<clus scale="   75.715">  2  6  1 -1</clus>
<clus scale="   89.559">  2  4  1 -1</clus>
<clus scale="   89.559">  1  3  2 -1</clus>
</clustering>
</event>
<event>
 6    0  0.4017242E+002  0.1095555E+03  0.7546771E-02  0.1261395E+00
         21   -1    0    0  505  502  0.00000000000E+00  0.00000000000E+00  0.55402974925E+03  0.55402974925E+03  0.00000000000E+00 0.  1.
          2   -1    0    0  503    0 -0.00000000000E+00 -0.00000000000E+00 -0.96082716616E+02  0.96082716616E+02  0.00000000000E+00 0. -1.
         21    1    1    2  503  504 -0.38134766570E+02  0.76025305850E+02  0.90088252399E+02  0.12389512005E+03  0.00000000000E+00 0.  1.
         21    1    1    2  504  502  0.18408844114E+01  0.39039385807E+02  0.33455414942E+03  0.33682924664E+03  0.00000000000E+00 0.  1.
         21    1    1    2  505  501 -0.43104264175E+02 -0.20704354442E+02  0.44808723897E+02  0.65532202925E+02  0.00000000000E+00 0.  1.
          2    1    1    2  501    0  0.79398146334E+02 -0.94360337214E+02 -0.11504093076E+02  0.12385589626E+03  0.00000000000E+00 0. -1.
<scales pt_clust_3="109.55550" pt_clust_4="39.08276" pt_clust_5="43.99537" pt_clust_6="14000.00000"></scales>
<clustering>
<clus scale="   39.083">  1  4  2 -1</clus>
<clus scale="   43.995">  1  5  2 -1</clus>
<clus scale="  109.556">  1  3  2 -1</clus>
<clus scale="   39.083">  1  3  2 -1</clus>
</clustering>
</event>
<event>
 6    0  0.4017242E+002  0.8789562E+02  0.7546771E-02  0.1308029E+00
         21   -1    0    0  505  502  0.00000000000E+00  0.00000000000E+00  0.25597251710E+03  0.25597251710E+03  0.00000000000E+00 0.  1.
          2   -1    0    0  504    0 -0.00000000000E+00 -0.00000000000E+00 -0.10408092041E+04  0.10408092041E+04  0.00000000000E+00 0. -1.
         21    1    1    2  503  501 -0.37223229663E+02  0.84931686528E+02  0.19191899256E+02  0.94695771818E+02  0.00000000000E+00 0.  1.
         21    1    1    2  504  502  0.38819029703E+02 -0.79900959261E+02  0.13033906764E+03  0.15773190201E+03  0.00000000000E+00 0.  1.
         21    1    1    2  505  503  0.86985563234E+02 -0.55397193304E+01  0.17056530528E+02  0.88814987109E+02  0.00000000000E+00 0.  1.
          2    1    1    2  501    0 -0.88581363274E+02  0.50899206275E+00 -0.95142418446E+03  0.95553906030E+03  0.00000000000E+00 0. -1.
<scales pt_clust_3="84.35894" pt_clust_4="87.89562" pt_clust_5="87.16178" pt_clust_6="14000.00000"></scales>
<clustering>
<clus scale="   87.162">  1  5  2 -1</clus>
<clus scale="   84.359">  1  3  2 -1</clus>
<clus scale="   87.896">  1  4  2 -1</clus>
<clus scale="   87.162">  1  3  2 -1</clus>
</clustering>
</event>
<event>
 6    0  0.4017242E+002  0.1591537E+03  0.7546771E-02  0.1189656E+00
          1   -1    0    0  503    0 -0.00000000000E+00  0.00000000000E+00  0.19317528603E+04  0.19317528603E+04  0.00000000000E+00 0.  1.
         21   -1    0    0  505  502  0.00000000000E+00 -0.00000000000E+00 -0.10227326452E+03  0.10227326452E+03  0.00000000000E+00 0. -1.
         21    1    1    2  503  504  0.12426087902E+03 -0.17585183724E+03  0.66138875559E+03  0.69555712974E+03  0.00000000000E+00 0. -1.
         21    1    1    2  504  502 -0.10409262938E+02  0.32414083112E+02 -0.72686550613E+02  0.80264314480E+02  0.00000000000E+00 0. -1.
         21    1    1    2  505  501 -0.64947860537E+02  0.96077960717E+02  0.45732607649E+03  0.47180116507E+03  0.00000000000E+00 0.  1.
          1    1    1    2  501    0 -0.48903755543E+02  0.47359793415E+02  0.78345131429E+03  0.78640351551E+03  0.00000000000E+00 0.  1.
<scales pt_clust_3="14000.00000" pt_clust_4="34.04446" pt_clust_5="159.15371" pt_clust_6="69.80150"></scales>
<clustering>
<clus scale="   34.044">  2  4  1 -1</clus>
<clus scale="   69.801">  1  6  2 -1</clus>
<clus scale="  159.154">  2  5  1 -1</clus>
<clus scale="   34.044">  2  3  1 -1</clus>
</clustering>
</event>
<event>
 6    0  0.4017242E+002  0.1879600E+03  0.7546771E-02  0.1160314E+00
          3   -1    0    0  504    0 -0.00000000000E+00  0.00000000000E+00  0.86057335906E+02  0.86057335906E+02  0.00000000000E+00 0.  1.
         21   -1    0    0  505  502  0.00000000000E+00 -0.00000000000E+00 -0.14133548733E+04  0.14133548733E+04  0.00000000000E+00 0.  1.
         21    1    1    2  503  501 -0.89083555505E+02  0.78930551504E+02 -0.60728001835E+03  0.61883352568E+03  0.00000000000E+00 0.  1.
         21    1    1    2  504  502  0.10280710780E+03 -0.11485409014E+03 -0.12680672636E+03  0.19960137597E+03  0.00000000000E+00 0.  1.
         21    1    1    2  505  503 -0.49396427089E+02  0.43805005973E+02 -0.62744611346E+03  0.63091006558E+03  0.00000000000E+00 0.  1.
          3    1    1    2  501    0  0.35672874791E+02 -0.78814673338E+01  0.34235320818E+02  0.50067241932E+02  0.00000000000E+00 0.  1.
<scales pt_clust_3="41.60731" pt_clust_4="179.60858" pt_clust_5="41.60731" pt_clust_6="36.53316"></scales>
<clustering>
<clus scale="   36.533">  1  6  2 -1</clus>
<clus scale="   41.607">  3  5 -1 -1</clus>
<clus scale="  179.609">  1  4  2 -1</clus>
<clus scale="  187.960">  2  3  1 -1</clus>
</clustering>
</event>
<event>
 6    0  0.4017242E+002  0.8064201E+02  0.7546771E-02  0.1327239E+00
         21   -1    0    0  504  502  0.00000000000E+00  0.00000000000E+00  0.39641213845E+02  0.39641213845E+02  0.00000000000E+00 0.  1.
          3   -1    0    0  505    0 -0.00000000000E+00 -0.00000000000E+00 -0.25645989921E+04  0.25645989921E+04  0.00000000000E+00 0.  1.
         21    1    1    2  503  501  0.61760839939E+02  0.78470637281E+02 -0.13151248098E+03  0.16512896450E+03  0.00000000000E+00 0.  1.
         21    1    1    2  504  503 -0.35678270608E+02  0.26004667080E+02 -0.10842143170E+02  0.45461343711E+02  0.00000000000E+00 0.  1.
         21    1    1    2  505  502  0.23479833972E+00 -0.63855727769E+02 -0.18867646552E+03  0.19918940168E+03  0.00000000000E+00 0.  1.
          3    1    1    2  501    0 -0.26317367671E+02 -0.40619576591E+02 -0.21939266886E+04  0.21944604961E+04  0.00000000000E+00 0.  1.
<scales pt_clust_3="14000.00000" pt_clust_4="44.14954" pt_clust_5="80.64201" pt_clust_6="48.37383"></scales>
<clustering>
<clus scale="   44.150">  1  4  2 -1</clus>
<clus scale="   48.374">  2  6  1 -1</clus>
<clus scale="   80.642">  2  5  1 -1</clus>
<clus scale="   44.150">  1  3  2 -1</clus>
</clustering>
</event>
<event>
 6    0  0.4017242E+002  0.1042169E+03  0.7546771E-02  0.1271670E+00
         21   -1    0    0  504  502  0.00000000000E+00  0.00000000000E+00  0.89357951054E+03  0.89357951054E+03  0.00000000000E+00 0.  1.
          1   -1    0    0  503    0 -0.00000000000E+00 -0.00000000000E+00 -0.46499290200E+03  0.46499290200E+03  0.00000000000E+00 0. -1.
         21    1    1    2  503  505  0.50203673258E+02 -0.54242389317E+02  0.72193428626E+02  0.10331764972E+03  0.00000000000E+00 0.  1.
         21    1    1    2  504  501 -0.70970247485E+02 -0.42865052744E+02  0.33506770065E+02  0.89425345485E+02  0.00000000000E+00 0.  1.
         21    1    1    2  505  502  0.82992849245E+02  0.67978798575E+02  0.73765171324E+03  0.74541195330E+03  0.00000000000E+00 0.  1.
          1    1    1    2  501    0 -0.62226275018E+02  0.29128643486E+02 -0.41476530339E+03  0.42041746404E+03  0.00000000000E+00 0. -1.
<scales pt_clust_3="53.69140" pt_clust_4="14000.00000" pt_clust_5="104.21686" pt_clust_6="68.70653"></scales>
<clustering>
<clus scale="   68.707">  2  6  1 -1</clus>
<clus scale="   53.691">  2  3  1 -1</clus>
<clus scale="  104.217">  1  5  2 -1</clus>
<clus scale="  104.217">  1  3  2 -1</clus>
</clustering>
</event>
<event>
 6    0  0.4017242E+002  0.1738099E+03  0.7546771E-02  0.1173932E+00
          2   -1    0    0  504    0 -0.00000000000E+00  0.00000000000E+00  0.28595249528E+03  0.28595249528E+03  0.00000000000E+00 0.  1.
         21   -1    0    0  505  502  0.00000000000E+00 -0.00000000000E+00 -0.27753023031E+03  0.27753023031E+03  0.00000000000E+00 0.  1.
         21    1    1    2  503  502 -0.81643963232E+02 -0.90104997966E+02 -0.13714208487E+03  0.18328283835E+03  0.00000000000E+00 0.  1.
         21    1    1    2  504  503 -0.34876019177E+02 -0.43724617346E+02 -0.18178996093E+02  0.58810328809E+02  0.00000000000E+00 0.  1.
         21    1    1    2  505  501  0.13242543647E+03  0.69612450704E+02  0.53139935259E+01  0.14970179707E+03  0.00000000000E+00 0.  1.
          2    1    1    2  501    0 -0.15905454064E+02  0.64217164608E+02  0.15842935240E+03  0.17168776136E+03  0.00000000000E+00 0.  1.
<scales pt_clust_3="37.13021" pt_clust_4="37.13021" pt_clust_5="164.96273" pt_clust_6="66.15760"></scales>
<clustering>
<clus scale="   37.130">  3  4 -1 -1</clus>
<clus scale="   66.158">  1  6  2 -1</clus>
<clus scale="  164.963">  1  5  2 -1</clus>
<clus scale="  173.810">  2  3  1 -1</clus>
</clustering>
</event>
<event>
 6    0  0.4017242E+002  0.1172968E+03  0.7546771E-02  0.1247624E+00
         21   -1    0    0  505  502  0.00000000000E+00  0.00000000000E+00  0.55289450388E+02  0.55289450388E+02  0.00000000000E+00 0.  1.
          2   -1    0    0  502    0 -0.00000000000E+00 -0.00000000000E+00 -0.30436402130E+04  0.30436402130E+04  0.00000000000E+00 0. -1.
         21    1    1    2  503  501  0.11940863166E+03  0.92224507824E+02 -0.38203015512E+03  0.41074422769E+03  0.00000000000E+00 0.  1.
         21    1    1    2  504  503 -0.64355541762E+02 -0.43603624816E+01 -0.32382292147E+01  0.64584321975E+02  0.00000000000E+00 0.  1.
         21    1    1    2  505  504 -0.41939462312E+02  0.53185614866E+01 -0.38152811614E+02  0.56945962362E+02  0.00000000000E+00 0.  1.
          2    1    1    2  501    0 -0.13113627582E+02 -0.93182706829E+02 -0.25649295667E+04  0.25666551514E+04  0.00000000000E+00 0. -1.
<scales pt_clust_3="109.55224" pt_clust_4="33.93284" pt_clust_5="33.93284" pt_clust_6="94.10092"></scales>
<clustering>
<clus scale="   33.933">  4  5 -1 -1</clus>
<clus scale="   94.101">  2  6  1 -1</clus>
<clus scale="  109.552">  2  3  1 -1</clus>
<clus scale="  117.297">  1  3  2 -1</clus>
</clustering>
</event>
<event>
 6    0  0.4017242E+002  0.1680543E+03  0.7546771E-02  0.1179892E+00
          2   -1    0    0  505    0 -0.00000000000E+00  0.00000000000E+00  0.18692896015E+04  0.18692896015E+04  0.00000000000E+00 0.  1.
         21   -1    0    0  504  502  0.00000000000E+00 -0.00000000000E+00 -0.80683443836E+02  0.80683443836E+02  0.00000000000E+00 0.  1.
         21    1    1    2  503  502 -0.13918684749E+03  0.45218854806E+02  0.10110180145E+03  0.17787438714E+03  0.00000000000E+00 0.  1.
         21    1    1    2  504  501  0.24690480614E+02 -0.18656516171E+03  0.22439760202E+03  0.29286594747E+03  0.00000000000E+00 0.  1.
         21    1    1    2  505  503  0.40126381079E+02  0.79902141712E+01  0.10697832982E+03  0.11453529164E+03  0.00000000000E+00 0.  1.
          2    1    1    2  501    0  0.74369985792E+02  0.13335609273E+03  0.13561284243E+04  0.13646974190E+04  0.00000000000E+00 0.  1.
<scales pt_clust_3="143.52544" pt_clust_4="168.05433" pt_clust_5="40.91418" pt_clust_6="14000.00000"></scales>
<clustering>
<clus scale="   40.914">  1  5  2 -1</clus>
<clus scale="  143.525">  2  3  1 -1</clus>
<clus scale="  168.054">  2  4  1 -1</clus>
<clus scale="  143.525">  2  3  1 -1</clus>
</clustering>
</event>
<event>
 6    0  0.4017242E+002  0.1080881E+03  0.7546771E-02  0.1264152E+00
         21   -1    0    0  504  502  0.00000000000E+00  0.00000000000E+00  0.52006799714E+02  0.52006799714E+02  0.00000000000E+00 0. -1.
          2   -1    0    0  503    0 -0.00000000000E+00 -0.00000000000E+00 -0.39161400811E+04  0.39161400811E+04  0.00000000000E+00 0.  1.
         21    1    1    2  503  505  0.45620047353E+02 -0.52053324521E+01 -0.26029627567E+02  0.52780921911E+02  0.00000000000E+00 0. -1.
         21    1    1    2  504  501 -0.34046373955E+02  0.19583693227E+01 -0.32279357351E+02  0.46956870646E+02  0.00000000000E+00 0.  1.
         21    1    1    2  505  502  0.77326261136E+02  0.46577691251E+02 -0.35836103655E+02  0.97123932729E+02  0.00000000000E+00 0. -1.
          2    1    1    2  501    0 -0.88899934534E+02 -0.43330728121E+02 -0.37699881928E+04  0.37712851555E+04  0.00000000000E+00 0.  1.
<scales pt_clust_3="30.39777" pt_clust_4="34.10265" pt_clust_5="30.39777" pt_clust_6="99.32983"></scales>
<clustering>
<clus scale="   30.398">  3  5 -1 -1</clus>
<clus scale="   34.103">  1  4  2 -1</clus>
<clus scale="   99.330">  2  6  1 -1</clus>
<clus scale="   34.103">  1  3  2 -1</clus>
</clustering>
</event>
<event>
 6    0  0.4017242E+002  0.7770241E+02  0.7546771E-02  0.1335701E+00
         21   -1    0    0  504  502  0.00000000000E+00  0.00000000000E+00  0.33374708873E+02  0.33374708873E+02  0.00000000000E+00 0.  1.
          3   -1    0    0  505    0 -0.00000000000E+00 -0.00000000000E+00 -0.10382542537E+04  0.10382542537E+04  0.00000000000E+00 0. -1.
         21    1    1    2  503  501  0.15907802633E+02  0.86136055335E+02 -0.14115316582E+03  0.16612252837E+03  0.00000000000E+00 0.  1.
         21    1    1    2  504  503 -0.25503882478E+02 -0.43529760536E+02 -0.47293251818E+02  0.69151570780E+02  0.00000000000E+00 0.  1.
         21    1    1    2  505  502 -0.70537077821E+02 -0.27203004605E+02 -0.18776991539E+03  0.20241794371E+03  0.00000000000E+00 0.  1.
          3    1    1    2  501    0  0.80133157666E+02 -0.15403290194E+02 -0.62866321179E+03  0.63393691971E+03  0.00000000000E+00 0. -1.
<scales pt_clust_3="61.94784" pt_clust_4="50.45085" pt_clust_5="14000.00000" pt_clust_6="77.70241"></scales>
<clustering>
<clus scale="   50.451">  1  4  2 -1</clus>
<clus scale="   61.948">  1  3  2 -1</clus>
<clus scale="   77.702">  2  6  1 -1</clus>
<clus scale="   50.451">  1  3  2 -1</clus>
</clustering>
</event>
<event>
 6    0  0.4017242E+002  0.4564712E+03  0.7546771E-02  0.1025810E+00
          2   -1    0    0  504    0 -0.00000000000E+00  0.00000000000E+00  0.10752974759E+04  0.10752974759E+04  0.00000000000E+00 0.  1.
         21   -1    0    0  505  502  0.00000000000E+00 -0.00000000000E+00 -0.10011016333E+04  0.10011016333E+04  0.00000000000E+00 0.  1.
         21    1    1    2  503  501 -0.13068705330E+03  0.37610925776E+03 -0.65578851435E+03  0.76720000993E+03  0.00000000000E+00 0.  1.
         21    1    1    2  504  502  0.12969055053E+03 -0.11416336562E+03  0.23819208792E+02  0.17441406954E+03  0.00000000000E+00 0. -1.
         21    1    1    2  505  503 -0.41727667199E+01  0.58348974903E+02 -0.18170786622E+03  0.19089202052E+03  0.00000000000E+00 0.  1.
          2    1    1    2  501    0  0.51692694947E+01 -0.32029486705E+03  0.88787301434E+03  0.94389300919E+03  0.00000000000E+00 0.  1.
<scales pt_clust_3="37.55356" pt_clust_4="172.77996" pt_clust_5="37.55356" pt_clust_6="445.83286"></scales>
<clustering>
<clus scale="   37.554">  3  5 -1 -1</clus>
<clus scale="  172.780">  1  4  2 -1</clus>
<clus scale="  445.833">  1  6  2 -1</clus>
<clus scale="  456.471">  2  3  1 -1</clus>
</clustering>
</event>
<event>
 6    0  0.4017242E+002  0.3827413E+03  0.7546771E-02  0.1049925E+00
         21   -1    0    0  501  502  0.00000000000E+00  0.00000000000E+00  0.17104047984E+03  0.17104047984E+03  0.00000000000E+00 0. -1.
          1   -1    0    0  503    0 -0.00000000000E+00 -0.00000000000E+00 -0.44040953506E+04  0.44040953506E+04  0.00000000000E+00 0. -1.
         21    1    1    2  503  504  0.54878682092E+02 -0.88909408218E+02 -0.19958775705E+04  0.19986104746E+04  0.00000000000E+00 0. -1.
         21    1    1    2  504  505  0.19180937705E+03 -0.16240693779E+03 -0.21013664506E+04  0.21163430276E+04  0.00000000000E+00 0. -1.
         21    1    1    2  505  502 -0.11245398640E+02 -0.42369246021E+02  0.25444190223E+02  0.50685489196E+02  0.00000000000E+00 0. -1.
          1    1    1    2  501    0 -0.23544266050E+03  0.29368559203E+03 -0.16125503983E+03  0.40949683908E+03  0.00000000000E+00 0. -1.
<scales pt_clust_3="94.30181" pt_clust_4="94.30181" pt_clust_5="43.83620" pt_clust_6="353.65530"></scales>
<clustering>
<clus scale="   43.836">  1  5  2 -1</clus>
<clus scale="   94.302">  3  4 -1 -1</clus>
<clus scale="  353.655">  1  6  2 -1</clus>
<clus scale="   43.836">  1  3  2 -1</clus>
</clustering>
</event>
<event>
 6    0  0.4017242E+002  0.7971518E+02  0.7546771E-02  0.1329862E+00
         21   -1    0    0  505  502  0.00000000000E+00  0.00000000000E+00  0.30570205107E+03  0.30570205107E+03  0.00000000000E+00 0. -1.
          1   -1    0    0  504    0 -0.00000000000E+00 -0.00000000000E+00 -0.64220032413E+03  0.64220032413E+03  0.00000000000E+00 0.  1.
         21    1    1    2  503  502 -0.16038012741E+02 -0.27466446022E+02  0.18394816052E+03  0.18667766141E+03  0.00000000000E+00 0. -1.
         21    1    1    2  504  503  0.12777685607E+03 -0.69184369823E+01  0.71081281006E+02  0.14638079870E+03  0.00000000000E+00 0.  1.
         21    1    1    2  505  501 -0.35214232450E+02  0.16703279468E+02 -0.33729552651E+02  0.51543422802E+02  0.00000000000E+00 0. -1.
          1    1    1    2  501    0 -0.76524610880E+02  0.17681603536E+02 -0.55779816193E+03  0.56330049230E+03  0.00000000000E+00 0.  1.
<scales pt_clust_3="31.80603" pt_clust_4="79.71518" pt_clust_5="39.24617" pt_clust_6="14000.00000"></scales>
<clustering>
<clus scale="   31.806">  1  3  2 -1</clus>
<clus scale="   39.246">  1  5  2 -1</clus>
<clus scale="   79.715">  1  4  2 -1</clus>
<clus scale="   31.806">  1  3  2 -1</clus>
</clustering>
</event>
<event>
 6    0  0.4017242E+002  0.2273095E+03  0.7546771E-02  0.1128548E+00
          1   -1    0    0  503    0 -0.00000000000E+00  0.00000000000E+00  0.36877741931E+03  0.36877741931E+03  0.00000000000E+00 0.  1.
         21   -1    0    0  504  502  0.00000000000E+00 -0.00000000000E+00 -0.26611762688E+03  0.26611762688E+03  0.00000000000E+00 0. -1.
         21    1    1    2  503  502  0.19656794488E+03 -0.14755485590E+03 -0.24291980956E+02  0.24698480276E+03  0.00000000000E+00 0.  1.
         21    1    1    2  504  505 -0.16265936017E+02  0.51681874867E+02  0.47744188827E+01  0.54391101661E+02  0.00000000000E+00 0. -1.
         21    1    1    2  505  501 -0.12967810238E+03  0.71081121221E+02 -0.47021917478E+02  0.15517730747E+03  0.00000000000E+00 0. -1.
          1    1    1    2  501    0 -0.50623906484E+02  0.24791859815E+02  0.16919927198E+03  0.17834183430E+03  0.00000000000E+00 0.  1.
<scales pt_clust_3="214.25677" pt_clust_4="45.95323" pt_clust_5="45.95323" pt_clust_6="56.36857"></scales>
<clustering>
<clus scale="   45.953">  4  5 -1 -1</clus>
<clus scale="   56.369">  1  6  2 -1</clus>
<clus scale="  214.257">  1  3  2 -1</clus>
<clus scale="  227.310">  2  3  1 -1</clus>
</clustering>
</event>
<event>
 6    0  0.4017242E+002  0.7493075E+02  0.7546771E-02  0.1344086E+00
         21   -1    0    0  503  502  0.00000000000E+00  0.00000000000E+00  0.18052773892E+03  0.18052773892E+03  0.00000000000E+00 0.  1.
         -1   -1    0    0    0  501 -0.00000000000E+00 -0.00000000000E+00 -0.15624065397E+03  0.15624065397E+03  0.00000000000E+00 0.  1.
         21    1    1    2  503  504  0.66639891272E+02  0.33825039009E+02  0.21820851823E+02  0.77853438890E+02  0.00000000000E+00 0.  1.
         21    1    1    2  504  501 -0.28247877318E+02 -0.73855876102E+02  0.30688172173E+02  0.84819790846E+02  0.00000000000E+00 0.  1.
         21    1    1    2  505  502  0.20764631570E+02 -0.21811108720E+02  0.49859077570E+02  0.58247935620E+02  0.00000000000E+00 0.  1.
         -1    1    1    2    0  505 -0.59156645523E+02  0.61841945813E+02 -0.78081016619E+02  0.11584722754E+03  0.00000000000E+00 0.  1.
<scales pt_clust_3="78.96159" pt_clust_4="74.93075" pt_clust_5="30.11469" pt_clust_6="14000.00000"></scales>
<clustering>
<clus scale="   30.115">  1  5  2 -1</clus>
<clus scale="   78.962">  1  3  2 -1</clus>
<clus scale="   74.931">  1  4  2 -1</clus>
<clus scale="   30.115">  1  3  2 -1</clus>
</clustering>
</event>
<event>
 6    0  0.4017242E+002  0.1318187E+03  0.7546771E-02  0.1224782E+00
          1   -1    0    0  503    0 -0.00000000000E+00  0.00000000000E+00  0.45712765857E+03  0.45712765857E+03  0.00000000000E+00 0.  1.
         21   -1    0    0  504  502  0.00000000000E+00 -0.00000000000E+00 -0.55578970573E+03  0.55578970573E+03  0.00000000000E+00 0. -1.
         21    1    1    2  503  505  0.11158084493E+03 -0.48217004276E+02 -0.43235264362E+03  0.44911465452E+03  0.00000000000E+00 0. -1.
         21    1    1    2  504  501 -0.53156790305E+01  0.47606212200E+02 -0.18865170745E+02  0.51483031679E+02  0.00000000000E+00 0.  1.
         21    1    1    2  505  502  0.24638837492E+02  0.21008621120E+02 -0.65882333539E+02  0.73409238838E+02  0.00000000000E+00 0.  1.
          1    1    1    2  501    0 -0.13090400339E+03 -0.20397829043E+02  0.41843810074E+03  0.43891043926E+03  0.00000000000E+00 0.  1.
<scales pt_clust_3="131.81875" pt_clust_4="49.25313" pt_clust_5="32.37954" pt_clust_6="14000.00000"></scales>
<clustering>
<clus scale="   32.380">  2  5  1 -1</clus>
<clus scale="   49.253">  2  4  1 -1</clus>
<clus scale="  131.819">  2  3  1 -1</clus>
<clus scale="   32.380">  2  3  1 -1</clus>
</clustering>
</event>
<event>
 6    0  0.4017242E+002  0.8104668E+02  0.7546771E-02  0.1326107E+00
          1   -1    0    0  504    0 -0.00000000000E+00  0.00000000000E+00  0.85889377762E+03  0.85889377762E+03  0.00000000000E+00 0.  1.
         21   -1    0    0  503  502  0.00000000000E+00 -0.00000000000E+00 -0.79730722015E+02  0.79730722015E+02  0.00000000000E+00 0. -1.
         21    1    1    2  503  501  0.49784000540E+02  0.14149091622E+01 -0.79532197115E+01  0.50435130430E+02  0.00000000000E+00 0. -1.
         21    1    1    2  504  505  0.31989153209E+02 -0.48725524366E+02  0.34998753756E+02  0.67988200537E+02  0.00000000000E+00 0.  1.
         21    1    1    2  505  502 -0.59309981060E+02 -0.34383666542E+02  0.54830561253E+01  0.68774808489E+02  0.00000000000E+00 0. -1.
          1    1    1    2  501    0 -0.22463172688E+02  0.81694281746E+02  0.74663446543E+03  0.75142636018E+03  0.00000000000E+00 0.  1.
<scales pt_clust_3="49.80410" pt_clust_4="81.04668" pt_clust_5="43.74575" pt_clust_6="14000.00000"></scales>
<clustering>
<clus scale="   49.804">  2  3  1 -1</clus>
<clus scale="   43.746">  2  5  1 -1</clus>
<clus scale="   81.047">  2  4  1 -1</clus>
<clus scale="   49.804">  2  3  1 -1</clus>
</clustering>
</event>
<event>
 6    0  0.4017242E+002  0.2067594E+03  0.7546771E-02  0.1144158E+00
         21   -1    0    0  503  502  0.00000000000E+00  0.00000000000E+00  0.20822671218E+04  0.20822671218E+04  0.00000000000E+00 0. -1.
          1   -1    0    0  504    0 -0.00000000000E+00 -0.00000000000E+00 -0.75847818065E+03  0.75847818065E+03  0.00000000000E+00 0. -1.
         21    1    1    2  503  505  0.17003985977E+03 -0.95643291960E+02  0.48865132951E+03  0.52615712011E+03  0.00000000000E+00 0. -1.
         21    1    1    2  504  502  0.83928127469E+01 -0.40190923650E+02  0.14721211371E+04  0.14726935839E+04  0.00000000000E+00 0. -1.
         21    1    1    2  505  501 -0.20462754085E+02  0.21166519553E+03 -0.35736851640E+02  0.21563395342E+03  0.00000000000E+00 0.  1.
          1    1    1    2  501    0 -0.15796991843E+03 -0.75830979917E+02 -0.60124667387E+03  0.62626064500E+03  0.00000000000E+00 0. -1.
<scales pt_clust_3="206.75938" pt_clust_4="41.05788" pt_clust_5="14000.00000" pt_clust_6="175.43137"></scales>
<clustering>
<clus scale="   41.058">  1  4  2 -1</clus>
<clus scale="  175.431">  2  6  1 -1</clus>
<clus scale="  206.759">  1  3  2 -1</clus>
<clus scale="   41.058">  1  3  2 -1</clus>
</clustering>
</event>
<event>
 6    0  0.4017242E+002  0.1575814E+03  0.7546771E-02  0.1191455E+00
         21   -1    0    0  505  502  0.00000000000E+00  0.00000000000E+00  0.30913427111E+03  0.30913427111E+03  0.00000000000E+00 0.  1.
          2   -1    0    0  504    0 -0.00000000000E+00 -0.00000000000E+00 -0.23398298066E+04  0.23398298066E+04  0.00000000000E+00 0. -1.
         21    1    1    2  503  502  0.64694753021E+01 -0.54425213336E+02  0.11487780898E+03  0.12728263414E+03  0.00000000000E+00 0.  1.
         21    1    1    2  504  503  0.82225786242E+02 -0.60316923470E+02  0.12001179419E+03  0.15748664046E+03  0.00000000000E+00 0.  1.
         21    1    1    2  505  501 -0.55061446002E+02  0.11839790423E+03 -0.37500443485E+02  0.13585326578E+03  0.00000000000E+00 0. -1.
          2    1    1    2  501    0 -0.33633815542E+02 -0.36557674200E+01 -0.22280846952E+04  0.22283415373E+04  0.00000000000E+00 0. -1.
<scales pt_clust_3="52.32706" pt_clust_4="52.32706" pt_clust_5="141.22352" pt_clust_6="33.83191"></scales>
<clustering>
<clus scale="   33.832">  2  6  1 -1</clus>
<clus scale="   52.327">  3  4 -1 -1</clus>
<clus scale="  141.224">  2  5  1 -1</clus>
<clus scale="  157.581">  1  3  2 -1</clus>
</clustering>
</event>
<event>
 6    0  0.4017242E+002  0.2683518E+03  0.7546771E-02  0.1102227E+00
          1   -1    0    0  503    0 -0.00000000000E+00  0.00000000000E+00  0.11202004661E+04  0.11202004661E+04  0.00000000000E+00 0. -1.
         21   -1    0    0  501  502  0.00000000000E+00 -0.00000000000E+00 -0.34533280716E+03  0.34533280716E+03  0.00000000000E+00 0. -1.
         21    1    1    2  503  505 -0.84967058333E+02  0.90120825011E+02  0.82226522141E+02  0.14866864177E+03  0.00000000000E+00 0. -1.
         21    1    1    2  504  502  0.93837824541E+02 -0.13181752847E+03 -0.19020341142E+03  0.24971731186E+03  0.00000000000E+00 0. -1.
         21    1    1    2  505  504  0.25921601254E+02 -0.10207497240E+03 -0.54238501378E+02  0.11846115158E+03  0.00000000000E+00 0.  1.
          1    1    1    2  501    0 -0.34792367463E+02  0.14377167586E+03  0.93708304957E+03  0.94868616802E+03  0.00000000000E+00 0. -1.
<scales pt_clust_3="123.85945" pt_clust_4="66.30951" pt_clust_5="66.30951" pt_clust_6="255.45488"></scales>
<clustering>
<clus scale="   66.310">  4  5 -1 -1</clus>
<clus scale="  123.859">  1  3  2 -1</clus>
<clus scale="  255.455">  1  6  2 -1</clus>
<clus scale="  268.352">  2  3  1 -1</clus>
</clustering>
</event>
<event>
 6    0  0.4017242E+002  0.1295421E+03  0.7546771E-02  0.1228137E+00
         21   -1    0    0  505  502  0.00000000000E+00  0.00000000000E+00  0.19560022703E+03  0.19560022703E+03  0.00000000000E+00 0.  1.
          2   -1    0    0  503    0 -0.00000000000E+00 -0.00000000000E+00 -0.11760935435E+04  0.11760935435E+04  0.00000000000E+00 0.  1.
         21    1    1    2  503  502  0.71401789311E+02 -0.44464535430E+02 -0.15174155299E+03  0.17349584816E+03  0.00000000000E+00 0.  1.
         21    1    1    2  504  501 -0.13200961749E+03 -0.96852320813E+02 -0.14161167351E+03  0.21647350237E+03  0.00000000000E+00 0.  1.
         21    1    1    2  505  504 -0.15704739383E+02  0.41157899382E+02  0.13911829570E+03  0.14592639144E+03  0.00000000000E+00 0.  1.
          2    1    1    2  501    0  0.76312567559E+02  0.10015895686E+03 -0.82625838564E+03  0.83579802850E+03  0.00000000000E+00 0.  1.
<scales pt_clust_3="77.11778" pt_clust_4="129.54206" pt_clust_5="44.05237" pt_clust_6="14000.00000"></scales>
<clustering>
<clus scale="   44.052">  1  5  2 -1</clus>
<clus scale="   77.118">  1  3  2 -1</clus>
<clus scale="  129.542">  1  4  2 -1</clus>
<clus scale="   44.052">  1  3  2 -1</clus>
</clustering>
</event>
<event>
 6    0  0.4017242E+002  0.9420034E+02  0.7546771E-02  0.1292987E+00
         21   -1    0    0  501  502  0.00000000000E+00  0.00000000000E+00  0.93949134700E+03  0.93949134700E+03  0.00000000000E+00 0. -1.
          2   -1    0    0  505    0 -0.00000000000E+00 -0.00000000000E+00 -0.12306280742E+04  0.12306280742E+04  0.00000000000E+00 0. -1.
         21    1    1    2  503  502  0.15216043036E+02 -0.45430481513E+02  0.53789790001E+03  0.54002741362E+03  0.00000000000E+00 0. -1.
         21    1    1    2  504  503  0.35900825083E+02 -0.25849681421E+02  0.35306008089E+03  0.35582087627E+03  0.00000000000E+00 0. -1.
         21    1    1    2  505  504 -0.10316904231E+03  0.66610288457E+02 -0.37383921070E+02  0.12836798422E+03  0.00000000000E+00 0. -1.
          2    1    1    2  501    0  0.52052174187E+02  0.46698744768E+01 -0.11447107871E+04  0.11459031471E+04  0.00000000000E+00 0. -1.
<scales pt_clust_3="31.05164" pt_clust_4="31.05164" pt_clust_5="88.48426" pt_clust_6="52.26123"></scales>
<clustering>
<clus scale="   31.052">  3  4 -1 -1</clus>
<clus scale="   52.261">  2  6  1 -1</clus>
<clus scale="   88.484">  2  5  1 -1</clus>
<clus scale="   94.200">  1  3  2 -1</clus>
</clustering>
</event>
<event>
 6    0  0.4017242E+002  0.1635339E+03  0.7546771E-02  0.1184764E+00
          2   -1    0    0  505    0 -0.00000000000E+00  0.00000000000E+00  0.50683011715E+03  0.50683011715E+03  0.00000000000E+00 0. -1.
         21   -1    0    0  503  502  0.00000000000E+00 -0.00000000000E+00 -0.40635416454E+03  0.40635416454E+03  0.00000000000E+00 0.  1.
         21    1    1    2  503  501 -0.49511549909E+01 -0.48304626396E+02 -0.34196695592E+02  0.59390780905E+02  0.00000000000E+00 0.  1.
         21    1    1    2  504  502  0.86477836885E+02 -0.37869828161E+02 -0.22785134253E+03  0.24663490112E+03  0.00000000000E+00 0.  1.
         21    1    1    2  505  504  0.56264190267E+02  0.17630927834E+02 -0.10199410162E+03  0.11781046425E+03  0.00000000000E+00 0.  1.
          2    1    1    2  501    0 -0.13779087216E+03  0.68543526723E+02  0.46451809235E+03  0.48934813541E+03  0.00000000000E+00 0. -1.
<scales pt_clust_3="48.55771" pt_clust_4="44.96669" pt_clust_5="44.96669" pt_clust_6="153.31607"></scales>
<clustering>
<clus scale="   44.967">  4  5 -1 -1</clus>
<clus scale="   48.558">  2  3  1 -1</clus>
<clus scale="  153.316">  1  6  2 -1</clus>
<clus scale="   48.558">  2  3  1 -1</clus>
</clustering>
</event>
<event>
 6    0  0.4017242E+002  0.1960591E+03  0.7546771E-02  0.1153107E+00
          2   -1    0    0  505    0 -0.00000000000E+00  0.00000000000E+00  0.21139137064E+04  0.21139137064E+04  0.00000000000E+00 0.  1.
         21   -1    0    0  504  502  0.00000000000E+00 -0.00000000000E+00 -0.75612378444E+02  0.75612378444E+02  0.00000000000E+00 0.  1.
         21    1    1    2  503  502  0.27274426611E+02 -0.21256843855E+03  0.36670448092E+03  0.42473687353E+03  0.00000000000E+00 0.  1.
         21    1    1    2  504  501 -0.30400044728E+02  0.25833931919E+02 -0.27153148850E+02  0.48258141803E+02  0.00000000000E+00 0.  1.
         21    1    1    2  505  503  0.26286726684E+02 -0.19732938296E+02  0.13036339135E+03  0.13444327673E+03  0.00000000000E+00 0. -1.
          2    1    1    2  501    0 -0.23161108567E+02  0.20646744493E+03  0.15683866045E+04  0.15820877927E+04  0.00000000000E+00 0.  1.
<scales pt_clust_3="14000.00000" pt_clust_4="39.71957" pt_clust_5="32.86915" pt_clust_6="196.05908"></scales>
<clustering>
<clus scale="   32.869">  1  5  2 -1</clus>
<clus scale="   39.720">  2  4  1 -1</clus>
<clus scale="  196.059">  1  6  2 -1</clus>
<clus scale="   39.720">  2  3  1 -1</clus>
</clustering>
</event>
<event>
 6    0  0.4017242E+002  0.1525977E+03  0.7546771E-02  0.1197317E+00
         21   -1    0    0  505  502  0.00000000000E+00  0.00000000000E+00  0.14486850624E+04  0.14486850624E+04  0.00000000000E+00 0.  1.
          1   -1    0    0  503    0 -0.00000000000E+00 -0.00000000000E+00 -0.79139311699E+03  0.79139311699E+03  0.00000000000E+00 0.  1.
         21    1    1    2  503  504  0.31547367312E+02 -0.17652928024E+03  0.31936738557E+03  0.36626950478E+03  0.00000000000E+00 0.  1.
         21    1    1    2  504  502  0.43417213460E+02  0.49731356879E+02  0.19311225625E+03  0.20408480051E+03  0.00000000000E+00 0.  1.
         21    1    1    2  505  501 -0.18089969979E+03  0.17526461145E+02  0.89040103551E+03  0.90876062979E+03  0.00000000000E+00 0.  1.
          1    1    1    2  501    0  0.10593511902E+03  0.10927146222E+03 -0.74558873197E+03  0.76096324427E+03  0.00000000000E+00 0.  1.
<scales pt_clust_3="14000.00000" pt_clust_4="66.01714" pt_clust_5="145.31660" pt_clust_6="152.59773"></scales>
<clustering>
<clus scale="   66.017">  1  4  2 -1</clus>
<clus scale="  152.598">  2  6  1 -1</clus>
<clus scale="  145.317">  1  5  2 -1</clus>
<clus scale="   66.017">  1  3  2 -1</clus>
</clustering>
</event>
<event>
 6    0  0.4017242E+002  0.1508711E+03  0.7546771E-02  0.1199407E+00
         21   -1    0    0  504  502  0.00000000000E+00  0.00000000000E+00  0.49249837729E+03  0.49249837729E+03  0.00000000000E+00 0. -1.
         -2   -1    0    0    0  501 -0.00000000000E+00 -0.00000000000E+00 -0.53281529185E+03  0.53281529185E+03  0.00000000000E+00 0. -1.
         21    1    1    2  503  502 -0.35135739555E+02  0.30031210537E+02  0.23200587569E+03  0.23656525560E+03  0.00000000000E+00 0. -1.
         21    1    1    2  504  505  0.50636115029E+02 -0.97928588519E+01  0.12156492467E+03  0.13205281950E+03  0.00000000000E+00 0. -1.
         21    1    1    2  505  501  0.13552378774E+03  0.10271088747E+01  0.81020347847E+02  0.15789885611E+03  0.00000000000E+00 0. -1.
         -2    1    1    2    0  503 -0.15102416321E+03 -0.21265460560E+02 -0.47490806277E+03  0.49879673793E+03  0.00000000000E+00 0. -1.
<scales pt_clust_3="46.22114" pt_clust_4="33.74671" pt_clust_5="150.87105" pt_clust_6="14000.00000"></scales>
<clustering>
<clus scale="   46.221">  1  3  2 -1</clus>
<clus scale="   33.747">  1  4  2 -1</clus>
<clus scale="  150.871">  1  5  2 -1</clus>
<clus scale="   46.221">  1  3  2 -1</clus>
</clustering>
</event>
<event>
 6    0  0.4017242E+002  0.8231555E+02  0.7546771E-02  0.1322606E+00
         21   -1    0    0  504  502  0.00000000000E+00  0.00000000000E+00  0.35908405098E+03  0.35908405098E+03  0.00000000000E+00 0.  1.
          2   -1    0    0  505    0 -0.00000000000E+00 -0.00000000000E+00 -0.37980557303E+04  0.37980557303E+04  0.00000000000E+00 0.  1.
         21    1    1    2  503  502 -0.50358809790E+02  0.65146109086E+02  0.34947261736E+03  0.35904196905E+03  0.00000000000E+00 0.  1.
         21    1    1    2  504  501  0.11448448673E+03 -0.33373815268E+01 -0.17965827038E+04  0.18002297763E+04  0.00000000000E+00 0.  1.
         21    1    1    2  505  503 -0.34914096527E+02 -0.38333076520E+02 -0.23696255490E+03  0.24256890014E+03  0.00000000000E+00 0. -1.
          2    1    1    2  501    0 -0.29211580409E+02 -0.23475651039E+02 -0.17548990380E+04  0.17552991358E+04  0.00000000000E+00 0.  1.
<scales pt_clust_3="14000.00000" pt_clust_4="82.31555" pt_clust_5="56.19951" pt_clust_6="37.47563"></scales>
<clustering>
<clus scale="   37.476">  2  6  1 -1</clus>
<clus scale="   56.200">  2  5  1 -1</clus>
<clus scale="   82.316">  2  4  1 -1</clus>
<clus scale="   82.316">  1  3  2 -1</clus>
</clustering>
</event>
<event>
 6    0  0.4017242E+002  0.9025521E+02  0.7546771E-02  0.1302235E+00
          1   -1    0    0  502    0 -0.00000000000E+00  0.00000000000E+00  0.11229064006E+04  0.11229064006E+04  0.00000000000E+00 0.  1.
         21   -1    0    0  505  502  0.00000000000E+00 -0.00000000000E+00 -0.23174496527E+02  0.23174496527E+02  0.00000000000E+00 0.  1.
         21    1    1    2  503  501  0.45296570854E+02  0.11485641996E+03  0.34481215891E+03  0.36625018972E+03  0.00000000000E+00 0.  1.
         21    1    1    2  504  503 -0.50292654932E+02 -0.18288464513E+02  0.12618051436E+03  0.13705962673E+03  0.00000000000E+00 0.  1.
         21    1    1    2  505  504  0.25496231776E+02 -0.17669535129E+02  0.53969080047E+02  0.62248951056E+02  0.00000000000E+00 0.  1.
          1    1    1    2  501    0 -0.20500147698E+02 -0.78898420318E+02  0.57477015071E+03  0.58052212958E+03  0.00000000000E+00 0.  1.
<scales pt_clust_3="14000.00000" pt_clust_4="48.93078" pt_clust_5="31.02048" pt_clust_6="90.25521"></scales>
<clustering>
<clus scale="   31.020">  2  5  1 -1</clus>
<clus scale="   48.931">  2  4  1 -1</clus>
<clus scale="   90.255">  1  6  2 -1</clus>
<clus scale="   31.020">  2  3  1 -1</clus>
</clustering>
</event>
<event>
 6    0  0.4017242E+002  0.9664260E+02  0.7546771E-02  0.1287519E+00
          1   -1    0    0  504    0 -0.00000000000E+00  0.00000000000E+00  0.16207356101E+04  0.16207356101E+04  0.00000000000E+00 0.  1.
         21   -1    0    0  501  502  0.00000000000E+00 -0.00000000000E+00 -0.50532277678E+02  0.50532277678E+02  0.00000000000E+00 0. -1.
         21    1    1    2  503  505  0.23815812830E+02  0.10989551904E+03  0.10693682850E+03  0.15517636204E+03  0.00000000000E+00 0. -1.
         21    1    1    2  504  503  0.19270793385E+02 -0.40277661299E+02  0.33702844225E+03  0.33997327007E+03  0.00000000000E+00 0.  1.
         21    1    1    2  505  502 -0.34481430509E+02 -0.10274262351E+02 -0.10749109605E+02  0.37550937061E+02  0.00000000000E+00 0.  1.
          1    1    1    2  501    0 -0.86051757057E+01 -0.59343595387E+02  0.11369871713E+04  0.11385673186E+04  0.00000000000E+00 0.  1.
<scales pt_clust_3="14000.00000" pt_clust_4="44.38138" pt_clust_5="35.97957" pt_clust_6="96.64260"></scales>
<clustering>
<clus scale="   35.980">  2  5  1 -1</clus>
<clus scale="   44.381">  1  4  2 -1</clus>
<clus scale="   96.643">  1  6  2 -1</clus>
<clus scale="   35.980">  2  3  1 -1</clus>
</clustering>
</event>
<event>
 6    0  0.4017242E+002  0.1453711E+03  0.7546771E-02  0.1206279E+00
         -4   -1    0    0    0  501 -0.00000000000E+00  0.00000000000E+00  0.27405524406E+03  0.27405524406E+03  0.00000000000E+00 0.  1.
         21   -1    0    0  503  502  0.00000000000E+00 -0.00000000000E+00 -0.68861745754E+03  0.68861745754E+03  0.00000000000E+00 0.  1.
         21    1    1    2  503  501 -0.14476968011E+03 -0.36546089998E+02 -0.51271054349E+03  0.53400934297E+03  0.00000000000E+00 0.  1.
         21    1    1    2  504  502  0.12748260471E+03  0.40860816714E+02 -0.11001163456E+03  0.17327429292E+03  0.00000000000E+00 0.  1.
         21    1    1    2  505  504  0.10974074409E+02 -0.36306227480E+02 -0.63139207955E+01  0.38450462400E+02  0.00000000000E+00 0.  1.
         -4    1    1    2    0  505  0.63130009927E+01  0.31991500765E+02  0.21447388537E+03  0.21693860332E+03  0.00000000000E+00 0.  1.
<scales pt_clust_3="14000.00000" pt_clust_4="145.37108" pt_clust_5="30.29287" pt_clust_6="32.60844"></scales>
<clustering>
<clus scale="   32.608">  1  6  2 -1</clus>
<clus scale="   30.293">  1  5  2 -1</clus>
<clus scale="  145.371">  1  4  2 -1</clus>
<clus scale="  145.371">  2  3  1 -1</clus>
</clustering>
</event>
<event>
 6    0  0.4017242E+002  0.9417045E+02  0.7546771E-02  0.1293055E+00
         21   -1    0    0  503  502  0.00000000000E+00  0.00000000000E+00  0.53783857780E+02  0.53783857780E+02  0.00000000000E+00 0.  1.
          1   -1    0    0  505    0 -0.00000000000E+00 -0.00000000000E+00 -0.12071729725E+04  0.12071729725E+04  0.00000000000E+00 0.  1.
         21    1    1    2  503  504 -0.17632647447E+02  0.49204570510E+02  0.64350562510E+01  0.52663174649E+02  0.00000000000E+00 0.  1.
         21    1    1    2  504  501  0.99470045658E+02 -0.14081156620E+01 -0.17274806071E+03  0.19934433840E+03  0.00000000000E+00 0. -1.
         21    1    1    2  505  502 -0.73197762119E+02 -0.76781883362E+02 -0.25416815652E+03  0.27541754080E+03  0.00000000000E+00 0.  1.
          1    1    1    2  501    0 -0.86396360919E+01  0.28985428513E+02 -0.73290795374E+03  0.73353177643E+03  0.00000000000E+00 0.  1.
<scales pt_clust_3="53.74145" pt_clust_4="94.17045" pt_clust_5="14000.00000" pt_clust_6="30.24563"></scales>
<clustering>
<clus scale="   30.246">  2  6  1 -1</clus>
<clus scale="   53.741">  1  3  2 -1</clus>
<clus scale="   94.170">  1  4  2 -1</clus>
<clus scale="   53.741">  1  3  2 -1</clus>
</clustering>
</event>
<event>
 6    0  0.4017242E+002  0.7688029E+02  0.7546771E-02  0.1338145E+00
          2   -1    0    0  505    0 -0.00000000000E+00  0.00000000000E+00  0.85686160710E+03  0.85686160710E+03  0.00000000000E+00 0.  1.
         21   -1    0    0  504  502  0.00000000000E+00 -0.00000000000E+00 -0.32250920245E+02  0.32250920245E+02  0.00000000000E+00 0.  1.
         21    1    1    2  503  502 -0.98769218763E+02  0.14993155464E+02  0.10716520346E+03  0.14650779542E+03  0.00000000000E+00 0.  1.
         21    1    1    2  504  501  0.57735006738E+02 -0.33974961592E+00  0.99705586668E+02  0.11521566927E+03  0.00000000000E+00 0.  1.
         21    1    1    2  505  503 -0.21256368475E+02  0.23234689805E+02  0.10922122816E+03  0.11367040377E+03  0.00000000000E+00 0. -1.
          2    1    1    2  501    0  0.62290580499E+02 -0.37888095653E+02  0.50851866857E+03  0.51371865889E+03  0.00000000000E+00 0.  1.
<scales pt_clust_3="14000.00000" pt_clust_4="76.88029" pt_clust_5="31.49101" pt_clust_6="52.52477"></scales>
<clustering>
<clus scale="   31.491">  1  5  2 -1</clus>
<clus scale="   52.525">  1  6  2 -1</clus>
<clus scale="   76.880">  2  4  1 -1</clus>
<clus scale="   76.880">  2  3  1 -1</clus>
</clustering>
</event>
<event>
 6    0  0.4017242E+002  0.1471938E+03  0.7546771E-02  0.1203964E+00
          2   -1    0    0  504    0 -0.00000000000E+00  0.00000000000E+00  0.42702017475E+03  0.42702017475E+03  0.00000000000E+00 0.  1.
         21   -1    0    0  503  502  0.00000000000E+00 -0.00000000000E+00 -0.14252566609E+03  0.14252566609E+03  0.00000000000E+00 0.  1.
         21    1    1    2  503  505  0.89817845326E+02 -0.95683032664E+02  0.10842113503E+03  0.17022817217E+03  0.00000000000E+00 0. -1.
         21    1    1    2  504  502 -0.21496506283E+02  0.16391581998E+03 -0.15740026727E+02  0.16606698728E+03  0.00000000000E+00 0.  1.
         21    1    1    2  505  501 -0.61909549958E+02 -0.17735427203E+02  0.46929980293E+02  0.79685386391E+02  0.00000000000E+00 0.  1.
          2    1    1    2  501    0 -0.64117890846E+01 -0.50497360115E+02  0.14488342006E+03  0.15356529499E+03  0.00000000000E+00 0.  1.
<scales pt_clust_3="14000.00000" pt_clust_4="147.19382" pt_clust_5="69.79276" pt_clust_6="50.90279"></scales>
<clustering>
<clus scale="   50.903">  1  6  2 -1</clus>
<clus scale="   69.793">  1  5  2 -1</clus>
<clus scale="  147.194">  2  4  1 -1</clus>
<clus scale="  147.194">  2  3  1 -1</clus>
</clustering>
</event>
<event>
 6    0  0.4017242E+002  0.7378577E+02  0.7546771E-02  0.1347673E+00
         21   -1    0    0  503  502  0.00000000000E+00  0.00000000000E+00  0.94215255961E+02  0.94215255961E+02  0.00000000000E+00 0. -1.
          1   -1    0    0  504    0 -0.00000000000E+00 -0.00000000000E+00 -0.71108475077E+03  0.71108475077E+03  0.00000000000E+00 0.  1.
         21    1    1    2  503  501 -0.96863523011E+01  0.66751293344E+02 -0.10969153925E+03  0.12877031633E+03  0.00000000000E+00 0. -1.
         21    1    1    2  504  505 -0.80044701737E+02 -0.67066058009E+02 -0.21635945382E+03  0.24024242687E+03  0.00000000000E+00 0. -1.
         21    1    1    2  505  502  0.40192336393E+02  0.12548124325E+02  0.64662349580E+02  0.77162806986E+02  0.00000000000E+00 0. -1.
          1    1    1    2  501    0  0.49538717644E+02 -0.12233359660E+02 -0.35548085132E+03  0.35912445654E+03  0.00000000000E+00 0.  1.
<scales pt_clust_3="73.78577" pt_clust_4="14000.00000" pt_clust_5="42.10557" pt_clust_6="53.86927"></scales>
<clustering>
<clus scale="   42.106">  1  5  2 -1</clus>
<clus scale="   53.869">  2  6  1 -1</clus>
<clus scale="   73.786">  1  3  2 -1</clus>
<clus scale="   42.106">  1  3  2 -1</clus>
</clustering>
</event>
<event>
 6    0  0.4017242E+002  0.7464573E+02  0.7546771E-02  0.1344972E+00
          2   -1    0    0  503    0 -0.00000000000E+00  0.00000000000E+00  0.56918926341E+03  0.56918926341E+03  0.00000000000E+00 0. -1.
         21   -1    0    0  504  502  0.00000000000E+00 -0.00000000000E+00 -0.26400485380E+03  0.26400485380E+03  0.00000000000E+00 0.  1.
         21    1    1    2  503  505 -0.13634495408E+03  0.60638327544E+01  0.27126542554E+02  0.13914943723E+03  0.00000000000E+00 0. -1.
         21    1    1    2  504  501  0.32137607683E+02 -0.19271929030E+02 -0.33369148381E+02  0.50177018044E+02  0.00000000000E+00 0.  1.
         21    1    1    2  505  502  0.33178049322E+02  0.22888355796E+02 -0.16103264843E+03  0.16600052303E+03  0.00000000000E+00 0.  1.
          2    1    1    2  501    0  0.71029297072E+02 -0.96802595199E+01  0.47245966387E+03  0.47786713891E+03  0.00000000000E+00 0. -1.
<scales pt_clust_3="14000.00000" pt_clust_4="37.47310" pt_clust_5="57.48806" pt_clust_6="74.64573"></scales>
<clustering>
<clus scale="   37.473">  2  4  1 -1</clus>
<clus scale="   57.488">  2  5  1 -1</clus>
<clus scale="   74.646">  1  6  2 -1</clus>
<clus scale="   37.473">  2  3  1 -1</clus>
</clustering>
</event>
<event>
 6    0  0.4017242E+002  0.9043555E+02  0.7546771E-02  0.1301800E+00
         21   -1    0    0  504  502  0.00000000000E+00  0.00000000000E+00  0.37632990658E+02  0.37632990658E+02  0.00000000000E+00 0.  1.
          2   -1    0    0  505    0 -0.00000000000E+00 -0.00000000000E+00 -0.15319531693E+04  0.15319531693E+04  0.00000000000E+00 0.  1.
         21    1    1    2  503  501  0.76419919626E+02  0.25949564151E+02 -0.64316262825E+02  0.10319867082E+03  0.00000000000E+00 0.  1.
         21    1    1    2  504  503 -0.48196382813E+01  0.52606620072E+02 -0.43650545239E+02  0.68527771657E+02  0.00000000000E+00 0.  1.
         21    1    1    2  505  502 -0.40127450227E+02  0.98369538384E+01 -0.10152457734E+03  0.10960938704E+03  0.00000000000E+00 0.  1.
          2    1    1    2  501    0 -0.31472831117E+02 -0.88393138062E+02 -0.12848287932E+04  0.12882503304E+04  0.00000000000E+00 0.  1.
<scales pt_clust_3="90.43555" pt_clust_4="59.59224" pt_clust_5="41.31559" pt_clust_6="14000.00000"></scales>
<clustering>
<clus scale="   41.316">  1  5  2 -1</clus>
<clus scale="   59.592">  1  4  2 -1</clus>
<clus scale="   90.436">  1  3  2 -1</clus>
<clus scale="   41.316">  1  3  2 -1</clus>
</clustering>
</event>
<event>
 6    0  0.4017242E+002  0.6525520E+02  0.7546771E-02  0.1377014E+00
         21   -1    0    0  503  502  0.00000000000E+00  0.00000000000E+00  0.82730074331E+03  0.82730074331E+03  0.00000000000E+00 0.  1.
         -2   -1    0    0    0  501 -0.00000000000E+00 -0.00000000000E+00 -0.35193102451E+03  0.35193102451E+03  0.00000000000E+00 0.  1.
         21    1    1    2  503  505 -0.10279606338E+03  0.15384297668E+02  0.49748099492E+03  0.50822342288E+03  0.00000000000E+00 0.  1.
         21    1    1    2  504  502  0.37855579499E+02 -0.35400414395E+02  0.40178884243E+02  0.65578784509E+02  0.00000000000E+00 0.  1.
         21    1    1    2  505  501  0.26010772294E+02  0.65154187483E+02  0.26429602417E+03  0.27344838053E+03  0.00000000000E+00 0. -1.
         -2    1    1    2    0  504  0.38929711582E+02 -0.45138070756E+02 -0.32658618453E+03  0.33198117989E+03  0.00000000000E+00 0.  1.
<scales pt_clust_3="14000.00000" pt_clust_4="51.82889" pt_clust_5="65.25520" pt_clust_6="59.78628"></scales>
<clustering>
<clus scale="   51.829">  1  4  2 -1</clus>
<clus scale="   59.786">  2  6  1 -1</clus>
<clus scale="   65.255">  2  5  1 -1</clus>
<clus scale="   51.829">  1  3  2 -1</clus>
</clustering>
</event>
<event>
 6    0  0.4017242E+002  0.1463105E+03  0.7546771E-02  0.1205081E+00
          2   -1    0    0  504    0 -0.00000000000E+00  0.00000000000E+00  0.50840989457E+02  0.50840989457E+02  0.00000000000E+00 0. -1.
         21   -1    0    0  503  502  0.00000000000E+00 -0.00000000000E+00 -0.12129466967E+04  0.12129466967E+04  0.00000000000E+00 0. -1.
         21    1    1    2  503  501  0.13227670555E+03 -0.57159492558E+02 -0.67134972918E+03  0.68664022114E+03  0.00000000000E+00 0. -1.
         21    1    1    2  504  505 -0.47098250401E+02  0.75629643664E+02 -0.30313706465E+03  0.31595912419E+03  0.00000000000E+00 0. -1.
         21    1    1    2  505  502 -0.51208741963E+02  0.15277650772E+02 -0.20376479843E+03  0.21065572611E+03  0.00000000000E+00 0. -1.
          2    1    1    2  501    0 -0.33969713182E+02 -0.33747801877E+02  0.16145885028E+02  0.50532614702E+02  0.00000000000E+00 0. -1.
<scales pt_clust_3="137.70060" pt_clust_4="38.29719" pt_clust_5="38.29719" pt_clust_6="47.88377"></scales>
<clustering>
<clus scale="   38.297">  4  5 -1 -1</clus>
<clus scale="   47.884">  1  6  2 -1</clus>
<clus scale="  137.701">  2  3  1 -1</clus>
<clus scale="  137.701">  2  3  1 -1</clus>
</clustering>
</event>
<event>
 6    0  0.4017242E+002  0.1545826E+03  0.7546771E-02  0.1194952E+00
          2   -1    0    0  505    0 -0.00000000000E+00  0.00000000000E+00  0.10490246911E+04  0.10490246911E+04  0.00000000000E+00 0.  1.
         21   -1    0    0  503  502  0.00000000000E+00 -0.00000000000E+00 -0.70459051357E+03  0.70459051357E+03  0.00000000000E+00 0.  1.
         21    1    1    2  503  501 -0.45185574923E+02 -0.14160603107E+03 -0.49378267583E+03  0.51566979276E+03  0.00000000000E+00 0.  1.
         21    1    1    2  504  502 -0.19060553772E+02  0.63119851530E+02 -0.64883245917E+02  0.92505437505E+02  0.00000000000E+00 0.  1.
         21    1    1    2  505  504  0.18018061680E+02  0.96094834606E+02 -0.10073920945E+03  0.14038253490E+03  0.00000000000E+00 0.  1.
          2    1    1    2  501    0  0.46228067015E+02 -0.17608655070E+02  0.10038393087E+04  0.10050574395E+04  0.00000000000E+00 0.  1.
<scales pt_clust_3="149.80046" pt_clust_4="31.33130" pt_clust_5="31.33130" pt_clust_6="49.46816"></scales>
<clustering>
<clus scale="   31.331">  4  5 -1 -1</clus>
<clus scale="   49.468">  1  6  2 -1</clus>
<clus scale="  149.800">  2  3  1 -1</clus>
<clus scale="  149.800">  2  3  1 -1</clus>
</clustering>
</event>
<event>
 6    0  0.4017242E+002  0.1042984E+03  0.7546771E-02  0.1271508E+00
          2   -1    0    0  505    0 -0.00000000000E+00  0.00000000000E+00  0.27572410138E+04  0.27572410138E+04  0.00000000000E+00 0. -1.
         21   -1    0    0  503  502  0.00000000000E+00 -0.00000000000E+00 -0.15980390592E+02  0.15980390592E+02  0.00000000000E+00 0.  1.
         21    1    1    2  503  504 -0.65047193094E+02  0.72261191945E+01  0.17525032799E+03  0.18707226301E+03  0.00000000000E+00 0.  1.
         21    1    1    2  504  501 -0.56918640423E+02 -0.23379801434E+02  0.22600907604E+03  0.23423588367E+03  0.00000000000E+00 0.  1.
         21    1    1    2  505  502  0.30688322604E+02 -0.10928602503E+02  0.48440172930E+02  0.58375147541E+02  0.00000000000E+00 0. -1.
          2    1    1    2  501    0  0.91277510913E+02  0.27082284743E+02  0.22915610463E+04  0.22935381102E+04  0.00000000000E+00 0. -1.
<scales pt_clust_3="35.20955" pt_clust_4="35.20955" pt_clust_5="32.57618" pt_clust_6="97.58750"></scales>
<clustering>
<clus scale="   32.576">  2  5  1 -1</clus>
<clus scale="   35.210">  3  4 -1 -1</clus>
<clus scale="   97.588">  1  6  2 -1</clus>
<clus scale="   32.576">  2  3  1 -1</clus>
</clustering>
</event>
<event>
 6    0  0.4017242E+002  0.2808447E+03  0.7546771E-02  0.1095228E+00
         21   -1    0    0  505  502  0.00000000000E+00  0.00000000000E+00  0.21233576469E+04  0.21233576469E+04  0.00000000000E+00 0.  1.
         -1   -1    0    0    0  501 -0.00000000000E+00 -0.00000000000E+00 -0.61825942752E+03  0.61825942752E+03  0.00000000000E+00 0. -1.
         21    1    1    2  503  501  0.93917074165E+02  0.19824481188E+03 -0.75430902256E+02  0.23197250543E+03  0.00000000000E+00 0. -1.
         21    1    1    2  504  502 -0.73589724398E+02 -0.45593051187E+02 -0.84645196423E+02  0.12107428765E+03  0.00000000000E+00 0.  1.
         21    1    1    2  505  503  0.69322122924E+02  0.49238782775E+02  0.19921530218E+04  0.19939668194E+04  0.00000000000E+00 0.  1.
         -1    1    1    2    0  504 -0.89649472691E+02 -0.20189054347E+03 -0.32697870375E+03  0.39460346198E+03  0.00000000000E+00 0. -1.
<scales pt_clust_3="265.10305" pt_clust_4="58.03424" pt_clust_5="85.02949" pt_clust_6="58.03424"></scales>
<clustering>
<clus scale="   58.034">  4  6 -1 -1</clus>
<clus scale="   85.029">  1  5  2 -1</clus>
<clus scale="  265.103">  1  3  2 -1</clus>
<clus scale="   85.029">  1  3  2 -1</clus>
</clustering>
</event>
<event>
 6    0  0.4017242E+002  0.3591986E+03  0.7546771E-02  0.1058902E+00
          1   -1    0    0  504    0 -0.00000000000E+00  0.00000000000E+00  0.22114172570E+04  0.22114172570E+04  0.00000000000E+00 0.  1.
         21   -1    0    0  503  502  0.00000000000E+00 -0.00000000000E+00 -0.11782492837E+03  0.11782492837E+03  0.00000000000E+00 0. -1.
         21    1    1    2  503  501  0.87163858971E+01 -0.11986209040E+03  0.30781156560E+03  0.33044039707E+03  0.00000000000E+00 0. -1.
         21    1    1    2  504  505 -0.24943186104E+01  0.25776334600E+03  0.28887989069E+03  0.38716889778E+03  0.00000000000E+00 0. -1.
         21    1    1    2  505  502 -0.13216703530E+03  0.70993868952E+02  0.72735718562E+02  0.16672953969E+03  0.00000000000E+00 0.  1.
          1    1    1    2  501    0  0.12594496801E+03 -0.20889512455E+03  0.14241651538E+04  0.14449033509E+04  0.00000000000E+00 0.  1.
<scales pt_clust_3="112.93463" pt_clust_4="321.14886" pt_clust_5="150.02751" pt_clust_6="112.93463"></scales>
<clustering>
<clus scale="  112.935">  3  6 -1 -1</clus>
<clus scale="  150.028">  2  5  1 -1</clus>
<clus scale="  321.149">  2  4  1 -1</clus>
<clus scale="  150.028">  2  3  1 -1</clus>
</clustering>
</event>
<event>
 6    0  0.4017242E+002  0.8542148E+02  0.7546771E-02  0.1314334E+00
         21   -1    0    0  505  502  0.00000000000E+00  0.00000000000E+00  0.12937593973E+04  0.12937593973E+04  0.00000000000E+00 0.  1.
         -4   -1    0    0    0  501 -0.00000000000E+00 -0.00000000000E+00 -0.28756169500E+03  0.28756169500E+03  0.00000000000E+00 0.  1.
         21    1    1    2  503  504 -0.74309715842E+02  0.78805602933E+02  0.16803230360E+03  0.19991776303E+03  0.00000000000E+00 0. -1.
         21    1    1    2  504  502  0.51599349231E+02  0.52091543888E+01  0.10953807527E+04  0.10966077792E+04  0.00000000000E+00 0.  1.
         21    1    1    2  505  501 -0.67883237316E+01 -0.43162076088E+02 -0.32380609489E+02  0.54383361631E+02  0.00000000000E+00 0.  1.
         -4    1    1    2    0  503  0.29498690342E+02 -0.40852681233E+02 -0.22483474442E+03  0.23041218847E+03  0.00000000000E+00 0.  1.
<scales pt_clust_3="85.42148" pt_clust_4="51.83387" pt_clust_5="43.69263" pt_clust_6="14000.00000"></scales>
<clustering>
<clus scale="   43.693">  2  5  1 -1</clus>
<clus scale="   51.834">  1  4  2 -1</clus>
<clus scale="   85.421">  1  3  2 -1</clus>
<clus scale="   51.834">  1  3  2 -1</clus>
</clustering>
</event>
<event>
 6    0  0.4017242E+002  0.1702166E+03  0.7546771E-02  0.1177622E+00
         21   -1    0    0  505  502  0.00000000000E+00  0.00000000000E+00  0.19223465873E+02  0.19223465873E+02  0.00000000000E+00 0. -1.
          2   -1    0    0  503    0 -0.00000000000E+00 -0.00000000000E+00 -0.32557176584E+04  0.32557176584E+04  0.00000000000E+00 0. -1.
         21    1    1    2  503  504 -0.13791774267E+03  0.31278434710E+01 -0.74586883277E+03  0.75851921719E+03  0.00000000000E+00 0. -1.
         21    1    1    2  504  502 -0.76213709319E+02  0.52601575541E+02 -0.39460335259E+03  0.40532364983E+03  0.00000000000E+00 0. -1.
         21    1    1    2  505  501  0.79780739084E+02 -0.18266864712E+02 -0.34690633890E+03  0.35643043170E+03  0.00000000000E+00 0. -1.
          2    1    1    2  501    0  0.13435071291E+03 -0.37462554300E+02 -0.17491156682E+04  0.17546678255E+04  0.00000000000E+00 0. -1.
<scales pt_clust_3="57.32460" pt_clust_4="57.32460" pt_clust_5="81.84525" pt_clust_6="155.17189"></scales>
<clustering>
<clus scale="   57.325">  3  4 -1 -1</clus>
<clus scale="   81.845">  1  5  2 -1</clus>
<clus scale="  155.172">  2  6  1 -1</clus>
<clus scale="   81.845">  1  3  2 -1</clus>
</clustering>
</event>
<event>
 6    0  0.4017242E+002  0.9804850E+02  0.7546771E-02  0.1284454E+00
          1   -1    0    0  503    0 -0.00000000000E+00  0.00000000000E+00  0.19636178111E+04  0.19636178111E+04  0.00000000000E+00 0.  1.
         21   -1    0    0  504  502  0.00000000000E+00 -0.00000000000E+00 -0.20794535064E+03  0.20794535064E+03  0.00000000000E+00 0.  1.
         21    1    1    2  503  505 -0.85543805529E+02 -0.62131018634E+02  0.39071783482E+02  0.11271473021E+03  0.00000000000E+00 0.  1.
         21    1    1    2  504  501  0.69455406637E+02 -0.30387104308E+02 -0.10654311327E+03  0.13076262694E+03  0.00000000000E+00 0.  1.
         21    1    1    2  505  502  0.57785085545E+02  0.36006055999E+02 -0.29435743879E+02  0.74175570087E+02  0.00000000000E+00 0.  1.
          1    1    1    2  501    0 -0.41696686653E+02  0.56512066943E+02  0.18525795341E+04  0.18539102345E+04  0.00000000000E+00 0.  1.
<scales pt_clust_3="98.04850" pt_clust_4="14000.00000" pt_clust_5="68.08489" pt_clust_6="70.20768"></scales>
<clustering>
<clus scale="   68.085">  2  5  1 -1</clus>
<clus scale="   70.208">  1  6  2 -1</clus>
<clus scale="   98.048">  1  3  2 -1</clus>
<clus scale="   68.085">  2  3  1 -1</clus>
</clustering>
</event>
<event>
 6    0  0.4017242E+002  0.8645885E+02  0.7546771E-02  0.1311661E+00
         21   -1    0    0  505  502  0.00000000000E+00  0.00000000000E+00  0.70162531253E+02  0.70162531253E+02  0.00000000000E+00 0. -1.
          2   -1    0    0  503    0 -0.00000000000E+00 -0.00000000000E+00 -0.11269337022E+04  0.11269337022E+04  0.00000000000E+00 0. -1.
         21    1    1    2  503  504 -0.42825872446E+02  0.88464002314E+02 -0.19086990917E+03  0.21468874512E+03  0.00000000000E+00 0. -1.
         21    1    1    2  504  502  0.24466595536E+02  0.38921232869E+02 -0.58866220071E+02  0.74690752645E+02  0.00000000000E+00 0. -1.
         21    1    1    2  505  501  0.40463158342E+02 -0.42243791026E+02  0.30228537764E+02  0.65845042020E+02  0.00000000000E+00 0. -1.
          2    1    1    2  501    0 -0.22103881433E+02 -0.85141444157E+02 -0.83726357948E+03  0.84187169368E+03  0.00000000000E+00 0. -1.
<scales pt_clust_3="14000.00000" pt_clust_4="45.97256" pt_clust_5="60.58631" pt_clust_6="86.45885"></scales>
<clustering>
<clus scale="   45.973">  1  4  2 -1</clus>
<clus scale="   60.586">  1  5  2 -1</clus>
<clus scale="   86.459">  2  6  1 -1</clus>
<clus scale="   45.973">  1  3  2 -1</clus>
</clustering>
</event>
<event>
 6    0  0.4017242E+002  0.1196857E+03  0.7546771E-02  0.1243616E+00
          1   -1    0    0  505    0 -0.00000000000E+00  0.00000000000E+00  0.46142002431E+03  0.46142002431E+03  0.00000000000E+00 0.  1.
         21   -1    0    0  503  502  0.00000000000E+00 -0.00000000000E+00 -0.23795025167E+03  0.23795025167E+03  0.00000000000E+00 0.  1.
         21    1    1    2  503  504  0.81531613701E+02  0.50540741551E+02 -0.17411765681E+03  0.19879318148E+03  0.00000000000E+00 0.  1.
         21    1    1    2  504  501 -0.81144930397E+02 -0.76397789343E+02  0.85200633681E+02  0.14028638539E+03  0.00000000000E+00 0.  1.
         21    1    1    2  505  502  0.33744218336E+02  0.72944771651E+01 -0.97068355065E+01  0.35862296689E+02  0.00000000000E+00 0. -1.
          1    1    1    2  501    0 -0.34130901639E+02  0.18562570627E+02  0.32209363128E+03  0.32442841242E+03  0.00000000000E+00 0.  1.
<scales pt_clust_3="119.68569" pt_clust_4="14000.00000" pt_clust_5="34.52364" pt_clust_6="38.71039"></scales>
<clustering>
<clus scale="   34.524">  2  5  1 -1</clus>
<clus scale="   38.710">  1  6  2 -1</clus>
<clus scale="  119.686">  2  3  1 -1</clus>
<clus scale="   34.524">  2  3  1 -1</clus>
</clustering>
</event>
<event>
 6    0  0.4017242E+002  0.1353850E+03  0.7546771E-02  0.1219677E+00
          2   -1    0    0  503    0 -0.00000000000E+00  0.00000000000E+00  0.57903505713E+03  0.57903505713E+03  0.00000000000E+00 0. -1.
         21   -1    0    0  504  502  0.00000000000E+00 -0.00000000000E+00 -0.19462269888E+03  0.19462269888E+03  0.00000000000E+00 0. -1.
         21    1    1    2  503  505  0.70844732373E+02 -0.11433114423E+03  0.11705060511E+03  0.17830151654E+03  0.00000000000E+00 0. -1.
         21    1    1    2  504  501 -0.27052787505E+02  0.18352641296E+03  0.38787070603E+02  0.18952106588E+03  0.00000000000E+00 0. -1.
         21    1    1    2  505  502 -0.69342855580E+01 -0.84028093034E+02 -0.66943659245E+02  0.10765806170E+03  0.00000000000E+00 0. -1.
          2    1    1    2  501    0 -0.36857659310E+02  0.14832824305E+02  0.29551834179E+03  0.29817711190E+03  0.00000000000E+00 0. -1.
<scales pt_clust_3="135.38500" pt_clust_4="14000.00000" pt_clust_5="83.51088" pt_clust_6="39.73034"></scales>
<clustering>
<clus scale="   39.730">  1  6  2 -1</clus>
<clus scale="   83.511">  2  5  1 -1</clus>
<clus scale="  135.385">  1  3  2 -1</clus>
<clus scale="   83.511">  2  3  1 -1</clus>
</clustering>
</event>
<event>
 6    0  0.4017242E+002  0.1055833E+03  0.7546771E-02  0.1268975E+00
          2   -1    0    0  505    0 -0.00000000000E+00  0.00000000000E+00  0.11505221386E+04  0.11505221386E+04  0.00000000000E+00 0.  1.
         21   -1    0    0  504  502  0.00000000000E+00 -0.00000000000E+00 -0.99175780706E+02  0.99175780706E+02  0.00000000000E+00 0. -1.
         21    1    1    2  503  502  0.11167091611E+03 -0.44020787662E+01 -0.44124082363E+02  0.12015284619E+03  0.00000000000E+00 0. -1.
         21    1    1    2  504  501 -0.69876243209E+01  0.46908171981E+02  0.82714730160E+02  0.95346368980E+02  0.00000000000E+00 0. -1.
         21    1    1    2  505  503 -0.69805973339E+02 -0.63182686537E+02  0.20681309256E+03  0.22723683911E+03  0.00000000000E+00 0. -1.
          2    1    1    2  501    0 -0.34877318453E+02  0.20676593323E+02  0.80594261754E+03  0.80696186503E+03  0.00000000000E+00 0.  1.
<scales pt_clust_3="14000.00000" pt_clust_4="54.65652" pt_clust_5="105.58326" pt_clust_6="40.54564"></scales>
<clustering>
<clus scale="   40.546">  1  6  2 -1</clus>
<clus scale="   54.657">  1  4  2 -1</clus>
<clus scale="  105.583">  1  5  2 -1</clus>
<clus scale="  105.583">  2  3  1 -1</clus>
</clustering>
</event>
<event>
 6    0  0.4017242E+002  0.1319208E+03  0.7546771E-02  0.1224633E+00
         21   -1    0    0  504  502  0.00000000000E+00  0.00000000000E+00  0.75291717662E+03  0.75291717662E+03  0.00000000000E+00 0.  1.
          2   -1    0    0  503    0 -0.00000000000E+00 -0.00000000000E+00 -0.20797699074E+03  0.20797699074E+03  0.00000000000E+00 0. -1.
         21    1    1    2  503  502  0.12562472885E+03 -0.62478525812E+01  0.14557396551E+03  0.19238603794E+03  0.00000000000E+00 0.  1.
         21    1    1    2  504  505 -0.99602715472E+01 -0.76104680417E+02  0.23584967784E+03  0.24802459541E+03  0.00000000000E+00 0.  1.
         21    1    1    2  505  501 -0.11130171709E+03  0.12333605618E+03  0.31897977945E+03  0.35964976669E+03  0.00000000000E+00 0.  1.
          2    1    1    2  501    0 -0.43627402126E+01 -0.40983523182E+02 -0.15546323692E+03  0.16083376732E+03  0.00000000000E+00 0. -1.
<scales pt_clust_3="131.92079" pt_clust_4="81.78750" pt_clust_5="14000.00000" pt_clust_6="41.21508"></scales>
<clustering>
<clus scale="   41.215">  2  6  1 -1</clus>
<clus scale="   81.787">  1  4  2 -1</clus>
<clus scale="  131.921">  2  3  1 -1</clus>
<clus scale="   81.787">  1  3  2 -1</clus>
</clustering>
</event>
<event>
 6    0  0.4017242E+002  0.1359441E+03  0.7546771E-02  0.1218893E+00
          1   -1    0    0  502    0 -0.00000000000E+00  0.00000000000E+00  0.26736306490E+04  0.26736306490E+04  0.00000000000E+00 0.  1.
         21   -1    0    0  503  502  0.00000000000E+00 -0.00000000000E+00 -0.12774297620E+03  0.12774297620E+03  0.00000000000E+00 0.  1.
         21    1    1    2  503  504  0.49297267205E+02  0.36533754271E+01 -0.10904120839E+02  0.50620821380E+02  0.00000000000E+00 0.  1.
         21    1    1    2  504  505  0.46437913525E+02  0.64226691375E+02 -0.10348713410E+02  0.79928990778E+02  0.00000000000E+00 0.  1.
         21    1    1    2  505  501 -0.14087469420E+03 -0.36582267469E+02  0.51209211909E+02  0.15429298475E+03  0.00000000000E+00 0.  1.
          1    1    1    2  501    0  0.45139513469E+02 -0.31297799333E+02  0.25159312952E+04  0.25165308283E+04  0.00000000000E+00 0.  1.
<scales pt_clust_3="41.92851" pt_clust_4="41.92851" pt_clust_5="125.14858" pt_clust_6="54.92839"></scales>
<clustering>
<clus scale="   41.929">  3  4 -1 -1</clus>
<clus scale="   54.928">  1  6  2 -1</clus>
<clus scale="  125.149">  1  5  2 -1</clus>
<clus scale="  135.944">  2  3  1 -1</clus>
</clustering>
</event>
<event>
 6    0  0.4017242E+002  0.7952174E+02  0.7546771E-02  0.1330414E+00
         21   -1    0    0  501  502  0.00000000000E+00  0.00000000000E+00  0.28355702493E+02  0.28355702493E+02  0.00000000000E+00 0.  1.
          2   -1    0    0  505    0 -0.00000000000E+00 -0.00000000000E+00 -0.36157375722E+04  0.36157375722E+04  0.00000000000E+00 0. -1.
         21    1    1    2  503  502 -0.44013131375E+02 -0.18095746988E+02 -0.33157202267E+02  0.58000102196E+02  0.00000000000E+00 0.  1.
         21    1    1    2  504  503  0.99681630115E+02 -0.31035305281E+02 -0.24185408042E+03  0.26342553743E+03  0.00000000000E+00 0.  1.
         21    1    1    2  505  504 -0.21549297728E+02  0.81476578998E+02 -0.35291141428E+03  0.36283504721E+03  0.00000000000E+00 0. -1.
          2    1    1    2  501    0 -0.34119201012E+02 -0.32345526729E+02 -0.29594591728E+04  0.29598325879E+04  0.00000000000E+00 0. -1.
<scales pt_clust_3="50.64828" pt_clust_4="79.52174" pt_clust_5="14000.00000" pt_clust_6="47.01439"></scales>
<clustering>
<clus scale="   47.014">  2  6  1 -1</clus>
<clus scale="   50.648">  1  3  2 -1</clus>
<clus scale="   79.522">  1  4  2 -1</clus>
<clus scale="   50.648">  1  3  2 -1</clus>
</clustering>
</event>
<event>
 6    0  0.4017242E+002  0.1085919E+03  0.7546771E-02  0.1263200E+00
         21   -1    0    0  504  502  0.00000000000E+00  0.00000000000E+00  0.56444663558E+02  0.56444663558E+02  0.00000000000E+00 0. -1.
          2   -1    0    0  503    0 -0.00000000000E+00 -0.00000000000E+00 -0.10754685434E+04  0.10754685434E+04  0.00000000000E+00 0. -1.
         21    1    1    2  503  502 -0.45575436251E+02  0.72085847938E+01  0.18144274948E+02  0.49581234329E+02  0.00000000000E+00 0. -1.
         21    1    1    2  504  505  0.18646928222E+02  0.34396147713E+02 -0.38816378471E+02  0.55113647558E+02  0.00000000000E+00 0. -1.
         21    1    1    2  505  501  0.90554016494E+02  0.20954097043E+02 -0.16726160620E+03  0.19135189833E+03  0.00000000000E+00 0. -1.
          2    1    1    2  501    0 -0.63625508465E+02 -0.62558829549E+02 -0.83109017013E+03  0.83586642675E+03  0.00000000000E+00 0. -1.
<scales pt_clust_3="46.14200" pt_clust_4="37.20663" pt_clust_5="37.20663" pt_clust_6="92.21478"></scales>
<clustering>
<clus scale="   37.207">  4  5 -1 -1</clus>
<clus scale="   46.142">  1  3  2 -1</clus>
<clus scale="   92.215">  2  6  1 -1</clus>
<clus scale="   46.142">  1  3  2 -1</clus>
</clustering>
</event>
<event>
 6    0  0.4017242E+002  0.8534858E+02  0.7546771E-02  0.1314523E+00
         21   -1    0    0  503  502  0.00000000000E+00  0.00000000000E+00  0.53750564506E+02  0.53750564506E+02  0.00000000000E+00 0. -1.
          2   -1    0    0  505    0 -0.00000000000E+00 -0.00000000000E+00 -0.24360213296E+04  0.24360213296E+04  0.00000000000E+00 0.  1.
         21    1    1    2  503  501 -0.37999969428E+02  0.78234615051E+02 -0.12908861877E+03  0.15565514500E+03  0.00000000000E+00 0.  1.
         21    1    1    2  504  502 -0.22336550175E+02 -0.87986308392E+02 -0.20906598418E+02  0.93153624704E+02  0.00000000000E+00 0. -1.
         21    1    1    2  505  504  0.32745112472E+02  0.34235702206E+02 -0.12998437690E+03  0.13834834273E+03  0.00000000000E+00 0.  1.
          2    1    1    2  501    0  0.27591407130E+02 -0.24484008866E+02 -0.21022911710E+04  0.21026147817E+04  0.00000000000E+00 0.  1.
<scales pt_clust_3="85.34858" pt_clust_4="14000.00000" pt_clust_5="50.16930" pt_clust_6="36.88838"></scales>
<clustering>
<clus scale="   36.888">  2  6  1 -1</clus>
<clus scale="   50.169">  2  5  1 -1</clus>
<clus scale="   85.349">  2  3  1 -1</clus>
<clus scale="   85.349">  1  3  2 -1</clus>
</clustering>
</event>
<event>
 6    0  0.4017242E+002  0.1563518E+03  0.7546771E-02  0.1192878E+00
         21   -1    0    0  503  502  0.00000000000E+00  0.00000000000E+00  0.39412968251E+03  0.39412968251E+03  0.00000000000E+00 0. -1.
          2   -1    0    0  505    0 -0.00000000000E+00 -0.00000000000E+00 -0.61456135607E+03  0.61456135607E+03  0.00000000000E+00 0. -1.
         21    1    1    2  503  501 -0.35573350853E+02  0.13823173341E+03 -0.41975845754E+01  0.14279739188E+03  0.00000000000E+00 0. -1.
         21    1    1    2  504  502  0.12865856408E+03 -0.10746517649E+03  0.27282124472E+03  0.32020809146E+03  0.00000000000E+00 0. -1.
         21    1    1    2  505  504 -0.54790913509E+02 -0.65117934246E+01 -0.64912235842E+00  0.55180331791E+02  0.00000000000E+00 0. -1.
          2    1    1    2  501    0 -0.38294299716E+02 -0.24254763487E+02 -0.48840621135E+03  0.49050522344E+03  0.00000000000E+00 0. -1.
<scales pt_clust_3="156.35176" pt_clust_4="14000.00000" pt_clust_5="64.44812" pt_clust_6="45.32932"></scales>
<clustering>
<clus scale="   45.329">  2  6  1 -1</clus>
<clus scale="   64.448">  2  5  1 -1</clus>
<clus scale="  156.352">  2  3  1 -1</clus>
<clus scale="  156.352">  1  3  2 -1</clus>
</clustering>
</event>
<event>
 6    0  0.4017242E+002  0.5550770E+02  0.7546771E-02  0.1417713E+00
         21   -1    0    0  504  502  0.00000000000E+00  0.00000000000E+00  0.51560794021E+02  0.51560794021E+02  0.00000000000E+00 0.  1.
          3   -1    0    0  505    0 -0.00000000000E+00 -0.00000000000E+00 -0.44587112340E+04  0.44587112340E+04  0.00000000000E+00 0.  1.
         21    1    1    2  503  502  0.33486798015E+02 -0.25200768622E+02  0.16406227518E+02  0.45006762623E+02  0.00000000000E+00 0.  1.
         21    1    1    2  504  501  0.69909316823E+02 -0.98751402230E+01 -0.62922230878E+03  0.63317102337E+03  0.00000000000E+00 0.  1.
         21    1    1    2  505  503 -0.63788585886E+02  0.66555853045E+02 -0.94869222909E+02  0.13228316113E+03  0.00000000000E+00 0.  1.
          3    1    1    2  501    0 -0.39607528951E+02 -0.31479944200E+02 -0.36994651358E+04  0.36998110809E+04  0.00000000000E+00 0.  1.
<scales pt_clust_3="41.90996" pt_clust_4="55.50770" pt_clust_5="14000.00000" pt_clust_6="50.50764"></scales>
<clustering>
<clus scale="   41.910">  1  3  2 -1</clus>
<clus scale="   50.508">  2  6  1 -1</clus>
<clus scale="   55.508">  2  4  1 -1</clus>
<clus scale="   41.910">  1  3  2 -1</clus>
</clustering>
</event>
<event>
 6    0  0.4017242E+002  0.2438303E+03  0.7546771E-02  0.1117267E+00
          2   -1    0    0  502    0 -0.00000000000E+00  0.00000000000E+00  0.12587087510E+04  0.12587087510E+04  0.00000000000E+00 0. -1.
         21   -1    0    0  504  502  0.00000000000E+00 -0.00000000000E+00 -0.10873442668E+04  0.10873442668E+04  0.00000000000E+00 0.  1.
         21    1    1    2  503  505 -0.53648518231E+02  0.47330348392E+02 -0.56192749422E+02  0.90972251126E+02  0.00000000000E+00 0. -1.
         21    1    1    2  504  503  0.79522400074E+02 -0.20664779309E+03 -0.77523331037E+03  0.80623433814E+03  0.00000000000E+00 0.  1.
         21    1    1    2  505  501 -0.31164008151E+02  0.20138866310E+03 -0.17601617351E+03  0.26927733355E+03  0.00000000000E+00 0. -1.
          2    1    1    2  501    0  0.52901263082E+01 -0.42071218401E+02  0.11788067174E+04  0.11795690950E+04  0.00000000000E+00 0. -1.
<scales pt_clust_3="49.67118" pt_clust_4="229.45315" pt_clust_5="49.67118" pt_clust_6="42.40251"></scales>
<clustering>
<clus scale="   42.403">  1  6  2 -1</clus>
<clus scale="   49.671">  3  5 -1 -1</clus>
<clus scale="  229.453">  2  4  1 -1</clus>
<clus scale="  229.453">  2  3  1 -1</clus>
</clustering>
</event>
<event>
 6    0  0.4017242E+002  0.7315411E+02  0.7546771E-02  0.1349684E+00
          2   -1    0    0  503    0 -0.00000000000E+00  0.00000000000E+00  0.43509765789E+04  0.43509765789E+04  0.00000000000E+00 0. -1.
         21   -1    0    0  505  502  0.00000000000E+00 -0.00000000000E+00 -0.17401810101E+02  0.17401810101E+02  0.00000000000E+00 0. -1.
         21    1    1    2  503  502  0.18904231899E+02  0.87923679632E+02  0.21169285687E+03  0.23000393274E+03  0.00000000000E+00 0. -1.
         21    1    1    2  504  501  0.43268489372E+02 -0.50750067627E+02  0.36777539233E+03  0.37377328789E+03  0.00000000000E+00 0. -1.
         21    1    1    2  505  504 -0.50420775228E+02  0.34351064380E+02  0.18583852820E+03  0.19559705714E+03  0.00000000000E+00 0.  1.
          2    1    1    2  501    0 -0.11751946043E+02 -0.71524676384E+02  0.35682679914E+04  0.35690041113E+04  0.00000000000E+00 0. -1.
<scales pt_clust_3="73.15411" pt_clust_4="52.73792" pt_clust_5="61.01025" pt_clust_6="14000.00000"></scales>
<clustering>
<clus scale="   61.010">  2  5  1 -1</clus>
<clus scale="   52.738">  2  4  1 -1</clus>
<clus scale="   73.154">  2  3  1 -1</clus>
<clus scale="   61.010">  2  3  1 -1</clus>
</clustering>
</event>
<event>
 6    0  0.4017242E+002  0.8141649E+02  0.7546771E-02  0.1325079E+00
          2   -1    0    0  505    0 -0.00000000000E+00  0.00000000000E+00  0.78896929615E+03  0.78896929615E+03  0.00000000000E+00 0.  1.
         21   -1    0    0  504  502  0.00000000000E+00 -0.00000000000E+00 -0.40463352213E+02  0.40463352213E+02  0.00000000000E+00 0.  1.
         21    1    1    2  503  502  0.27903083126E+02 -0.35403594302E+02  0.34320348292E+01  0.45208134230E+02  0.00000000000E+00 0.  1.
         21    1    1    2  504  501  0.26864506066E+02  0.47463552162E+02  0.82420272029E+02  0.98831127239E+02  0.00000000000E+00 0.  1.
         21    1    1    2  505  503  0.47893993029E+02 -0.19456772181E+02  0.91978114036E+02  0.10551006594E+03  0.00000000000E+00 0.  1.
          2    1    1    2  501    0 -0.10266158222E+03  0.73968143215E+01  0.57067552304E+03  0.57988332096E+03  0.00000000000E+00 0.  1.
<scales pt_clust_3="45.07767" pt_clust_4="50.50951" pt_clust_5="14000.00000" pt_clust_6="81.41649"></scales>
<clustering>
<clus scale="   45.078">  2  3  1 -1</clus>
<clus scale="   50.510">  2  4  1 -1</clus>
<clus scale="   81.416">  1  6  2 -1</clus>
<clus scale="   45.078">  2  3  1 -1</clus>
</clustering>
</event>
<event>
 6    0  0.4017242E+002  0.2175457E+03  0.7546771E-02  0.1135726E+00
         21   -1    0    0  505  502  0.00000000000E+00  0.00000000000E+00  0.77241183797E+03  0.77241183797E+03  0.00000000000E+00 0.  1.
          2   -1    0    0  504    0 -0.00000000000E+00 -0.00000000000E+00 -0.53038902644E+03  0.53038902644E+03  0.00000000000E+00 0.  1.
         21    1    1    2  503  501 -0.86477206882E+02  0.58043832884E+01  0.46234661433E+02  0.98232591808E+02  0.00000000000E+00 0.  1.
         21    1    1    2  504  502  0.22799635901E+03  0.70104782831E+02  0.63706563117E+03  0.68025703871E+03  0.00000000000E+00 0.  1.
         21    1    1    2  505  503 -0.10301374560E+03 -0.74227088024E+02 -0.58848763815E+02  0.13994523708E+03  0.00000000000E+00 0.  1.
          2    1    1    2  501    0 -0.38505406522E+02 -0.16820780962E+01 -0.38242871726E+03  0.38436599681E+03  0.00000000000E+00 0.  1.
<scales pt_clust_3="93.45020" pt_clust_4="217.54573" pt_clust_5="14000.00000" pt_clust_6="38.54213"></scales>
<clustering>
<clus scale="   38.542">  2  6  1 -1</clus>
<clus scale="   93.450">  2  3  1 -1</clus>
<clus scale="  217.546">  1  4  2 -1</clus>
<clus scale="  217.546">  1  3  2 -1</clus>
</clustering>
</event>
<event>
 6    0  0.4017242E+002  0.8716759E+02  0.7546771E-02  0.1309859E+00
         21   -1    0    0  504  502  0.00000000000E+00  0.00000000000E+00  0.33294096123E+03  0.33294096123E+03  0.00000000000E+00 0. -1.
          2   -1    0    0  505    0 -0.00000000000E+00 -0.00000000000E+00 -0.70271283077E+03  0.70271283077E+03  0.00000000000E+00 0.  1.
         21    1    1    2  503  502  0.32144801776E+02 -0.14228695285E+02  0.55420012299E+01  0.35587326794E+02  0.00000000000E+00 0.  1.
         21    1    1    2  504  501 -0.88251281604E+02  0.87496555798E+02  0.29238198559E+03  0.31769665009E+03  0.00000000000E+00 0. -1.
         21    1    1    2  505  503  0.52146913308E+02 -0.23048367477E+02 -0.12555286211E+03  0.13789143917E+03  0.00000000000E+00 0.  1.
          2    1    1    2  501    0  0.39595665205E+01 -0.50219493036E+02 -0.54214299425E+03  0.54447837594E+03  0.00000000000E+00 0.  1.
<scales pt_clust_3="35.15315" pt_clust_4="14000.00000" pt_clust_5="87.16759" pt_clust_6="50.43795"></scales>
<clustering>
<clus scale="   35.153">  1  3  2 -1</clus>
<clus scale="   50.438">  2  6  1 -1</clus>
<clus scale="   87.168">  2  5  1 -1</clus>
<clus scale="   35.153">  1  3  2 -1</clus>
</clustering>
</event>
<event>
 6    0  0.4017242E+002  0.1051888E+03  0.7546771E-02  0.1269748E+00
         21   -1    0    0  503  502  0.00000000000E+00  0.00000000000E+00  0.79397239056E+02  0.79397239056E+02  0.00000000000E+00 0. -1.
          1   -1    0    0  505    0 -0.00000000000E+00 -0.00000000000E+00 -0.12962157548E+04  0.12962157548E+04  0.00000000000E+00 0. -1.
         21    1    1    2  503  501 -0.16881089109E+02 -0.10254915765E+03  0.13900354677E+02  0.10485476033E+03  0.00000000000E+00 0. -1.
         21    1    1    2  504  502 -0.37397125651E+02  0.15917329241E+02 -0.51687540013E+02  0.65753389036E+02  0.00000000000E+00 0. -1.
         21    1    1    2  505  504 -0.13484504263E+02  0.14714364433E+03 -0.55233490882E+03  0.57175775939E+03  0.00000000000E+00 0. -1.
          1    1    1    2  501    0  0.67762719023E+02 -0.60511815923E+02 -0.62669642160E+03  0.63324708512E+03  0.00000000000E+00 0. -1.
<scales pt_clust_3="14000.00000" pt_clust_4="40.64365" pt_clust_5="105.18878" pt_clust_6="89.10814"></scales>
<clustering>
<clus scale="   40.644">  1  4  2 -1</clus>
<clus scale="   89.108">  2  6  1 -1</clus>
<clus scale="  105.189">  2  5  1 -1</clus>
<clus scale="   40.644">  1  3  2 -1</clus>
</clustering>
</event>
<event>
 6    0  0.4017242E+002  0.1012019E+03  0.7546771E-02  0.1277789E+00
         21   -1    0    0  503  502  0.00000000000E+00  0.00000000000E+00  0.26535914775E+03  0.26535914775E+03  0.00000000000E+00 0. -1.
         -1   -1    0    0    0  501 -0.00000000000E+00 -0.00000000000E+00 -0.50765394459E+03  0.50765394459E+03  0.00000000000E+00 0.  1.
         21    1    1    2  503  501  0.28439259830E+02 -0.82750659956E+02  0.12890826352E+03  0.15580052511E+03  0.00000000000E+00 0. -1.
         21    1    1    2  504  502 -0.32912608275E+02 -0.22034100556E+02  0.95357620090E+02  0.10325607527E+03  0.00000000000E+00 0. -1.
         21    1    1    2  505  504  0.41332276682E+02  0.10093953045E+03 -0.10803647215E+03  0.15352206753E+03  0.00000000000E+00 0.  1.
         -1    1    1    2    0  505 -0.36858928237E+02  0.38452300636E+01 -0.35852420829E+03  0.36043442443E+03  0.00000000000E+00 0.  1.
<scales pt_clust_3="14000.00000" pt_clust_4="40.37160" pt_clust_5="101.20193" pt_clust_6="37.05896"></scales>
<clustering>
<clus scale="   37.059">  2  6  1 -1</clus>
<clus scale="   40.372">  1  4  2 -1</clus>
<clus scale="  101.202">  2  5  1 -1</clus>
<clus scale="   40.372">  1  3  2 -1</clus>
</clustering>
</event>
<event>
 6    0  0.4017242E+002  0.1738751E+03  0.7546771E-02  0.1173866E+00
         21   -1    0    0  501  502  0.00000000000E+00  0.00000000000E+00  0.22334551642E+03  0.22334551642E+03  0.00000000000E+00 0. -1.
          1   -1    0    0  504    0 -0.00000000000E+00 -0.00000000000E+00 -0.20267016005E+04  0.20267016005E+04  0.00000000000E+00 0.  1.
         21    1    1    2  503  502 -0.12157223211E+03 -0.12665702539E+03  0.17933732063E+03  0.25096550415E+03  0.00000000000E+00 0. -1.
         21    1    1    2  504  505  0.56313107392E+02  0.10795528837E+02 -0.30958199041E+03  0.31484713480E+03  0.00000000000E+00 0.  1.
         21    1    1    2  505  503  0.30908925941E+02  0.12672661602E+02 -0.71327841054E+02  0.78763055835E+02  0.00000000000E+00 0. -1.
          1    1    1    2  501    0  0.34350198781E+02  0.10318883495E+03 -0.16017835732E+04  0.16054714221E+04  0.00000000000E+00 0.  1.
<scales pt_clust_3="173.87510" pt_clust_4="99.18005" pt_clust_5="31.26915" pt_clust_6="14000.00000"></scales>
<clustering>
<clus scale="   31.269">  4  5 -1 -1</clus>
<clus scale="   99.180">  2  4  1 -1</clus>
<clus scale="  173.875">  1  3  2 -1</clus>
<clus scale="  173.875">  1  3  2 -1</clus>
</clustering>
</event>
<event>
 6    0  0.4017242E+002  0.9597611E+02  0.7546771E-02  0.1288993E+00
          2   -1    0    0  505    0 -0.00000000000E+00  0.00000000000E+00  0.11063510187E+04  0.11063510187E+04  0.00000000000E+00 0. -1.
         21   -1    0    0  504  502  0.00000000000E+00 -0.00000000000E+00 -0.91485609992E+02  0.91485609992E+02  0.00000000000E+00 0. -1.
         21    1    1    2  503  502  0.45838846725E+02  0.15316014327E+02 -0.32892711363E+02  0.58461189047E+02  0.00000000000E+00 0. -1.
         21    1    1    2  504  501 -0.23395342806E+02  0.37572605327E+02  0.36849160962E+02  0.57592563754E+02  0.00000000000E+00 0. -1.
         21    1    1    2  505  503 -0.11590377499E+03 -0.35561771598E+02  0.78257623225E+02  0.14430031272E+03  0.00000000000E+00 0. -1.
          2    1    1    2  501    0  0.93460271075E+02 -0.17326848056E+02  0.93265133593E+03  0.93748256322E+03  0.00000000000E+00 0. -1.
<scales pt_clust_3="48.96237" pt_clust_4="44.26107" pt_clust_5="14000.00000" pt_clust_6="95.97611"></scales>
<clustering>
<clus scale="   44.261">  2  4  1 -1</clus>
<clus scale="   48.962">  2  3  1 -1</clus>
<clus scale="   95.976">  1  6  2 -1</clus>
<clus scale="   44.261">  2  3  1 -1</clus>
</clustering>
</event>
<event>
 6    0  0.4017242E+002  0.1273119E+03  0.7546771E-02  0.1231500E+00
         21   -1    0    0  504  502  0.00000000000E+00  0.00000000000E+00  0.36811155967E+03  0.36811155967E+03  0.00000000000E+00 0.  1.
          2   -1    0    0  503    0 -0.00000000000E+00 -0.00000000000E+00 -0.97606307720E+03  0.97606307720E+03  0.00000000000E+00 0. -1.
         21    1    1    2  503  502  0.47835739435E+02 -0.45879632164E+02  0.89365202186E+02  0.11126247335E+03  0.00000000000E+00 0.  1.
         21    1    1    2  504  505 -0.79997262911E+01 -0.44193068983E+02  0.35083763569E+02  0.56990292445E+02  0.00000000000E+00 0.  1.
         21    1    1    2  505  501 -0.76139063449E+02 -0.33496641524E+02  0.20942056045E+03  0.22533564546E+03  0.00000000000E+00 0.  1.
          2    1    1    2  501    0  0.36303050305E+02  0.12356934267E+03 -0.94182104373E+03  0.95058622562E+03  0.00000000000E+00 0. -1.
<scales pt_clust_3="74.92333" pt_clust_4="44.91128" pt_clust_5="127.31189" pt_clust_6="14000.00000"></scales>
<clustering>
<clus scale="   44.911">  1  4  2 -1</clus>
<clus scale="   74.923">  1  3  2 -1</clus>
<clus scale="  127.312">  1  5  2 -1</clus>
<clus scale="   44.911">  1  3  2 -1</clus>
</clustering>
</event>
<event>
 6    0  0.4017242E+002  0.2090759E+03  0.7546771E-02  0.1142300E+00
         21   -1    0    0  503  502  0.00000000000E+00  0.00000000000E+00  0.95633580032E+03  0.95633580032E+03  0.00000000000E+00 0.  1.
          2   -1    0    0  504    0 -0.00000000000E+00 -0.00000000000E+00 -0.50841474568E+03  0.50841474568E+03  0.00000000000E+00 0.  1.
         21    1    1    2  503  501  0.38863960876E+02 -0.27306233067E+02  0.97869990352E+02  0.10878682287E+03  0.00000000000E+00 0.  1.
         21    1    1    2  504  505 -0.17942689604E+03 -0.36356173701E+02 -0.67096970584E+02  0.19498150131E+03  0.00000000000E+00 0.  1.
         21    1    1    2  505  502  0.16924101330E+03  0.84554303949E+02  0.77683971407E+03  0.79954480315E+03  0.00000000000E+00 0.  1.
          2    1    1    2  501    0 -0.28678078127E+02 -0.20891897181E+02 -0.35969167920E+03  0.36143741867E+03  0.00000000000E+00 0.  1.
<scales pt_clust_3="47.09120" pt_clust_4="14000.00000" pt_clust_5="209.07593" pt_clust_6="35.48103"></scales>
<clustering>
<clus scale="   35.481">  2  6  1 -1</clus>
<clus scale="   47.091">  1  3  2 -1</clus>
<clus scale="  209.076">  1  5  2 -1</clus>
<clus scale="   47.091">  1  3  2 -1</clus>
</clustering>
</event>
<event>
 6    0  0.4017242E+002  0.1000672E+03  0.7546771E-02  0.1280155E+00
         21   -1    0    0  504  502  0.00000000000E+00  0.00000000000E+00  0.29289516016E+02  0.29289516016E+02  0.00000000000E+00 0. -1.
          2   -1    0    0  503    0 -0.00000000000E+00 -0.00000000000E+00 -0.43768539147E+04  0.43768539147E+04  0.00000000000E+00 0.  1.
         21    1    1    2  503  505  0.32998370154E+02  0.14031412411E+02 -0.80819849416E+03  0.80899355926E+03  0.00000000000E+00 0. -1.
         21    1    1    2  504  501 -0.18833754652E+02 -0.49581285584E+02 -0.52879525754E+01  0.53300812722E+02  0.00000000000E+00 0. -1.
         21    1    1    2  505  502 -0.77569923644E+02  0.88705906484E+02 -0.81118301225E+03  0.81969732845E+03  0.00000000000E+00 0. -1.
          2    1    1    2  501    0  0.63405308143E+02 -0.53156033311E+02 -0.27228949397E+04  0.27241517303E+04  0.00000000000E+00 0.  1.
<scales pt_clust_3="35.85768" pt_clust_4="52.83440" pt_clust_5="100.06716" pt_clust_6="14000.00000"></scales>
<clustering>
<clus scale="   35.858">  2  3  1 -1</clus>
<clus scale="   52.834">  1  4  2 -1</clus>
<clus scale="  100.067">  1  5  2 -1</clus>
<clus scale="   52.834">  1  3  2 -1</clus>
</clustering>
</event>
<event>
 6    0  0.4017242E+002  0.7414302E+02  0.7546771E-02  0.1346546E+00
         21   -1    0    0  501  502  0.00000000000E+00  0.00000000000E+00  0.18341308092E+03  0.18341308092E+03  0.00000000000E+00 0.  1.
          1   -1    0    0  504    0 -0.00000000000E+00 -0.00000000000E+00 -0.82799854008E+03  0.82799854008E+03  0.00000000000E+00 0.  1.
         21    1    1    2  503  505 -0.65791860481E+02 -0.61632890977E+01  0.63312303376E+02  0.91515041369E+02  0.00000000000E+00 0.  1.
         21    1    1    2  504  503  0.87302766495E+02 -0.16981175951E+01 -0.52298329582E+02  0.10178296477E+03  0.00000000000E+00 0.  1.
         21    1    1    2  505  502  0.11134566556E+01  0.52566324848E+02  0.71798860365E+02  0.88991767279E+02  0.00000000000E+00 0.  1.
          1    1    1    2  501    0 -0.22624362670E+02 -0.44704918155E+02 -0.72739829332E+03  0.72912184758E+03  0.00000000000E+00 0.  1.
<scales pt_clust_3="14000.00000" pt_clust_4="74.14302" pt_clust_5="48.72039" pt_clust_6="50.10381"></scales>
<clustering>
<clus scale="   50.104">  2  6  1 -1</clus>
<clus scale="   48.720">  1  5  2 -1</clus>
<clus scale="   74.143">  2  4  1 -1</clus>
<clus scale="   48.720">  1  3  2 -1</clus>
</clustering>
</event>
<event>
 6    0  0.4017242E+002  0.8100401E+02  0.7546771E-02  0.1326226E+00
         21   -1    0    0  503  502  0.00000000000E+00  0.00000000000E+00  0.15437426622E+03  0.15437426622E+03  0.00000000000E+00 0.  1.
          2   -1    0    0  504    0 -0.00000000000E+00 -0.00000000000E+00 -0.19224571817E+04  0.19224571817E+04  0.00000000000E+00 0. -1.
         21    1    1    2  503  505 -0.10865310912E+03 -0.51363837628E+02  0.10140565319E+03  0.15724772951E+03  0.00000000000E+00 0.  1.
         21    1    1    2  504  502  0.15188763765E+02  0.38518001947E+02 -0.28963639403E+02  0.50529470868E+02  0.00000000000E+00 0.  1.
         21    1    1    2  505  501  0.55335424760E+02 -0.41203784588E+02 -0.73555750205E+02  0.10084745652E+03  0.00000000000E+00 0.  1.
          2    1    1    2  501    0  0.38128920596E+02  0.54049620269E+02 -0.17669691790E+04  0.17682067910E+04  0.00000000000E+00 0. -1.
<scales pt_clust_3="81.00401" pt_clust_4="41.40453" pt_clust_5="14000.00000" pt_clust_6="66.31850"></scales>
<clustering>
<clus scale="   41.405">  1  4  2 -1</clus>
<clus scale="   66.318">  2  6  1 -1</clus>
<clus scale="   81.004">  1  3  2 -1</clus>
<clus scale="   41.405">  1  3  2 -1</clus>
</clustering>
</event>
<event>
 6    0  0.4017242E+002  0.2332450E+03  0.7546771E-02  0.1124376E+00
          2   -1    0    0  504    0 -0.00000000000E+00  0.00000000000E+00  0.30957465930E+04  0.30957465930E+04  0.00000000000E+00 0. -1.
         21   -1    0    0  501  502  0.00000000000E+00 -0.00000000000E+00 -0.38862940810E+03  0.38862940810E+03  0.00000000000E+00 0.  1.
         21    1    1    2  503  505 -0.24542757915E+02  0.11330280922E+03  0.30414061508E+03  0.32548638572E+03  0.00000000000E+00 0. -1.
         21    1    1    2  504  503 -0.27967829897E+02  0.95259750217E+02  0.57772754291E+03  0.58619598545E+03  0.00000000000E+00 0. -1.
         21    1    1    2  505  502  0.91984198598E+02 -0.19701524055E+03 -0.34188551618E+03  0.40516885859E+03  0.00000000000E+00 0.  1.
          2    1    1    2  501    0 -0.39473610785E+02 -0.11547318889E+02  0.21671345431E+04  0.21675247714E+04  0.00000000000E+00 0. -1.
<scales pt_clust_3="79.97521" pt_clust_4="79.97521" pt_clust_5="217.22255" pt_clust_6="41.12793"></scales>
<clustering>
<clus scale="   41.128">  1  6  2 -1</clus>
<clus scale="   79.975">  3  4 -1 -1</clus>
<clus scale="  217.223">  2  5  1 -1</clus>
<clus scale="  217.223">  2  3  1 -1</clus>
</clustering>
</event>
<event>
 6    0  0.4017242E+002  0.1036774E+03  0.7546771E-02  0.1272748E+00
          2   -1    0    0  505    0 -0.00000000000E+00  0.00000000000E+00  0.38462649433E+04  0.38462649433E+04  0.00000000000E+00 0.  1.
         21   -1    0    0  503  502  0.00000000000E+00 -0.00000000000E+00 -0.74080746543E+02  0.74080746543E+02  0.00000000000E+00 0. -1.
         21    1    1    2  503  501 -0.35117313340E+02 -0.13104791624E+02 -0.47568834899E+02  0.60561995619E+02  0.00000000000E+00 0. -1.
         21    1    1    2  504  502  0.97254979239E+02  0.89744972527E+02  0.22778151824E+03  0.26343331440E+03  0.00000000000E+00 0. -1.
         21    1    1    2  505  504  0.39016635511E+02  0.69853056266E+01  0.48871788725E+03  0.49032261386E+03  0.00000000000E+00 0.  1.
          2    1    1    2  501    0 -0.10115430141E+03 -0.83625486529E+02  0.31032536262E+04  0.31060277660E+04  0.00000000000E+00 0.  1.
<scales pt_clust_3="37.48281" pt_clust_4="103.67738" pt_clust_5="38.15964" pt_clust_6="14000.00000"></scales>
<clustering>
<clus scale="   37.483">  2  3  1 -1</clus>
<clus scale="   38.160">  1  5  2 -1</clus>
<clus scale="  103.677">  2  4  1 -1</clus>
<clus scale="   37.483">  2  3  1 -1</clus>
</clustering>
</event>
<event>
 6    0  0.4017242E+002  0.3020388E+03  0.7546771E-02  0.1084226E+00
         21   -1    0    0  503  502  0.00000000000E+00  0.00000000000E+00  0.78882254603E+03  0.78882254603E+03  0.00000000000E+00 0.  1.
          1   -1    0    0  505    0 -0.00000000000E+00 -0.00000000000E+00 -0.28774312837E+03  0.28774312837E+03  0.00000000000E+00 0.  1.
         21    1    1    2  503  501 -0.19081289306E+02 -0.46559100601E+02  0.13372431474E+03  0.14287770226E+03  0.00000000000E+00 0.  1.
         21    1    1    2  504  502  0.97875651604E+02 -0.51176863211E+02  0.11893973263E+03  0.16231258270E+03  0.00000000000E+00 0.  1.
         21    1    1    2  505  504  0.23437326803E+03  0.13947321610E+03  0.34613320579E+03  0.44067199017E+03  0.00000000000E+00 0.  1.
          1    1    1    2  501    0 -0.31316763032E+03 -0.41737252289E+02 -0.97717835499E+02  0.33070339927E+03  0.00000000000E+00 0.  1.
<scales pt_clust_3="50.31745" pt_clust_4="111.98106" pt_clust_5="14000.00000" pt_clust_6="302.03881"></scales>
<clustering>
<clus scale="   50.317">  1  3  2 -1</clus>
<clus scale="  111.981">  1  4  2 -1</clus>
<clus scale="  302.039">  2  6  1 -1</clus>
<clus scale="   50.317">  1  3  2 -1</clus>
</clustering>
</event>
<event>
 6    0  0.4017242E+002  0.2188461E+03  0.7546771E-02  0.1134746E+00
         21   -1    0    0  504  502  0.00000000000E+00  0.00000000000E+00  0.11287558344E+04  0.11287558344E+04  0.00000000000E+00 0. -1.
          1   -1    0    0  505    0 -0.00000000000E+00 -0.00000000000E+00 -0.13528220021E+04  0.13528220021E+04  0.00000000000E+00 0. -1.
         21    1    1    2  503  502 -0.52850585897E+01 -0.30473701216E+02  0.86542188039E+02  0.91902821614E+02  0.00000000000E+00 0. -1.
         21    1    1    2  504  501 -0.19226923561E+03 -0.80734067413E+02  0.96052860422E+03  0.98290419072E+03  0.00000000000E+00 0. -1.
         21    1    1    2  505  503  0.14919538068E+03  0.88790901864E+02 -0.44838071613E+02  0.17931407791E+03  0.00000000000E+00 0.  1.
          1    1    1    2  501    0  0.48358913524E+02  0.22416866765E+02 -0.12262988883E+04  0.12274567463E+04  0.00000000000E+00 0. -1.
<scales pt_clust_3="30.92860" pt_clust_4="218.84613" pt_clust_5="14000.00000" pt_clust_6="53.29217"></scales>
<clustering>
<clus scale="   30.929">  1  3  2 -1</clus>
<clus scale="   53.292">  2  6  1 -1</clus>
<clus scale="  218.846">  1  4  2 -1</clus>
<clus scale="   30.929">  1  3  2 -1</clus>
</clustering>
</event>
<event>
 6    0  0.4017242E+002  0.1095977E+03  0.7546771E-02  0.1261317E+00
         21   -1    0    0  503  502  0.00000000000E+00  0.00000000000E+00  0.23440505258E+03  0.23440505258E+03  0.00000000000E+00 0. -1.
          1   -1    0    0  502    0 -0.00000000000E+00 -0.00000000000E+00 -0.26015641317E+04  0.26015641317E+04  0.00000000000E+00 0. -1.
         21    1    1    2  503  505  0.63752829172E+02  0.13423536489E+02  0.14881740114E+03  0.16245378863E+03  0.00000000000E+00 0. -1.
         21    1    1    2  504  501 -0.19619090871E+02  0.70847629055E+02 -0.12719582216E+03  0.14691178457E+03  0.00000000000E+00 0. -1.
         21    1    1    2  505  504 -0.58356970580E+02 -0.14059319415E+03 -0.15944201493E+02  0.15305619823E+03  0.00000000000E+00 0. -1.
          1    1    1    2  501    0  0.14223232279E+02  0.56322028602E+02 -0.23728364566E+04  0.23735474129E+04  0.00000000000E+00 0. -1.
<scales pt_clust_3="65.93111" pt_clust_4="109.59766" pt_clust_5="14000.00000" pt_clust_6="58.09020"></scales>
<clustering>
<clus scale="   58.090">  2  6  1 -1</clus>
<clus scale="   65.931">  1  3  2 -1</clus>
<clus scale="  109.598">  2  4  1 -1</clus>
<clus scale="   65.931">  1  3  2 -1</clus>
</clustering>
</event>
<event>
 6    0  0.4017242E+002  0.1555349E+03  0.7546771E-02  0.1193832E+00
          2   -1    0    0  505    0 -0.00000000000E+00  0.00000000000E+00  0.11338413335E+03  0.11338413335E+03  0.00000000000E+00 0. -1.
         21   -1    0    0  503  502  0.00000000000E+00 -0.00000000000E+00 -0.15587385911E+04  0.15587385911E+04  0.00000000000E+00 0. -1.
         21    1    1    2  503  501  0.93888732827E+01  0.30237668074E+02 -0.68007326749E+02  0.75016424892E+02  0.00000000000E+00 0.  1.
         21    1    1    2  504  502  0.95442982308E+01 -0.12495174817E+03 -0.89668386524E+03  0.90539824784E+03  0.00000000000E+00 0. -1.
         21    1    1    2  505  504 -0.28824374483E+02 -0.49288055514E+02 -0.53458355032E+03  0.53762415241E+03  0.00000000000E+00 0. -1.
          2    1    1    2  501    0  0.98912029700E+01  0.14400213561E+03  0.53920284525E+02  0.15408389935E+03  0.00000000000E+00 0. -1.
<scales pt_clust_3="31.66177" pt_clust_4="36.14654" pt_clust_5="36.14654" pt_clust_6="145.37916"></scales>
<clustering>
<clus scale="   31.662">  2  3  1 -1</clus>
<clus scale="   36.147">  4  5 -1 -1</clus>
<clus scale="  145.379">  1  6  2 -1</clus>
<clus scale="   31.662">  2  3  1 -1</clus>
</clustering>
</event>
<event>
 6    0  0.4017242E+002  0.1242204E+03  0.7546771E-02  0.1236293E+00
         21   -1    0    0  505  502  0.00000000000E+00  0.00000000000E+00  0.89575994036E+02  0.89575994036E+02  0.00000000000E+00 0. -1.
          1   -1    0    0  503    0 -0.00000000000E+00 -0.00000000000E+00 -0.10929487248E+04  0.10929487248E+04  0.00000000000E+00 0.  1.
         21    1    1    2  503  504 -0.64497974645E+02  0.58393073185E+01 -0.63095160881E+03  0.63426652040E+03  0.00000000000E+00 0.  1.
         21    1    1    2  504  502 -0.44202763768E+02  0.55519128071E+01 -0.16587760275E+03  0.17175589409E+03  0.00000000000E+00 0.  1.
         21    1    1    2  505  501 -0.14648960203E+02 -0.32916162881E+02  0.66770804667E+02  0.75870983713E+02  0.00000000000E+00 0. -1.
          1    1    1    2  501    0  0.12334969862E+03  0.21524942755E+02 -0.27331432383E+03  0.30063132059E+03  0.00000000000E+00 0.  1.
<scales pt_clust_3="44.40052" pt_clust_4="44.40052" pt_clust_5="36.02868" pt_clust_6="112.43215"></scales>
<clustering>
<clus scale="   36.029">  1  5  2 -1</clus>
<clus scale="   44.401">  3  4 -1 -1</clus>
<clus scale="  112.432">  1  6  2 -1</clus>
<clus scale="   36.029">  1  3  2 -1</clus>
</clustering>
</event>
<event>
 6    0  0.4017242E+002  0.1199883E+03  0.7546771E-02  0.1243116E+00
          2   -1    0    0  505    0 -0.00000000000E+00  0.00000000000E+00  0.25195993342E+02  0.25195993342E+02  0.00000000000E+00 0.  1.
         21   -1    0    0  504  502  0.00000000000E+00 -0.00000000000E+00 -0.17215749515E+04  0.17215749515E+04  0.00000000000E+00 0. -1.
         21    1    1    2  503  502  0.16856750901E+02 -0.27095369374E+02 -0.55331403711E+03  0.55423346412E+03  0.00000000000E+00 0. -1.
         21    1    1    2  504  501 -0.25349557093E+02 -0.20755443872E+02 -0.17030889970E+03  0.17343157098E+03  0.00000000000E+00 0. -1.
         21    1    1    2  505  503  0.11453522501E+03 -0.14533069019E+02 -0.79249772454E+03  0.80086339114E+03  0.00000000000E+00 0. -1.
          2    1    1    2  501    0 -0.10604241881E+03  0.62383882264E+02 -0.18025829676E+03  0.21824251856E+03  0.00000000000E+00 0.  1.
<scales pt_clust_3="31.91096" pt_clust_4="33.69275" pt_clust_5="14000.00000" pt_clust_6="119.98833"></scales>
<clustering>
<clus scale="   31.911">  2  3  1 -1</clus>
<clus scale="   33.693">  2  4  1 -1</clus>
<clus scale="  119.988">  1  6  2 -1</clus>
<clus scale="   31.911">  2  3  1 -1</clus>
</clustering>
</event>
<event>
 6    0  0.4017242E+002  0.1625998E+03  0.7546771E-02  0.1185792E+00
          2   -1    0    0  505    0 -0.00000000000E+00  0.00000000000E+00  0.25280879568E+03  0.25280879568E+03  0.00000000000E+00 0. -1.
         21   -1    0    0  504  502  0.00000000000E+00 -0.00000000000E+00 -0.44963223514E+03  0.44963223514E+03  0.00000000000E+00 0.  1.
         21    1    1    2  503  501  0.31522159738E+02  0.97502994980E+02 -0.23929263788E+03  0.26031029009E+03  0.00000000000E+00 0.  1.
         21    1    1    2  504  503 -0.11780967331E+02  0.62948269516E+02 -0.14784235492E+03  0.16111684498E+03  0.00000000000E+00 0.  1.
         21    1    1    2  505  502 -0.23883067338E+02 -0.51036486274E+02 -0.55539463693E+01  0.56621287136E+02  0.00000000000E+00 0.  1.
          2    1    1    2  501    0  0.41418749310E+01 -0.10941477822E+03  0.19586549971E+03  0.22439260861E+03  0.00000000000E+00 0. -1.
<scales pt_clust_3="31.55266" pt_clust_4="31.55266" pt_clust_5="56.34824" pt_clust_6="157.62515"></scales>
<clustering>
<clus scale="   31.553">  3  4 -1 -1</clus>
<clus scale="   56.348">  1  5  2 -1</clus>
<clus scale="  157.625">  1  6  2 -1</clus>
<clus scale="  162.600">  2  3  1 -1</clus>
</clustering>
</event>
<event>
 6    0  0.4017242E+002  0.7930761E+02  0.7546771E-02  0.1331028E+00
         21   -1    0    0  504  502  0.00000000000E+00  0.00000000000E+00  0.61299779827E+02  0.61299779827E+02  0.00000000000E+00 0. -1.
          2   -1    0    0  505    0 -0.00000000000E+00 -0.00000000000E+00 -0.11209548251E+04  0.11209548251E+04  0.00000000000E+00 0.  1.
         21    1    1    2  503  502 -0.74634009338E+02 -0.34676230874E+02 -0.43441434461E+01  0.82410848314E+02  0.00000000000E+00 0. -1.
         21    1    1    2  504  501  0.85558147212E+02 -0.32945037414E+02 -0.10055964178E+03  0.13608017343E+03  0.00000000000E+00 0. -1.
         21    1    1    2  505  503  0.13868627659E+02  0.31588116319E+02 -0.71070456404E+02  0.79000998090E+02  0.00000000000E+00 0. -1.
          2    1    1    2  501    0 -0.24792765532E+02  0.36033151970E+02 -0.88368080361E+03  0.88476258506E+03  0.00000000000E+00 0.  1.
<scales pt_clust_3="79.30761" pt_clust_4="14000.00000" pt_clust_5="34.49852" pt_clust_6="64.08439"></scales>
<clustering>
<clus scale="   34.499">  2  5  1 -1</clus>
<clus scale="   64.084">  2  6  1 -1</clus>
<clus scale="   79.308">  1  3  2 -1</clus>
<clus scale="   79.308">  1  3  2 -1</clus>
</clustering>
</event>
<event>
 6    0  0.4017242E+002  0.9663575E+02  0.7546771E-02  0.1287534E+00
         21   -1    0    0  503  502  0.00000000000E+00  0.00000000000E+00  0.47429428630E+03  0.47429428630E+03  0.00000000000E+00 0. -1.
          1   -1    0    0  505    0 -0.00000000000E+00 -0.00000000000E+00 -0.13906561123E+04  0.13906561123E+04  0.00000000000E+00 0. -1.
         21    1    1    2  503  501 -0.16595121779E+02  0.62656811801E+02 -0.14448515943E+03  0.15835793453E+03  0.00000000000E+00 0. -1.
         21    1    1    2  504  502 -0.35609673983E+02  0.26403807139E+02  0.45504434864E+03  0.45719861017E+03  0.00000000000E+00 0. -1.
         21    1    1    2  505  504  0.63047865951E+02 -0.13323386450E+03 -0.50579412932E+03  0.52683393712E+03  0.00000000000E+00 0. -1.
          1    1    1    2  501    0 -0.10843070190E+02  0.44173245556E+02 -0.72112688588E+03  0.72255991677E+03  0.00000000000E+00 0. -1.
<scales pt_clust_3="96.63575" pt_clust_4="44.33069" pt_clust_5="14000.00000" pt_clust_6="46.84360"></scales>
<clustering>
<clus scale="   44.331">  1  4  2 -1</clus>
<clus scale="   46.844">  2  6  1 -1</clus>
<clus scale="   96.636">  1  3  2 -1</clus>
<clus scale="   44.331">  1  3  2 -1</clus>
</clustering>
</event>
<event>
 6    0  0.4017242E+002  0.1479447E+03  0.7546771E-02  0.1203022E+00
         -1   -1    0    0    0  501 -0.00000000000E+00  0.00000000000E+00  0.18921738429E+03  0.18921738429E+03  0.00000000000E+00 0. -1.
         21   -1    0    0  503  502  0.00000000000E+00 -0.00000000000E+00 -0.65594001252E+03  0.65594001252E+03  0.00000000000E+00 0.  1.
         21    1    1    2  503  504  0.72977180069E+02 -0.29629883321E+02 -0.27418213462E+02  0.83398784319E+02  0.00000000000E+00 0. -1.
         21    1    1    2  504  501  0.70232105139E+02  0.10550012346E+00 -0.53768035384E+01  0.70437701118E+02  0.00000000000E+00 0. -1.
         21    1    1    2  505  502 -0.12941448597E+03  0.63234036827E+02 -0.55058286986E+03  0.56911171941E+03  0.00000000000E+00 0.  1.
         -1    1    1    2    0  505 -0.13794799239E+02 -0.33709653630E+02  0.11665525863E+03  0.12220919196E+03  0.00000000000E+00 0. -1.
<scales pt_clust_3="32.84137" pt_clust_4="32.84137" pt_clust_5="143.79872" pt_clust_6="36.42303"></scales>
<clustering>
<clus scale="   32.841">  3  4 -1 -1</clus>
<clus scale="   36.423">  1  6  2 -1</clus>
<clus scale="  143.799">  2  5  1 -1</clus>
<clus scale="  143.799">  2  3  1 -1</clus>
</clustering>
</event>
<event>
 6    0  0.4017242E+002  0.1245674E+03  0.7546771E-02  0.1235747E+00
         21   -1    0    0  504  502  0.00000000000E+00  0.00000000000E+00  0.75723301626E+03  0.75723301626E+03  0.00000000000E+00 0. -1.
         -2   -1    0    0    0  501 -0.00000000000E+00 -0.00000000000E+00 -0.41000695469E+03  0.41000695469E+03  0.00000000000E+00 0.  1.
         21    1    1    2  503  501 -0.41916426980E+01 -0.73922672027E+02  0.27997949248E+03  0.28960429472E+03  0.00000000000E+00 0. -1.
         21    1    1    2  504  503 -0.82453579499E+01 -0.58751196207E+02  0.40344748717E+03  0.40778617422E+03  0.00000000000E+00 0. -1.
         21    1    1    2  505  502 -0.31238097145E+02  0.22872142662E+02  0.51562634256E+02  0.64479910628E+02  0.00000000000E+00 0. -1.
         -2    1    1    2    0  505  0.43675097793E+02  0.10980172557E+03 -0.38776355233E+03  0.40536959139E+03  0.00000000000E+00 0.  1.
<scales pt_clust_3="34.94464" pt_clust_4="34.94464" pt_clust_5="38.71632" pt_clust_6="118.29224"></scales>
<clustering>
<clus scale="   34.945">  3  4 -1 -1</clus>
<clus scale="   38.716">  1  5  2 -1</clus>
<clus scale="  118.292">  2  6  1 -1</clus>
<clus scale="   38.716">  1  3  2 -1</clus>
</clustering>
</event>
<event>
 6    0  0.4017242E+002  0.6727615E+02  0.7546771E-02  0.1369608E+00
         21   -1    0    0  505  502  0.00000000000E+00  0.00000000000E+00  0.11952160085E+04  0.11952160085E+04  0.00000000000E+00 0. -1.
          2   -1    0    0  503    0 -0.00000000000E+00 -0.00000000000E+00 -0.11544755783E+04  0.11544755783E+04  0.00000000000E+00 0. -1.
         21    1    1    2  503  504  0.81949154405E+01 -0.49148272695E+02  0.79826842244E+01  0.50462189760E+02  0.00000000000E+00 0.  1.
         21    1    1    2  504  502 -0.35447063873E+02 -0.49990117966E+02  0.24089483960E+03  0.24856755616E+03  0.00000000000E+00 0. -1.
         21    1    1    2  505  501 -0.29726174808E+01  0.11048797775E+03  0.91771499720E+03  0.92434692934E+03  0.00000000000E+00 0. -1.
          2    1    1    2  501    0  0.30224765914E+02 -0.11349587084E+02 -0.11258520908E+04  0.11263149116E+04  0.00000000000E+00 0. -1.
<scales pt_clust_3="14000.00000" pt_clust_4="60.31859" pt_clust_5="67.27615" pt_clust_6="32.28544"></scales>
<clustering>
<clus scale="   32.285">  2  6  1 -1</clus>
<clus scale="   60.319">  1  4  2 -1</clus>
<clus scale="   67.276">  1  5  2 -1</clus>
<clus scale="   60.319">  1  3  2 -1</clus>
</clustering>
</event>
<event>
 6    0  0.4017242E+002  0.2982312E+03  0.7546771E-02  0.1086128E+00
          4   -1    0    0  504    0 -0.00000000000E+00  0.00000000000E+00  0.25325423450E+03  0.25325423450E+03  0.00000000000E+00 0.  1.
         21   -1    0    0  503  502  0.00000000000E+00 -0.00000000000E+00 -0.22283322726E+04  0.22283322726E+04  0.00000000000E+00 0.  1.
         21    1    1    2  503  505  0.83919104827E+02  0.12305715664E+03 -0.14001570434E+04  0.14080572524E+04  0.00000000000E+00 0.  1.
         21    1    1    2  504  502  0.33325380428E+02  0.14525387246E+01 -0.51213946726E+01  0.33747881901E+02  0.00000000000E+00 0.  1.
         21    1    1    2  505  501 -0.27774623068E+02 -0.39777290541E+03 -0.63040579729E+03  0.74592639263E+03  0.00000000000E+00 0.  1.
          4    1    1    2  501    0 -0.89469862188E+02  0.27326321004E+03  0.60606197253E+02  0.29385498013E+03  0.00000000000E+00 0.  1.
<scales pt_clust_3="149.27880" pt_clust_4="33.35702" pt_clust_5="298.23115" pt_clust_6="14000.00000"></scales>
<clustering>
<clus scale="   33.357">  1  4  2 -1</clus>
<clus scale="  149.279">  2  3  1 -1</clus>
<clus scale="  298.231">  2  5  1 -1</clus>
<clus scale="  149.279">  2  3  1 -1</clus>
</clustering>
</event>
<event>
 6    0  0.4017242E+002  0.1017830E+03  0.7546771E-02  0.1276591E+00
         21   -1    0    0  504  502  0.00000000000E+00  0.00000000000E+00  0.21224857318E+03  0.21224857318E+03  0.00000000000E+00 0. -1.
          2   -1    0    0  505    0 -0.00000000000E+00 -0.00000000000E+00 -0.17847024133E+04  0.17847024133E+04  0.00000000000E+00 0. -1.
         21    1    1    2  503  502  0.35499524541E+02 -0.18565651691E+02  0.12475997049E+03  0.13103415548E+03  0.00000000000E+00 0. -1.
         21    1    1    2  504  501  0.13678875796E+03  0.36199072175E+02 -0.56591770796E+01  0.14161060489E+03  0.00000000000E+00 0. -1.
         21    1    1    2  505  503 -0.72037493408E+02 -0.30640610323E+02 -0.88851417166E+02  0.11841799606E+03  0.00000000000E+00 0. -1.
          2    1    1    2  501    0 -0.10025078909E+03  0.13007189839E+02 -0.16027032163E+04  0.16058882300E+04  0.00000000000E+00 0. -1.
<scales pt_clust_3="40.06120" pt_clust_4="101.78297" pt_clust_5="74.03083" pt_clust_6="14000.00000"></scales>
<clustering>
<clus scale="   40.061">  1  3  2 -1</clus>
<clus scale="   74.031">  1  5  2 -1</clus>
<clus scale="  101.783">  1  4  2 -1</clus>
<clus scale="   40.061">  1  3  2 -1</clus>
</clustering>
</event>
<event>
 6    0  0.4017242E+002  0.1279372E+03  0.7546771E-02  0.1230549E+00
          2   -1    0    0  503    0 -0.00000000000E+00  0.00000000000E+00  0.38294962124E+04  0.38294962124E+04  0.00000000000E+00 0.  1.
         21   -1    0    0  504  502  0.00000000000E+00 -0.00000000000E+00 -0.48453439537E+02  0.48453439537E+02  0.00000000000E+00 0. -1.
         21    1    1    2  503  502 -0.13489188542E+02  0.64548496319E+02 -0.39906028888E+01  0.66063541353E+02  0.00000000000E+00 0. -1.
         21    1    1    2  504  505 -0.30334353439E+02  0.10557303445E+01  0.41911349043E+02  0.51747934681E+02  0.00000000000E+00 0.  1.
         21    1    1    2  505  501 -0.56181216613E+01  0.54652240606E+02  0.95320814872E+02  0.11002040012E+03  0.00000000000E+00 0.  1.
          2    1    1    2  501    0  0.49441663643E+02 -0.12025646727E+03  0.36478012118E+04  0.36501177758E+04  0.00000000000E+00 0.  1.
<scales pt_clust_3="127.93718" pt_clust_4="30.35272" pt_clust_5="55.87230" pt_clust_6="14000.00000"></scales>
<clustering>
<clus scale="   30.353">  2  4  1 -1</clus>
<clus scale="   55.872">  2  5  1 -1</clus>
<clus scale="  127.937">  2  3  1 -1</clus>
<clus scale="   30.353">  2  3  1 -1</clus>
</clustering>
</event>
<event>
 6    0  0.4017242E+002  0.8970236E+02  0.7546771E-02  0.1303574E+00
         -4   -1    0    0    0  501 -0.00000000000E+00  0.00000000000E+00  0.35546741908E+03  0.35546741908E+03  0.00000000000E+00 0. -1.
         21   -1    0    0  503  502  0.00000000000E+00 -0.00000000000E+00 -0.83893698726E+03  0.83893698726E+03  0.00000000000E+00 0. -1.
         21    1    1    2  503  501 -0.13105180950E+02  0.15225080338E+03 -0.26818701019E+03  0.30866863354E+03  0.00000000000E+00 0. -1.
         21    1    1    2  504  505 -0.43921546020E+02 -0.34960735999E+02 -0.56411535466E+02  0.79584022266E+02  0.00000000000E+00 0. -1.
         21    1    1    2  505  502  0.31528059179E+02 -0.73774556539E+02 -0.47717708517E+03  0.48387464732E+03  0.00000000000E+00 0. -1.
         -4    1    1    2    0  504  0.25498667791E+02 -0.43515510840E+02  0.31830606265E+03  0.32227710322E+03  0.00000000000E+00 0. -1.
<scales pt_clust_3="89.70236" pt_clust_4="60.75983" pt_clust_5="14000.00000" pt_clust_6="50.43592"></scales>
<clustering>
<clus scale="   50.436">  1  6  2 -1</clus>
<clus scale="   60.760">  1  4  2 -1</clus>
<clus scale="   89.702">  1  3  2 -1</clus>
<clus scale="   89.702">  2  3  1 -1</clus>
</clustering>
</event>
<event>
 6    0  0.4017242E+002  0.2301403E+03  0.7546771E-02  0.1126541E+00
          2   -1    0    0  504    0 -0.00000000000E+00  0.00000000000E+00  0.15809441537E+04  0.15809441537E+04  0.00000000000E+00 0. -1.
         21   -1    0    0  501  502  0.00000000000E+00 -0.00000000000E+00 -0.51463578822E+03  0.51463578822E+03  0.00000000000E+00 0.  1.
         21    1    1    2  503  505  0.48236024972E+02  0.11816058313E+03 -0.21327821580E+03  0.24854825456E+03  0.00000000000E+00 0.  1.
         21    1    1    2  504  503 -0.10306244289E+03 -0.16645376020E+03  0.46760503059E+03  0.50693509057E+03  0.00000000000E+00 0. -1.
         21    1    1    2  505  502  0.26198881819E+02  0.97084356821E+02 -0.25370662146E+03  0.27290804957E+03  0.00000000000E+00 0.  1.
          2    1    1    2  501    0  0.28627536097E+02 -0.48791179747E+02  0.10656881721E+04  0.10671885472E+04  0.00000000000E+00 0. -1.
<scales pt_clust_3="39.40648" pt_clust_4="225.81771" pt_clust_5="39.40648" pt_clust_6="56.56956"></scales>
<clustering>
<clus scale="   39.406">  3  5 -1 -1</clus>
<clus scale="   56.570">  1  6  2 -1</clus>
<clus scale="  225.818">  1  4  2 -1</clus>
<clus scale="  230.140">  2  3  1 -1</clus>
</clustering>
</event>
<event>
 6    0  0.4017242E+002  0.1031867E+03  0.7546771E-02  0.1273734E+00
         21   -1    0    0  504  502  0.00000000000E+00  0.00000000000E+00  0.19338647672E+02  0.19338647672E+02  0.00000000000E+00 0. -1.
         -3   -1    0    0    0  501 -0.00000000000E+00 -0.00000000000E+00 -0.12242522480E+04  0.12242522480E+04  0.00000000000E+00 0. -1.
         21    1    1    2  503  501  0.53339354688E+02  0.51924093659E+02 -0.39818581574E+03  0.40508411734E+03  0.00000000000E+00 0. -1.
         21    1    1    2  504  503  0.48127893906E+02  0.24200410911E+02 -0.46008760615E+03  0.46323056828E+03  0.00000000000E+00 0. -1.
         21    1    1    2  505  502 -0.42236417815E+02 -0.37780506064E+02 -0.71503314709E+02  0.91235988747E+02  0.00000000000E+00 0. -1.
         -3    1    1    2    0  505 -0.59230830779E+02 -0.38343998506E+02 -0.27513686370E+03  0.28404022128E+03  0.00000000000E+00 0. -1.
<scales pt_clust_3="30.03533" pt_clust_4="30.03533" pt_clust_5="56.66817" pt_clust_6="96.95826"></scales>
<clustering>
<clus scale="   30.035">  3  4 -1 -1</clus>
<clus scale="   56.668">  1  5  2 -1</clus>
<clus scale="   96.958">  2  6  1 -1</clus>
<clus scale="   56.668">  1  3  2 -1</clus>
</clustering>
</event>
<event>
 6    0  0.4017242E+002  0.1009546E+03  0.7546771E-02  0.1278301E+00
         21   -1    0    0  501  502  0.00000000000E+00  0.00000000000E+00  0.20372346065E+03  0.20372346065E+03  0.00000000000E+00 0.  1.
         -1   -1    0    0    0  501 -0.00000000000E+00 -0.00000000000E+00 -0.10112446424E+04  0.10112446424E+04  0.00000000000E+00 0.  1.
         21    1    1    2  503  505  0.16004195923E+02  0.39141322083E+02 -0.22224068559E+03  0.22622798172E+03  0.00000000000E+00 0.  1.
         21    1    1    2  504  503 -0.38388828600E+02  0.76335249641E+02 -0.54333613736E+03  0.55001357316E+03  0.00000000000E+00 0.  1.
         21    1    1    2  505  502 -0.33959416586E+01 -0.86682738889E+02  0.18721187316E+03  0.20633398919E+03  0.00000000000E+00 0.  1.
         -1    1    1    2    0  504  0.25780574335E+02 -0.28793832836E+02 -0.22915623195E+03  0.23239255897E+03  0.00000000000E+00 0.  1.
<scales pt_clust_3="35.92072" pt_clust_4="35.92072" pt_clust_5="87.08996" pt_clust_6="38.64871"></scales>
<clustering>
<clus scale="   35.921">  3  4 -1 -1</clus>
<clus scale="   38.649">  2  6  1 -1</clus>
<clus scale="   87.090">  1  5  2 -1</clus>
<clus scale="   87.090">  1  3  2 -1</clus>
</clustering>
</event>
<event>
 6    0  0.4017242E+002  0.1018430E+03  0.7546771E-02  0.1276467E+00
          2   -1    0    0  505    0 -0.00000000000E+00  0.00000000000E+00  0.27002722477E+04  0.27002722477E+04  0.00000000000E+00 0.  1.
         21   -1    0    0  504  502  0.00000000000E+00 -0.00000000000E+00 -0.94588328970E+03  0.94588328970E+03  0.00000000000E+00 0. -1.
         21    1    1    2  503  502  0.25857326355E+02  0.11123167791E+03 -0.64424016654E+03  0.65428318004E+03  0.00000000000E+00 0. -1.
         21    1    1    2  504  501 -0.32001491399E+02  0.16268152683E+01 -0.25351640024E+03  0.25553337780E+03  0.00000000000E+00 0. -1.
         21    1    1    2  505  503  0.53864582812E+01 -0.60874364346E+02 -0.19530487454E+02  0.64157167234E+02  0.00000000000E+00 0. -1.
          2    1    1    2  501    0  0.75770676248E+00 -0.51984128835E+02  0.26716760123E+04  0.26721818124E+04  0.00000000000E+00 0.  1.
<scales pt_clust_3="14000.00000" pt_clust_4="32.04281" pt_clust_5="101.84301" pt_clust_6="51.98889"></scales>
<clustering>
<clus scale="   32.043">  2  4  1 -1</clus>
<clus scale="   51.989">  1  6  2 -1</clus>
<clus scale="  101.843">  1  5  2 -1</clus>
<clus scale="   32.043">  2  3  1 -1</clus>
</clustering>
</event>
<event>
 6    0  0.4017242E+002  0.1056755E+03  0.7546771E-02  0.1268794E+00
         21   -1    0    0  503  502  0.00000000000E+00  0.00000000000E+00  0.61293839580E+03  0.61293839580E+03  0.00000000000E+00 0.  1.
         -1   -1    0    0    0  501 -0.00000000000E+00 -0.00000000000E+00 -0.21315552396E+03  0.21315552396E+03  0.00000000000E+00 0. -1.
         21    1    1    2  503  501  0.78626617105E+02  0.21128843050E+02  0.93478959262E+02  0.12396325565E+03  0.00000000000E+00 0. -1.
         21    1    1    2  504  502  0.90328107119E+02 -0.29518542868E+02  0.30330907586E+03  0.31784730109E+03  0.00000000000E+00 0.  1.
         21    1    1    2  505  504 -0.18541153741E+03 -0.25251712217E+02  0.14543976104E+03  0.23699749211E+03  0.00000000000E+00 0. -1.
         -1    1    1    2    0  505  0.16456813190E+02  0.33641412035E+02 -0.14244492432E+03  0.14728587091E+03  0.00000000000E+00 0. -1.
<scales pt_clust_3="87.13984" pt_clust_4="105.67555" pt_clust_5="14000.00000" pt_clust_6="37.45092"></scales>
<clustering>
<clus scale="   37.451">  2  6  1 -1</clus>
<clus scale="   87.140">  2  3  1 -1</clus>
<clus scale="  105.676">  1  4  2 -1</clus>
<clus scale="  105.676">  1  3  2 -1</clus>
</clustering>
</event>
<event>
 6    0  0.4017242E+002  0.1090717E+03  0.7546771E-02  0.1262299E+00
         21   -1    0    0  504  502  0.00000000000E+00  0.00000000000E+00  0.47180452792E+03  0.47180452792E+03  0.00000000000E+00 0.  1.
          2   -1    0    0  503    0 -0.00000000000E+00 -0.00000000000E+00 -0.27188090004E+04  0.27188090004E+04  0.00000000000E+00 0. -1.
         21    1    1    2  503  505 -0.23686207110E+01  0.40327340325E+02  0.11692937924E+02  0.42055077447E+02  0.00000000000E+00 0. -1.
         21    1    1    2  504  501  0.86955052586E+02  0.68282099363E+02  0.17080422525E+03  0.20346427113E+03  0.00000000000E+00 0.  1.
         21    1    1    2  505  502 -0.80233848233E+01 -0.30930895610E+02  0.25569470204E+03  0.25768367364E+03  0.00000000000E+00 0.  1.
          2    1    1    2  501    0 -0.76563047051E+02 -0.77678544078E+02 -0.26851963377E+04  0.26874105061E+04  0.00000000000E+00 0. -1.
<scales pt_clust_3="36.61868" pt_clust_4="109.07170" pt_clust_5="31.95458" pt_clust_6="14000.00000"></scales>
<clustering>
<clus scale="   31.955">  1  5  2 -1</clus>
<clus scale="   36.619">  1  3  2 -1</clus>
<clus scale="  109.072">  1  4  2 -1</clus>
<clus scale="   31.955">  1  3  2 -1</clus>
</clustering>
</event>
<event>
 6    0  0.4017242E+002  0.1199849E+03  0.7546771E-02  0.1243122E+00
          2   -1    0    0  505    0 -0.00000000000E+00  0.00000000000E+00  0.17244132707E+04  0.17244132707E+04  0.00000000000E+00 0.  1.
         21   -1    0    0  503  502  0.00000000000E+00 -0.00000000000E+00 -0.32607717074E+03  0.32607717074E+03  0.00000000000E+00 0. -1.
         21    1    1    2  503  504  0.34165900354E+02 -0.13883782289E+01  0.85978757385E+01  0.35258471440E+02  0.00000000000E+00 0.  1.
         21    1    1    2  504  501  0.16634255812E+03 -0.24945852736E+02  0.31037041598E+03  0.35301832435E+03  0.00000000000E+00 0. -1.
         21    1    1    2  505  502 -0.98054419244E+02 -0.26658637032E+02 -0.28004790101E+03  0.29791303919E+03  0.00000000000E+00 0. -1.
          2    1    1    2  501    0 -0.10245403923E+03  0.52992867997E+02  0.13594157092E+04  0.13643006064E+04  0.00000000000E+00 0.  1.
<scales pt_clust_3="34.19410" pt_clust_4="14000.00000" pt_clust_5="72.11772" pt_clust_6="119.98491"></scales>
<clustering>
<clus scale="   34.194">  2  3  1 -1</clus>
<clus scale="   72.118">  2  5  1 -1</clus>
<clus scale="  119.985">  1  6  2 -1</clus>
<clus scale="   34.194">  2  3  1 -1</clus>
</clustering>
</event>
<event>
 6    0  0.4017242E+002  0.8625463E+02  0.7546771E-02  0.1312184E+00
          1   -1    0    0  503    0 -0.00000000000E+00  0.00000000000E+00  0.17132595317E+04  0.17132595317E+04  0.00000000000E+00 0. -1.
         21   -1    0    0  504  502  0.00000000000E+00 -0.00000000000E+00 -0.27453234730E+02  0.27453234730E+02  0.00000000000E+00 0. -1.
         21    1    1    2  503  505  0.31009701458E+02  0.63898319136E+02  0.23755020744E+03  0.24794091600E+03  0.00000000000E+00 0. -1.
         21    1    1    2  504  501 -0.23067391425E+02 -0.10372949702E+03  0.23890555522E+03  0.26147232628E+03  0.00000000000E+00 0. -1.
         21    1    1    2  505  502  0.28805070140E+02  0.10713215341E+02  0.11938886916E+02  0.32970321040E+02  0.00000000000E+00 0. -1.
          1    1    1    2  501    0 -0.36747380172E+02  0.29117962539E+02  0.11974116474E+04  0.11983292031E+04  0.00000000000E+00 0. -1.
<scales pt_clust_3="14000.00000" pt_clust_4="86.25463" pt_clust_5="30.73280" pt_clust_6="46.45939"></scales>
<clustering>
<clus scale="   30.733">  2  5  1 -1</clus>
<clus scale="   46.459">  1  6  2 -1</clus>
<clus scale="   86.255">  2  4  1 -1</clus>
<clus scale="   30.733">  2  3  1 -1</clus>
</clustering>
</event>
<event>
 6    0  0.8121637E+002  0.7528965E+02  0.7546771E-02  0.1342976E+00
         21   -1    0    0  503  502  0.00000000000E+00  0.00000000000E+00  0.19293561919E+04  0.19293561919E+04  0.00000000000E+00 0. -1.
          2   -1    0    0  504    0 -0.00000000000E+00 -0.00000000000E+00 -0.13813053057E+04  0.13813053057E+04  0.00000000000E+00 0.  1.
         21    1    1    2  503  501 -0.50880304035E+02  0.43771386811E+02  0.35624138400E+03  0.36250884584E+03  0.00000000000E+00 0. -1.
         21    1    1    2  504  505 -0.33376904151E+02 -0.14445698142E+02 -0.44816299587E+00  0.36371647963E+02  0.00000000000E+00 0.  1.
         21    1    1    2  505  502  0.12528252916E+03 -0.51058667985E+02  0.15486732286E+04  0.15545711527E+04  0.00000000000E+00 0. -1.
          2    1    1    2  501    0 -0.41025320973E+02  0.21732979316E+02 -0.13564155634E+04  0.13572098511E+04  0.00000000000E+00 0.  1.
<scales pt_clust_3="67.15392" pt_clust_4="36.36889" pt_clust_5="75.28965" pt_clust_6="14000.00000"></scales>
<clustering>
<clus scale="   36.369">  2  4  1 -1</clus>
<clus scale="   67.154">  1  3  2 -1</clus>
<clus scale="   75.290">  1  5  2 -1</clus>
<clus scale="   67.154">  1  3  2 -1</clus>
</clustering>
</event>
<event>
 6    0  0.4017242E+002  0.1089122E+03  0.7546771E-02  0.1262598E+00
         21   -1    0    0  504  502  0.00000000000E+00  0.00000000000E+00  0.36852565221E+02  0.36852565221E+02  0.00000000000E+00 0. -1.
          2   -1    0    0  505    0 -0.00000000000E+00 -0.00000000000E+00 -0.17625387505E+04  0.17625387505E+04  0.00000000000E+00 0.  1.
         21    1    1    2  503  501  0.31957997885E+02  0.89595658089E+02 -0.65958337804E+03  0.66640747907E+03  0.00000000000E+00 0. -1.
         21    1    1    2  504  503 -0.70073628831E+02 -0.87110821466E+02 -0.73436741695E+02  0.13375934997E+03  0.00000000000E+00 0. -1.
         21    1    1    2  505  502  0.22516569978E+02 -0.41844431915E+02 -0.20556622213E+03  0.21098678652E+03  0.00000000000E+00 0. -1.
          2    1    1    2  501    0  0.15599060967E+02  0.39359595292E+02 -0.78709984339E+03  0.78823770014E+03  0.00000000000E+00 0.  1.
<scales pt_clust_3="108.91218" pt_clust_4="14000.00000" pt_clust_5="42.26241" pt_clust_6="42.33803"></scales>
<clustering>
<clus scale="   42.338">  2  6  1 -1</clus>
<clus scale="   42.262">  2  5  1 -1</clus>
<clus scale="  108.912">  2  3  1 -1</clus>
<clus scale="  108.912">  1  3  2 -1</clus>
</clustering>
</event>
<event>
 6    0  0.4017242E+002  0.5603710E+02  0.7546771E-02  0.1415257E+00
          2   -1    0    0  505    0 -0.00000000000E+00  0.00000000000E+00  0.16718690739E+04  0.16718690739E+04  0.00000000000E+00 0.  1.
         21   -1    0    0  504  502  0.00000000000E+00 -0.00000000000E+00 -0.57581330927E+02  0.57581330927E+02  0.00000000000E+00 0. -1.
         21    1    1    2  503  501  0.50046092249E+02 -0.83908287199E+02  0.96874720120E+02  0.13758605819E+03  0.00000000000E+00 0. -1.
         21    1    1    2  504  503 -0.43308990979E+02  0.47260802255E+02  0.21949611540E+00  0.64103824441E+02  0.00000000000E+00 0. -1.
         21    1    1    2  505  502  0.35044138320E+02  0.73314734591E+00  0.59725177628E+02  0.69251180339E+02  0.00000000000E+00 0. -1.
          2    1    1    2  501    0 -0.41781239591E+02  0.35914337598E+02  0.14574683491E+04  0.14585093419E+04  0.00000000000E+00 0.  1.
<scales pt_clust_3="56.03710" pt_clust_4="52.58136" pt_clust_5="35.05181" pt_clust_6="14000.00000"></scales>
<clustering>
<clus scale="   35.052">  2  5  1 -1</clus>
<clus scale="   52.581">  2  4  1 -1</clus>
<clus scale="   56.037">  2  3  1 -1</clus>
<clus scale="   35.052">  2  3  1 -1</clus>
</clustering>
</event>
<event>
 6    0  0.4017242E+002  0.1141953E+03  0.7546771E-02  0.1252992E+00
          1   -1    0    0  503    0 -0.00000000000E+00  0.00000000000E+00  0.64592908632E+03  0.64592908632E+03  0.00000000000E+00 0.  1.
         21   -1    0    0  504  502  0.00000000000E+00 -0.00000000000E+00 -0.21376883748E+03  0.21376883748E+03  0.00000000000E+00 0.  1.
         21    1    1    2  503  505 -0.15810701628E+02 -0.50930890260E+02  0.34231906579E+02  0.63370003130E+02  0.00000000000E+00 0.  1.
         21    1    1    2  504  501  0.50054190643E+01  0.46458159916E+02 -0.15137152005E+03  0.15841954401E+03  0.00000000000E+00 0.  1.
         21    1    1    2  505  502  0.12520957239E+02 -0.98073776788E+02  0.22737200217E+02  0.10145058076E+03  0.00000000000E+00 0. -1.
          1    1    1    2  501    0 -0.17156746753E+01  0.10254650713E+03  0.52656266209E+03  0.53645779589E+03  0.00000000000E+00 0.  1.
<scales pt_clust_3="30.34462" pt_clust_4="46.72702" pt_clust_5="30.34462" pt_clust_6="106.45861"></scales>
<clustering>
<clus scale="   30.345">  3  5 -1 -1</clus>
<clus scale="   46.727">  2  4  1 -1</clus>
<clus scale="  106.459">  1  6  2 -1</clus>
<clus scale="   46.727">  2  3  1 -1</clus>
</clustering>
</event>
<event>
 6    0  0.4017242E+002  0.1847625E+03  0.7546771E-02  0.1163272E+00
         21   -1    0    0  503  502  0.00000000000E+00  0.00000000000E+00  0.31615497515E+03  0.31615497515E+03  0.00000000000E+00 0. -1.
          2   -1    0    0  504    0 -0.00000000000E+00 -0.00000000000E+00 -0.25813310345E+04  0.25813310345E+04  0.00000000000E+00 0. -1.
         21    1    1    2  503  505  0.28517715025E+02  0.17504052989E+02  0.94669248651E+01  0.34774625918E+02  0.00000000000E+00 0. -1.
         21    1    1    2  504  502  0.68641405631E+02  0.98897166115E+01  0.10097043861E+03  0.12249276932E+03  0.00000000000E+00 0.  1.
         21    1    1    2  505  501 -0.27964107321E+03 -0.39886926970E+02  0.67372611339E+02  0.29039484419E+03  0.00000000000E+00 0. -1.
          2    1    1    2  501    0  0.18248195256E+03  0.12493157369E+02 -0.24429860342E+04  0.24498237702E+04  0.00000000000E+00 0. -1.
<scales pt_clust_3="33.46120" pt_clust_4="81.18105" pt_clust_5="14000.00000" pt_clust_6="184.76245"></scales>
<clustering>
<clus scale="   33.461">  1  3  2 -1</clus>
<clus scale="   81.181">  1  4  2 -1</clus>
<clus scale="  184.762">  2  6  1 -1</clus>
<clus scale="   33.461">  1  3  2 -1</clus>
</clustering>
</event>
<event>
 6    0  0.4017242E+002  0.8115224E+02  0.7546771E-02  0.1325813E+00
         21   -1    0    0  504  502  0.00000000000E+00  0.00000000000E+00  0.31066311244E+03  0.31066311244E+03  0.00000000000E+00 0. -1.
         -3   -1    0    0    0  501 -0.00000000000E+00 -0.00000000000E+00 -0.83593237236E+02  0.83593237236E+02  0.00000000000E+00 0. -1.
         21    1    1    2  503  501 -0.55752913844E+02 -0.46930074683E+02  0.33852919260E+02  0.80354461321E+02  0.00000000000E+00 0. -1.
         21    1    1    2  504  505  0.46236481801E+02  0.28273226447E+02  0.81015619062E+02  0.97471627231E+02  0.00000000000E+00 0.  1.
         21    1    1    2  505  503 -0.65889257711E+02 -0.27544131664E+02  0.10595597461E+03  0.12777614029E+03  0.00000000000E+00 0. -1.
         -3    1    1    2    0  502  0.75405689754E+02  0.46200979899E+02  0.62453622679E+01  0.88654120834E+02  0.00000000000E+00 0. -1.
<scales pt_clust_3="14000.00000" pt_clust_4="54.19583" pt_clust_5="43.36293" pt_clust_6="81.15224"></scales>
<clustering>
<clus scale="   54.196">  1  4  2 -1</clus>
<clus scale="   43.363">  1  5  2 -1</clus>
<clus scale="   81.152">  2  6  1 -1</clus>
<clus scale="   54.196">  1  3  2 -1</clus>
</clustering>
</event>
<event>
 6    0  0.4017242E+002  0.1203150E+03  0.7546771E-02  0.1242578E+00
         -1   -1    0    0    0  501 -0.00000000000E+00  0.00000000000E+00  0.35546532183E+03  0.35546532183E+03  0.00000000000E+00 0.  1.
         21   -1    0    0  504  502  0.00000000000E+00 -0.00000000000E+00 -0.76524974149E+03  0.76524974149E+03  0.00000000000E+00 0.  1.
         21    1    1    2  503  501  0.57417729792E+02  0.14741822667E+03 -0.20620281947E+03  0.25990100424E+03  0.00000000000E+00 0.  1.
         21    1    1    2  504  503 -0.65391474228E+02 -0.89706115785E+02 -0.41310081253E+03  0.42775637158E+03  0.00000000000E+00 0.  1.
         21    1    1    2  505  502 -0.93988735544E+02 -0.70491851946E+02 -0.68956101374E+02  0.13622748444E+03  0.00000000000E+00 0.  1.
         -1    1    1    2    0  505  0.10196247998E+03  0.12779741063E+02  0.27847531371E+03  0.29683020306E+03  0.00000000000E+00 0.  1.
<scales pt_clust_3="120.31504" pt_clust_4="14000.00000" pt_clust_5="77.46232" pt_clust_6="102.76025"></scales>
<clustering>
<clus scale="  102.760">  1  6  2 -1</clus>
<clus scale="   77.462">  1  5  2 -1</clus>
<clus scale="  120.315">  1  3  2 -1</clus>
<clus scale="  120.315">  2  3  1 -1</clus>
</clustering>
</event>
<event>
 6    0  0.4017242E+002  0.7029832E+02  0.7546771E-02  0.1359082E+00
         21   -1    0    0  504  502  0.00000000000E+00  0.00000000000E+00  0.65128771504E+02  0.65128771504E+02  0.00000000000E+00 0.  1.
          2   -1    0    0  505    0 -0.00000000000E+00 -0.00000000000E+00 -0.71498286004E+03  0.71498286004E+03  0.00000000000E+00 0. -1.
         21    1    1    2  503  502  0.69196659580E+02  0.42703588316E+02 -0.28448384395E+03  0.29587637895E+03  0.00000000000E+00 0.  1.
         21    1    1    2  504  501 -0.66502448089E+02  0.27853281821E+02  0.25275801097E+02  0.76401878453E+02  0.00000000000E+00 0.  1.
         21    1    1    2  505  503  0.37087018953E+02 -0.18277256360E+02 -0.23928349483E+03  0.24282935567E+03  0.00000000000E+00 0.  1.
          2    1    1    2  501    0 -0.39781230445E+02 -0.52279613776E+02 -0.15136255085E+03  0.16500401847E+03  0.00000000000E+00 0. -1.
<scales pt_clust_3="70.29832" pt_clust_4="14000.00000" pt_clust_5="41.34616" pt_clust_6="64.49135"></scales>
<clustering>
<clus scale="   41.346">  2  5  1 -1</clus>
<clus scale="   64.491">  2  6  1 -1</clus>
<clus scale="   70.298">  2  3  1 -1</clus>
<clus scale="   70.298">  1  3  2 -1</clus>
</clustering>
</event>
<event>
 6    0  0.4017242E+002  0.1156907E+03  0.7546771E-02  0.1250380E+00
         21   -1    0    0  505  502  0.00000000000E+00  0.00000000000E+00  0.16879791761E+04  0.16879791761E+04  0.00000000000E+00 0. -1.
          2   -1    0    0  502    0 -0.00000000000E+00 -0.00000000000E+00 -0.95883190531E+03  0.95883190531E+03  0.00000000000E+00 0.  1.
         21    1    1    2  503  504  0.41283871622E+02 -0.51774460319E+02  0.68697472829E+03  0.69015884411E+03  0.00000000000E+00 0. -1.
         21    1    1    2  504  501 -0.47354124135E+02 -0.98519704941E+02  0.71678234657E+03  0.72506929165E+03  0.00000000000E+00 0. -1.
         21    1    1    2  505  503 -0.20826289295E+02  0.37728965120E+02  0.27327838319E+03  0.27665553285E+03  0.00000000000E+00 0. -1.
          2    1    1    2  501    0  0.26896541808E+02  0.11256520014E+03 -0.94788818725E+03  0.95492741282E+03  0.00000000000E+00 0.  1.
<scales pt_clust_3="45.65326" pt_clust_4="14000.00000" pt_clust_5="43.09535" pt_clust_6="115.69074"></scales>
<clustering>
<clus scale="   43.095">  1  5  2 -1</clus>
<clus scale="   45.653">  1  3  2 -1</clus>
<clus scale="  115.691">  2  6  1 -1</clus>
<clus scale="   43.095">  1  3  2 -1</clus>
</clustering>
</event>
<event>
 6    0  0.4017242E+002  0.9662954E+02  0.7546771E-02  0.1287548E+00
         21   -1    0    0  501  502  0.00000000000E+00  0.00000000000E+00  0.97635892658E+02  0.97635892658E+02  0.00000000000E+00 0. -1.
          2   -1    0    0  503    0 -0.00000000000E+00 -0.00000000000E+00 -0.85241156773E+03  0.85241156773E+03  0.00000000000E+00 0. -1.
         21    1    1    2  503  505  0.89793410373E+02  0.48787527255E+02  0.31534976816E+02  0.10694640772E+03  0.00000000000E+00 0. -1.
         21    1    1    2  504  502  0.27267681464E+02 -0.19680774068E+02 -0.43710938813E+01  0.33911145396E+02  0.00000000000E+00 0. -1.
         21    1    1    2  505  504 -0.33016188540E+02  0.18079585563E+02 -0.22911800761E+02  0.44066889316E+02  0.00000000000E+00 0. -1.
          2    1    1    2  501    0 -0.84044903297E+02 -0.47186338750E+02 -0.75902775724E+03  0.76512301795E+03  0.00000000000E+00 0. -1.
<scales pt_clust_3="14000.00000" pt_clust_4="33.62825" pt_clust_5="33.38703" pt_clust_6="96.62954"></scales>
<clustering>
<clus scale="   33.628">  1  4  2 -1</clus>
<clus scale="   33.387">  1  5  2 -1</clus>
<clus scale="   96.630">  2  6  1 -1</clus>
<clus scale="   33.628">  1  3  2 -1</clus>
</clustering>
</event>
<event>
 6    0  0.4017242E+002  0.8934188E+02  0.7546771E-02  0.1304453E+00
         21   -1    0    0  503  502  0.00000000000E+00  0.00000000000E+00  0.15291390805E+03  0.15291390805E+03  0.00000000000E+00 0. -1.
         -3   -1    0    0    0  501 -0.00000000000E+00 -0.00000000000E+00 -0.14352520364E+04  0.14352520364E+04  0.00000000000E+00 0. -1.
         21    1    1    2  503  501 -0.33688708803E+02  0.90483048056E+01 -0.27439529083E+02  0.44381625443E+02  0.00000000000E+00 0. -1.
         21    1    1    2  504  502  0.40362371369E+02 -0.31653421915E+02 -0.17383926160E+02  0.54159588535E+02  0.00000000000E+00 0.  1.
         21    1    1    2  505  504 -0.92095734887E+02 -0.35764649263E+01  0.10752592253E+03  0.14162005332E+03  0.00000000000E+00 0. -1.
         -3    1    1    2    0  505  0.85422072320E+02  0.26181582036E+02 -0.13450405957E+04  0.13480046772E+04  0.00000000000E+00 0. -1.
<scales pt_clust_3="34.88267" pt_clust_4="47.24044" pt_clust_5="89.34188" pt_clust_6="14000.00000"></scales>
<clustering>
<clus scale="   34.883">  1  3  2 -1</clus>
<clus scale="   47.240">  1  4  2 -1</clus>
<clus scale="   89.342">  1  5  2 -1</clus>
<clus scale="   34.883">  1  3  2 -1</clus>
</clustering>
</event>
<event>
 6    0  0.4017242E+002  0.9010280E+02  0.7546771E-02  0.1302603E+00
         21   -1    0    0  503  502  0.00000000000E+00  0.00000000000E+00  0.13568511389E+03  0.13568511389E+03  0.00000000000E+00 0.  1.
          2   -1    0    0  505    0 -0.00000000000E+00 -0.00000000000E+00 -0.15972955410E+04  0.15972955410E+04  0.00000000000E+00 0. -1.
         21    1    1    2  503  501  0.10739573700E+03 -0.51652090802E+02  0.57968259558E+02  0.13252208090E+03  0.00000000000E+00 0.  1.
         21    1    1    2  504  502  0.35703066545E+02  0.27788062406E+02  0.74442074968E+01  0.45850862568E+02  0.00000000000E+00 0.  1.
         21    1    1    2  505  504 -0.61855671544E+02 -0.14116314758E+02 -0.68644388823E+02  0.93474309633E+02  0.00000000000E+00 0. -1.
          2    1    1    2  501    0 -0.81243132002E+02  0.37980343154E+02 -0.14583785054E+04  0.14611334018E+04  0.00000000000E+00 0. -1.
<scales pt_clust_3="14000.00000" pt_clust_4="45.24252" pt_clust_5="58.81922" pt_clust_6="90.10280"></scales>
<clustering>
<clus scale="   45.243">  1  4  2 -1</clus>
<clus scale="   58.819">  1  5  2 -1</clus>
<clus scale="   90.103">  2  6  1 -1</clus>
<clus scale="   45.243">  1  3  2 -1</clus>
</clustering>
</event>
<event>
 6    0  0.4017242E+002  0.7544603E+02  0.7546771E-02  0.1342495E+00
         21   -1    0    0  503  502  0.00000000000E+00  0.00000000000E+00  0.89999803350E+02  0.89999803350E+02  0.00000000000E+00 0.  1.
          2   -1    0    0  504    0 -0.00000000000E+00 -0.00000000000E+00 -0.25502498953E+04  0.25502498953E+04  0.00000000000E+00 0. -1.
         21    1    1    2  503  501 -0.74101972778E+02  0.86689212991E+02  0.35873633532E+02  0.11955350100E+03  0.00000000000E+00 0.  1.
         21    1    1    2  504  505  0.47133995880E+02 -0.30475730020E+02 -0.85523645912E+02  0.10229700728E+03  0.00000000000E+00 0. -1.
         21    1    1    2  505  502  0.24845916888E+02  0.19096843299E+02 -0.71257017238E+02  0.77843249647E+02  0.00000000000E+00 0.  1.
          2    1    1    2  501    0  0.21220600102E+01 -0.75310326271E+02 -0.23393430623E+04  0.23405559407E+04  0.00000000000E+00 0. -1.
<scales pt_clust_3="75.44603" pt_clust_4="57.21478" pt_clust_5="31.33702" pt_clust_6="14000.00000"></scales>
<clustering>
<clus scale="   31.337">  1  5  2 -1</clus>
<clus scale="   57.215">  1  4  2 -1</clus>
<clus scale="   75.446">  1  3  2 -1</clus>
<clus scale="   31.337">  1  3  2 -1</clus>
</clustering>
</event>
<event>
 6    0  0.4435834E+002  0.7285463E+02  0.7546771E-02  0.1350646E+00
          1   -1    0    0  504    0 -0.00000000000E+00  0.00000000000E+00  0.31974813082E+04  0.31974813082E+04  0.00000000000E+00 0.  1.
         21   -1    0    0  505  502  0.00000000000E+00 -0.00000000000E+00 -0.24077775554E+03  0.24077775554E+03  0.00000000000E+00 0.  1.
         21    1    1    2  503  501 -0.16477478072E+02  0.59542970171E+02  0.11967130280E+02  0.62929204568E+02  0.00000000000E+00 0.  1.
         21    1    1    2  504  502 -0.33682843796E+02 -0.16050923325E+02  0.20655921368E+02  0.42647780638E+02  0.00000000000E+00 0. -1.
         21    1    1    2  505  503  0.10483406535E+03 -0.35663894582E+02 -0.18903287152E+03  0.21907880124E+03  0.00000000000E+00 0.  1.
          1    1    1    2  501    0 -0.54673743483E+02 -0.78281522634E+01  0.31131133726E+04  0.31136032773E+04  0.00000000000E+00 0.  1.
<scales pt_clust_3="72.85463" pt_clust_4="37.31174" pt_clust_5="14000.00000" pt_clust_6="55.26929"></scales>
<clustering>
<clus scale="   37.312">  2  4  1 -1</clus>
<clus scale="   55.269">  1  6  2 -1</clus>
<clus scale="   72.855">  1  3  2 -1</clus>
<clus scale="   37.312">  2  3  1 -1</clus>
</clustering>
</event>
<event>
 6    0  0.4017242E+002  0.1289605E+03  0.7546771E-02  0.1229006E+00
          1   -1    0    0  504    0 -0.00000000000E+00  0.00000000000E+00  0.38114895782E+03  0.38114895782E+03  0.00000000000E+00 0. -1.
         21   -1    0    0  501  502  0.00000000000E+00 -0.00000000000E+00 -0.18768976522E+03  0.18768976522E+03  0.00000000000E+00 0.  1.
         21    1    1    2  503  502  0.32129997931E+02  0.27327712869E+02 -0.56362664640E+02  0.70398086785E+02  0.00000000000E+00 0.  1.
         21    1    1    2  504  505  0.87423607394E+02  0.25512306023E+02 -0.20474101502E+01  0.91093121457E+02  0.00000000000E+00 0.  1.
         21    1    1    2  505  503 -0.18148107494E+02  0.52637072793E+02 -0.48112037295E+02  0.73585211629E+02  0.00000000000E+00 0.  1.
          1    1    1    2  501    0 -0.10140549783E+03 -0.10547709169E+03  0.29998130468E+03  0.33376230318E+03  0.00000000000E+00 0. -1.
<scales pt_clust_3="42.17986" pt_clust_4="14000.00000" pt_clust_5="66.05818" pt_clust_6="128.96049"></scales>
<clustering>
<clus scale="   42.180">  2  3  1 -1</clus>
<clus scale="   66.058">  2  5  1 -1</clus>
<clus scale="  128.960">  1  6  2 -1</clus>
<clus scale="   42.180">  2  3  1 -1</clus>
</clustering>
</event>
<event>
 6    0  0.4017242E+002  0.8652783E+02  0.7546771E-02  0.1311485E+00
          2   -1    0    0  504    0 -0.00000000000E+00  0.00000000000E+00  0.10407873456E+04  0.10407873456E+04  0.00000000000E+00 0. -1.
         21   -1    0    0  503  502  0.00000000000E+00 -0.00000000000E+00 -0.62692897288E+02  0.62692897288E+02  0.00000000000E+00 0.  1.
         21    1    1    2  503  505 -0.54438042714E+02 -0.38078072339E+01  0.91524555578E+01  0.55333238955E+02  0.00000000000E+00 0.  1.
         21    1    1    2  504  502 -0.34091743645E+02 -0.74121736156E+02  0.79367808562E+02  0.11382235190E+03  0.00000000000E+00 0.  1.
         21    1    1    2  505  501  0.90060969115E+01  0.94780041776E+02  0.91257170981E+02  0.13187963207E+03  0.00000000000E+00 0.  1.
          2    1    1    2  501    0  0.79523689448E+02 -0.16850498386E+02  0.79831701322E+03  0.80244501997E+03  0.00000000000E+00 0. -1.
<scales pt_clust_3="54.57105" pt_clust_4="86.52783" pt_clust_5="14000.00000" pt_clust_6="78.55879"></scales>
<clustering>
<clus scale="   54.571">  2  3  1 -1</clus>
<clus scale="   78.559">  1  6  2 -1</clus>
<clus scale="   86.528">  1  4  2 -1</clus>
<clus scale="   54.571">  2  3  1 -1</clus>
</clustering>
</event>
<event>
 6    0  0.4017242E+002  0.1028612E+03  0.7546771E-02  0.1274392E+00
          1   -1    0    0  504    0 -0.00000000000E+00  0.00000000000E+00  0.22291535771E+04  0.22291535771E+04  0.00000000000E+00 0.  1.
         21   -1    0    0  503  502  0.00000000000E+00 -0.00000000000E+00 -0.18934274913E+03  0.18934274913E+03  0.00000000000E+00 0.  1.
         21    1    1    2  503  501 -0.10388635137E+03  0.33008650784E+02  0.10040677531E+03  0.14820076098E+03  0.00000000000E+00 0.  1.
         21    1    1    2  504  505  0.46971203813E+02 -0.79429192214E+02  0.28511770464E+03  0.29967882151E+03  0.00000000000E+00 0.  1.
         21    1    1    2  505  502  0.79357151198E+02  0.75721502841E+02 -0.13893546196E+03  0.17701515763E+03  0.00000000000E+00 0.  1.
          1    1    1    2  501    0 -0.22442003645E+02 -0.29300961411E+02  0.17932218100E+04  0.17936015861E+04  0.00000000000E+00 0.  1.
<scales pt_clust_3="14000.00000" pt_clust_4="104.10296" pt_clust_5="102.86122" pt_clust_6="36.90786"></scales>
<clustering>
<clus scale="   36.908">  1  6  2 -1</clus>
<clus scale="  104.103">  1  4  2 -1</clus>
<clus scale="  102.861">  2  5  1 -1</clus>
<clus scale="  102.861">  2  3  1 -1</clus>
</clustering>
</event>
<event>
 6    0  0.4017242E+002  0.1276805E+03  0.7546771E-02  0.1230939E+00
         21   -1    0    0  503  502  0.00000000000E+00  0.00000000000E+00  0.26103953327E+03  0.26103953327E+03  0.00000000000E+00 0. -1.
          2   -1    0    0  505    0 -0.00000000000E+00 -0.00000000000E+00 -0.19002145637E+04  0.19002145637E+04  0.00000000000E+00 0. -1.
         21    1    1    2  503  501 -0.40767824903E+02  0.21159941144E+02 -0.22851194437E+02  0.51302395107E+02  0.00000000000E+00 0. -1.
         21    1    1    2  504  502  0.50178712942E+02 -0.65367314726E+01  0.11473352527E+03  0.12539702513E+03  0.00000000000E+00 0.  1.
         21    1    1    2  505  504  0.96076209141E+02 -0.51397674463E+02  0.10131184762E+03  0.14878322947E+03  0.00000000000E+00 0. -1.
          2    1    1    2  501    0 -0.10548709718E+03  0.36774464792E+02 -0.18323692089E+04  0.18357714473E+04  0.00000000000E+00 0. -1.
<scales pt_clust_3="45.93211" pt_clust_4="41.74476" pt_clust_5="41.74476" pt_clust_6="112.02677"></scales>
<clustering>
<clus scale="   41.745">  4  5 -1 -1</clus>
<clus scale="   45.932">  1  3  2 -1</clus>
<clus scale="  112.027">  2  6  1 -1</clus>
<clus scale="   45.932">  1  3  2 -1</clus>
</clustering>
</event>
<event>
 6    0  0.4017242E+002  0.2151626E+03  0.7546771E-02  0.1137542E+00
          1   -1    0    0  505    0 -0.00000000000E+00  0.00000000000E+00  0.14343175743E+04  0.14343175743E+04  0.00000000000E+00 0.  1.
         21   -1    0    0  504  502  0.00000000000E+00 -0.00000000000E+00 -0.86334553659E+03  0.86334553659E+03  0.00000000000E+00 0. -1.
         21    1    1    2  503  501 -0.12477999012E+02 -0.15851280814E+03 -0.29932334178E+03  0.33893432069E+03  0.00000000000E+00 0. -1.
         21    1    1    2  504  503  0.13000994787E+03  0.58447451787E+02 -0.48615953266E+03  0.50662588007E+03  0.00000000000E+00 0. -1.
         21    1    1    2  505  502  0.21169694492E+02 -0.67958121277E+02 -0.68406945337E+01  0.71507043807E+02  0.00000000000E+00 0. -1.
          1    1    1    2  501    0 -0.13870164335E+03  0.16802347763E+03  0.13632956066E+04  0.13805958663E+04  0.00000000000E+00 0.  1.
<scales pt_clust_3="215.16256" pt_clust_4="143.83095" pt_clust_5="71.17909" pt_clust_6="14000.00000"></scales>
<clustering>
<clus scale="   71.179">  2  5  1 -1</clus>
<clus scale="  143.831">  2  4  1 -1</clus>
<clus scale="  215.163">  2  3  1 -1</clus>
<clus scale="   71.179">  2  3  1 -1</clus>
</clustering>
</event>
<event>
 6    0  0.4017242E+002  0.1301951E+03  0.7546771E-02  0.1227166E+00
         21   -1    0    0  503  502  0.00000000000E+00  0.00000000000E+00  0.24266448310E+03  0.24266448310E+03  0.00000000000E+00 0.  1.
          2   -1    0    0  505    0 -0.00000000000E+00 -0.00000000000E+00 -0.23314847600E+04  0.23314847600E+04  0.00000000000E+00 0.  1.
         21    1    1    2  503  504 -0.33964538660E+02  0.16001213436E+02  0.33118901434E+02  0.50064861431E+02  0.00000000000E+00 0.  1.
         21    1    1    2  504  501 -0.85468087511E+02  0.85305793635E+02 -0.48320682775E+02  0.13006444862E+03  0.00000000000E+00 0.  1.
         21    1    1    2  505  502  0.97989567334E+02 -0.12393007478E+03  0.12111102009E+03  0.19906907829E+03  0.00000000000E+00 0.  1.
          2    1    1    2  501    0  0.21443058837E+02  0.22623067712E+02 -0.21947295156E+04  0.21949508548E+04  0.00000000000E+00 0.  1.
<scales pt_clust_3="36.98563" pt_clust_4="130.19513" pt_clust_5="14000.00000" pt_clust_6="31.17063"></scales>
<clustering>
<clus scale="   31.171">  2  6  1 -1</clus>
<clus scale="   36.986">  1  3  2 -1</clus>
<clus scale="  130.195">  2  4  1 -1</clus>
<clus scale="   36.986">  1  3  2 -1</clus>
</clustering>
</event>
<event>
 6    0  0.4017242E+002  0.1163061E+03  0.7546771E-02  0.1249318E+00
         21   -1    0    0  501  502  0.00000000000E+00  0.00000000000E+00  0.42535759581E+02  0.42535759581E+02  0.00000000000E+00 0. -1.
          1   -1    0    0  504    0 -0.00000000000E+00 -0.00000000000E+00 -0.17864487364E+04  0.17864487364E+04  0.00000000000E+00 0. -1.
         21    1    1    2  503  505  0.30014720157E+02  0.49395467654E+02 -0.53991832892E+03  0.54300331266E+03  0.00000000000E+00 0. -1.
         21    1    1    2  504  503  0.71038234380E+02  0.18529094666E+02 -0.74461802905E+03  0.74822841919E+03  0.00000000000E+00 0. -1.
         21    1    1    2  505  502 -0.28021424339E+02 -0.21274674113E+02  0.26602341923E+02  0.44107783626E+02  0.00000000000E+00 0. -1.
          1    1    1    2  501    0 -0.73031530198E+02 -0.46649888207E+02 -0.48597896075E+03  0.49364498049E+03  0.00000000000E+00 0. -1.
<scales pt_clust_3="43.39829" pt_clust_4="43.39829" pt_clust_5="35.18255" pt_clust_6="105.38887"></scales>
<clustering>
<clus scale="   35.183">  1  5  2 -1</clus>
<clus scale="   43.398">  3  4 -1 -1</clus>
<clus scale="  105.389">  1  6  2 -1</clus>
<clus scale="   35.183">  1  3  2 -1</clus>
</clustering>
</event>
<event>
 6    0  0.4017242E+002  0.1246778E+03  0.7546771E-02  0.1235574E+00
          1   -1    0    0  504    0 -0.00000000000E+00  0.00000000000E+00  0.36045983400E+04  0.36045983400E+04  0.00000000000E+00 0.  1.
         21   -1    0    0  501  502  0.00000000000E+00 -0.00000000000E+00 -0.29087183533E+03  0.29087183533E+03  0.00000000000E+00 0.  1.
         21    1    1    2  503  505  0.21485851539E+02 -0.12511248251E+03 -0.71935314928E+02  0.14590909714E+03  0.00000000000E+00 0.  1.
         21    1    1    2  504  503 -0.80353424070E+02  0.55543357996E+02  0.36223736859E+03  0.37517682309E+03  0.00000000000E+00 0. -1.
         21    1    1    2  505  502  0.32261275087E+02  0.69089555059E+01 -0.17356356605E+03  0.17667154552E+03  0.00000000000E+00 0.  1.
          1    1    1    2  501    0  0.26606297443E+02  0.62660169006E+02  0.31969880171E+04  0.31977127096E+04  0.00000000000E+00 0.  1.
<scales pt_clust_3="14000.00000" pt_clust_4="124.67779" pt_clust_5="32.99278" pt_clust_6="68.13433"></scales>
<clustering>
<clus scale="   32.993">  2  5  1 -1</clus>
<clus scale="   68.134">  1  6  2 -1</clus>
<clus scale="  124.678">  1  4  2 -1</clus>
<clus scale="   32.993">  2  3  1 -1</clus>
</clustering>
</event>
<event>
 6    0  0.4017242E+002  0.6824478E+02  0.7546771E-02  0.1366166E+00
         21   -1    0    0  504  502  0.00000000000E+00  0.00000000000E+00  0.63452348180E+02  0.63452348180E+02  0.00000000000E+00 0. -1.
          1   -1    0    0  505    0 -0.00000000000E+00 -0.00000000000E+00 -0.24775856412E+04  0.24775856412E+04  0.00000000000E+00 0.  1.
         21    1    1    2  503  502 -0.39245249111E+01  0.87723414655E+02 -0.20353653122E+02  0.90139173337E+02  0.00000000000E+00 0. -1.
         21    1    1    2  504  501  0.32147221580E+02 -0.19227358028E+02  0.51014814093E+01  0.37804236067E+02  0.00000000000E+00 0. -1.
         21    1    1    2  505  503 -0.67717491977E+02 -0.21489873132E+02 -0.18217279444E+03  0.19553618693E+03  0.00000000000E+00 0. -1.
          1    1    1    2  501    0  0.39494795309E+02 -0.47006183495E+02 -0.22167083269E+04  0.22175583930E+04  0.00000000000E+00 0.  1.
<scales pt_clust_3="14000.00000" pt_clust_4="37.45845" pt_clust_5="68.24478" pt_clust_6="61.75398"></scales>
<clustering>
<clus scale="   37.458">  1  4  2 -1</clus>
<clus scale="   61.754">  2  6  1 -1</clus>
<clus scale="   68.245">  2  5  1 -1</clus>
<clus scale="   37.458">  1  3  2 -1</clus>
</clustering>
</event>
<event>
 6    0  0.4017242E+002  0.8762881E+02  0.7546771E-02  0.1308698E+00
         21   -1    0    0  505  502  0.00000000000E+00  0.00000000000E+00  0.37662652743E+03  0.37662652743E+03  0.00000000000E+00 0.  1.
          2   -1    0    0  504    0 -0.00000000000E+00 -0.00000000000E+00 -0.33685352732E+04  0.33685352732E+04  0.00000000000E+00 0. -1.
         21    1    1    2  503  502 -0.35781790767E+02  0.16655843607E+02  0.39233492372E+02  0.55650881399E+02  0.00000000000E+00 0.  1.
         21    1    1    2  504  503  0.61636170581E+02 -0.59733690112E+01  0.16302975714E+02  0.64035034773E+02  0.00000000000E+00 0.  1.
         21    1    1    2  505  501  0.41854199957E+02  0.45028508122E+02  0.28516300932E+03  0.29171438511E+03  0.00000000000E+00 0.  1.
          2    1    1    2  501    0 -0.67708579771E+02 -0.55710982719E+02 -0.33326082231E+04  0.33337614993E+04  0.00000000000E+00 0. -1.
<scales pt_clust_3="39.46839" pt_clust_4="57.40530" pt_clust_5="14000.00000" pt_clust_6="87.62881"></scales>
<clustering>
<clus scale="   39.468">  1  3  2 -1</clus>
<clus scale="   57.405">  1  4  2 -1</clus>
<clus scale="   87.629">  2  6  1 -1</clus>
<clus scale="   39.468">  1  3  2 -1</clus>
</clustering>
</event>
<event>
 6    0  0.4017242E+002  0.1006082E+03  0.7546771E-02  0.1279022E+00
         -4   -1    0    0    0  501 -0.00000000000E+00  0.00000000000E+00  0.79055053678E+03  0.79055053678E+03  0.00000000000E+00 0.  1.
         21   -1    0    0  503  502  0.00000000000E+00 -0.00000000000E+00 -0.27255176699E+03  0.27255176699E+03  0.00000000000E+00 0.  1.
         21    1    1    2  503  504  0.30120278112E+02 -0.17127939609E+02 -0.40442600182E+02  0.53255998519E+02  0.00000000000E+00 0.  1.
         21    1    1    2  504  501  0.32050215115E+02  0.70060267253E+02 -0.28545321122E+02  0.82161382014E+02  0.00000000000E+00 0.  1.
         21    1    1    2  505  502  0.33370156916E+02 -0.13438687188E+02 -0.16487242046E+03  0.16875153545E+03  0.00000000000E+00 0.  1.
         -4    1    1    2    0  505 -0.95540650143E+02 -0.39493640456E+02  0.75185911156E+03  0.75893338779E+03  0.00000000000E+00 0.  1.
<scales pt_clust_3="34.64964" pt_clust_4="100.60823" pt_clust_5="61.44867" pt_clust_6="14000.00000"></scales>
<clustering>
<clus scale="   34.650">  2  3  1 -1</clus>
<clus scale="   61.449">  2  5  1 -1</clus>
<clus scale="  100.608">  2  4  1 -1</clus>
<clus scale="   34.650">  2  3  1 -1</clus>
</clustering>
</event>
<event>
 6    0  0.4017242E+002  0.1953112E+03  0.7546771E-02  0.1153756E+00
         21   -1    0    0  501  502  0.00000000000E+00  0.00000000000E+00  0.11147352310E+03  0.11147352310E+03  0.00000000000E+00 0. -1.
          2   -1    0    0  503    0 -0.00000000000E+00 -0.00000000000E+00 -0.11185291057E+04  0.11185291057E+04  0.00000000000E+00 0.  1.
         21    1    1    2  503  504  0.24412527426E+02  0.35200354204E+02 -0.91977746438E+02  0.10146399495E+03  0.00000000000E+00 0.  1.
         21    1    1    2  504  505  0.49789949943E+02  0.84499073797E+00 -0.11354561702E+03  0.12398532280E+03  0.00000000000E+00 0.  1.
         21    1    1    2  505  502 -0.76587738650E+02 -0.18756759335E+03 -0.14560473473E+02  0.20312383212E+03  0.00000000000E+00 0. -1.
          2    1    1    2  501    0  0.23852612819E+01  0.15152224841E+03 -0.78697174564E+03  0.80142947891E+03  0.00000000000E+00 0.  1.
<scales pt_clust_3="39.15575" pt_clust_4="92.66899" pt_clust_5="195.31117" pt_clust_6="14000.00000"></scales>
<clustering>
<clus scale="   39.156">  3  4 -1 -1</clus>
<clus scale="   92.669">  2  3  1 -1</clus>
<clus scale="  195.311">  1  5  2 -1</clus>
<clus scale="  195.311">  1  3  2 -1</clus>
</clustering>
</event>
<event>
 6    0  0.4017242E+002  0.1367470E+03  0.7546771E-02  0.1217774E+00
          1   -1    0    0  505    0 -0.00000000000E+00  0.00000000000E+00  0.20946450561E+04  0.20946450561E+04  0.00000000000E+00 0.  1.
         21   -1    0    0  504  502  0.00000000000E+00 -0.00000000000E+00 -0.84113770317E+02  0.84113770317E+02  0.00000000000E+00 0. -1.
         21    1    1    2  503  502  0.55597997643E+02 -0.20363937369E+02  0.15217817295E+02  0.61134354093E+02  0.00000000000E+00 0. -1.
         21    1    1    2  504  501  0.43911268251E+02  0.14154793190E+02 -0.24278965480E+02  0.52134689166E+02  0.00000000000E+00 0. -1.
         21    1    1    2  505  503  0.36213515876E+02  0.63507107245E+02  0.45931488217E+02  0.86338131857E+02  0.00000000000E+00 0.  1.
          1    1    1    2  501    0 -0.13572278177E+03 -0.57297963065E+02  0.19736609457E+04  0.19791516513E+04  0.00000000000E+00 0.  1.
<scales pt_clust_3="78.68780" pt_clust_4="46.13629" pt_clust_5="136.74701" pt_clust_6="14000.00000"></scales>
<clustering>
<clus scale="   46.136">  2  4  1 -1</clus>
<clus scale="   78.688">  2  3  1 -1</clus>
<clus scale="  136.747">  2  5  1 -1</clus>
<clus scale="   46.136">  2  3  1 -1</clus>
</clustering>
</event>
<event>
 6    0  0.4017242E+002  0.9434211E+02  0.7546771E-02  0.1292665E+00
         21   -1    0    0  505  502  0.00000000000E+00  0.00000000000E+00  0.77554236755E+03  0.77554236755E+03  0.00000000000E+00 0. -1.
          1   -1    0    0  503    0 -0.00000000000E+00 -0.00000000000E+00 -0.38344795703E+02  0.38344795703E+02  0.00000000000E+00 0. -1.
         21    1    1    2  503  504 -0.42259277702E+00  0.72894347274E+02  0.36645698191E+03  0.37363683443E+03  0.00000000000E+00 0. -1.
         21    1    1    2  504  502 -0.11198171159E+02  0.54233453257E+02  0.11667646386E+03  0.12915132097E+03  0.00000000000E+00 0.  1.
         21    1    1    2  505  501 -0.23830346206E+02 -0.32613492818E+02  0.18360742021E+03  0.18799789911E+03  0.00000000000E+00 0. -1.
          1    1    1    2  501    0  0.35451110142E+02 -0.94514307713E+02  0.70456705865E+02  0.12310110874E+03  0.00000000000E+00 0. -1.
<scales pt_clust_3="14000.00000" pt_clust_4="50.11477" pt_clust_5="40.39214" pt_clust_6="94.34211"></scales>
<clustering>
<clus scale="   40.392">  1  5  2 -1</clus>
<clus scale="   50.115">  1  4  2 -1</clus>
<clus scale="   94.342">  2  6  1 -1</clus>
<clus scale="   40.392">  1  3  2 -1</clus>
</clustering>
</event>
<event>
 6    0  0.4017242E+002  0.1200192E+03  0.7546771E-02  0.1243065E+00
          1   -1    0    0  505    0 -0.00000000000E+00  0.00000000000E+00  0.19784347470E+03  0.19784347470E+03  0.00000000000E+00 0. -1.
         21   -1    0    0  504  502  0.00000000000E+00 -0.00000000000E+00 -0.13190064815E+04  0.13190064815E+04  0.00000000000E+00 0. -1.
         21    1    1    2  503  501  0.67355496606E+02 -0.64374915491E+02 -0.46826231346E+03  0.47744160572E+03  0.00000000000E+00 0. -1.
         21    1    1    2  504  503  0.81811637543E+02 -0.13675830619E+01 -0.65596213593E+03  0.66104563995E+03  0.00000000000E+00 0. -1.
         21    1    1    2  505  502 -0.79511000172E+02  0.46528001397E+01 -0.16682051741E+03  0.18485868313E+03  0.00000000000E+00 0.  1.
          1    1    1    2  501    0 -0.69656133977E+02  0.61089698413E+02  0.16988196005E+03  0.19350402736E+03  0.00000000000E+00 0. -1.
<scales pt_clust_3="70.74932" pt_clust_4="70.74932" pt_clust_5="79.64702" pt_clust_6="93.30018"></scales>
<clustering>
<clus scale="   70.749">  3  4 -1 -1</clus>
<clus scale="   79.647">  2  5  1 -1</clus>
<clus scale="   93.300">  1  6  2 -1</clus>
<clus scale="   79.647">  2  3  1 -1</clus>
</clustering>
</event>
<event>
 6    0  0.4017242E+002  0.7775987E+02  0.7546771E-02  0.1335532E+00
         21   -1    0    0  503  502  0.00000000000E+00  0.00000000000E+00  0.78834207494E+03  0.78834207494E+03  0.00000000000E+00 0.  1.
          2   -1    0    0  504    0 -0.00000000000E+00 -0.00000000000E+00 -0.56764639371E+02  0.56764639371E+02  0.00000000000E+00 0. -1.
         21    1    1    2  503  501  0.46014721736E+02  0.24525190899E+02  0.29577439832E+03  0.30033536972E+03  0.00000000000E+00 0.  1.
         21    1    1    2  504  505  0.21674620900E+02 -0.99712431636E+02  0.46410072505E+02  0.11209929993E+03  0.00000000000E+00 0.  1.
         21    1    1    2  505  502 -0.32989334030E+02  0.54526560772E+02  0.38700419858E+03  0.39221638378E+03  0.00000000000E+00 0.  1.
          2    1    1    2  501    0 -0.34700008606E+02  0.20660679964E+02  0.23887661697E+01  0.40455660885E+02  0.00000000000E+00 0. -1.
<scales pt_clust_3="50.92187" pt_clust_4="14000.00000" pt_clust_5="77.75987" pt_clust_6="40.38508"></scales>
<clustering>
<clus scale="   40.385">  2  6  1 -1</clus>
<clus scale="   50.922">  1  3  2 -1</clus>
<clus scale="   77.760">  1  5  2 -1</clus>
<clus scale="   50.922">  1  3  2 -1</clus>
</clustering>
</event>
<event>
 6    0  0.4017242E+002  0.2650905E+03  0.7546771E-02  0.1104123E+00
         21   -1    0    0  504  502  0.00000000000E+00  0.00000000000E+00  0.29379275740E+03  0.29379275740E+03  0.00000000000E+00 0.  1.
         -4   -1    0    0    0  501 -0.00000000000E+00 -0.00000000000E+00 -0.48017212160E+03  0.48017212160E+03  0.00000000000E+00 0.  1.
         21    1    1    2  503  501 -0.75510729693E+01  0.10688281233E+03 -0.16317549000E+03  0.19521064215E+03  0.00000000000E+00 0.  1.
         21    1    1    2  504  505  0.51215926435E+02 -0.39565953159E+02  0.41353824090E+02  0.76802828964E+02  0.00000000000E+00 0. -1.
         21    1    1    2  505  503  0.32237951523E+02  0.15903903439E+03 -0.17521018045E+03  0.23881228467E+03  0.00000000000E+00 0. -1.
         -4    1    1    2    0  502 -0.75902804988E+02 -0.22635589356E+03  0.11065248216E+03  0.26313912321E+03  0.00000000000E+00 0.  1.
<scales pt_clust_3="41.01092" pt_clust_4="64.71890" pt_clust_5="41.01092" pt_clust_6="260.24182"></scales>
<clustering>
<clus scale="   41.011">  3  5 -1 -1</clus>
<clus scale="   64.719">  1  4  2 -1</clus>
<clus scale="  260.242">  1  6  2 -1</clus>
<clus scale="   64.719">  1  3  2 -1</clus>
</clustering>
</event>
<event>
 6    0  0.4017242E+002  0.1153865E+03  0.7546771E-02  0.1250908E+00
         21   -1    0    0  503  502  0.00000000000E+00  0.00000000000E+00  0.25171929906E+03  0.25171929906E+03  0.00000000000E+00 0. -1.
          4   -1    0    0  505    0 -0.00000000000E+00 -0.00000000000E+00 -0.49523467523E+03  0.49523467523E+03  0.00000000000E+00 0. -1.
         21    1    1    2  503  504  0.11835791658E+03  0.23866809278E+02  0.21806534134E+03  0.24926033398E+03  0.00000000000E+00 0. -1.
         21    1    1    2  504  501 -0.32006606199E+02  0.30962024763E+02 -0.62654374117E+02  0.76867681205E+02  0.00000000000E+00 0. -1.
         21    1    1    2  505  502 -0.44961583025E+02 -0.63911878726E+02 -0.15875056401E+03  0.17694070691E+03  0.00000000000E+00 0.  1.
          4    1    1    2  501    0 -0.41389727354E+02  0.90830446849E+01 -0.24017577939E+03  0.24388525219E+03  0.00000000000E+00 0. -1.
<scales pt_clust_3="14000.00000" pt_clust_4="54.81153" pt_clust_5="115.38645" pt_clust_6="42.37465"></scales>
<clustering>
<clus scale="   42.375">  2  6  1 -1</clus>
<clus scale="   54.812">  2  4  1 -1</clus>
<clus scale="  115.386">  2  5  1 -1</clus>
<clus scale="  115.386">  1  3  2 -1</clus>
</clustering>
</event>
<event>
 6    0  0.4017242E+002  0.9957739E+02  0.7546771E-02  0.1281187E+00
         21   -1    0    0  505  502  0.00000000000E+00  0.00000000000E+00  0.33750110924E+03  0.33750110924E+03  0.00000000000E+00 0. -1.
          1   -1    0    0  503    0 -0.00000000000E+00 -0.00000000000E+00 -0.28598275713E+04  0.28598275713E+04  0.00000000000E+00 0.  1.
         21    1    1    2  503  502 -0.41174965978E+02 -0.32515068769E+02 -0.91250333532E+01  0.53252922493E+02  0.00000000000E+00 0.  1.
         21    1    1    2  504  501 -0.62098498345E+02 -0.13252722168E+03 -0.28839244493E+03  0.32340360276E+03  0.00000000000E+00 0. -1.
         21    1    1    2  505  504  0.87033351167E+02  0.11079313589E+03  0.28093734314E+03  0.31428603842E+03  0.00000000000E+00 0. -1.
          1    1    1    2  501    0  0.16240113156E+02  0.54249154558E+02 -0.25057463269E+04  0.25063861168E+04  0.00000000000E+00 0.  1.
<scales pt_clust_3="52.46530" pt_clust_4="99.57739" pt_clust_5="14000.00000" pt_clust_6="56.58428"></scales>
<clustering>
<clus scale="   52.465">  1  3  2 -1</clus>
<clus scale="   56.584">  2  6  1 -1</clus>
<clus scale="   99.577">  2  4  1 -1</clus>
<clus scale="   52.465">  1  3  2 -1</clus>
</clustering>
</event>
<event>
 6    0  0.4017242E+002  0.2100007E+03  0.7546771E-02  0.1141565E+00
         21   -1    0    0  504  502  0.00000000000E+00  0.00000000000E+00  0.11064340410E+04  0.11064340410E+04  0.00000000000E+00 0.  1.
         -1   -1    0    0    0  501 -0.00000000000E+00 -0.00000000000E+00 -0.19970772062E+03  0.19970772062E+03  0.00000000000E+00 0.  1.
         21    1    1    2  503  501 -0.38162593055E+02  0.20896692819E+03  0.21205147195E+03  0.30014894193E+03  0.00000000000E+00 0. -1.
         21    1    1    2  504  505 -0.21995642721E+02 -0.46785256722E+02  0.63146293394E+03  0.63357565095E+03  0.00000000000E+00 0.  1.
         21    1    1    2  505  503 -0.65575345275E+02  0.11221176023E+02  0.13169490011E+03  0.14754520465E+03  0.00000000000E+00 0. -1.
         -1    1    1    2    0  502  0.12573358105E+03 -0.17340284749E+03 -0.68482985602E+02  0.22487196410E+03  0.00000000000E+00 0.  1.
<scales pt_clust_3="14000.00000" pt_clust_4="51.69786" pt_clust_5="72.10102" pt_clust_6="210.00070"></scales>
<clustering>
<clus scale="   51.698">  1  4  2 -1</clus>
<clus scale="   72.101">  1  5  2 -1</clus>
<clus scale="  210.001">  2  6  1 -1</clus>
<clus scale="   51.698">  1  3  2 -1</clus>
</clustering>
</event>
<event>
 6    0  0.4017242E+002  0.1111433E+03  0.7546771E-02  0.1258467E+00
         21   -1    0    0  505  502  0.00000000000E+00  0.00000000000E+00  0.15520989591E+03  0.15520989591E+03  0.00000000000E+00 0.  1.
          1   -1    0    0  503    0 -0.00000000000E+00 -0.00000000000E+00 -0.55858817126E+03  0.55858817126E+03  0.00000000000E+00 0.  1.
         21    1    1    2  503  504 -0.47114970848E+02  0.38686547034E+02 -0.16728383144E+03  0.17804592009E+03  0.00000000000E+00 0.  1.
         21    1    1    2  504  502 -0.49980305811E+02  0.16821721583E+02 -0.74226708788E+02  0.91052762635E+02  0.00000000000E+00 0.  1.
         21    1    1    2  505  501  0.10343103759E+03 -0.97736504077E+01  0.12020107760E+03  0.15887669066E+03  0.00000000000E+00 0.  1.
          1    1    1    2  501    0 -0.63357609266E+01 -0.45734618209E+02 -0.28206881273E+03  0.28582269379E+03  0.00000000000E+00 0.  1.
<scales pt_clust_3="36.94748" pt_clust_4="36.94748" pt_clust_5="103.80143" pt_clust_6="46.17139"></scales>
<clustering>
<clus scale="   36.947">  3  4 -1 -1</clus>
<clus scale="   46.171">  2  6  1 -1</clus>
<clus scale="  103.801">  1  5  2 -1</clus>
<clus scale="  103.801">  1  3  2 -1</clus>
</clustering>
</event>
<event>
 6    0  0.4017242E+002  0.8214005E+02  0.7546771E-02  0.1323086E+00
         21   -1    0    0  501  502  0.00000000000E+00  0.00000000000E+00  0.18249886609E+03  0.18249886609E+03  0.00000000000E+00 0. -1.
          2   -1    0    0  505    0 -0.00000000000E+00 -0.00000000000E+00 -0.70976087439E+03  0.70976087439E+03  0.00000000000E+00 0.  1.
         21    1    1    2  503  504 -0.32034179346E+02 -0.29805039391E+02  0.15238198312E+02  0.46332836167E+02  0.00000000000E+00 0. -1.
         21    1    1    2  504  502 -0.41672705167E+02  0.20886154893E+01  0.47699049242E+02  0.63373306440E+02  0.00000000000E+00 0. -1.
         21    1    1    2  505  503  0.70744988292E+02 -0.55163045955E+02  0.72093786246E+02  0.11508835311E+03  0.00000000000E+00 0. -1.
          2    1    1    2  501    0  0.29618962212E+01  0.82879469856E+02 -0.66229304209E+03  0.66746524476E+03  0.00000000000E+00 0.  1.
<scales pt_clust_3="51.32339" pt_clust_4="41.72501" pt_clust_5="14000.00000" pt_clust_6="82.14005"></scales>
<clustering>
<clus scale="   41.725">  1  4  2 -1</clus>
<clus scale="   51.323">  1  3  2 -1</clus>
<clus scale="   82.140">  2  6  1 -1</clus>
<clus scale="   41.725">  1  3  2 -1</clus>
</clustering>
</event>
<event>
 6    0  0.4017242E+002  0.1845585E+03  0.7546771E-02  0.1163463E+00
         21   -1    0    0  501  502  0.00000000000E+00  0.00000000000E+00  0.74895831879E+03  0.74895831879E+03  0.00000000000E+00 0. -1.
          1   -1    0    0  503    0 -0.00000000000E+00 -0.00000000000E+00 -0.13638520962E+03  0.13638520962E+03  0.00000000000E+00 0. -1.
         21    1    1    2  503  504 -0.23710813061E+02  0.20371764113E+02 -0.32874758806E+01  0.31432768360E+02  0.00000000000E+00 0.  1.
         21    1    1    2  504  505  0.14435404611E+03  0.74413624597E+02  0.32744739531E+03  0.36550960979E+03  0.00000000000E+00 0. -1.
         21    1    1    2  505  502  0.45246219253E+02 -0.24106386499E+02  0.30317508437E+03  0.30747921882E+03  0.00000000000E+00 0. -1.
          1    1    1    2  501    0 -0.16588945230E+03 -0.70679002212E+02 -0.14761894631E+02  0.18092193143E+03  0.00000000000E+00 0. -1.
<scales pt_clust_3="31.26038" pt_clust_4="14000.00000" pt_clust_5="50.71592" pt_clust_6="184.55847"></scales>
<clustering>
<clus scale="   31.260">  2  3  1 -1</clus>
<clus scale="   50.716">  1  5  2 -1</clus>
<clus scale="  184.558">  2  6  1 -1</clus>
<clus scale="   50.716">  1  3  2 -1</clus>
</clustering>
</event>
<event>
 6    0  0.4017242E+002  0.1917584E+03  0.7546771E-02  0.1156885E+00
         21   -1    0    0  505  502  0.00000000000E+00  0.00000000000E+00  0.39979647427E+03  0.39979647427E+03  0.00000000000E+00 0. -1.
         -1   -1    0    0    0  501 -0.00000000000E+00 -0.00000000000E+00 -0.15680226663E+04  0.15680226663E+04  0.00000000000E+00 0. -1.
         21    1    1    2  503  502 -0.15710472008E+03  0.23997838561E+03 -0.19998161305E+03  0.34966292939E+03  0.00000000000E+00 0. -1.
         21    1    1    2  504  503  0.45678305184E+02 -0.14347896328E+03 -0.19540825473E+03  0.24669233163E+03  0.00000000000E+00 0. -1.
         21    1    1    2  505  501  0.14076817470E+03 -0.11718657961E+03  0.27095516814E+03  0.32705515833E+03  0.00000000000E+00 0. -1.
         -1    1    1    2    0  504 -0.29341759803E+02  0.20687157282E+02 -0.10437914924E+04  0.10444087212E+04  0.00000000000E+00 0. -1.
<scales pt_clust_3="14000.00000" pt_clust_4="138.80405" pt_clust_5="191.75838" pt_clust_6="35.90122"></scales>
<clustering>
<clus scale="   35.901">  2  6  1 -1</clus>
<clus scale="  138.804">  2  4  1 -1</clus>
<clus scale="  191.758">  1  5  2 -1</clus>
<clus scale="  191.758">  1  3  2 -1</clus>
</clustering>
</event>
<event>
 6    0  0.4017242E+002  0.1131372E+03  0.7546771E-02  0.1254868E+00
         21   -1    0    0  501  502  0.00000000000E+00  0.00000000000E+00  0.29555581645E+03  0.29555581645E+03  0.00000000000E+00 0. -1.
          2   -1    0    0  504    0 -0.00000000000E+00 -0.00000000000E+00 -0.77674916300E+03  0.77674916300E+03  0.00000000000E+00 0. -1.
         21    1    1    2  503  505  0.11879886399E+03  0.47659143083E+02 -0.49445255869E+03  0.51075228516E+03  0.00000000000E+00 0. -1.
         21    1    1    2  504  503  0.37696930442E+02 -0.23715431675E+02 -0.13822199946E+03  0.14521983818E+03  0.00000000000E+00 0. -1.
         21    1    1    2  505  502 -0.73747402732E+02 -0.47886014339E+02  0.26191162294E+03  0.27627784568E+03  0.00000000000E+00 0. -1.
          2    1    1    2  501    0 -0.82748391697E+02  0.23942302930E+02 -0.11043041135E+03  0.14005501044E+03  0.00000000000E+00 0. -1.
<scales pt_clust_3="41.53418" pt_clust_4="41.53418" pt_clust_5="88.55470" pt_clust_6="86.14250"></scales>
<clustering>
<clus scale="   41.534">  3  4 -1 -1</clus>
<clus scale="   86.142">  2  6  1 -1</clus>
<clus scale="   88.555">  1  5  2 -1</clus>
<clus scale="   88.555">  1  3  2 -1</clus>
</clustering>
</event>
<event>
 6    0  0.4017242E+002  0.9206126E+02  0.7546771E-02  0.1297935E+00
         21   -1    0    0  503  502  0.00000000000E+00  0.00000000000E+00  0.29628328363E+03  0.29628328363E+03  0.00000000000E+00 0.  1.
          2   -1    0    0  504    0 -0.00000000000E+00 -0.00000000000E+00 -0.78845078882E+03  0.78845078882E+03  0.00000000000E+00 0.  1.
         21    1    1    2  503  505  0.13136773317E+02  0.34036520540E+02  0.72440046578E+02  0.81108691839E+02  0.00000000000E+00 0.  1.
         21    1    1    2  504  502  0.48345439572E+02  0.20768354190E+01  0.11535164181E+03  0.12509035151E+03  0.00000000000E+00 0.  1.
         21    1    1    2  505  501 -0.75332529866E+02  0.55649542803E+02  0.73703132155E+02  0.11918059137E+03  0.00000000000E+00 0.  1.
          2    1    1    2  501    0  0.13850316977E+02 -0.91762898762E+02 -0.75366232573E+03  0.75935443773E+03  0.00000000000E+00 0.  1.
<scales pt_clust_3="36.48369" pt_clust_4="59.27859" pt_clust_5="92.06126" pt_clust_6="14000.00000"></scales>
<clustering>
<clus scale="   36.484">  1  3  2 -1</clus>
<clus scale="   59.279">  1  4  2 -1</clus>
<clus scale="   92.061">  1  5  2 -1</clus>
<clus scale="   36.484">  1  3  2 -1</clus>
</clustering>
</event>
<event>
 6    0  0.4017242E+002  0.7283606E+02  0.7546771E-02  0.1350706E+00
          2   -1    0    0  505    0 -0.00000000000E+00  0.00000000000E+00  0.31996754342E+04  0.31996754342E+04  0.00000000000E+00 0.  1.
         21   -1    0    0  503  502  0.00000000000E+00 -0.00000000000E+00 -0.27132419507E+03  0.27132419507E+03  0.00000000000E+00 0.  1.
         21    1    1    2  503  504  0.85184276863E+02 -0.16222149419E+02 -0.12235145865E+03  0.14996465780E+03  0.00000000000E+00 0.  1.
         21    1    1    2  504  501 -0.99136883021E+02  0.43646504603E+02 -0.98876232299E+02  0.14666167956E+03  0.00000000000E+00 0.  1.
         21    1    1    2  505  502 -0.30983749660E+02  0.29797736067E+02  0.26609695786E+02  0.50556638808E+02  0.00000000000E+00 0. -1.
          2    1    1    2  501    0  0.44936355817E+02 -0.57222091251E+02  0.31229692343E+04  0.31238166531E+04  0.00000000000E+00 0.  1.
<scales pt_clust_3="68.92036" pt_clust_4="72.83606" pt_clust_5="42.98718" pt_clust_6="14000.00000"></scales>
<clustering>
<clus scale="   42.987">  2  5  1 -1</clus>
<clus scale="   68.920">  2  3  1 -1</clus>
<clus scale="   72.836">  2  4  1 -1</clus>
<clus scale="   42.987">  2  3  1 -1</clus>
</clustering>
</event>
<event>
 6    0  0.4017242E+002  0.1078976E+03  0.7546771E-02  0.1264514E+00
          1   -1    0    0  503    0 -0.00000000000E+00  0.00000000000E+00  0.25308380082E+03  0.25308380082E+03  0.00000000000E+00 0. -1.
         21   -1    0    0  501  502  0.00000000000E+00 -0.00000000000E+00 -0.60235623804E+03  0.60235623804E+03  0.00000000000E+00 0. -1.
         21    1    1    2  503  504 -0.45697813124E+02 -0.17438003272E+01 -0.19730676181E+02  0.49805928828E+02  0.00000000000E+00 0. -1.
         21    1    1    2  504  505 -0.65714041540E+02 -0.86478112498E+01 -0.45894161602E+03  0.46370305887E+03  0.00000000000E+00 0. -1.
         21    1    1    2  505  502 -0.30866639174E+02 -0.36003041119E+01 -0.81453415487E+02  0.87180103797E+02  0.00000000000E+00 0. -1.
          1    1    1    2  501    0  0.14227849384E+03  0.13991915689E+02  0.21085327047E+03  0.25475094736E+03  0.00000000000E+00 0. -1.
<scales pt_clust_3="45.73107" pt_clust_4="30.37314" pt_clust_5="30.37314" pt_clust_6="98.35780"></scales>
<clustering>
<clus scale="   30.373">  4  5 -1 -1</clus>
<clus scale="   45.731">  1  3  2 -1</clus>
<clus scale="   98.358">  1  6  2 -1</clus>
<clus scale="  107.898">  2  3  1 -1</clus>
</clustering>
</event>
<event>
 6    0  0.4017242E+002  0.9573898E+02  0.7546771E-02  0.1289520E+00
         -1   -1    0    0    0  501 -0.00000000000E+00  0.00000000000E+00  0.53598113656E+03  0.53598113656E+03  0.00000000000E+00 0.  1.
         21   -1    0    0  505  502  0.00000000000E+00 -0.00000000000E+00 -0.66317092053E+03  0.66317092053E+03  0.00000000000E+00 0.  1.
         21    1    1    2  503  502  0.49510528932E+02  0.43282069814E+02 -0.38703516743E+03  0.39258228548E+03  0.00000000000E+00 0. -1.
         21    1    1    2  504  503 -0.13088333861E+03 -0.53406068042E+02 -0.12331739164E+03  0.18758953998E+03  0.00000000000E+00 0.  1.
         21    1    1    2  505  501  0.16738592565E+02  0.80707895565E+02 -0.98193001363E+02  0.12820222465E+03  0.00000000000E+00 0.  1.
         -1    1    1    2    0  504  0.64634217116E+02 -0.70583897337E+02  0.48135577648E+03  0.49077800698E+03  0.00000000000E+00 0.  1.
<scales pt_clust_3="65.76192" pt_clust_4="14000.00000" pt_clust_5="94.87148" pt_clust_6="95.73898"></scales>
<clustering>
<clus scale="   65.762">  2  3  1 -1</clus>
<clus scale="   95.739">  1  6  2 -1</clus>
<clus scale="   94.871">  1  5  2 -1</clus>
<clus scale="   65.762">  2  3  1 -1</clus>
</clustering>
</event>
<event>
 6    0  0.4017242E+002  0.6830579E+02  0.7546771E-02  0.1365951E+00
          2   -1    0    0  505    0 -0.00000000000E+00  0.00000000000E+00  0.66266432232E+03  0.66266432232E+03  0.00000000000E+00 0.  1.
         21   -1    0    0  504  502  0.00000000000E+00 -0.00000000000E+00 -0.20471774154E+03  0.20471774154E+03  0.00000000000E+00 0. -1.
         21    1    1    2  503  501  0.77084450885E+02 -0.20707224759E+02 -0.52093711754E+02  0.95312939992E+02  0.00000000000E+00 0. -1.
         21    1    1    2  504  503 -0.56575463172E+02  0.28112167163E+02 -0.84297383970E+02  0.10534289687E+03  0.00000000000E+00 0. -1.
         21    1    1    2  505  502 -0.15623832413E+02 -0.56016566231E+02 -0.11197895733E+02  0.59222906889E+02  0.00000000000E+00 0. -1.
          2    1    1    2  501    0 -0.48851552999E+01  0.48611623827E+02  0.60553557223E+03  0.60750332012E+03  0.00000000000E+00 0.  1.
<scales pt_clust_3="68.30579" pt_clust_4="14000.00000" pt_clust_5="39.42871" pt_clust_6="48.85647"></scales>
<clustering>
<clus scale="   48.856">  1  6  2 -1</clus>
<clus scale="   39.429">  1  5  2 -1</clus>
<clus scale="   68.306">  1  3  2 -1</clus>
<clus scale="   68.306">  2  3  1 -1</clus>
</clustering>
</event>
<event>
 6    0  0.4017242E+002  0.1770197E+03  0.7546771E-02  0.1170719E+00
         21   -1    0    0  503  502  0.00000000000E+00  0.00000000000E+00  0.13331625083E+03  0.13331625083E+03  0.00000000000E+00 0. -1.
          3   -1    0    0  502    0 -0.00000000000E+00 -0.00000000000E+00 -0.10966913357E+04  0.10966913357E+04  0.00000000000E+00 0.  1.
         21    1    1    2  503  504 -0.48510677102E+02 -0.73620383495E+01  0.53940938483E+02  0.72918517854E+02  0.00000000000E+00 0. -1.
         21    1    1    2  504  505  0.34190665047E+02  0.88110231132E+02 -0.22677124012E+02  0.97193962569E+02  0.00000000000E+00 0. -1.
         21    1    1    2  505  501  0.44606075570E+02  0.86418530822E+02 -0.70114554866E+02  0.11989126428E+03  0.00000000000E+00 0. -1.
          3    1    1    2  501    0 -0.30286063515E+02 -0.16716672360E+03 -0.92452434445E+03  0.94000384180E+03  0.00000000000E+00 0.  1.
<scales pt_clust_3="49.06613" pt_clust_4="42.36106" pt_clust_5="42.36106" pt_clust_6="171.72506"></scales>
<clustering>
<clus scale="   42.361">  4  5 -1 -1</clus>
<clus scale="   49.066">  1  3  2 -1</clus>
<clus scale="  171.725">  2  6  1 -1</clus>
<clus scale="   49.066">  1  3  2 -1</clus>
</clustering>
</event>
<event>
 6    0  0.4017242E+002  0.1210066E+03  0.7546771E-02  0.1241446E+00
         -1   -1    0    0    0  501 -0.00000000000E+00  0.00000000000E+00  0.96205790589E+03  0.96205790589E+03  0.00000000000E+00 0. -1.
         21   -1    0    0  504  502  0.00000000000E+00 -0.00000000000E+00 -0.32204298202E+03  0.32204298202E+03  0.00000000000E+00 0.  1.
         21    1    1    2  503  505  0.23363427646E+02  0.63872115775E+02  0.17923811331E+02  0.70333206508E+02  0.00000000000E+00 0. -1.
         21    1    1    2  504  503 -0.14564066582E+02  0.30879191942E+02 -0.26815493024E+03  0.27031963144E+03  0.00000000000E+00 0.  1.
         21    1    1    2  505  501 -0.39360605932E+02  0.95218366983E+02  0.47127842178E+03  0.48240972787E+03  0.00000000000E+00 0. -1.
         -1    1    1    2    0  502  0.30561244868E+02 -0.18996967470E+03  0.41896762100E+03  0.46103832209E+03  0.00000000000E+00 0. -1.
<scales pt_clust_3="80.82297" pt_clust_4="34.14142" pt_clust_5="121.00656" pt_clust_6="14000.00000"></scales>
<clustering>
<clus scale="   34.141">  2  4  1 -1</clus>
<clus scale="   80.823">  2  3  1 -1</clus>
<clus scale="  121.007">  1  5  2 -1</clus>
<clus scale="   34.141">  2  3  1 -1</clus>
</clustering>
</event>
<event>
 6    0  0.4017242E+002  0.9827947E+02  0.7546771E-02  0.1283956E+00
          4   -1    0    0  503    0 -0.00000000000E+00  0.00000000000E+00  0.79690767245E+03  0.79690767245E+03  0.00000000000E+00 0.  1.
         21   -1    0    0  505  502  0.00000000000E+00 -0.00000000000E+00 -0.97151828156E+02  0.97151828156E+02  0.00000000000E+00 0. -1.
         21    1    1    2  503  504 -0.25972212633E+02  0.93425281375E+02  0.23148018744E+03  0.25096995080E+03  0.00000000000E+00 0. -1.
         21    1    1    2  504  502 -0.33704821888E+02  0.16124156206E+02 -0.71371769680E+02  0.80560120029E+02  0.00000000000E+00 0. -1.
         21    1    1    2  505  501  0.20320815248E+02 -0.10052866516E+03  0.25214975226E+03  0.27221029668E+03  0.00000000000E+00 0.  1.
          4    1    1    2  501    0  0.39356219273E+02 -0.90207724221E+01  0.28749767427E+03  0.29031913309E+03  0.00000000000E+00 0.  1.
<scales pt_clust_3="14000.00000" pt_clust_4="37.36313" pt_clust_5="98.27947" pt_clust_6="37.95323"></scales>
<clustering>
<clus scale="   37.363">  2  4  1 -1</clus>
<clus scale="   37.953">  1  6  2 -1</clus>
<clus scale="   98.279">  2  5  1 -1</clus>
<clus scale="   37.363">  2  3  1 -1</clus>
</clustering>
</event>
<event>
 6    0  0.4017242E+002  0.1200333E+03  0.7546771E-02  0.1243042E+00
         -4   -1    0    0    0  501 -0.00000000000E+00  0.00000000000E+00  0.19104724558E+04  0.19104724558E+04  0.00000000000E+00 0.  1.
         21   -1    0    0  501  502  0.00000000000E+00 -0.00000000000E+00 -0.28336315455E+03  0.28336315455E+03  0.00000000000E+00 0.  1.
         21    1    1    2  503  502 -0.34374858020E+02 -0.10938020483E+03 -0.24932009567E+03  0.27441969714E+03  0.00000000000E+00 0.  1.
         21    1    1    2  504  505 -0.11949608341E+01  0.36277655610E+02  0.58716555107E+02  0.69029921567E+02  0.00000000000E+00 0.  1.
         21    1    1    2  505  503 -0.53895613820E+02  0.42669156560E+02  0.63352278103E+02  0.93482111933E+02  0.00000000000E+00 0.  1.
         -4    1    1    2    0  504  0.89465432675E+02  0.30433392658E+02  0.17543605637E+04  0.17569038797E+04  0.00000000000E+00 0.  1.
<scales pt_clust_3="110.30053" pt_clust_4="34.40530" pt_clust_5="34.40530" pt_clust_6="94.50003"></scales>
<clustering>
<clus scale="   34.405">  4  5 -1 -1</clus>
<clus scale="   94.500">  1  6  2 -1</clus>
<clus scale="  110.301">  2  3  1 -1</clus>
<clus scale="  110.301">  2  3  1 -1</clus>
</clustering>
</event>
<event>
 6    0  0.4017242E+002  0.1368941E+03  0.7546771E-02  0.1217570E+00
         21   -1    0    0  505  502  0.00000000000E+00  0.00000000000E+00  0.11164896678E+04  0.11164896678E+04  0.00000000000E+00 0.  1.
          2   -1    0    0  503    0 -0.00000000000E+00 -0.00000000000E+00 -0.26482403626E+03  0.26482403626E+03  0.00000000000E+00 0.  1.
         21    1    1    2  503  504  0.31978490187E+02  0.26541149107E+02  0.60711551004E+02  0.73572745333E+02  0.00000000000E+00 0.  1.
         21    1    1    2  504  502  0.11795902047E+03  0.72637780003E+02  0.46482138494E+03  0.48502525449E+03  0.00000000000E+00 0.  1.
         21    1    1    2  505  501 -0.11103519760E+03  0.17264321119E+02  0.55324665937E+03  0.56454294610E+03  0.00000000000E+00 0.  1.
          2    1    1    2  501    0 -0.38902313060E+02 -0.11644325023E+03 -0.22711396379E+03  0.25817275812E+03  0.00000000000E+00 0.  1.
<scales pt_clust_3="32.53787" pt_clust_4="32.53787" pt_clust_5="112.36935" pt_clust_6="123.33224"></scales>
<clustering>
<clus scale="   32.538">  3  4 -1 -1</clus>
<clus scale="  112.369">  1  5  2 -1</clus>
<clus scale="  123.332">  2  6  1 -1</clus>
<clus scale="  112.369">  1  3  2 -1</clus>
</clustering>
</event>
<event>
 6    0  0.4017242E+002  0.1717490E+03  0.7546771E-02  0.1176036E+00
         21   -1    0    0  504  502  0.00000000000E+00  0.00000000000E+00  0.83819878243E+02  0.83819878243E+02  0.00000000000E+00 0. -1.
          2   -1    0    0  503    0 -0.00000000000E+00 -0.00000000000E+00 -0.16667383708E+04  0.16667383708E+04  0.00000000000E+00 0. -1.
         21    1    1    2  503  505 -0.28444713329E+02  0.42218928538E+02 -0.15100982075E+03  0.15935967371E+03  0.00000000000E+00 0.  1.
         21    1    1    2  504  501  0.78115355015E+02  0.56967742009E+02 -0.39219388740E+02  0.10433356493E+03  0.00000000000E+00 0. -1.
         21    1    1    2  505  502 -0.21001186045E+03  0.21660141351E+02 -0.25251587187E+03  0.32914800440E+03  0.00000000000E+00 0. -1.
          2    1    1    2  501    0  0.16034121876E+03 -0.12084681190E+03 -0.11401734112E+04  0.11577170060E+04  0.00000000000E+00 0. -1.
<scales pt_clust_3="50.90717" pt_clust_4="96.80170" pt_clust_5="171.74900" pt_clust_6="14000.00000"></scales>
<clustering>
<clus scale="   50.907">  2  3  1 -1</clus>
<clus scale="   96.802">  1  4  2 -1</clus>
<clus scale="  171.749">  1  5  2 -1</clus>
<clus scale="   96.802">  1  3  2 -1</clus>
</clustering>
</event>
<event>
 6    0  0.4017242E+002  0.1663726E+03  0.7546771E-02  0.1181684E+00
          2   -1    0    0  504    0 -0.00000000000E+00  0.00000000000E+00  0.23157120032E+04  0.23157120032E+04  0.00000000000E+00 0. -1.
         21   -1    0    0  503  502  0.00000000000E+00 -0.00000000000E+00 -0.15594412686E+03  0.15594412686E+03  0.00000000000E+00 0.  1.
         21    1    1    2  503  505 -0.14127069700E+03 -0.11192604025E+03 -0.35795048643E+02  0.18375563617E+03  0.00000000000E+00 0.  1.
         21    1    1    2  504  502 -0.35466224135E+02  0.41039302627E+02  0.50515138464E+02  0.74120554697E+02  0.00000000000E+00 0.  1.
         21    1    1    2  505  501  0.11332829159E+03  0.86624259799E+02  0.11647712895E+03  0.18415750223E+03  0.00000000000E+00 0.  1.
          2    1    1    2  501    0  0.63408629547E+02 -0.15737522176E+02  0.20285706576E+04  0.20296224370E+04  0.00000000000E+00 0. -1.
<scales pt_clust_3="14000.00000" pt_clust_4="54.24092" pt_clust_5="166.37261" pt_clust_6="65.17086"></scales>
<clustering>
<clus scale="   54.241">  2  4  1 -1</clus>
<clus scale="   65.171">  1  6  2 -1</clus>
<clus scale="  166.373">  1  5  2 -1</clus>
<clus scale="   54.241">  2  3  1 -1</clus>
</clustering>
</event>
<event>
 6    0  0.4017242E+002  0.1192864E+03  0.7546771E-02  0.1244279E+00
          2   -1    0    0  503    0 -0.00000000000E+00  0.00000000000E+00  0.89045754967E+03  0.89045754967E+03  0.00000000000E+00 0. -1.
         21   -1    0    0  505  502  0.00000000000E+00 -0.00000000000E+00 -0.57014608696E+02  0.57014608696E+02  0.00000000000E+00 0. -1.
         21    1    1    2  503  502  0.75552920090E+02  0.38754380972E+02  0.18341995632E+03  0.20212131544E+03  0.00000000000E+00 0. -1.
         21    1    1    2  504  501 -0.63109756339E+01 -0.16954985515E+03  0.34082554038E+03  0.38072172353E+03  0.00000000000E+00 0. -1.
         21    1    1    2  505  504 -0.47869059508E+02  0.96742572148E+02  0.86471603274E+02  0.13830368866E+03  0.00000000000E+00 0. -1.
          2    1    1    2  501    0 -0.21372884948E+02  0.34052902030E+02  0.22272584100E+03  0.22632543073E+03  0.00000000000E+00 0. -1.
<scales pt_clust_3="84.70392" pt_clust_4="14000.00000" pt_clust_5="119.28635" pt_clust_6="40.20448"></scales>
<clustering>
<clus scale="   40.204">  1  6  2 -1</clus>
<clus scale="   84.704">  1  3  2 -1</clus>
<clus scale="  119.286">  2  5  1 -1</clus>
<clus scale="  119.286">  2  3  1 -1</clus>
</clustering>
</event>
<event>
 6    0  0.4017242E+002  0.1659746E+03  0.7546771E-02  0.1182112E+00
         21   -1    0    0  501  502  0.00000000000E+00  0.00000000000E+00  0.34873490140E+03  0.34873490140E+03  0.00000000000E+00 0.  1.
          1   -1    0    0  503    0 -0.00000000000E+00 -0.00000000000E+00 -0.21029821635E+03  0.21029821635E+03  0.00000000000E+00 0.  1.
         21    1    1    2  503  505 -0.38039021682E+02  0.11328887784E+03 -0.19016140801E+02  0.12100806016E+03  0.00000000000E+00 0.  1.
         21    1    1    2  504  502  0.21016653361E+02 -0.77649423982E+02  0.21598710165E+03  0.23048115073E+03  0.00000000000E+00 0.  1.
         21    1    1    2  505  504 -0.79159217203E+02  0.26891680987E+02 -0.33859681276E+02  0.90198792623E+02  0.00000000000E+00 0.  1.
          1    1    1    2  501    0  0.96181585524E+02 -0.62531134847E+02 -0.24674594524E+02  0.11734511423E+03  0.00000000000E+00 0.  1.
<scales pt_clust_3="76.77850" pt_clust_4="80.44335" pt_clust_5="76.77850" pt_clust_6="138.27901"></scales>
<clustering>
<clus scale="   76.778">  3  5 -1 -1</clus>
<clus scale="   80.443">  1  4  2 -1</clus>
<clus scale="  138.279">  2  6  1 -1</clus>
<clus scale="   80.443">  1  3  2 -1</clus>
</clustering>
</event>
<event>
 6    0  0.4017242E+002  0.8389141E+02  0.7546771E-02  0.1318357E+00
          3   -1    0    0  504    0 -0.00000000000E+00  0.00000000000E+00  0.43679640333E+03  0.43679640333E+03  0.00000000000E+00 0.  1.
         21   -1    0    0  501  502  0.00000000000E+00 -0.00000000000E+00 -0.51582716401E+03  0.51582716401E+03  0.00000000000E+00 0.  1.
         21    1    1    2  503  502 -0.69124435328E+02 -0.93673417800E+00 -0.37607419588E+03  0.38237529449E+03  0.00000000000E+00 0.  1.
         21    1    1    2  504  505  0.16106912576E+02  0.44691104690E+02 -0.52758627757E+02  0.70994367903E+02  0.00000000000E+00 0. -1.
         21    1    1    2  505  503  0.57346930245E+02  0.28660226766E+02 -0.57151030050E+02  0.85885500770E+02  0.00000000000E+00 0.  1.
          3    1    1    2  501    0 -0.43294074927E+01 -0.72414597277E+02  0.40695309300E+03  0.41336840418E+03  0.00000000000E+00 0.  1.
<scales pt_clust_3="69.13078" pt_clust_4="36.06450" pt_clust_5="36.06450" pt_clust_6="72.68076"></scales>
<clustering>
<clus scale="   36.064">  4  5 -1 -1</clus>
<clus scale="   69.131">  2  3  1 -1</clus>
<clus scale="   72.681">  1  6  2 -1</clus>
<clus scale="   69.131">  2  3  1 -1</clus>
</clustering>
</event>
<event>
 6    0  0.4017242E+002  0.3294133E+03  0.7546771E-02  0.1071397E+00
         21   -1    0    0  505  502  0.00000000000E+00  0.00000000000E+00  0.50196525753E+03  0.50196525753E+03  0.00000000000E+00 0. -1.
          2   -1    0    0  504    0 -0.00000000000E+00 -0.00000000000E+00 -0.12279574736E+04  0.12279574736E+04  0.00000000000E+00 0. -1.
         21    1    1    2  503  501 -0.25047603103E+02 -0.72241404451E+02  0.26243124478E+02  0.80838756303E+02  0.00000000000E+00 0. -1.
         21    1    1    2  504  502 -0.85236782835E+02  0.10763053971E+02  0.11805510952E+03  0.14600740174E+03  0.00000000000E+00 0. -1.
         21    1    1    2  505  503  0.65693428776E+02 -0.24651297245E+03  0.23983865992E+03  0.35015261668E+03  0.00000000000E+00 0. -1.
          2    1    1    2  501    0  0.44590957161E+02  0.30799132293E+03 -0.11101291100E+04  0.11529239564E+04  0.00000000000E+00 0. -1.
<scales pt_clust_3="59.21041" pt_clust_4="85.91363" pt_clust_5="59.21041" pt_clust_6="311.15189"></scales>
<clustering>
<clus scale="   59.210">  3  5 -1 -1</clus>
<clus scale="   85.914">  1  4  2 -1</clus>
<clus scale="  311.152">  2  6  1 -1</clus>
<clus scale="   85.914">  1  3  2 -1</clus>
</clustering>
</event>
<event>
 6    0  0.4017242E+002  0.8774358E+02  0.7546771E-02  0.1308410E+00
         21   -1    0    0  503  502  0.00000000000E+00  0.00000000000E+00  0.11649014523E+03  0.11649014523E+03  0.00000000000E+00 0. -1.
         -4   -1    0    0    0  501 -0.00000000000E+00 -0.00000000000E+00 -0.44429499793E+03  0.44429499793E+03  0.00000000000E+00 0. -1.
         21    1    1    2  503  501 -0.50842537951E+02 -0.12931779402E+02  0.32995153886E+02  0.61974791357E+02  0.00000000000E+00 0. -1.
         21    1    1    2  504  502  0.46595419776E+02 -0.54371729656E+01  0.36058882812E+01  0.47049956687E+02  0.00000000000E+00 0.  1.
         21    1    1    2  505  504 -0.19891705447E+02 -0.68413085504E+02  0.51049008032E+01  0.71428917296E+02  0.00000000000E+00 0. -1.
         -4    1    1    2    0  505  0.24138823622E+02  0.86782037872E+02 -0.36951079567E+03  0.38033147782E+03  0.00000000000E+00 0. -1.
<scales pt_clust_3="30.89591" pt_clust_4="46.91158" pt_clust_5="87.74358" pt_clust_6="14000.00000"></scales>
<clustering>
<clus scale="   46.912">  1  4  2 -1</clus>
<clus scale="   30.896">  1  3  2 -1</clus>
<clus scale="   87.744">  1  5  2 -1</clus>
<clus scale="   46.912">  1  3  2 -1</clus>
</clustering>
</event>
<event>
 6    0  0.4017242E+002  0.1343428E+03  0.7546771E-02  0.1221150E+00
         21   -1    0    0  503  502  0.00000000000E+00  0.00000000000E+00  0.59167938444E+03  0.59167938444E+03  0.00000000000E+00 0. -1.
          3   -1    0    0  505    0 -0.00000000000E+00 -0.00000000000E+00 -0.18351422623E+03  0.18351422623E+03  0.00000000000E+00 0. -1.
         21    1    1    2  503  501  0.36416686900E+02 -0.25277699792E+02  0.44046127432E+03  0.44268642555E+03  0.00000000000E+00 0. -1.
         21    1    1    2  504  502 -0.86525023001E+02  0.98470747618E+02 -0.98757176790E+02  0.16412205126E+03  0.00000000000E+00 0. -1.
         21    1    1    2  505  504 -0.37790825334E+02 -0.37288658280E+01 -0.28590802810E+00  0.37975421830E+02  0.00000000000E+00 0. -1.
          3    1    1    2  501    0  0.87899161435E+02 -0.69464181998E+02  0.66746968705E+02  0.13040971203E+03  0.00000000000E+00 0. -1.
<scales pt_clust_3="44.13446" pt_clust_4="134.34277" pt_clust_5="37.97435" pt_clust_6="14000.00000"></scales>
<clustering>
<clus scale="   37.974">  2  5  1 -1</clus>
<clus scale="   44.134">  1  3  2 -1</clus>
<clus scale="  134.343">  2  4  1 -1</clus>
<clus scale="   44.134">  1  3  2 -1</clus>
</clustering>
</event>
<event>
 6    0  0.4017242E+002  0.1135547E+03  0.7546771E-02  0.1254125E+00
         21   -1    0    0  505  502  0.00000000000E+00  0.00000000000E+00  0.64236297591E+03  0.64236297591E+03  0.00000000000E+00 0. -1.
          3   -1    0    0  504    0 -0.00000000000E+00 -0.00000000000E+00 -0.15034676652E+04  0.15034676652E+04  0.00000000000E+00 0. -1.
         21    1    1    2  503  502 -0.68957589495E+02 -0.92790882762E+01 -0.46428124740E+02  0.83647004699E+02  0.00000000000E+00 0. -1.
         21    1    1    2  504  503 -0.57418525256E+02 -0.89137267125E+02 -0.13459022557E+03  0.17133846110E+03  0.00000000000E+00 0.  1.
         21    1    1    2  505  501  0.55332111344E+02  0.84142724454E+01  0.60152077549E+03  0.60411893355E+03  0.00000000000E+00 0. -1.
          3    1    1    2  501    0  0.71044003407E+02  0.90002082956E+02 -0.12816071145E+04  0.12867262418E+04  0.00000000000E+00 0. -1.
<scales pt_clust_3="43.24605" pt_clust_4="113.55466" pt_clust_5="55.96823" pt_clust_6="14000.00000"></scales>
<clustering>
<clus scale="   55.968">  1  5  2 -1</clus>
<clus scale="   43.246">  1  3  2 -1</clus>
<clus scale="  113.555">  1  4  2 -1</clus>
<clus scale="   55.968">  1  3  2 -1</clus>
</clustering>
</event>
<event>
 6    0  0.4017242E+002  0.1074588E+03  0.7546771E-02  0.1265349E+00
         -1   -1    0    0    0  501 -0.00000000000E+00  0.00000000000E+00  0.60718947753E+03  0.60718947753E+03  0.00000000000E+00 0. -1.
         21   -1    0    0  504  502  0.00000000000E+00 -0.00000000000E+00 -0.57013729905E+03  0.57013729905E+03  0.00000000000E+00 0. -1.
         21    1    1    2  503  502 -0.26350789235E+02  0.27447999081E+02 -0.26753708695E+02  0.46513628926E+02  0.00000000000E+00 0. -1.
         21    1    1    2  504  501  0.70005491623E+02 -0.31231521652E+02 -0.45267360995E+03  0.45911825704E+03  0.00000000000E+00 0. -1.
         21    1    1    2  505  503  0.26439778972E+02  0.87436200882E+02 -0.43502971509E+02  0.10117637900E+03  0.00000000000E+00 0. -1.
         -1    1    1    2    0  505 -0.70094481359E+02 -0.83652678312E+02  0.55998246864E+03  0.57051851161E+03  0.00000000000E+00 0. -1.
<scales pt_clust_3="38.04940" pt_clust_4="48.12039" pt_clust_5="107.45884" pt_clust_6="14000.00000"></scales>
<clustering>
<clus scale="   38.049">  2  3  1 -1</clus>
<clus scale="   48.120">  2  4  1 -1</clus>
<clus scale="  107.459">  2  5  1 -1</clus>
<clus scale="   38.049">  2  3  1 -1</clus>
</clustering>
</event>
<event>
 6    0  0.4017242E+002  0.1879114E+03  0.7546771E-02  0.1160359E+00
          1   -1    0    0  505    0 -0.00000000000E+00  0.00000000000E+00  0.47641524579E+03  0.47641524579E+03  0.00000000000E+00 0.  1.
         21   -1    0    0  504  502  0.00000000000E+00 -0.00000000000E+00 -0.52670577867E+03  0.52670577867E+03  0.00000000000E+00 0.  1.
         21    1    1    2  503  502 -0.29011743094E+02 -0.11744718629E+03 -0.38924571504E+03  0.40761225385E+03  0.00000000000E+00 0.  1.
         21    1    1    2  504  501 -0.51953244163E+02 -0.60833618445E+02 -0.81630370702E+02  0.11429517108E+03  0.00000000000E+00 0.  1.
         21    1    1    2  505  503  0.18637839211E+01  0.32182041666E+02  0.37061547399E+01  0.32448313966E+02  0.00000000000E+00 0.  1.
          1    1    1    2  501    0  0.79101203336E+02  0.14609876307E+03  0.41687939813E+03  0.44876528556E+03  0.00000000000E+00 0.  1.
<scales pt_clust_3="187.91137" pt_clust_4="79.08706" pt_clust_5="32.23597" pt_clust_6="14000.00000"></scales>
<clustering>
<clus scale="   32.236">  1  5  2 -1</clus>
<clus scale="   79.087">  2  4  1 -1</clus>
<clus scale="  187.911">  2  3  1 -1</clus>
<clus scale="   79.087">  2  3  1 -1</clus>
</clustering>
</event>
<event>
 6    0  0.4017242E+002  0.1725003E+03  0.7546771E-02  0.1175265E+00
          2   -1    0    0  503    0 -0.00000000000E+00  0.00000000000E+00  0.44449384455E+04  0.44449384455E+04  0.00000000000E+00 0.  1.
         21   -1    0    0  504  502  0.00000000000E+00 -0.00000000000E+00 -0.40863993932E+03  0.40863993932E+03  0.00000000000E+00 0.  1.
         21    1    1    2  503  502  0.53629441483E+02  0.44950276586E+02 -0.38088742040E+01  0.70079611027E+02  0.00000000000E+00 0.  1.
         21    1    1    2  504  505 -0.80374973477E+01 -0.88579849938E+02 -0.22224803449E+03  0.23938500374E+03  0.00000000000E+00 0.  1.
         21    1    1    2  505  501 -0.17657921060E+03 -0.68494602857E+02 -0.74725714222E+02  0.20360663202E+03  0.00000000000E+00 0.  1.
          2    1    1    2  501    0  0.13098726647E+03  0.11212417621E+03  0.43370811291E+04  0.43405071380E+04  0.00000000000E+00 0.  1.
<scales pt_clust_3="69.97603" pt_clust_4="65.71734" pt_clust_5="14000.00000" pt_clust_6="172.50029"></scales>
<clustering>
<clus scale="   69.976">  2  3  1 -1</clus>
<clus scale="   65.717">  2  4  1 -1</clus>
<clus scale="  172.500">  1  6  2 -1</clus>
<clus scale="   69.976">  2  3  1 -1</clus>
</clustering>
</event>
<event>
 6    0  0.4017242E+002  0.1387916E+03  0.7546771E-02  0.1214964E+00
         21   -1    0    0  504  502  0.00000000000E+00  0.00000000000E+00  0.51302140816E+03  0.51302140816E+03  0.00000000000E+00 0.  1.
          2   -1    0    0  503    0 -0.00000000000E+00 -0.00000000000E+00 -0.43186537195E+03  0.43186537195E+03  0.00000000000E+00 0.  1.
         21    1    1    2  503  505  0.76766984860E+02 -0.20316138686E+03  0.14099733462E+03  0.25893622274E+03  0.00000000000E+00 0.  1.
         21    1    1    2  504  501 -0.70742888239E+02  0.68618149850E+02  0.24428607113E+03  0.26341733290E+03  0.00000000000E+00 0.  1.
         21    1    1    2  505  502  0.38669833986E+02  0.50219641493E+02  0.33489947857E+02  0.71686435675E+02  0.00000000000E+00 0.  1.
          2    1    1    2  501    0 -0.44693930607E+02  0.84323595521E+02 -0.33761731740E+03  0.35084678879E+03  0.00000000000E+00 0.  1.
<scales pt_clust_3="138.79158" pt_clust_4="14000.00000" pt_clust_5="63.38271" pt_clust_6="95.81681"></scales>
<clustering>
<clus scale="   63.383">  1  5  2 -1</clus>
<clus scale="   95.817">  2  6  1 -1</clus>
<clus scale="  138.792">  2  3  1 -1</clus>
<clus scale="   63.383">  1  3  2 -1</clus>
</clustering>
</event>
<event>
 6    0  0.4017242E+002  0.8184993E+02  0.7546771E-02  0.1323882E+00
         21   -1    0    0  504  502  0.00000000000E+00  0.00000000000E+00  0.80155478930E+02  0.80155478930E+02  0.00000000000E+00 0.  1.
          2   -1    0    0  503    0 -0.00000000000E+00 -0.00000000000E+00 -0.87311922413E+03  0.87311922413E+03  0.00000000000E+00 0. -1.
         21    1    1    2  503  502  0.47243375538E+01 -0.57812574533E+02  0.40550002100E+02  0.70773694335E+02  0.00000000000E+00 0.  1.
         21    1    1    2  504  505  0.54336627467E+02  0.60867971465E+01 -0.67803697129E+02  0.87102580492E+02  0.00000000000E+00 0.  1.
         21    1    1    2  505  501 -0.64738657676E+02 -0.31049555489E+02 -0.92504598996E+02  0.11709940021E+03  0.00000000000E+00 0.  1.
          2    1    1    2  501    0  0.56776926543E+01  0.82775332876E+02 -0.67320545117E+03  0.67829902802E+03  0.00000000000E+00 0. -1.
<scales pt_clust_3="81.84993" pt_clust_4="54.67649" pt_clust_5="62.87372" pt_clust_6="14000.00000"></scales>
<clustering>
<clus scale="   54.676">  1  4  2 -1</clus>
<clus scale="   62.874">  1  5  2 -1</clus>
<clus scale="   81.850">  1  3  2 -1</clus>
<clus scale="   54.676">  1  3  2 -1</clus>
</clustering>
</event>
<event>
 6    0  0.4017242E+002  0.8381588E+02  0.7546771E-02  0.1318558E+00
         21   -1    0    0  505  502  0.00000000000E+00  0.00000000000E+00  0.21164003804E+04  0.21164003804E+04  0.00000000000E+00 0.  1.
         -1   -1    0    0    0  501 -0.00000000000E+00 -0.00000000000E+00 -0.16153411202E+03  0.16153411202E+03  0.00000000000E+00 0.  1.
         21    1    1    2  503  502  0.52850964541E+02  0.62214958053E+02  0.17757816914E+04  0.17776570369E+04  0.00000000000E+00 0.  1.
         21    1    1    2  504  501  0.95333075438E+02 -0.18086363092E+02  0.99171792336E+02  0.13874637364E+03  0.00000000000E+00 0.  1.
         21    1    1    2  505  504 -0.77867451396E+02  0.40631254178E+01  0.19977164626E+03  0.21444943372E+03  0.00000000000E+00 0.  1.
         -1    1    1    2    0  503 -0.70316588583E+02 -0.48191720379E+02 -0.11985886155E+03  0.14708164819E+03  0.00000000000E+00 0.  1.
<scales pt_clust_3="68.84774" pt_clust_4="14000.00000" pt_clust_5="77.97339" pt_clust_6="83.81588"></scales>
<clustering>
<clus scale="   77.973">  1  5  2 -1</clus>
<clus scale="   68.848">  1  3  2 -1</clus>
<clus scale="   83.816">  2  6  1 -1</clus>
<clus scale="   77.973">  1  3  2 -1</clus>
</clustering>
</event>
<event>
 6    0  0.4017242E+002  0.1538426E+03  0.7546771E-02  0.1195829E+00
          1   -1    0    0  505    0 -0.00000000000E+00  0.00000000000E+00  0.12807099500E+04  0.12807099500E+04  0.00000000000E+00 0.  1.
         21   -1    0    0  503  502  0.00000000000E+00 -0.00000000000E+00 -0.21143795900E+03  0.21143795900E+03  0.00000000000E+00 0.  1.
         21    1    1    2  503  504  0.52988950725E+01  0.33541438503E+02 -0.10365490489E+03  0.10907541288E+03  0.00000000000E+00 0.  1.
         21    1    1    2  504  501 -0.70952512570E+02 -0.76290474689E+02 -0.45638665963E+02  0.11374261910E+03  0.00000000000E+00 0.  1.
         21    1    1    2  505  502 -0.38247035742E+02 -0.96210886421E+02  0.12603753033E+03  0.16310986930E+03  0.00000000000E+00 0.  1.
          1    1    1    2  501    0  0.10390065324E+03  0.13895992261E+03  0.10925280315E+04  0.11062200077E+04  0.00000000000E+00 0.  1.
<scales pt_clust_3="33.95742" pt_clust_4="84.05947" pt_clust_5="153.84262" pt_clust_6="14000.00000"></scales>
<clustering>
<clus scale="   33.957">  2  3  1 -1</clus>
<clus scale="   84.059">  2  4  1 -1</clus>
<clus scale="  153.843">  2  5  1 -1</clus>
<clus scale="   33.957">  2  3  1 -1</clus>
</clustering>
</event>
<event>
 6    0  0.4017242E+002  0.1488556E+03  0.7546771E-02  0.1201886E+00
         21   -1    0    0  503  502  0.00000000000E+00  0.00000000000E+00  0.47443647895E+03  0.47443647895E+03  0.00000000000E+00 0. -1.
          2   -1    0    0  505    0 -0.00000000000E+00 -0.00000000000E+00 -0.26932810145E+04  0.26932810145E+04  0.00000000000E+00 0.  1.
         21    1    1    2  503  504  0.70219779512E+02 -0.12060038275E+03  0.31357837546E+03  0.34322975878E+03  0.00000000000E+00 0. -1.
         21    1    1    2  504  501  0.59857073242E+02 -0.30389294377E+02 -0.38377385002E+02  0.77325300578E+02  0.00000000000E+00 0. -1.
         21    1    1    2  505  502 -0.87998151558E+02  0.17709909519E+03  0.48917584489E+02  0.20371719188E+03  0.00000000000E+00 0. -1.
          2    1    1    2  501    0 -0.42078701196E+02 -0.26109418065E+02 -0.25429631105E+04  0.25434452423E+04  0.00000000000E+00 0.  1.
<scales pt_clust_3="148.85560" pt_clust_4="59.50358" pt_clust_5="14000.00000" pt_clust_6="49.52089"></scales>
<clustering>
<clus scale="   49.521">  2  6  1 -1</clus>
<clus scale="   59.504">  2  4  1 -1</clus>
<clus scale="  148.856">  1  3  2 -1</clus>
<clus scale="  148.856">  1  3  2 -1</clus>
</clustering>
</event>
<event>
 6    0  0.4017242E+002  0.1742937E+03  0.7546771E-02  0.1173443E+00
          4   -1    0    0  505    0 -0.00000000000E+00  0.00000000000E+00  0.89959177331E+02  0.89959177331E+02  0.00000000000E+00 0.  1.
         21   -1    0    0  503  502  0.00000000000E+00 -0.00000000000E+00 -0.53985934467E+03  0.53985934467E+03  0.00000000000E+00 0. -1.
         21    1    1    2  503  504  0.62192693386E+02 -0.70833201551E+02 -0.28353052748E+03  0.29878894485E+03  0.00000000000E+00 0. -1.
         21    1    1    2  504  501  0.69616068066E+00 -0.78144538253E+02 -0.12330542750E+03  0.14598384140E+03  0.00000000000E+00 0. -1.
         21    1    1    2  505  502 -0.27831091901E+02  0.13851255798E+03 -0.45368936213E+02  0.14838678772E+03  0.00000000000E+00 0.  1.
          4    1    1    2  501    0 -0.35057762165E+02  0.10465181820E+02  0.23047238581E+01  0.36658948029E+02  0.00000000000E+00 0.  1.
<scales pt_clust_3="72.03362" pt_clust_4="72.03362" pt_clust_5="155.62883" pt_clust_6="36.58643"></scales>
<clustering>
<clus scale="   36.586">  1  6  2 -1</clus>
<clus scale="   72.034">  3  4 -1 -1</clus>
<clus scale="  155.629">  1  5  2 -1</clus>
<clus scale="  174.294">  2  3  1 -1</clus>
</clustering>
</event>
<event>
 6    0  0.4017242E+002  0.7951864E+02  0.7546771E-02  0.1330423E+00
         21   -1    0    0  505  502  0.00000000000E+00  0.00000000000E+00  0.14716862158E+03  0.14716862158E+03  0.00000000000E+00 0. -1.
          2   -1    0    0  504    0 -0.00000000000E+00 -0.00000000000E+00 -0.13373698404E+04  0.13373698404E+04  0.00000000000E+00 0. -1.
         21    1    1    2  503  502  0.47404404716E+02 -0.32741874974E+02  0.49801754925E+02  0.76153941178E+02  0.00000000000E+00 0. -1.
         21    1    1    2  504  503  0.62429736448E+01 -0.73902070873E+02 -0.18429195467E+02  0.76420717380E+02  0.00000000000E+00 0. -1.
         21    1    1    2  505  501 -0.10714166502E+02  0.97306564733E+02  0.11086789209E+02  0.98520443558E+02  0.00000000000E+00 0. -1.
          2    1    1    2  501    0 -0.42933211859E+02  0.93373811149E+01 -0.12326605675E+04  0.12334433598E+04  0.00000000000E+00 0. -1.
<scales pt_clust_3="52.52284" pt_clust_4="79.51864" pt_clust_5="14000.00000" pt_clust_6="43.93686"></scales>
<clustering>
<clus scale="   43.937">  2  6  1 -1</clus>
<clus scale="   52.523">  1  3  2 -1</clus>
<clus scale="   79.519">  2  4  1 -1</clus>
<clus scale="   52.523">  1  3  2 -1</clus>
</clustering>
</event>
<event>
 6    0  0.4017242E+002  0.2025008E+03  0.7546771E-02  0.1147646E+00
          2   -1    0    0  505    0 -0.00000000000E+00  0.00000000000E+00  0.14180766276E+04  0.14180766276E+04  0.00000000000E+00 0. -1.
         21   -1    0    0  504  502  0.00000000000E+00 -0.00000000000E+00 -0.64485865272E+03  0.64485865272E+03  0.00000000000E+00 0. -1.
         21    1    1    2  503  502 -0.40108291720E+02  0.61222540571E+02 -0.30055606795E+03  0.30933933555E+03  0.00000000000E+00 0. -1.
         21    1    1    2  504  501 -0.98699935302E+02 -0.14903254964E+03 -0.67508155785E+02  0.19107519247E+03  0.00000000000E+00 0. -1.
         21    1    1    2  505  503  0.32400742480E+03  0.15828854450E+02 -0.72654392083E+02  0.33243048093E+03  0.00000000000E+00 0. -1.
          2    1    1    2  501    0 -0.18519919778E+03  0.71981154619E+02  0.12139365907E+04  0.12300902714E+04  0.00000000000E+00 0. -1.
<scales pt_clust_3="73.19067" pt_clust_4="169.69928" pt_clust_5="202.50080" pt_clust_6="14000.00000"></scales>
<clustering>
<clus scale="   73.191">  2  3  1 -1</clus>
<clus scale="  169.699">  2  4  1 -1</clus>
<clus scale="  202.501">  2  5  1 -1</clus>
<clus scale="   73.191">  2  3  1 -1</clus>
</clustering>
</event>
<event>
 6    0  0.4017242E+002  0.7514998E+02  0.7546771E-02  0.1343407E+00
          2   -1    0    0  503    0 -0.00000000000E+00  0.00000000000E+00  0.26427940956E+04  0.26427940956E+04  0.00000000000E+00 0. -1.
         21   -1    0    0  505  502  0.00000000000E+00 -0.00000000000E+00 -0.49652795682E+03  0.49652795682E+03  0.00000000000E+00 0.  1.
         21    1    1    2  503  504  0.89627571566E-01  0.97024621332E+02  0.13654631674E+03  0.16750725893E+03  0.00000000000E+00 0. -1.
         21    1    1    2  504  502 -0.60681407533E+02 -0.60166781055E+02 -0.15276731260E+03  0.17504321341E+03  0.00000000000E+00 0. -1.
         21    1    1    2  505  501  0.31414402862E+02 -0.74143545648E+01 -0.31614721108E+03  0.31779064875E+03  0.00000000000E+00 0.  1.
          2    1    1    2  501    0  0.29177377099E+02 -0.29443485712E+02  0.24786343457E+04  0.24789809314E+04  0.00000000000E+00 0. -1.
<scales pt_clust_3="14000.00000" pt_clust_4="75.14998" pt_clust_5="32.27751" pt_clust_6="41.47806"></scales>
<clustering>
<clus scale="   32.278">  2  5  1 -1</clus>
<clus scale="   41.478">  1  6  2 -1</clus>
<clus scale="   75.150">  2  4  1 -1</clus>
<clus scale="   32.278">  2  3  1 -1</clus>
</clustering>
</event>
<event>
 6    0  0.4017242E+002  0.6088096E+02  0.7546771E-02  0.1394172E+00
         21   -1    0    0  505  502  0.00000000000E+00  0.00000000000E+00  0.17495655002E+03  0.17495655002E+03  0.00000000000E+00 0. -1.
         -2   -1    0    0    0  501 -0.00000000000E+00 -0.00000000000E+00 -0.23440574014E+03  0.23440574014E+03  0.00000000000E+00 0. -1.
         21    1    1    2  503  502 -0.11642854170E+02 -0.91537271428E+02  0.90556447021E+02  0.12928688337E+03  0.00000000000E+00 0. -1.
         21    1    1    2  504  503  0.18599941564E+02  0.69251017733E+02 -0.64566371218E+02  0.96490816017E+02  0.00000000000E+00 0. -1.
         21    1    1    2  505  501  0.35808226016E+02  0.42112543314E+02  0.27106091442E+02  0.61566513204E+02  0.00000000000E+00 0. -1.
         -2    1    1    2    0  504 -0.42765313410E+02 -0.19826289619E+02 -0.11254535736E+03  0.12201807757E+03  0.00000000000E+00 0. -1.
<scales pt_clust_3="60.88096" pt_clust_4="14000.00000" pt_clust_5="49.06699" pt_clust_6="47.13760"></scales>
<clustering>
<clus scale="   47.138">  2  6  1 -1</clus>
<clus scale="   49.067">  1  5  2 -1</clus>
<clus scale="   60.881">  1  3  2 -1</clus>
<clus scale="   49.067">  1  3  2 -1</clus>
</clustering>
</event>
<event>
 6    0  0.4017242E+002  0.1063566E+03  0.7546771E-02  0.1267470E+00
         21   -1    0    0  504  502  0.00000000000E+00  0.00000000000E+00  0.72242187098E+02  0.72242187098E+02  0.00000000000E+00 0.  1.
          2   -1    0    0  505    0 -0.00000000000E+00 -0.00000000000E+00 -0.86896557933E+03  0.86896557933E+03  0.00000000000E+00 0. -1.
         21    1    1    2  503  501  0.18839535420E+02 -0.46908287900E+02 -0.19499419918E+03  0.20143994957E+03  0.00000000000E+00 0.  1.
         21    1    1    2  504  503  0.37056596736E+02 -0.59218883003E+02 -0.14774007865E+03  0.16342337136E+03  0.00000000000E+00 0.  1.
         21    1    1    2  505  502 -0.15899675073E+02  0.97284941191E+02  0.20003809648E+02  0.10058484901E+03  0.00000000000E+00 0.  1.
          2    1    1    2  501    0 -0.39996457083E+02  0.88422297121E+01 -0.47399292406E+03  0.47575959650E+03  0.00000000000E+00 0. -1.
<scales pt_clust_3="30.32810" pt_clust_4="30.32810" pt_clust_5="100.20290" pt_clust_6="40.96220"></scales>
<clustering>
<clus scale="   30.328">  3  4 -1 -1</clus>
<clus scale="   40.962">  2  6  1 -1</clus>
<clus scale="  100.203">  1  5  2 -1</clus>
<clus scale="  100.203">  1  3  2 -1</clus>
</clustering>
</event>
<event>
 6    0  0.4017242E+002  0.1637628E+03  0.7546771E-02  0.1184513E+00
         21   -1    0    0  505  502  0.00000000000E+00  0.00000000000E+00  0.14364640001E+04  0.14364640001E+04  0.00000000000E+00 0.  1.
         -1   -1    0    0    0  501 -0.00000000000E+00 -0.00000000000E+00 -0.19512269683E+03  0.19512269683E+03  0.00000000000E+00 0. -1.
         21    1    1    2  503  501  0.60534984986E+02 -0.86278335673E+00  0.73692953654E+03  0.73941217911E+03  0.00000000000E+00 0.  1.
         21    1    1    2  504  502 -0.86028401672E+02 -0.69556376228E+02  0.23454701363E+02  0.11308889594E+03  0.00000000000E+00 0.  1.
         21    1    1    2  505  503  0.84471488323E+02  0.52504863045E+02  0.61950862354E+03  0.62744173245E+03  0.00000000000E+00 0.  1.
         -1    1    1    2    0  504 -0.58978071636E+02  0.17914296540E+02 -0.13855155813E+03  0.15164388947E+03  0.00000000000E+00 0. -1.
<scales pt_clust_3="53.32409" pt_clust_4="148.81841" pt_clust_5="53.32409" pt_clust_6="61.63875"></scales>
<clustering>
<clus scale="   53.324">  3  5 -1 -1</clus>
<clus scale="   61.639">  2  6  1 -1</clus>
<clus scale="  148.818">  2  4  1 -1</clus>
<clus scale="  163.763">  1  3  2 -1</clus>
</clustering>
</event>
<event>
 6    0  0.4017242E+002  0.1424755E+03  0.7546771E-02  0.1210036E+00
         21   -1    0    0  504  502  0.00000000000E+00  0.00000000000E+00  0.47112511179E+02  0.47112511179E+02  0.00000000000E+00 0.  1.
          1   -1    0    0  502    0 -0.00000000000E+00 -0.00000000000E+00 -0.76451809407E+03  0.76451809407E+03  0.00000000000E+00 0.  1.
         21    1    1    2  503  501  0.21063913796E+02 -0.75684479981E+02 -0.12235244643E+03  0.14540271704E+03  0.00000000000E+00 0.  1.
         21    1    1    2  504  505  0.42606771912E+02  0.10167565664E+02 -0.15299650749E+02  0.46398229679E+02  0.00000000000E+00 0.  1.
         21    1    1    2  505  503  0.40043964006E+02 -0.30227679138E+02 -0.47188332987E+02  0.68876486623E+02  0.00000000000E+00 0.  1.
          1    1    1    2  501    0 -0.10371464971E+03  0.95744593455E+02 -0.53256515272E+03  0.55095317191E+03  0.00000000000E+00 0.  1.
<scales pt_clust_3="37.65288" pt_clust_4="43.80316" pt_clust_5="37.65288" pt_clust_6="134.45933"></scales>
<clustering>
<clus scale="   37.653">  3  5 -1 -1</clus>
<clus scale="   43.803">  1  4  2 -1</clus>
<clus scale="  134.459">  2  6  1 -1</clus>
<clus scale="   43.803">  1  3  2 -1</clus>
</clustering>
</event>
<event>
 6    0  0.4017242E+002  0.1666822E+03  0.7546771E-02  0.1181353E+00
         21   -1    0    0  503  502  0.00000000000E+00  0.00000000000E+00  0.23310442813E+03  0.23310442813E+03  0.00000000000E+00 0.  1.
         -2   -1    0    0    0  501 -0.00000000000E+00 -0.00000000000E+00 -0.33392182681E+03  0.33392182681E+03  0.00000000000E+00 0.  1.
         21    1    1    2  503  501  0.47640730780E+02  0.63214916983E+02  0.18289424256E+01  0.79177711440E+02  0.00000000000E+00 0.  1.
         21    1    1    2  504  505  0.80587312208E+02 -0.66218832139E+02  0.56160086955E+02  0.11846182501E+03  0.00000000000E+00 0.  1.
         21    1    1    2  505  502  0.28444360876E+02 -0.36319859808E+02  0.73297127548E+02  0.86606482373E+02  0.00000000000E+00 0.  1.
         -2    1    1    2    0  504 -0.15667240386E+03  0.39323774965E+02 -0.23210355560E+03  0.28278023611E+03  0.00000000000E+00 0.  1.
<scales pt_clust_3="79.15659" pt_clust_4="35.76305" pt_clust_5="35.76305" pt_clust_6="157.76949"></scales>
<clustering>
<clus scale="   35.763">  4  5 -1 -1</clus>
<clus scale="   79.157">  1  3  2 -1</clus>
<clus scale="  157.769">  2  6  1 -1</clus>
<clus scale="   79.157">  1  3  2 -1</clus>
</clustering>
</event>
<event>
 6    0  0.4017242E+002  0.1610768E+03  0.7546771E-02  0.1187486E+00
         21   -1    0    0  504  502  0.00000000000E+00  0.00000000000E+00  0.15084431476E+03  0.15084431476E+03  0.00000000000E+00 0. -1.
          4   -1    0    0  505    0 -0.00000000000E+00 -0.00000000000E+00 -0.21415340800E+04  0.21415340800E+04  0.00000000000E+00 0. -1.
         21    1    1    2  503  502  0.63502272689E+02  0.16454184816E+02 -0.67945129929E+01  0.65950316462E+02  0.00000000000E+00 0. -1.
         21    1    1    2  504  501 -0.32031687010E+02 -0.28256674581E+02 -0.24259630120E+01  0.42782635819E+02  0.00000000000E+00 0. -1.
         21    1    1    2  505  503  0.11680434791E+03 -0.99870489410E+00  0.63713290238E+02  0.13305501289E+03  0.00000000000E+00 0. -1.
          4    1    1    2  501    0 -0.14827493359E+03  0.12801194659E+02 -0.20451825794E+04  0.20505904296E+04  0.00000000000E+00 0. -1.
<scales pt_clust_3="46.54527" pt_clust_4="42.71380" pt_clust_5="46.54527" pt_clust_6="149.43796"></scales>
<clustering>
<clus scale="   42.714">  1  4  2 -1</clus>
<clus scale="   46.545">  3  5 -1 -1</clus>
<clus scale="  149.438">  2  6  1 -1</clus>
<clus scale="   42.714">  1  3  2 -1</clus>
</clustering>
</event>
<event>
 6    0  0.4017242E+002  0.8012996E+02  0.7546771E-02  0.1328683E+00
         -3   -1    0    0    0  501 -0.00000000000E+00  0.00000000000E+00  0.23930981754E+03  0.23930981754E+03  0.00000000000E+00 0. -1.
         21   -1    0    0  505  502  0.00000000000E+00 -0.00000000000E+00 -0.10057323832E+04  0.10057323832E+04  0.00000000000E+00 0.  1.
         21    1    1    2  503  502 -0.47286540276E+02 -0.36477786135E+02 -0.88192658413E+02  0.10651098897E+03  0.00000000000E+00 0. -1.
         21    1    1    2  504  501  0.13476406432E+02  0.78887118660E+02 -0.22834115337E+02  0.83223721642E+02  0.00000000000E+00 0. -1.
         21    1    1    2  505  504  0.15986247465E+02 -0.78851487149E+02 -0.85137777974E+03  0.85517088407E+03  0.00000000000E+00 0.  1.
         -3    1    1    2    0  503  0.17823886379E+02  0.36442154623E+02  0.19598198779E+03  0.20013660609E+03  0.00000000000E+00 0. -1.
<scales pt_clust_3="51.79941" pt_clust_4="80.12996" pt_clust_5="14000.00000" pt_clust_6="40.56749"></scales>
<clustering>
<clus scale="   40.567">  1  6  2 -1</clus>
<clus scale="   51.799">  1  3  2 -1</clus>
<clus scale="   80.130">  1  4  2 -1</clus>
<clus scale="   80.130">  2  3  1 -1</clus>
</clustering>
</event>
<event>
 6    0  0.4017242E+002  0.1113634E+03  0.7546771E-02  0.1258066E+00
          1   -1    0    0  504    0 -0.00000000000E+00  0.00000000000E+00  0.26550388391E+04  0.26550388391E+04  0.00000000000E+00 0. -1.
         21   -1    0    0  503  502  0.00000000000E+00 -0.00000000000E+00 -0.15294923521E+04  0.15294923521E+04  0.00000000000E+00 0.  1.
         21    1    1    2  503  505 -0.99909282287E+02 -0.53448035494E+02 -0.14725863918E+04  0.14769391451E+04  0.00000000000E+00 0.  1.
         21    1    1    2  504  502  0.30352565997E+02  0.72414002300E+02  0.28491631113E+02  0.83527474732E+02  0.00000000000E+00 0.  1.
         21    1    1    2  505  501  0.45008584211E+02  0.12821010687E+02 -0.68173223187E+01  0.47292989452E+02  0.00000000000E+00 0.  1.
          1    1    1    2  501    0  0.24548132080E+02 -0.31786977493E+02  0.25764585699E+04  0.25767715819E+04  0.00000000000E+00 0. -1.
<scales pt_clust_3="111.36335" pt_clust_4="14000.00000" pt_clust_5="51.55069" pt_clust_6="40.16245"></scales>
<clustering>
<clus scale="   40.162">  1  6  2 -1</clus>
<clus scale="   51.551">  1  5  2 -1</clus>
<clus scale="  111.363">  2  3  1 -1</clus>
<clus scale="  111.363">  2  3  1 -1</clus>
</clustering>
</event>
<event>
 6    0  0.4017242E+002  0.2027932E+03  0.7546771E-02  0.1147404E+00
         21   -1    0    0  504  502  0.00000000000E+00  0.00000000000E+00  0.16108647121E+03  0.16108647121E+03  0.00000000000E+00 0.  1.
         -1   -1    0    0    0  501 -0.00000000000E+00 -0.00000000000E+00 -0.60749426972E+03  0.60749426972E+03  0.00000000000E+00 0.  1.
         21    1    1    2  503  502 -0.40404622432E+02  0.32436353178E+02 -0.33640400100E+02  0.61776427869E+02  0.00000000000E+00 0.  1.
         21    1    1    2  504  505 -0.11035819622E+03 -0.48779616454E+02  0.25779095387E+02  0.12338129604E+03  0.00000000000E+00 0.  1.
         21    1    1    2  505  501 -0.28345025387E+02 -0.59916055357E+02  0.32437954882E+02  0.73794275324E+02  0.00000000000E+00 0.  1.
         -1    1    1    2    0  503  0.17910784404E+03  0.76259318632E+02 -0.47098444867E+03  0.50962874170E+03  0.00000000000E+00 0.  1.
<scales pt_clust_3="51.81361" pt_clust_4="49.36280" pt_clust_5="49.36280" pt_clust_6="191.54490"></scales>
<clustering>
<clus scale="   49.363">  4  5 -1 -1</clus>
<clus scale="   51.814">  1  3  2 -1</clus>
<clus scale="  191.545">  2  6  1 -1</clus>
<clus scale="   51.814">  1  3  2 -1</clus>
</clustering>
</event>
<event>
 6    0  0.4017242E+002  0.1575763E+03  0.7546771E-02  0.1191461E+00
         21   -1    0    0  503  502  0.00000000000E+00  0.00000000000E+00  0.43679702686E+02  0.43679702686E+02  0.00000000000E+00 0.  1.
          1   -1    0    0  505    0 -0.00000000000E+00 -0.00000000000E+00 -0.25619937077E+04  0.25619937077E+04  0.00000000000E+00 0.  1.
         21    1    1    2  503  504 -0.42207318270E+02  0.16304819536E+02 -0.65745116474E+02  0.79810558173E+02  0.00000000000E+00 0.  1.
         21    1    1    2  504  501  0.10127774035E+02  0.81749411603E+02 -0.12521154404E+03  0.14987818009E+03  0.00000000000E+00 0.  1.
         21    1    1    2  505  502 -0.13611480260E+02 -0.23722232284E+03 -0.64694879968E+03  0.68920421666E+03  0.00000000000E+00 0.  1.
          1    1    1    2  501    0  0.45691024495E+02  0.13916809170E+03 -0.16804085449E+04  0.16867804555E+04  0.00000000000E+00 0.  1.
<scales pt_clust_3="45.24715" pt_clust_4="87.33191" pt_clust_5="14000.00000" pt_clust_6="157.57627"></scales>
<clustering>
<clus scale="   45.247">  1  3  2 -1</clus>
<clus scale="   87.332">  1  4  2 -1</clus>
<clus scale="  157.576">  2  6  1 -1</clus>
<clus scale="   45.247">  1  3  2 -1</clus>
</clustering>
</event>
<event>
 6    0  0.4017242E+002  0.1777488E+03  0.7546771E-02  0.1170000E+00
         -1   -1    0    0    0  501 -0.00000000000E+00  0.00000000000E+00  0.72212981903E+03  0.72212981903E+03  0.00000000000E+00 0.  1.
         21   -1    0    0  504  502  0.00000000000E+00 -0.00000000000E+00 -0.32891809875E+03  0.32891809875E+03  0.00000000000E+00 0. -1.
         21    1    1    2  503  501 -0.11218809997E+03 -0.44328744001E+02  0.15327373360E+03  0.19504882653E+03  0.00000000000E+00 0.  1.
         21    1    1    2  504  505  0.27250448625E+02 -0.73021901975E+02 -0.20844260409E+03  0.22253787165E+03  0.00000000000E+00 0. -1.
         21    1    1    2  505  503  0.37704498811E+02 -0.12254664456E+03  0.64203244524E+01  0.12837651611E+03  0.00000000000E+00 0.  1.
         -1    1    1    2    0  502  0.47233152533E+02  0.23989729053E+03  0.44196026631E+03  0.50508470349E+03  0.00000000000E+00 0.  1.
<scales pt_clust_3="121.75148" pt_clust_4="77.94091" pt_clust_5="177.74884" pt_clust_6="14000.00000"></scales>
<clustering>
<clus scale="   77.941">  2  4  1 -1</clus>
<clus scale="  121.751">  1  3  2 -1</clus>
<clus scale="  177.749">  2  5  1 -1</clus>
<clus scale="   77.941">  2  3  1 -1</clus>
</clustering>
</event>
<event>
 6    0  0.4017242E+002  0.8889666E+02  0.7546771E-02  0.1305546E+00
          2   -1    0    0  504    0 -0.00000000000E+00  0.00000000000E+00  0.87094516547E+03  0.87094516547E+03  0.00000000000E+00 0. -1.
         21   -1    0    0  503  502  0.00000000000E+00 -0.00000000000E+00 -0.10654225035E+04  0.10654225035E+04  0.00000000000E+00 0. -1.
         21    1    1    2  503  501  0.38724659043E+02  0.12426225804E+02 -0.24866003544E+02  0.47668946265E+02  0.00000000000E+00 0.  1.
         21    1    1    2  504  505  0.10244527469E+03 -0.69699448961E+02 -0.65853264514E+03  0.67008827195E+03  0.00000000000E+00 0. -1.
         21    1    1    2  505  502 -0.72366321922E+02  0.11727306405E+01 -0.35891466396E+03  0.36613931208E+03  0.00000000000E+00 0. -1.
          2    1    1    2  501    0 -0.68803611813E+02  0.56100492517E+02  0.84783597467E+03  0.85247113863E+03  0.00000000000E+00 0. -1.
<scales pt_clust_3="40.66953" pt_clust_4="88.89666" pt_clust_5="58.98696" pt_clust_6="14000.00000"></scales>
<clustering>
<clus scale="   40.670">  2  3  1 -1</clus>
<clus scale="   58.987">  2  5  1 -1</clus>
<clus scale="   88.897">  2  4  1 -1</clus>
<clus scale="   40.670">  2  3  1 -1</clus>
</clustering>
</event>
<event>
 6    0  0.4017242E+002  0.1316964E+03  0.7546771E-02  0.1224960E+00
         21   -1    0    0  501  502  0.00000000000E+00  0.00000000000E+00  0.25421115607E+03  0.25421115607E+03  0.00000000000E+00 0.  1.
          2   -1    0    0  503    0 -0.00000000000E+00 -0.00000000000E+00 -0.19724601951E+04  0.19724601951E+04  0.00000000000E+00 0. -1.
         21    1    1    2  503  504  0.39967411194E+02  0.45789408050E+01 -0.62403048001E+02  0.74246219138E+02  0.00000000000E+00 0.  1.
         21    1    1    2  504  505  0.28900036582E+02  0.60302087544E+02 -0.11698423505E+03  0.13474741232E+03  0.00000000000E+00 0. -1.
         21    1    1    2  505  502  0.44284961394E+02 -0.87623747111E+01  0.23501428209E+03  0.23931078079E+03  0.00000000000E+00 0.  1.
          2    1    1    2  501    0 -0.11315240917E+03 -0.56118653638E+02 -0.17738760381E+04  0.17783669389E+04  0.00000000000E+00 0. -1.
<scales pt_clust_3="39.13868" pt_clust_4="39.13868" pt_clust_5="45.14352" pt_clust_6="121.64573"></scales>
<clustering>
<clus scale="   39.139">  3  4 -1 -1</clus>
<clus scale="   45.144">  1  5  2 -1</clus>
<clus scale="  121.646">  2  6  1 -1</clus>
<clus scale="   45.144">  1  3  2 -1</clus>
</clustering>
</event>
<event>
 6    0  0.4017242E+002  0.2727518E+03  0.7546771E-02  0.1099715E+00
          2   -1    0    0  503    0 -0.00000000000E+00  0.00000000000E+00  0.11003777698E+04  0.11003777698E+04  0.00000000000E+00 0.  1.
         21   -1    0    0  504  502  0.00000000000E+00 -0.00000000000E+00 -0.99505623348E+02  0.99505623348E+02  0.00000000000E+00 0.  1.
         21    1    1    2  503  505  0.17657889119E+02  0.17304209533E+03  0.28086184813E+03  0.33036153762E+03  0.00000000000E+00 0.  1.
         21    1    1    2  504  501 -0.30572619179E+02 -0.34927545671E+02 -0.42000406957E+01  0.46607497593E+02  0.00000000000E+00 0. -1.
         21    1    1    2  505  502 -0.21763077619E+02  0.11261958346E+03  0.11144460247E+03  0.15992717576E+03  0.00000000000E+00 0.  1.
          2    1    1    2  501    0  0.34677807680E+02 -0.25073413311E+03  0.61276573659E+03  0.66298718222E+03  0.00000000000E+00 0.  1.
<scales pt_clust_3="56.48227" pt_clust_4="46.41787" pt_clust_5="56.48227" pt_clust_6="263.69363"></scales>
<clustering>
<clus scale="   46.418">  2  4  1 -1</clus>
<clus scale="   56.482">  3  5 -1 -1</clus>
<clus scale="  263.694">  1  6  2 -1</clus>
<clus scale="   46.418">  2  3  1 -1</clus>
</clustering>
</event>
<event>
 6    0  0.4017242E+002  0.1145336E+03  0.7546771E-02  0.1252397E+00
         21   -1    0    0  503  502  0.00000000000E+00  0.00000000000E+00  0.75801511440E+03  0.75801511440E+03  0.00000000000E+00 0.  1.
         -3   -1    0    0    0  501 -0.00000000000E+00 -0.00000000000E+00 -0.42642292791E+02  0.42642292791E+02  0.00000000000E+00 0.  1.
         21    1    1    2  503  505 -0.58671644802E+02 -0.34271577163E+02  0.47586314205E+03  0.48068974700E+03  0.00000000000E+00 0.  1.
         21    1    1    2  504  502  0.66162890942E+02  0.14323014889E+02  0.77335510006E+02  0.10277868457E+03  0.00000000000E+00 0. -1.
         21    1    1    2  505  501 -0.36310237359E+02 -0.36548756979E+02  0.14133169851E+03  0.15042903303E+03  0.00000000000E+00 0.  1.
         -3    1    1    2    0  504  0.28818991218E+02  0.56497319253E+02  0.20842471048E+02  0.66759942607E+02  0.00000000000E+00 0.  1.
<scales pt_clust_3="50.35637" pt_clust_4="98.86146" pt_clust_5="50.35637" pt_clust_6="63.42303"></scales>
<clustering>
<clus scale="   50.356">  3  5 -1 -1</clus>
<clus scale="   63.423">  2  6  1 -1</clus>
<clus scale="   98.861">  2  4  1 -1</clus>
<clus scale="  114.534">  1  3  2 -1</clus>
</clustering>
</event>
<event>
 6    0  0.4017242E+002  0.1094298E+03  0.7546771E-02  0.1261629E+00
         21   -1    0    0  504  502  0.00000000000E+00  0.00000000000E+00  0.11121669444E+03  0.11121669444E+03  0.00000000000E+00 0.  1.
          2   -1    0    0  503    0 -0.00000000000E+00 -0.00000000000E+00 -0.13386749691E+04  0.13386749691E+04  0.00000000000E+00 0. -1.
         21    1    1    2  503  502 -0.53769751043E+02  0.47195167290E+02 -0.21328599224E+02  0.74655737138E+02  0.00000000000E+00 0. -1.
         21    1    1    2  504  505  0.19467821653E+02 -0.72302406956E+02  0.45397133225E+02  0.87564455326E+02  0.00000000000E+00 0.  1.
         21    1    1    2  505  501  0.26031547261E+02 -0.39907031671E+02 -0.15785668440E+02  0.50193624672E+02  0.00000000000E+00 0. -1.
          2    1    1    2  501    0  0.82703821293E+01  0.65014271337E+02 -0.12357411402E+04  0.12374778464E+04  0.00000000000E+00 0. -1.
<scales pt_clust_3="92.38821" pt_clust_4="46.78171" pt_clust_5="46.78171" pt_clust_6="65.53819"></scales>
<clustering>
<clus scale="   46.782">  4  5 -1 -1</clus>
<clus scale="   65.538">  2  6  1 -1</clus>
<clus scale="   92.388">  2  3  1 -1</clus>
<clus scale="  109.430">  1  3  2 -1</clus>
</clustering>
</event>
<event>
 6    0  0.4017242E+002  0.9601171E+02  0.7546771E-02  0.1288914E+00
         21   -1    0    0  503  502  0.00000000000E+00  0.00000000000E+00  0.87289254667E+03  0.87289254667E+03  0.00000000000E+00 0. -1.
          4   -1    0    0  504    0 -0.00000000000E+00 -0.00000000000E+00 -0.31312612519E+02  0.31312612519E+02  0.00000000000E+00 0. -1.
         21    1    1    2  503  505  0.16439899196E+02 -0.31718900925E+02  0.12691948153E+03  0.13185186291E+03  0.00000000000E+00 0. -1.
         21    1    1    2  504  502 -0.48147292639E+02 -0.10709415175E+03  0.17853368407E+03  0.21368573999E+03  0.00000000000E+00 0. -1.
         21    1    1    2  505  501  0.33867847932E+02  0.59697114160E+02  0.34571446739E+03  0.35246172774E+03  0.00000000000E+00 0. -1.
          4    1    1    2  501    0 -0.21604544888E+01  0.79115938518E+02  0.19041230116E+03  0.20620582854E+03  0.00000000000E+00 0. -1.
<scales pt_clust_3="35.72617" pt_clust_4="96.01171" pt_clust_5="61.13019" pt_clust_6="14000.00000"></scales>
<clustering>
<clus scale="   35.726">  1  3  2 -1</clus>
<clus scale="   61.130">  1  5  2 -1</clus>
<clus scale="   96.012">  2  4  1 -1</clus>
<clus scale="   35.726">  1  3  2 -1</clus>
</clustering>
</event>
<event>
 6    0  0.4017242E+002  0.1541437E+03  0.7546771E-02  0.1195472E+00
         21   -1    0    0  505  502  0.00000000000E+00  0.00000000000E+00  0.11570696161E+03  0.11570696161E+03  0.00000000000E+00 0.  1.
          1   -1    0    0  503    0 -0.00000000000E+00 -0.00000000000E+00 -0.69958732392E+03  0.69958732392E+03  0.00000000000E+00 0.  1.
         21    1    1    2  503  502  0.95688836729E+02  0.11940289540E+03 -0.12986815435E+02  0.15356452155E+03  0.00000000000E+00 0.  1.
         21    1    1    2  504  501 -0.44316293952E+02 -0.96948886583E+02 -0.78644058440E+02  0.13246851870E+03  0.00000000000E+00 0. -1.
         21    1    1    2  505  504  0.10542709874E+02 -0.33042034629E+02 -0.17194696154E+01  0.34725802506E+02  0.00000000000E+00 0.  1.
          1    1    1    2  501    0 -0.61915252651E+02  0.10588025813E+02 -0.49053001882E+03  0.49453544278E+03  0.00000000000E+00 0.  1.
<scales pt_clust_3="142.48833" pt_clust_4="33.53960" pt_clust_5="33.53960" pt_clust_6="62.81405"></scales>
<clustering>
<clus scale="   33.540">  4  5 -1 -1</clus>
<clus scale="   62.814">  2  6  1 -1</clus>
<clus scale="  142.488">  1  3  2 -1</clus>
<clus scale="  142.488">  1  3  2 -1</clus>
</clustering>
</event>
<event>
 6    0  0.4017242E+002  0.1242629E+03  0.7546771E-02  0.1236226E+00
         21   -1    0    0  503  502  0.00000000000E+00  0.00000000000E+00  0.28188849761E+03  0.28188849761E+03  0.00000000000E+00 0.  1.
          2   -1    0    0  505    0 -0.00000000000E+00 -0.00000000000E+00 -0.11868432443E+04  0.11868432443E+04  0.00000000000E+00 0.  1.
         21    1    1    2  503  501  0.13406764025E+03 -0.17881828807E+02  0.17239865891E+03  0.21912368553E+03  0.00000000000E+00 0.  1.
         21    1    1    2  504  502 -0.28977718348E+02  0.35123995220E+02  0.42702462800E+02  0.62425183460E+02  0.00000000000E+00 0.  1.
         21    1    1    2  505  504 -0.52280633908E+02  0.12868371840E+02  0.10616268022E+02  0.54877726104E+02  0.00000000000E+00 0. -1.
          2    1    1    2  501    0 -0.52809287997E+02 -0.30110538253E+02 -0.11306721364E+04  0.11323051468E+04  0.00000000000E+00 0.  1.
<scales pt_clust_3="115.88952" pt_clust_4="41.23910" pt_clust_5="41.23910" pt_clust_6="60.79034"></scales>
<clustering>
<clus scale="   41.239">  4  5 -1 -1</clus>
<clus scale="   60.790">  2  6  1 -1</clus>
<clus scale="  115.890">  1  3  2 -1</clus>
<clus scale="  115.890">  1  3  2 -1</clus>
</clustering>
</event>
<event>
 6    0  0.4017242E+002  0.7140213E+02  0.7546771E-02  0.1355389E+00
         21   -1    0    0  505  502  0.00000000000E+00  0.00000000000E+00  0.22790291685E+03  0.22790291685E+03  0.00000000000E+00 0.  1.
          2   -1    0    0  504    0 -0.00000000000E+00 -0.00000000000E+00 -0.33676079182E+04  0.33676079182E+04  0.00000000000E+00 0.  1.
         21    1    1    2  503  502 -0.60611474148E+02  0.17884352438E+01  0.11643054795E+02  0.61745526348E+02  0.00000000000E+00 0. -1.
         21    1    1    2  504  503  0.38561688421E+02  0.53239953806E+02  0.71623854373E+02  0.97218686528E+02  0.00000000000E+00 0.  1.
         21    1    1    2  505  501  0.93360221790E+02 -0.53511668315E+02  0.79195034577E+02  0.13360944263E+03  0.00000000000E+00 0.  1.
          2    1    1    2  501    0 -0.71310436062E+02 -0.15167207347E+01 -0.33021669451E+04  0.33029371795E+04  0.00000000000E+00 0.  1.
<scales pt_clust_3="60.63785" pt_clust_4="55.30330" pt_clust_5="71.40213" pt_clust_6="14000.00000"></scales>
<clustering>
<clus scale="   60.638">  1  3  2 -1</clus>
<clus scale="   55.303">  1  4  2 -1</clus>
<clus scale="   71.402">  1  5  2 -1</clus>
<clus scale="   60.638">  1  3  2 -1</clus>
</clustering>
</event>
<event>
 6    0  0.4017242E+002  0.1206954E+03  0.7546771E-02  0.1241954E+00
         21   -1    0    0  505  502  0.00000000000E+00  0.00000000000E+00  0.32566928959E+02  0.32566928959E+02  0.00000000000E+00 0. -1.
          1   -1    0    0  503    0 -0.00000000000E+00 -0.00000000000E+00 -0.14653070171E+04  0.14653070171E+04  0.00000000000E+00 0. -1.
         21    1    1    2  503  504  0.34346807901E+02  0.91976529841E+01 -0.16677251559E+03  0.17052088432E+03  0.00000000000E+00 0. -1.
         21    1    1    2  504  502  0.50580827544E+02 -0.16641717100E+02 -0.40544256083E+02  0.66926852342E+02  0.00000000000E+00 0. -1.
         21    1    1    2  505  501  0.59038947784E+02  0.76509938781E+02 -0.19423424522E+03  0.21694771284E+03  0.00000000000E+00 0. -1.
          1    1    1    2  501    0 -0.14396658323E+03 -0.69065874665E+02 -0.10311890713E+04  0.10434784966E+04  0.00000000000E+00 0. -1.
<scales pt_clust_3="35.55700" pt_clust_4="54.48710" pt_clust_5="14000.00000" pt_clust_6="120.69544"></scales>
<clustering>
<clus scale="   35.557">  2  3  1 -1</clus>
<clus scale="   54.487">  1  4  2 -1</clus>
<clus scale="  120.695">  2  6  1 -1</clus>
<clus scale="   54.487">  1  3  2 -1</clus>
</clustering>
</event>
<event>
 6    0  0.4017242E+002  0.8297884E+02  0.7546771E-02  0.1320804E+00
         21   -1    0    0  505  502  0.00000000000E+00  0.00000000000E+00  0.55188400555E+03  0.55188400555E+03  0.00000000000E+00 0. -1.
          1   -1    0    0  502    0 -0.00000000000E+00 -0.00000000000E+00 -0.89339028992E+03  0.89339028992E+03  0.00000000000E+00 0. -1.
         21    1    1    2  503  504  0.12432286000E+02 -0.71451910804E+02  0.15253579261E+03  0.16889969011E+03  0.00000000000E+00 0. -1.
         21    1    1    2  504  501 -0.74375086693E+02  0.86469058442E+02 -0.62787315018E+02  0.13019523231E+03  0.00000000000E+00 0.  1.
         21    1    1    2  505  503  0.38365526369E+02  0.68283092195E+01  0.35607139490E+03  0.35819740045E+03  0.00000000000E+00 0. -1.
          1    1    1    2  501    0  0.23577274324E+02 -0.21845456858E+02 -0.78732615687E+03  0.78798197260E+03  0.00000000000E+00 0. -1.
<scales pt_clust_3="82.97884" pt_clust_4="14000.00000" pt_clust_5="39.16417" pt_clust_6="32.14206"></scales>
<clustering>
<clus scale="   32.142">  2  6  1 -1</clus>
<clus scale="   39.164">  1  5  2 -1</clus>
<clus scale="   82.979">  1  3  2 -1</clus>
<clus scale="   39.164">  1  3  2 -1</clus>
</clustering>
</event>
<event>
 6    0  0.4017242E+002  0.7832024E+02  0.7546771E-02  0.1333887E+00
         21   -1    0    0  504  502  0.00000000000E+00  0.00000000000E+00  0.46572960947E+02  0.46572960947E+02  0.00000000000E+00 0.  1.
          1   -1    0    0  503    0 -0.00000000000E+00 -0.00000000000E+00 -0.13773466026E+04  0.13773466026E+04  0.00000000000E+00 0.  1.
         21    1    1    2  503  505  0.36311442756E+02  0.83084615401E+02 -0.51505437764E+02  0.10428031603E+03  0.00000000000E+00 0.  1.
         21    1    1    2  504  501  0.14720021489E+02 -0.45303573833E+02 -0.87448380797E+02  0.99580681554E+02  0.00000000000E+00 0.  1.
         21    1    1    2  505  502  0.28336684154E+02 -0.28548585588E+02 -0.18940147598E+02  0.44460303631E+02  0.00000000000E+00 0.  1.
          1    1    1    2  501    0 -0.79368148399E+02 -0.92324559799E+01 -0.11728796755E+04  0.11755982624E+04  0.00000000000E+00 0.  1.
<scales pt_clust_3="14000.00000" pt_clust_4="54.17469" pt_clust_5="40.22424" pt_clust_6="78.32024"></scales>
<clustering>
<clus scale="   40.224">  1  5  2 -1</clus>
<clus scale="   54.175">  1  4  2 -1</clus>
<clus scale="   78.320">  2  6  1 -1</clus>
<clus scale="   40.224">  1  3  2 -1</clus>
</clustering>
</event>
<event>
 6    0  0.4017242E+002  0.6950604E+02  0.7546771E-02  0.1361781E+00
         -1   -1    0    0    0  501 -0.00000000000E+00  0.00000000000E+00  0.12153205652E+04  0.12153205652E+04  0.00000000000E+00 0.  1.
         21   -1    0    0  505  502  0.00000000000E+00 -0.00000000000E+00 -0.35407188634E+02  0.35407188634E+02  0.00000000000E+00 0. -1.
         21    1    1    2  503  501  0.53010674629E+02 -0.52127623445E+02  0.33478731129E+03  0.34294309229E+03  0.00000000000E+00 0. -1.
         21    1    1    2  504  502 -0.46204776371E+02  0.44241265326E+02  0.16544920926E+03  0.17738548915E+03  0.00000000000E+00 0.  1.
         21    1    1    2  505  503  0.32793867567E+02 -0.47122633615E+02  0.11197601358E+02  0.58492449299E+02  0.00000000000E+00 0. -1.
         -1    1    1    2    0  504 -0.39599765825E+02  0.55008991733E+02  0.66847925471E+03  0.67190672314E+03  0.00000000000E+00 0.  1.
<scales pt_clust_3="69.50604" pt_clust_4="35.87553" pt_clust_5="57.41063" pt_clust_6="14000.00000"></scales>
<clustering>
<clus scale="   57.411">  2  5  1 -1</clus>
<clus scale="   35.876">  2  4  1 -1</clus>
<clus scale="   69.506">  2  3  1 -1</clus>
<clus scale="   57.411">  2  3  1 -1</clus>
</clustering>
</event>
<event>
 6    0  0.4017242E+002  0.1146757E+03  0.7546771E-02  0.1252148E+00
         21   -1    0    0  505  502  0.00000000000E+00  0.00000000000E+00  0.35784833003E+02  0.35784833003E+02  0.00000000000E+00 0. -1.
          2   -1    0    0  503    0 -0.00000000000E+00 -0.00000000000E+00 -0.14950824875E+04  0.14950824875E+04  0.00000000000E+00 0.  1.
         21    1    1    2  503  502 -0.44763866305E+02 -0.14992737192E+02 -0.49702940949E+02  0.68549020664E+02  0.00000000000E+00 0. -1.
         21    1    1    2  504  501  0.65043582762E+02 -0.26121494397E+02 -0.71262571175E+02  0.99956761545E+02  0.00000000000E+00 0.  1.
         21    1    1    2  505  504  0.48871230065E+02 -0.42745657591E+02 -0.99751864228E+02  0.11902110228E+03  0.00000000000E+00 0. -1.
          2    1    1    2  501    0 -0.69150946521E+02  0.83859889181E+02 -0.12385802781E+04  0.12433404360E+04  0.00000000000E+00 0.  1.
<scales pt_clust_3="47.20790" pt_clust_4="30.22303" pt_clust_5="30.22303" pt_clust_6="110.29243"></scales>
<clustering>
<clus scale="   30.223">  4  5 -1 -1</clus>
<clus scale="   47.208">  1  3  2 -1</clus>
<clus scale="  110.292">  2  6  1 -1</clus>
<clus scale="   47.208">  1  3  2 -1</clus>
</clustering>
</event>
<event>
 6    0  0.4017242E+002  0.1059089E+03  0.7546771E-02  0.1268339E+00
         21   -1    0    0  505  502  0.00000000000E+00  0.00000000000E+00  0.46275744344E+03  0.46275744344E+03  0.00000000000E+00 0. -1.
         -3   -1    0    0    0  501 -0.00000000000E+00 -0.00000000000E+00 -0.13811732284E+03  0.13811732284E+03  0.00000000000E+00 0.  1.
         21    1    1    2  503  504 -0.33957367007E+01 -0.74857973277E+02  0.86745184591E+02  0.11462972669E+03  0.00000000000E+00 0. -1.
         21    1    1    2  504  501  0.36190850849E+02 -0.44297571747E+02  0.42667246649E+02  0.71362080158E+02  0.00000000000E+00 0. -1.
         21    1    1    2  505  503 -0.15494672935E+02  0.84964986220E+02  0.29532885605E+03  0.30769833764E+03  0.00000000000E+00 0. -1.
         -3    1    1    2    0  502 -0.17300441213E+02  0.34190558804E+02 -0.10010116669E+03  0.10718462180E+03  0.00000000000E+00 0.  1.
<scales pt_clust_3="41.65477" pt_clust_4="41.65477" pt_clust_5="92.97791" pt_clust_6="38.31840"></scales>
<clustering>
<clus scale="   38.318">  2  6  1 -1</clus>
<clus scale="   41.655">  3  4 -1 -1</clus>
<clus scale="   92.978">  1  5  2 -1</clus>
<clus scale="   92.978">  1  3  2 -1</clus>
</clustering>
</event>
<event>
 6    0  0.4017242E+002  0.1092747E+03  0.7546771E-02  0.1261919E+00
          2   -1    0    0  505    0 -0.00000000000E+00  0.00000000000E+00  0.24246463577E+04  0.24246463577E+04  0.00000000000E+00 0. -1.
         21   -1    0    0  504  502  0.00000000000E+00 -0.00000000000E+00 -0.43372526137E+02  0.43372526137E+02  0.00000000000E+00 0.  1.
         21    1    1    2  503  502  0.37659376371E+02 -0.19982038602E+02  0.14939857177E+03  0.15536229833E+03  0.00000000000E+00 0.  1.
         21    1    1    2  504  501 -0.92694236157E+02  0.16757739303E+02  0.33014470935E+02  0.99814821217E+02  0.00000000000E+00 0.  1.
         21    1    1    2  505  503  0.88800856296E+02  0.27963215057E+02  0.31387529408E+03  0.32739156023E+03  0.00000000000E+00 0. -1.
          2    1    1    2  501    0 -0.33765996510E+02 -0.24738915759E+02  0.18849854947E+04  0.18854502040E+04  0.00000000000E+00 0. -1.
<scales pt_clust_3="32.96241" pt_clust_4="97.81734" pt_clust_5="32.96241" pt_clust_6="41.85877"></scales>
<clustering>
<clus scale="   32.962">  3  5 -1 -1</clus>
<clus scale="   41.859">  1  6  2 -1</clus>
<clus scale="   97.817">  2  4  1 -1</clus>
<clus scale="   97.817">  2  3  1 -1</clus>
</clustering>
</event>
<event>
 6    0  0.4017242E+002  0.1330485E+03  0.7546771E-02  0.1223001E+00
          1   -1    0    0  503    0 -0.00000000000E+00  0.00000000000E+00  0.22816938842E+03  0.22816938842E+03  0.00000000000E+00 0.  1.
         21   -1    0    0  505  502  0.00000000000E+00 -0.00000000000E+00 -0.30218145645E+03  0.30218145645E+03  0.00000000000E+00 0.  1.
         21    1    1    2  503  504  0.86155008455E+01  0.10887986381E+03 -0.57844809007E+02  0.12359236841E+03  0.00000000000E+00 0.  1.
         21    1    1    2  504  502  0.23663601271E+02  0.57563717458E+02 -0.10932968489E+03  0.12580352773E+03  0.00000000000E+00 0.  1.
         21    1    1    2  505  501 -0.26750018875E+02 -0.26386574187E+02 -0.61599076716E+02  0.72154425086E+02  0.00000000000E+00 0.  1.
          1    1    1    2  501    0 -0.55290832415E+01 -0.14005700708E+03  0.15476150258E+03  0.20880052365E+03  0.00000000000E+00 0.  1.
<scales pt_clust_3="133.04851" pt_clust_4="45.55924" pt_clust_5="37.57412" pt_clust_6="14000.00000"></scales>
<clustering>
<clus scale="   37.574">  2  5  1 -1</clus>
<clus scale="   45.559">  2  4  1 -1</clus>
<clus scale="  133.049">  2  3  1 -1</clus>
<clus scale="   37.574">  2  3  1 -1</clus>
</clustering>
</event>
<event>
 6    0  0.4017242E+002  0.1180392E+03  0.7546771E-02  0.1246367E+00
         21   -1    0    0  503  502  0.00000000000E+00  0.00000000000E+00  0.53261451815E+03  0.53261451815E+03  0.00000000000E+00 0.  1.
          1   -1    0    0  504    0 -0.00000000000E+00 -0.00000000000E+00 -0.28309564548E+03  0.28309564548E+03  0.00000000000E+00 0.  1.
         21    1    1    2  503  505 -0.11026290407E+03 -0.21228715087E+02  0.19562525898E+03  0.22556109662E+03  0.00000000000E+00 0.  1.
         21    1    1    2  504  502 -0.50423945103E+01  0.32900917812E+02  0.27964784671E+03  0.28162175752E+03  0.00000000000E+00 0.  1.
         21    1    1    2  505  501  0.14654332668E+03  0.86768742637E+01 -0.10066110075E+03  0.17799688746E+03  0.00000000000E+00 0.  1.
          1    1    1    2  501    0 -0.31238028104E+02 -0.20349076988E+02 -0.12509313227E+03  0.13053042203E+03  0.00000000000E+00 0.  1.
<scales pt_clust_3="118.03915" pt_clust_4="33.28507" pt_clust_5="14000.00000" pt_clust_6="37.13463"></scales>
<clustering>
<clus scale="   33.285">  1  4  2 -1</clus>
<clus scale="   37.135">  2  6  1 -1</clus>
<clus scale="  118.039">  1  3  2 -1</clus>
<clus scale="   33.285">  1  3  2 -1</clus>
</clustering>
</event>
<event>
 6    0  0.4017242E+002  0.1009472E+03  0.7546771E-02  0.1278317E+00
          2   -1    0    0  504    0 -0.00000000000E+00  0.00000000000E+00  0.14121388998E+04  0.14121388998E+04  0.00000000000E+00 0.  1.
         21   -1    0    0  505  502  0.00000000000E+00 -0.00000000000E+00 -0.48957021152E+02  0.48957021152E+02  0.00000000000E+00 0. -1.
         21    1    1    2  503  502  0.34477491387E+02  0.36771909082E+02  0.41374202729E+02  0.65212693253E+02  0.00000000000E+00 0. -1.
         21    1    1    2  504  503  0.45383122180E+02  0.27397513961E+00  0.62564732688E+02  0.77291969942E+02  0.00000000000E+00 0. -1.
         21    1    1    2  505  501 -0.13223005697E+03  0.48082883149E+02  0.15306729581E+03  0.20790947228E+03  0.00000000000E+00 0. -1.
          2    1    1    2  501    0  0.52369443404E+02 -0.85128767370E+02  0.11061756474E+04  0.11106817854E+04  0.00000000000E+00 0.  1.
<scales pt_clust_3="97.48988" pt_clust_4="39.74114" pt_clust_5="14000.00000" pt_clust_6="100.94721"></scales>
<clustering>
<clus scale="   39.741">  3  4 -1 -1</clus>
<clus scale="   97.490">  2  3  1 -1</clus>
<clus scale="  100.947">  1  6  2 -1</clus>
<clus scale="   97.490">  2  3  1 -1</clus>
</clustering>
</event>
<event>
 6    0  0.4017242E+002  0.1160754E+03  0.7546771E-02  0.1249716E+00
         -2   -1    0    0    0  501 -0.00000000000E+00  0.00000000000E+00  0.15682597204E+04  0.15682597204E+04  0.00000000000E+00 0. -1.
         21   -1    0    0  504  502  0.00000000000E+00 -0.00000000000E+00 -0.24052666518E+03  0.24052666518E+03  0.00000000000E+00 0. -1.
         21    1    1    2  503  502  0.99692519706E+02 -0.11773377286E+03 -0.10606647469E+03  0.18721628350E+03  0.00000000000E+00 0. -1.
         21    1    1    2  504  505 -0.16402894098E+02  0.38687030324E+02 -0.80449991767E+02  0.90763111589E+02  0.00000000000E+00 0. -1.
         21    1    1    2  505  501 -0.19350858717E+02  0.34859496558E+02  0.47566838320E+02  0.62066451011E+02  0.00000000000E+00 0. -1.
         -2    1    1    2    0  503 -0.63938766891E+02  0.44187245974E+02  0.14666826834E+04  0.14687405395E+04  0.00000000000E+00 0. -1.
<scales pt_clust_3="116.07538" pt_clust_4="42.15581" pt_clust_5="39.87029" pt_clust_6="14000.00000"></scales>
<clustering>
<clus scale="   39.870">  1  5  2 -1</clus>
<clus scale="   42.156">  2  4  1 -1</clus>
<clus scale="  116.075">  2  3  1 -1</clus>
<clus scale="   42.156">  2  3  1 -1</clus>
</clustering>
</event>
<event>
 6    0  0.4017242E+002  0.7414698E+02  0.7546771E-02  0.1346533E+00
         21   -1    0    0  501  502  0.00000000000E+00  0.00000000000E+00  0.29143682914E+03  0.29143682914E+03  0.00000000000E+00 0. -1.
         -2   -1    0    0    0  501 -0.00000000000E+00 -0.00000000000E+00 -0.14452945143E+03  0.14452945143E+03  0.00000000000E+00 0. -1.
         21    1    1    2  503  502 -0.28238662825E+02 -0.18921833000E+02  0.39591033710E+02  0.52181488983E+02  0.00000000000E+00 0. -1.
         21    1    1    2  504  505 -0.76907510397E+02 -0.50179810505E+02 -0.69576117323E+01  0.92093359689E+02  0.00000000000E+00 0. -1.
         21    1    1    2  505  503  0.84163440339E+02  0.47451801808E+02  0.18836600197E+03  0.21170004460E+03  0.00000000000E+00 0. -1.
         -2    1    1    2    0  504  0.20982732883E+02  0.21649841698E+02 -0.74092046244E+02  0.79991387295E+02  0.00000000000E+00 0. -1.
<scales pt_clust_3="31.24742" pt_clust_4="14000.00000" pt_clust_5="74.14698" pt_clust_6="30.14947"></scales>
<clustering>
<clus scale="   30.149">  2  6  1 -1</clus>
<clus scale="   31.247">  1  3  2 -1</clus>
<clus scale="   74.147">  1  5  2 -1</clus>
<clus scale="   31.247">  1  3  2 -1</clus>
</clustering>
</event>
<event>
 6    0  0.4017242E+002  0.1759048E+03  0.7546771E-02  0.1171826E+00
         21   -1    0    0  504  502  0.00000000000E+00  0.00000000000E+00  0.51442524849E+03  0.51442524849E+03  0.00000000000E+00 0.  1.
          2   -1    0    0  503    0 -0.00000000000E+00 -0.00000000000E+00 -0.25607611967E+03  0.25607611967E+03  0.00000000000E+00 0.  1.
         21    1    1    2  503  505 -0.41794143449E+02 -0.37697951200E+02  0.59981937602E+02  0.82253989507E+02  0.00000000000E+00 0.  1.
         21    1    1    2  504  501  0.46900434505E+02 -0.11809511584E+02  0.12086689034E+03  0.13018417915E+03  0.00000000000E+00 0.  1.
         21    1    1    2  505  502 -0.14668741164E+03 -0.28403824047E+02  0.26886546214E+03  0.30759162974E+03  0.00000000000E+00 0.  1.
          2    1    1    2  501    0  0.14158112058E+03  0.77911286831E+02 -0.19136516126E+03  0.25047156977E+03  0.00000000000E+00 0.  1.
<scales pt_clust_3="38.54623" pt_clust_4="48.36440" pt_clust_5="38.54623" pt_clust_6="164.31146"></scales>
<clustering>
<clus scale="   38.546">  3  5 -1 -1</clus>
<clus scale="   48.364">  1  4  2 -1</clus>
<clus scale="  164.311">  2  6  1 -1</clus>
<clus scale="   48.364">  1  3  2 -1</clus>
</clustering>
</event>
<event>
 6    0  0.4017242E+002  0.8795736E+02  0.7546771E-02  0.1307875E+00
         21   -1    0    0  505  502  0.00000000000E+00  0.00000000000E+00  0.22689871198E+02  0.22689871198E+02  0.00000000000E+00 0.  1.
          2   -1    0    0  504    0 -0.00000000000E+00 -0.00000000000E+00 -0.26911895151E+04  0.26911895151E+04  0.00000000000E+00 0.  1.
         21    1    1    2  503  502  0.11431410660E+02  0.76192854178E+02 -0.34945846255E+03  0.35785087009E+03  0.00000000000E+00 0.  1.
         21    1    1    2  504  503  0.62275159506E+02  0.31560575985E+02 -0.16443985607E+04  0.16458799749E+04  0.00000000000E+00 0.  1.
         21    1    1    2  505  501 -0.51614347770E+02  0.17491274626E+00 -0.38126914806E+02  0.64169565393E+02  0.00000000000E+00 0.  1.
          2    1    1    2  501    0 -0.22092222396E+02 -0.10792834291E+03 -0.63651570590E+03  0.64597897593E+03  0.00000000000E+00 0.  1.
<scales pt_clust_3="14000.00000" pt_clust_4="66.31933" pt_clust_5="51.61464" pt_clust_6="87.95736"></scales>
<clustering>
<clus scale="   51.615">  1  5  2 -1</clus>
<clus scale="   66.319">  2  4  1 -1</clus>
<clus scale="   87.957">  2  6  1 -1</clus>
<clus scale="   51.615">  1  3  2 -1</clus>
</clustering>
</event>
<event>
 6    0  0.4017242E+002  0.1674540E+03  0.7546771E-02  0.1180529E+00
         21   -1    0    0  503  502  0.00000000000E+00  0.00000000000E+00  0.51597901289E+02  0.51597901289E+02  0.00000000000E+00 0.  1.
          2   -1    0    0  504    0 -0.00000000000E+00 -0.00000000000E+00 -0.47503012950E+04  0.47503012950E+04  0.00000000000E+00 0.  1.
         21    1    1    2  503  505 -0.37760251460E+02 -0.17221999442E+02 -0.24493624675E+02  0.48190989872E+02  0.00000000000E+00 0.  1.
         21    1    1    2  504  502  0.15579758126E+01  0.40726029899E+02 -0.17143428118E+02  0.44214634768E+02  0.00000000000E+00 0.  1.
         21    1    1    2  505  501 -0.10670377114E+03  0.43127967160E+02 -0.10842212341E+03  0.15811727664E+03  0.00000000000E+00 0.  1.
          2    1    1    2  501    0  0.14290604679E+03 -0.66631997617E+02 -0.45486442175E+04  0.45513762950E+04  0.00000000000E+00 0.  1.
<scales pt_clust_3="34.78544" pt_clust_4="40.75582" pt_clust_5="34.78544" pt_clust_6="157.11556"></scales>
<clustering>
<clus scale="   34.785">  3  5 -1 -1</clus>
<clus scale="   40.756">  1  4  2 -1</clus>
<clus scale="  157.116">  2  6  1 -1</clus>
<clus scale="   40.756">  1  3  2 -1</clus>
</clustering>
</event>
<event>
 6    0  0.4017242E+002  0.1676905E+03  0.7546771E-02  0.1180278E+00
         21   -1    0    0  504  502  0.00000000000E+00  0.00000000000E+00  0.54798381085E+03  0.54798381085E+03  0.00000000000E+00 0.  1.
         -1   -1    0    0    0  501 -0.00000000000E+00 -0.00000000000E+00 -0.51581303383E+03  0.51581303383E+03  0.00000000000E+00 0.  1.
         21    1    1    2  503  501 -0.93649829314E+02  0.15835906339E+02  0.24337158337E+03  0.26124852928E+03  0.00000000000E+00 0.  1.
         21    1    1    2  504  503 -0.11348269355E+03  0.32665915749E+02  0.20890411066E+03  0.23997148005E+03  0.00000000000E+00 0.  1.
         21    1    1    2  505  502  0.45262113735E+02 -0.40043887402E+02  0.41519585032E+02  0.73321537076E+02  0.00000000000E+00 0.  1.
         -1    1    1    2    0  505  0.16187040913E+03 -0.84579346852E+01 -0.46162450203E+03  0.48925529827E+03  0.00000000000E+00 0.  1.
<scales pt_clust_3="33.69819" pt_clust_4="33.69819" pt_clust_5="60.43320" pt_clust_6="163.42646"></scales>
<clustering>
<clus scale="   33.698">  3  4 -1 -1</clus>
<clus scale="   60.433">  1  5  2 -1</clus>
<clus scale="  163.426">  2  6  1 -1</clus>
<clus scale="   60.433">  1  3  2 -1</clus>
</clustering>
</event>
<event>
 6    0  0.4017242E+002  0.1899033E+03  0.7546771E-02  0.1158549E+00
          2   -1    0    0  502    0 -0.00000000000E+00  0.00000000000E+00  0.12668898192E+04  0.12668898192E+04  0.00000000000E+00 0.  1.
         21   -1    0    0  505  502  0.00000000000E+00 -0.00000000000E+00 -0.45121706267E+03  0.45121706267E+03  0.00000000000E+00 0. -1.
         21    1    1    2  503  501 -0.45494195995E+02 -0.17728355471E+02  0.24227304245E+03  0.24714417564E+03  0.00000000000E+00 0.  1.
         21    1    1    2  504  503 -0.12654839739E+02 -0.37050524372E+02  0.13175432111E+03  0.13744849019E+03  0.00000000000E+00 0.  1.
         21    1    1    2  505  504  0.13359925111E+03  0.86342209572E+02 -0.42977265652E+03  0.45826659636E+03  0.00000000000E+00 0. -1.
          2    1    1    2  501    0 -0.75450215372E+02 -0.31563329730E+02  0.87141804949E+03  0.87524761968E+03  0.00000000000E+00 0.  1.
<scales pt_clust_3="73.01960" pt_clust_4="36.18638" pt_clust_5="159.07148" pt_clust_6="73.01960"></scales>
<clustering>
<clus scale="   36.186">  3  4 -1 -1</clus>
<clus scale="   73.020">  3  6 -1 -1</clus>
<clus scale="  159.071">  2  5  1 -1</clus>
<clus scale="  159.071">  2  3  1 -1</clus>
</clustering>
</event>
<event>
 6    0  0.4017242E+002  0.8678154E+02  0.7546771E-02  0.1310838E+00
         21   -1    0    0  504  502  0.00000000000E+00  0.00000000000E+00  0.76887479974E+03  0.76887479974E+03  0.00000000000E+00 0. -1.
          4   -1    0    0  503    0 -0.00000000000E+00 -0.00000000000E+00 -0.74944632215E+03  0.74944632215E+03  0.00000000000E+00 0. -1.
         21    1    1    2  503  502 -0.64556513153E+02 -0.23206845759E+02  0.22939924167E+02  0.72334923801E+02  0.00000000000E+00 0. -1.
         21    1    1    2  504  505  0.54190964947E+02 -0.46611220831E+01  0.46882108804E+03  0.47196567601E+03  0.00000000000E+00 0. -1.
         21    1    1    2  505  501 -0.45844612608E+02 -0.40285147324E+02  0.24437929011E+03  0.25188461453E+03  0.00000000000E+00 0.  1.
          4    1    1    2  501    0  0.56210160814E+02  0.68153115166E+02 -0.71671182472E+03  0.72213590756E+03  0.00000000000E+00 0. -1.
<scales pt_clust_3="86.78154" pt_clust_4="54.39105" pt_clust_5="44.16716" pt_clust_6="14000.00000"></scales>
<clustering>
<clus scale="   54.391">  1  4  2 -1</clus>
<clus scale="   44.167">  1  5  2 -1</clus>
<clus scale="   86.782">  1  3  2 -1</clus>
<clus scale="   54.391">  1  3  2 -1</clus>
</clustering>
</event>
<event>
 6    0  0.4017242E+002  0.1474335E+03  0.7546771E-02  0.1203663E+00
         21   -1    0    0  504  502  0.00000000000E+00  0.00000000000E+00  0.10209926440E+04  0.10209926440E+04  0.00000000000E+00 0.  1.
         -3   -1    0    0    0  501 -0.00000000000E+00 -0.00000000000E+00 -0.66854137737E+03  0.66854137737E+03  0.00000000000E+00 0. -1.
         21    1    1    2  503  502  0.75410363300E+01 -0.14033548145E+03  0.94637109247E+03  0.95674926665E+03  0.00000000000E+00 0.  1.
         21    1    1    2  504  505 -0.37831013271E+01  0.93243766217E+02 -0.15252328691E+02  0.94558687197E+02  0.00000000000E+00 0. -1.
         21    1    1    2  505  501  0.15461394023E+02  0.94495234666E+02 -0.51769038503E+02  0.10885052791E+03  0.00000000000E+00 0. -1.
         -3    1    1    2    0  503 -0.19219329026E+02 -0.47403519429E+02 -0.52689845862E+03  0.52937553963E+03  0.00000000000E+00 0. -1.
<scales pt_clust_3="142.25152" pt_clust_4="38.24936" pt_clust_5="38.24936" pt_clust_6="51.15150"></scales>
<clustering>
<clus scale="   38.249">  4  5 -1 -1</clus>
<clus scale="   51.152">  2  6  1 -1</clus>
<clus scale="  142.252">  1  3  2 -1</clus>
<clus scale="  142.252">  1  3  2 -1</clus>
</clustering>
</event>
<event>
 6    0  0.4017242E+002  0.8905028E+02  0.7546771E-02  0.1305168E+00
         21   -1    0    0  505  502  0.00000000000E+00  0.00000000000E+00  0.41067893562E+03  0.41067893562E+03  0.00000000000E+00 0.  1.
          2   -1    0    0  504    0 -0.00000000000E+00 -0.00000000000E+00 -0.90487134573E+02  0.90487134573E+02  0.00000000000E+00 0.  1.
         21    1    1    2  503  501 -0.49347384103E+02  0.15598208835E+02  0.91841306152E+02  0.10541960896E+03  0.00000000000E+00 0.  1.
         21    1    1    2  504  502  0.66206187343E+02  0.16363117844E+02  0.18434701741E+03  0.19655745647E+03  0.00000000000E+00 0.  1.
         21    1    1    2  505  503 -0.31458540164E+02  0.47852870819E+02  0.89433875933E+02  0.10619771730E+03  0.00000000000E+00 0. -1.
          2    1    1    2  501    0  0.14599736924E+02 -0.79814197498E+02 -0.45430398451E+02  0.92991287462E+02  0.00000000000E+00 0.  1.
<scales pt_clust_3="35.12971" pt_clust_4="68.19832" pt_clust_5="35.12971" pt_clust_6="81.02091"></scales>
<clustering>
<clus scale="   35.130">  3  5 -1 -1</clus>
<clus scale="   68.198">  1  4  2 -1</clus>
<clus scale="   81.021">  2  6  1 -1</clus>
<clus scale="   68.198">  1  3  2 -1</clus>
</clustering>
</event>
<event>
 6    0  0.4017242E+002  0.9185634E+02  0.7546771E-02  0.1298418E+00
          2   -1    0    0  504    0 -0.00000000000E+00  0.00000000000E+00  0.47651167116E+03  0.47651167116E+03  0.00000000000E+00 0. -1.
         21   -1    0    0  505  502  0.00000000000E+00 -0.00000000000E+00 -0.15721133732E+03  0.15721133732E+03  0.00000000000E+00 0. -1.
         21    1    1    2  503  502 -0.66370360225E+02 -0.59397517270E+02 -0.44679339931E+02  0.99646039515E+02  0.00000000000E+00 0. -1.
         21    1    1    2  504  503  0.13016841080E+02  0.72492414628E+02  0.49201701716E+02  0.88574238817E+02  0.00000000000E+00 0. -1.
         21    1    1    2  505  501 -0.37317374859E+02  0.65840811121E+02 -0.29202988308E+02  0.81119747298E+02  0.00000000000E+00 0. -1.
          2    1    1    2  501    0  0.90670894005E+02 -0.78935708480E+02  0.34398096037E+03  0.36438298285E+03  0.00000000000E+00 0. -1.
<scales pt_clust_3="91.85634" pt_clust_4="73.65180" pt_clust_5="79.34504" pt_clust_6="14000.00000"></scales>
<clustering>
<clus scale="   73.652">  1  4  2 -1</clus>
<clus scale="   79.345">  2  5  1 -1</clus>
<clus scale="   91.856">  2  3  1 -1</clus>
<clus scale="   79.345">  2  3  1 -1</clus>
</clustering>
</event>
<event>
 6    0  0.4017242E+002  0.1201271E+03  0.7546771E-02  0.1242887E+00
         -2   -1    0    0    0  501 -0.00000000000E+00  0.00000000000E+00  0.12815061467E+03  0.12815061467E+03  0.00000000000E+00 0.  1.
         21   -1    0    0  504  502  0.00000000000E+00 -0.00000000000E+00 -0.23175952916E+03  0.23175952916E+03  0.00000000000E+00 0.  1.
         21    1    1    2  503  502 -0.25868807162E+02  0.53018203954E+02 -0.46566475185E+02  0.75156914157E+02  0.00000000000E+00 0.  1.
         21    1    1    2  504  505 -0.13107895705E+02 -0.31161343924E+02 -0.40143531023E+02  0.52481895621E+02  0.00000000000E+00 0. -1.
         21    1    1    2  505  501  0.33105307303E+02 -0.11675617518E+03 -0.50473967629E+02  0.13143662816E+03  0.00000000000E+00 0.  1.
         -2    1    1    2    0  503  0.58713955633E+01  0.94899315152E+02  0.33575059348E+02  0.10083470589E+03  0.00000000000E+00 0.  1.
<scales pt_clust_3="58.99259" pt_clust_4="30.47961" pt_clust_5="30.47961" pt_clust_6="105.33530"></scales>
<clustering>
<clus scale="   30.480">  4  5 -1 -1</clus>
<clus scale="   58.993">  2  3  1 -1</clus>
<clus scale="  105.335">  1  6  2 -1</clus>
<clus scale="   58.993">  2  3  1 -1</clus>
</clustering>
</event>
<event>
 6    0  0.4017242E+002  0.1773988E+03  0.7546771E-02  0.1170344E+00
         -1   -1    0    0    0  501 -0.00000000000E+00  0.00000000000E+00  0.14162901690E+04  0.14162901690E+04  0.00000000000E+00 0. -1.
         21   -1    0    0  504  502  0.00000000000E+00 -0.00000000000E+00 -0.58777605153E+03  0.58777605153E+03  0.00000000000E+00 0. -1.
         21    1    1    2  503  502  0.14363659168E+03 -0.20030652713E+02 -0.53892201051E+03  0.55809464334E+03  0.00000000000E+00 0. -1.
         21    1    1    2  504  501  0.35434145459E+02 -0.23621608299E+02 -0.44678306920E+01  0.42819628141E+02  0.00000000000E+00 0. -1.
         21    1    1    2  505  503 -0.12026407845E+03  0.53155356473E+02  0.27694471168E+03  0.30657350475E+03  0.00000000000E+00 0. -1.
         -1    1    1    2    0  505 -0.58806658687E+02 -0.95030954609E+01  0.10949592470E+04  0.10965784443E+04  0.00000000000E+00 0. -1.
<scales pt_clust_3="177.39883" pt_clust_4="42.58590" pt_clust_5="14000.00000" pt_clust_6="59.52478"></scales>
<clustering>
<clus scale="   42.586">  2  4  1 -1</clus>
<clus scale="   59.525">  1  6  2 -1</clus>
<clus scale="  177.399">  2  3  1 -1</clus>
<clus scale="   42.586">  2  3  1 -1</clus>
</clustering>
</event>
<event>
 6    0  0.4017242E+002  0.9730485E+02  0.7546771E-02  0.1286068E+00
         21   -1    0    0  503  502  0.00000000000E+00  0.00000000000E+00  0.65692917604E+02  0.65692917604E+02  0.00000000000E+00 0.  1.
          2   -1    0    0  505    0 -0.00000000000E+00 -0.00000000000E+00 -0.11073197442E+04  0.11073197442E+04  0.00000000000E+00 0. -1.
         21    1    1    2  503  504 -0.67979906563E+02 -0.32759009718E+01 -0.72268742013E+02  0.99271195699E+02  0.00000000000E+00 0.  1.
         21    1    1    2  504  501  0.34108146271E+02  0.10903422751E+03 -0.37073790617E+03  0.38794126293E+03  0.00000000000E+00 0. -1.
         21    1    1    2  505  502 -0.23451817335E+02 -0.20013966338E+02  0.33379634955E+02  0.45439482993E+02  0.00000000000E+00 0.  1.
          2    1    1    2  501    0  0.57323577627E+02 -0.85744360199E+02 -0.63199981331E+03  0.64036072013E+03  0.00000000000E+00 0. -1.
<scales pt_clust_3="81.16677" pt_clust_4="14000.00000" pt_clust_5="30.83094" pt_clust_6="97.30485"></scales>
<clustering>
<clus scale="   30.831">  1  5  2 -1</clus>
<clus scale="   81.167">  1  3  2 -1</clus>
<clus scale="   97.305">  2  6  1 -1</clus>
<clus scale="   30.831">  1  3  2 -1</clus>
</clustering>
</event>
<event>
 6    0  0.4017242E+002  0.2029482E+03  0.7546771E-02  0.1147275E+00
         21   -1    0    0  505  502  0.00000000000E+00  0.00000000000E+00  0.56661406211E+02  0.56661406211E+02  0.00000000000E+00 0.  1.
          4   -1    0    0  503    0 -0.00000000000E+00 -0.00000000000E+00 -0.28806331560E+04  0.28806331560E+04  0.00000000000E+00 0.  1.
         21    1    1    2  503  504 -0.14686590335E+01 -0.65719587526E+02 -0.90173483263E+02  0.11159067267E+03  0.00000000000E+00 0.  1.
         21    1    1    2  504  502 -0.57467121614E+02 -0.10997061821E+03 -0.74706174064E+02  0.14483445509E+03  0.00000000000E+00 0.  1.
         21    1    1    2  505  501  0.67167000733E+02  0.22723498216E+03 -0.13430553043E+04  0.13637978932E+04  0.00000000000E+00 0.  1.
          4    1    1    2  501    0 -0.82312200849E+01 -0.51544776418E+02 -0.13160367882E+04  0.13170715413E+04  0.00000000000E+00 0.  1.
<scales pt_clust_3="47.32828" pt_clust_4="47.32828" pt_clust_5="192.24956" pt_clust_6="52.19786"></scales>
<clustering>
<clus scale="   47.328">  3  4 -1 -1</clus>
<clus scale="   52.198">  2  6  1 -1</clus>
<clus scale="  192.250">  2  5  1 -1</clus>
<clus scale="  202.948">  1  3  2 -1</clus>
</clustering>
</event>
<event>
 6    0  0.4017242E+002  0.1172827E+03  0.7546771E-02  0.1247648E+00
         21   -1    0    0  505  502  0.00000000000E+00  0.00000000000E+00  0.40038028545E+03  0.40038028545E+03  0.00000000000E+00 0. -1.
          1   -1    0    0  503    0 -0.00000000000E+00 -0.00000000000E+00 -0.17669312112E+04  0.17669312112E+04  0.00000000000E+00 0. -1.
         21    1    1    2  503  504  0.99080951769E+02 -0.11638901236E+03 -0.39320010448E+03  0.42186462208E+03  0.00000000000E+00 0. -1.
         21    1    1    2  504  502  0.56210982914E+01  0.39490840544E+02  0.37413541281E+03  0.37625580441E+03  0.00000000000E+00 0. -1.
         21    1    1    2  505  501 -0.75745704206E+02  0.53413753070E+02 -0.19298443693E+03  0.21408744386E+03  0.00000000000E+00 0. -1.
          1    1    1    2  501    0 -0.28956345854E+02  0.23484418742E+02 -0.11545017972E+04  0.11551036263E+04  0.00000000000E+00 0. -1.
<scales pt_clust_3="117.28275" pt_clust_4="39.92213" pt_clust_5="14000.00000" pt_clust_6="37.28254"></scales>
<clustering>
<clus scale="   37.283">  2  6  1 -1</clus>
<clus scale="   39.922">  1  4  2 -1</clus>
<clus scale="  117.283">  2  3  1 -1</clus>
<clus scale="   39.922">  1  3  2 -1</clus>
</clustering>
</event>
<event>
 6    0  0.4017242E+002  0.1242494E+03  0.7546771E-02  0.1236247E+00
         21   -1    0    0  504  502  0.00000000000E+00  0.00000000000E+00  0.77974448361E+03  0.77974448361E+03  0.00000000000E+00 0.  1.
         -1   -1    0    0    0  501 -0.00000000000E+00 -0.00000000000E+00 -0.36307039652E+02  0.36307039652E+02  0.00000000000E+00 0.  1.
         21    1    1    2  503  502 -0.14156643134E+02 -0.33104125764E+02  0.20862205438E+03  0.21170605863E+03  0.00000000000E+00 0.  1.
         21    1    1    2  504  505  0.40998221252E+02  0.55608313440E+00  0.12668383157E+03  0.13315388299E+03  0.00000000000E+00 0.  1.
         21    1    1    2  505  501  0.59067917698E+02 -0.50938899219E+02  0.29945909484E+03  0.30945038349E+03  0.00000000000E+00 0.  1.
         -1    1    1    2    0  503 -0.85909495816E+02  0.83486941848E+02  0.10867246317E+03  0.16174119816E+03  0.00000000000E+00 0.  1.
<scales pt_clust_3="36.00408" pt_clust_4="30.32244" pt_clust_5="30.32244" pt_clust_6="116.99928"></scales>
<clustering>
<clus scale="   30.322">  4  5 -1 -1</clus>
<clus scale="   36.004">  1  3  2 -1</clus>
<clus scale="  116.999">  2  6  1 -1</clus>
<clus scale="   36.004">  1  3  2 -1</clus>
</clustering>
</event>
<event>
 6    0  0.4017242E+002  0.1931689E+03  0.7546771E-02  0.1155634E+00
          1   -1    0    0  503    0 -0.00000000000E+00  0.00000000000E+00  0.88495807754E+03  0.88495807754E+03  0.00000000000E+00 0.  1.
         21   -1    0    0  504  502  0.00000000000E+00 -0.00000000000E+00 -0.59297523485E+03  0.59297523485E+03  0.00000000000E+00 0.  1.
         21    1    1    2  503  502  0.12900505229E+03 -0.93521516630E+02 -0.16022468395E+03  0.22596576497E+03  0.00000000000E+00 0. -1.
         21    1    1    2  504  505 -0.11865411522E+03  0.21057586305E+03 -0.34841744145E+03  0.42404682132E+03  0.00000000000E+00 0.  1.
         21    1    1    2  505  501  0.30523066313E+01 -0.72478196979E+02  0.89197743702E+02  0.11497235796E+03  0.00000000000E+00 0. -1.
          1    1    1    2  501    0 -0.13403243696E+02 -0.44576149445E+02  0.71142722439E+03  0.71294836815E+03  0.00000000000E+00 0.  1.
<scales pt_clust_3="14000.00000" pt_clust_4="193.16888" pt_clust_5="98.93678" pt_clust_6="46.54761"></scales>
<clustering>
<clus scale="   46.548">  1  6  2 -1</clus>
<clus scale="   98.937">  1  5  2 -1</clus>
<clus scale="  193.169">  1  4  2 -1</clus>
<clus scale="  193.169">  2  3  1 -1</clus>
</clustering>
</event>
<event>
 6    0  0.4017242E+002  0.1023676E+03  0.7546771E-02  0.1275394E+00
          2   -1    0    0  503    0 -0.00000000000E+00  0.00000000000E+00  0.37620516295E+04  0.37620516295E+04  0.00000000000E+00 0.  1.
         21   -1    0    0  504  502  0.00000000000E+00 -0.00000000000E+00 -0.99734928279E+02  0.99734928279E+02  0.00000000000E+00 0. -1.
         21    1    1    2  503  505  0.10897334516E+03 -0.51452303384E+02 -0.43905067019E+02  0.12825827221E+03  0.00000000000E+00 0. -1.
         21    1    1    2  504  501 -0.48936760457E+02 -0.21365309513E+01  0.14338296894E+03  0.15151913104E+03  0.00000000000E+00 0. -1.
         21    1    1    2  505  502  0.41701754799E+02  0.43190175801E+02  0.93198696160E+02  0.11086218744E+03  0.00000000000E+00 0. -1.
          2    1    1    2  501    0 -0.10173833950E+03  0.10398658534E+02  0.34696401031E+04  0.34711469671E+04  0.00000000000E+00 0.  1.
<scales pt_clust_3="14000.00000" pt_clust_4="48.98338" pt_clust_5="56.84228" pt_clust_6="102.36764"></scales>
<clustering>
<clus scale="   48.983">  2  4  1 -1</clus>
<clus scale="   56.842">  2  5  1 -1</clus>
<clus scale="  102.368">  1  6  2 -1</clus>
<clus scale="   48.983">  2  3  1 -1</clus>
</clustering>
</event>
<event>
 6    0  0.4017242E+002  0.7469504E+02  0.7546771E-02  0.1344818E+00
         21   -1    0    0  501  502  0.00000000000E+00  0.00000000000E+00  0.13554827528E+02  0.13554827528E+02  0.00000000000E+00 0. -1.
          2   -1    0    0  503    0 -0.00000000000E+00 -0.00000000000E+00 -0.37204119802E+04  0.37204119802E+04  0.00000000000E+00 0. -1.
         21    1    1    2  503  504  0.57002492529E+02  0.69452833507E+01 -0.45225699421E+03  0.45588804539E+03  0.00000000000E+00 0. -1.
         21    1    1    2  504  505 -0.95631590681E+02  0.20694390011E+02 -0.55851933351E+03  0.56702513597E+03  0.00000000000E+00 0. -1.
         21    1    1    2  505  502  0.68629188991E+02  0.23853091725E+01 -0.15398151103E+03  0.16860000303E+03  0.00000000000E+00 0. -1.
          2    1    1    2  501    0 -0.30000090840E+02 -0.30024982534E+02 -0.25420993139E+04  0.25424536233E+04  0.00000000000E+00 0. -1.
<scales pt_clust_3="45.67492" pt_clust_4="14000.00000" pt_clust_5="74.69504" pt_clust_6="42.44414"></scales>
<clustering>
<clus scale="   42.444">  2  6  1 -1</clus>
<clus scale="   45.675">  2  3  1 -1</clus>
<clus scale="   74.695">  1  5  2 -1</clus>
<clus scale="   74.695">  1  3  2 -1</clus>
</clustering>
</event>
<event>
 6    0  0.4017242E+002  0.1973857E+03  0.7546771E-02  0.1151964E+00
          1   -1    0    0  505    0 -0.00000000000E+00  0.00000000000E+00  0.17307214640E+04  0.17307214640E+04  0.00000000000E+00 0. -1.
         21   -1    0    0  503  502  0.00000000000E+00 -0.00000000000E+00 -0.89594631503E+03  0.89594631503E+03  0.00000000000E+00 0. -1.
         21    1    1    2  503  501  0.34438163166E+02  0.23199198165E+02 -0.52250845299E+03  0.52415577200E+03  0.00000000000E+00 0. -1.
         21    1    1    2  504  502 -0.12897887764E+03 -0.13987248099E+02 -0.23072957207E+03  0.26470234116E+03  0.00000000000E+00 0. -1.
         21    1    1    2  505  504 -0.92551663293E+02  0.17266084522E+02 -0.10110656679E+03  0.13815377628E+03  0.00000000000E+00 0. -1.
          1    1    1    2  501    0  0.18709237777E+03 -0.26478034588E+02  0.16891197408E+04  0.16996558896E+04  0.00000000000E+00 0. -1.
<scales pt_clust_3="41.52337" pt_clust_4="49.81306" pt_clust_5="49.81306" pt_clust_6="189.39326"></scales>
<clustering>
<clus scale="   41.523">  2  3  1 -1</clus>
<clus scale="   49.813">  4  5 -1 -1</clus>
<clus scale="  189.393">  1  6  2 -1</clus>
<clus scale="   41.523">  2  3  1 -1</clus>
</clustering>
</event>
<event>
 6    0  0.4017242E+002  0.2171718E+03  0.7546771E-02  0.1136009E+00
         -2   -1    0    0    0  501 -0.00000000000E+00  0.00000000000E+00  0.73739246977E+03  0.73739246977E+03  0.00000000000E+00 0.  1.
         21   -1    0    0  501  502  0.00000000000E+00 -0.00000000000E+00 -0.16283714929E+04  0.16283714929E+04  0.00000000000E+00 0. -1.
         21    1    1    2  503  504  0.16041192799E+02  0.10503351613E+03 -0.48884579227E+03  0.50025950065E+03  0.00000000000E+00 0. -1.
         21    1    1    2  504  505  0.97875598935E+02  0.23098983857E+02 -0.19011121266E+03  0.21507084670E+03  0.00000000000E+00 0. -1.
         21    1    1    2  505  502  0.51489459106E+02  0.19701202363E+02 -0.91326971976E+03  0.91493217388E+03  0.00000000000E+00 0. -1.
         -2    1    1    2    0  503 -0.16540625084E+03 -0.14783370235E+03  0.70124770157E+03  0.73550144142E+03  0.00000000000E+00 0.  1.
<scales pt_clust_3="14000.00000" pt_clust_4="116.08027" pt_clust_5="55.12986" pt_clust_6="217.17182"></scales>
<clustering>
<clus scale="   55.130">  2  5  1 -1</clus>
<clus scale="  116.080">  2  4  1 -1</clus>
<clus scale="  217.172">  1  6  2 -1</clus>
<clus scale="   55.130">  2  3  1 -1</clus>
</clustering>
</event>
<event>
 6    0  0.4017242E+002  0.5824529E+02  0.7546771E-02  0.1405347E+00
          2   -1    0    0  503    0 -0.00000000000E+00  0.00000000000E+00  0.15699579592E+04  0.15699579592E+04  0.00000000000E+00 0.  1.
         21   -1    0    0  505  502  0.00000000000E+00 -0.00000000000E+00 -0.60964044181E+03  0.60964044181E+03  0.00000000000E+00 0.  1.
         21    1    1    2  503  502 -0.33223389307E+02 -0.37476043204E+02  0.44477110567E+01  0.50279514168E+02  0.00000000000E+00 0.  1.
         21    1    1    2  504  501  0.64734269434E+02  0.13213667770E+03 -0.37575782934E+03  0.40354005197E+03  0.00000000000E+00 0.  1.
         21    1    1    2  505  504  0.55053582025E+00 -0.46182929151E+02 -0.19380853924E+03  0.19923582990E+03  0.00000000000E+00 0.  1.
          2    1    1    2  501    0 -0.32061415947E+02 -0.48477705347E+02  0.15254361749E+04  0.15265430050E+04  0.00000000000E+00 0.  1.
<scales pt_clust_3="52.00763" pt_clust_4="14000.00000" pt_clust_5="46.18621" pt_clust_6="58.24529"></scales>
<clustering>
<clus scale="   46.186">  2  5  1 -1</clus>
<clus scale="   52.008">  2  3  1 -1</clus>
<clus scale="   58.245">  1  6  2 -1</clus>
<clus scale="   46.186">  2  3  1 -1</clus>
</clustering>
</event>
<event>
 6    0  0.4017242E+002  0.1707472E+03  0.7546771E-02  0.1177071E+00
         21   -1    0    0  504  502  0.00000000000E+00  0.00000000000E+00  0.50608920769E+03  0.50608920769E+03  0.00000000000E+00 0. -1.
          2   -1    0    0  505    0 -0.00000000000E+00 -0.00000000000E+00 -0.66118411087E+03  0.66118411087E+03  0.00000000000E+00 0. -1.
         21    1    1    2  503  501  0.11517780666E+02  0.10457619770E+03 -0.14138162040E+03  0.17623167417E+03  0.00000000000E+00 0.  1.
         21    1    1    2  504  503 -0.13718532508E+02 -0.32738820528E+02  0.27382921709E+02  0.44831383038E+02  0.00000000000E+00 0. -1.
         21    1    1    2  505  502 -0.43665454526E+02 -0.14224476268E+03  0.43655901488E+03  0.46122014039E+03  0.00000000000E+00 0. -1.
          2    1    1    2  501    0  0.45866206367E+02  0.70407385513E+02 -0.47765521938E+03  0.48499012095E+03  0.00000000000E+00 0. -1.
<scales pt_clust_3="170.74717" pt_clust_4="35.49688" pt_clust_5="14000.00000" pt_clust_6="83.75674"></scales>
<clustering>
<clus scale="   35.497">  1  4  2 -1</clus>
<clus scale="   83.757">  2  6  1 -1</clus>
<clus scale="  170.747">  2  3  1 -1</clus>
<clus scale="   35.497">  1  3  2 -1</clus>
</clustering>
</event>
<event>
 6    0  0.4017242E+002  0.1739426E+03  0.7546771E-02  0.1173798E+00
          2   -1    0    0  504    0 -0.00000000000E+00  0.00000000000E+00  0.27639248968E+04  0.27639248968E+04  0.00000000000E+00 0.  1.
         21   -1    0    0  505  502  0.00000000000E+00 -0.00000000000E+00 -0.20324348290E+03  0.20324348290E+03  0.00000000000E+00 0. -1.
         21    1    1    2  503  501 -0.36272803280E+02  0.17990529878E+03 -0.81395549174E+02  0.20076570478E+03  0.00000000000E+00 0. -1.
         21    1    1    2  504  502 -0.33549189729E+02 -0.14854672102E+03  0.65118201824E+02  0.16562625597E+03  0.00000000000E+00 0.  1.
         21    1    1    2  505  503  0.30303138709E+02  0.27891305609E+02  0.25746883480E+02  0.48570640855E+02  0.00000000000E+00 0. -1.
          2    1    1    2  501    0  0.39518854300E+02 -0.59249883371E+02  0.25512118777E+04  0.25522057781E+04  0.00000000000E+00 0.  1.
<scales pt_clust_3="14000.00000" pt_clust_4="173.94256" pt_clust_5="41.18501" pt_clust_6="71.20353"></scales>
<clustering>
<clus scale="   41.185">  2  5  1 -1</clus>
<clus scale="   71.204">  1  6  2 -1</clus>
<clus scale="  173.943">  1  4  2 -1</clus>
<clus scale="   41.185">  2  3  1 -1</clus>
</clustering>
</event>
<event>
 6    0  0.6802874E+002  0.2012074E+03  0.7546771E-02  0.1148724E+00
          1   -1    0    0  504    0 -0.00000000000E+00  0.00000000000E+00  0.14651622169E+04  0.14651622169E+04  0.00000000000E+00 0. -1.
         21   -1    0    0  503  502  0.00000000000E+00 -0.00000000000E+00 -0.65039069985E+03  0.65039069985E+03  0.00000000000E+00 0.  1.
         21    1    1    2  503  505 -0.70816392785E+02  0.60892056254E+02 -0.52635927359E+03  0.53458104053E+03  0.00000000000E+00 0.  1.
         21    1    1    2  504  502  0.23380642703E+02 -0.22748785927E+02  0.30750952908E+02  0.44830601369E+02  0.00000000000E+00 0.  1.
         21    1    1    2  505  501 -0.75571234949E+02  0.94394180683E+02 -0.72833083179E+02  0.14115923953E+03  0.00000000000E+00 0. -1.
          1    1    1    2  501    0  0.12300698503E+03 -0.13253745101E+03  0.13832129209E+04  0.13949820353E+04  0.00000000000E+00 0. -1.
<scales pt_clust_3="93.30218" pt_clust_4="32.62149" pt_clust_5="14000.00000" pt_clust_6="201.20737"></scales>
<clustering>
<clus scale="   32.621">  1  4  2 -1</clus>
<clus scale="   93.302">  2  3  1 -1</clus>
<clus scale="  201.207">  1  6  2 -1</clus>
<clus scale="   93.302">  2  3  1 -1</clus>
</clustering>
</event>
<event>
 6    0  0.4017242E+002  0.1638534E+03  0.7546771E-02  0.1184414E+00
         21   -1    0    0  503  502  0.00000000000E+00  0.00000000000E+00  0.31457859682E+03  0.31457859682E+03  0.00000000000E+00 0. -1.
          2   -1    0    0  505    0 -0.00000000000E+00 -0.00000000000E+00 -0.36957100290E+04  0.36957100290E+04  0.00000000000E+00 0. -1.
         21    1    1    2  503  501  0.13942715791E+02  0.13920809125E+03  0.24207272422E+03  0.27959344735E+03  0.00000000000E+00 0. -1.
         21    1    1    2  504  502 -0.54427428643E+02 -0.74976393830E+02 -0.12882146627E+02  0.93540121457E+02  0.00000000000E+00 0. -1.
         21    1    1    2  505  504 -0.50328588642E+02 -0.58063769529E+02 -0.10225802240E+03  0.12791040345E+03  0.00000000000E+00 0. -1.
          2    1    1    2  501    0  0.90813301494E+02 -0.61679278893E+01 -0.35080639874E+04  0.35092446536E+04  0.00000000000E+00 0. -1.
<scales pt_clust_3="140.49334" pt_clust_4="76.78829" pt_clust_5="76.78829" pt_clust_6="91.02252"></scales>
<clustering>
<clus scale="   76.788">  4  5 -1 -1</clus>
<clus scale="   91.023">  2  6  1 -1</clus>
<clus scale="  140.493">  1  3  2 -1</clus>
<clus scale="  140.493">  1  3  2 -1</clus>
</clustering>
</event>
<event>
 6    0  0.4017242E+002  0.1167052E+03  0.7546771E-02  0.1248634E+00
          2   -1    0    0  504    0 -0.00000000000E+00  0.00000000000E+00  0.37380965106E+04  0.37380965106E+04  0.00000000000E+00 0. -1.
         21   -1    0    0  503  502  0.00000000000E+00 -0.00000000000E+00 -0.28293604441E+02  0.28293604441E+02  0.00000000000E+00 0. -1.
         21    1    1    2  503  501  0.30759943715E+02 -0.13869344014E+02  0.46536926253E+02  0.57482330728E+02  0.00000000000E+00 0. -1.
         21    1    1    2  504  505  0.53030954203E+02 -0.58275684238E+02  0.33280090221E+03  0.34200113741E+03  0.00000000000E+00 0. -1.
         21    1    1    2  505  502 -0.97859358894E+01 -0.30760647715E+02 -0.17068149442E+01  0.32324838844E+02  0.00000000000E+00 0. -1.
          2    1    1    2  501    0 -0.74004962029E+02  0.10290567597E+03  0.33321718926E+04  0.33345818080E+04  0.00000000000E+00 0. -1.
<scales pt_clust_3="38.80481" pt_clust_4="14000.00000" pt_clust_5="32.27975" pt_clust_6="116.70523"></scales>
<clustering>
<clus scale="   32.280">  2  5  1 -1</clus>
<clus scale="   38.805">  2  3  1 -1</clus>
<clus scale="  116.705">  1  6  2 -1</clus>
<clus scale="   32.280">  2  3  1 -1</clus>
</clustering>
</event>
<event>
 6    0  0.4017242E+002  0.1578744E+03  0.7546771E-02  0.1191118E+00
          2   -1    0    0  503    0 -0.00000000000E+00  0.00000000000E+00  0.14589584148E+04  0.14589584148E+04  0.00000000000E+00 0.  1.
         21   -1    0    0  505  502  0.00000000000E+00 -0.00000000000E+00 -0.10769085962E+03  0.10769085962E+03  0.00000000000E+00 0. -1.
         21    1    1    2  503  502  0.12084066102E+03 -0.14355824408E+03  0.13439773218E+03  0.23081201272E+03  0.00000000000E+00 0. -1.
         21    1    1    2  504  501 -0.12831647290E+03  0.54906830759E+02  0.66115970622E+02  0.15443833350E+03  0.00000000000E+00 0. -1.
         21    1    1    2  505  504  0.48760343330E+01  0.48856377970E+02  0.25291529183E+02  0.55230270936E+02  0.00000000000E+00 0. -1.
          2    1    1    2  501    0  0.25997775484E+01  0.39795035349E+02  0.11254623232E+04  0.11261686572E+04  0.00000000000E+00 0.  1.
<scales pt_clust_3="157.87436" pt_clust_4="14000.00000" pt_clust_5="53.91608" pt_clust_6="39.87987"></scales>
<clustering>
<clus scale="   39.880">  1  6  2 -1</clus>
<clus scale="   53.916">  2  5  1 -1</clus>
<clus scale="  157.874">  1  3  2 -1</clus>
<clus scale="   53.916">  2  3  1 -1</clus>
</clustering>
</event>
<event>
 6    0  0.4017242E+002  0.6683818E+02  0.7546771E-02  0.1371187E+00
          2   -1    0    0  504    0 -0.00000000000E+00  0.00000000000E+00  0.21566691806E+04  0.21566691806E+04  0.00000000000E+00 0. -1.
         21   -1    0    0  505  502  0.00000000000E+00 -0.00000000000E+00 -0.10229800355E+03  0.10229800355E+03  0.00000000000E+00 0. -1.
         21    1    1    2  503  501 -0.22674850454E+02  0.83529790989E+02 -0.46441559013E+02  0.98225216871E+02  0.00000000000E+00 0. -1.
         21    1    1    2  504  502  0.24645824398E+02 -0.66980795827E+02  0.46595167369E+02  0.85234695353E+02  0.00000000000E+00 0. -1.
         21    1    1    2  505  503  0.47345417087E+01  0.49843493026E+02  0.52027909766E+02  0.72205907493E+02  0.00000000000E+00 0.  1.
          2    1    1    2  501    0 -0.67055156525E+01 -0.66392488188E+02  0.20021896590E+04  0.20033013645E+04  0.00000000000E+00 0. -1.
<scales pt_clust_3="66.83818" pt_clust_4="62.07889" pt_clust_5="50.06785" pt_clust_6="14000.00000"></scales>
<clustering>
<clus scale="   50.068">  2  5  1 -1</clus>
<clus scale="   62.079">  2  4  1 -1</clus>
<clus scale="   66.838">  2  3  1 -1</clus>
<clus scale="   50.068">  2  3  1 -1</clus>
</clustering>
</event>
<event>
 6    0  0.4017242E+002  0.1305870E+03  0.7546771E-02  0.1226587E+00
         21   -1    0    0  503  502  0.00000000000E+00  0.00000000000E+00  0.28276957167E+03  0.28276957167E+03  0.00000000000E+00 0.  1.
         -1   -1    0    0    0  501 -0.00000000000E+00 -0.00000000000E+00 -0.10101768874E+04  0.10101768874E+04  0.00000000000E+00 0. -1.
         21    1    1    2  503  501  0.65469580054E+02 -0.10764555359E+03  0.76234583776E+02  0.14726011980E+03  0.00000000000E+00 0.  1.
         21    1    1    2  504  505 -0.77641651505E+02  0.10361295075E+03  0.18150000000E+02  0.13074131754E+03  0.00000000000E+00 0. -1.
         21    1    1    2  505  502  0.49176286604E+02 -0.58825100305E+01  0.89798033344E+02  0.10255046504E+03  0.00000000000E+00 0.  1.
         -1    1    1    2    0  504 -0.37004215153E+02  0.99151128633E+01 -0.91158993285E+03  0.91239455669E+03  0.00000000000E+00 0. -1.
<scales pt_clust_3="130.58696" pt_clust_4="14000.00000" pt_clust_5="47.06564" pt_clust_6="38.30955"></scales>
<clustering>
<clus scale="   38.310">  2  6  1 -1</clus>
<clus scale="   47.066">  1  5  2 -1</clus>
<clus scale="  130.587">  2  3  1 -1</clus>
<clus scale="   47.066">  1  3  2 -1</clus>
</clustering>
</event>
<event>
 6    0  0.4017242E+002  0.9011747E+02  0.7546771E-02  0.1302567E+00
          2   -1    0    0  505    0 -0.00000000000E+00  0.00000000000E+00  0.18649480052E+04  0.18649480052E+04  0.00000000000E+00 0.  1.
         21   -1    0    0  503  502  0.00000000000E+00 -0.00000000000E+00 -0.18289064799E+03  0.18289064799E+03  0.00000000000E+00 0.  1.
         21    1    1    2  503  501 -0.45130184514E+02  0.96620156512E+01 -0.15785130853E+03  0.16446009761E+03  0.00000000000E+00 0.  1.
         21    1    1    2  504  502 -0.37311535350E+02 -0.10917306587E+01  0.16093276898E+02  0.40648937346E+02  0.00000000000E+00 0. -1.
         21    1    1    2  505  504  0.38767047122E+02  0.77358082992E+02  0.22582664133E+03  0.24183636798E+03  0.00000000000E+00 0. -1.
          2    1    1    2  501    0  0.43674672742E+02 -0.85928367984E+02  0.15979887475E+04  0.16008932503E+04  0.00000000000E+00 0.  1.
<scales pt_clust_3="80.83561" pt_clust_4="37.32750" pt_clust_5="14000.00000" pt_clust_6="90.11747"></scales>
<clustering>
<clus scale="   37.328">  2  4  1 -1</clus>
<clus scale="   80.836">  2  3  1 -1</clus>
<clus scale="   90.117">  1  6  2 -1</clus>
<clus scale="   37.328">  2  3  1 -1</clus>
</clustering>
</event>
<event>
 6    0  0.4017242E+002  0.1126850E+03  0.7546771E-02  0.1255677E+00
         21   -1    0    0  503  502  0.00000000000E+00  0.00000000000E+00  0.55090820898E+03  0.55090820898E+03  0.00000000000E+00 0.  1.
          1   -1    0    0  505    0 -0.00000000000E+00 -0.00000000000E+00 -0.12741450633E+04  0.12741450633E+04  0.00000000000E+00 0. -1.
         21    1    1    2  503  501  0.40767450694E+02  0.37027953725E+02 -0.93972736706E+02  0.10892166744E+03  0.00000000000E+00 0. -1.
         21    1    1    2  504  502  0.52244662270E+02  0.99232274227E+02  0.51646034390E+03  0.52849582382E+03  0.00000000000E+00 0.  1.
         21    1    1    2  505  504 -0.78825863994E+02 -0.10758875102E+03 -0.19429096369E+03  0.23566466590E+03  0.00000000000E+00 0. -1.
          1    1    1    2  501    0 -0.14186248971E+02 -0.28671476928E+02 -0.95143349784E+03  0.95197111514E+03  0.00000000000E+00 0. -1.
<scales pt_clust_3="45.85195" pt_clust_4="14000.00000" pt_clust_5="112.68503" pt_clust_6="31.98911"></scales>
<clustering>
<clus scale="   31.989">  2  6  1 -1</clus>
<clus scale="   45.852">  2  3  1 -1</clus>
<clus scale="  112.685">  2  5  1 -1</clus>
<clus scale="  112.685">  1  3  2 -1</clus>
</clustering>
</event>
<event>
 6    0  0.4017242E+002  0.1711366E+03  0.7546771E-02  0.1176668E+00
          1   -1    0    0  504    0 -0.00000000000E+00  0.00000000000E+00  0.63543712916E+03  0.63543712916E+03  0.00000000000E+00 0. -1.
         21   -1    0    0  501  502  0.00000000000E+00 -0.00000000000E+00 -0.38078129673E+03  0.38078129673E+03  0.00000000000E+00 0.  1.
         21    1    1    2  503  502 -0.48193586530E+02 -0.15715561207E+02 -0.91150029210E+02  0.10429730807E+03  0.00000000000E+00 0.  1.
         21    1    1    2  504  505  0.20504093899E+02 -0.38141571729E+02  0.25093296742E+02  0.50048685317E+02  0.00000000000E+00 0.  1.
         21    1    1    2  505  503 -0.11635121096E+03  0.33287176505E+02 -0.24740537123E+03  0.27541796987E+03  0.00000000000E+00 0.  1.
          1    1    1    2  501    0  0.14404070359E+03  0.20569956431E+02  0.56811793612E+03  0.58645446263E+03  0.00000000000E+00 0. -1.
<scales pt_clust_3="30.21938" pt_clust_4="43.30355" pt_clust_5="30.21938" pt_clust_6="164.64374"></scales>
<clustering>
<clus scale="   30.219">  3  5 -1 -1</clus>
<clus scale="   43.304">  1  4  2 -1</clus>
<clus scale="  164.644">  1  6  2 -1</clus>
<clus scale="  171.137">  2  3  1 -1</clus>
</clustering>
</event>
<event>
 6    0  0.4017242E+002  0.2495164E+03  0.7546771E-02  0.1113611E+00
         -1   -1    0    0    0  501 -0.00000000000E+00  0.00000000000E+00  0.12982880973E+04  0.12982880973E+04  0.00000000000E+00 0.  1.
         21   -1    0    0  504  502  0.00000000000E+00 -0.00000000000E+00 -0.86355508611E+02  0.86355508611E+02  0.00000000000E+00 0. -1.
         21    1    1    2  503  501  0.43641262649E+01  0.27318512661E+03  0.44377769587E+03  0.52114086613E+03  0.00000000000E+00 0.  1.
         21    1    1    2  504  503 -0.32334166689E+02  0.23282299521E+02  0.35210869620E+02  0.53173011442E+02  0.00000000000E+00 0. -1.
         21    1    1    2  505  502  0.30562240450E+02 -0.23531113343E+03  0.35207277505E+03  0.42457110004E+03  0.00000000000E+00 0. -1.
         -1    1    1    2    0  505 -0.25922000256E+01 -0.61156292705E+02  0.38087124813E+03  0.38575862828E+03  0.00000000000E+00 0.  1.
<scales pt_clust_3="249.51640" pt_clust_4="39.84424" pt_clust_5="14000.00000" pt_clust_6="60.52893"></scales>
<clustering>
<clus scale="   39.844">  2  4  1 -1</clus>
<clus scale="   60.529">  1  6  2 -1</clus>
<clus scale="  249.516">  1  3  2 -1</clus>
<clus scale="   39.844">  2  3  1 -1</clus>
</clustering>
</event>
<event>
 6    0  0.4017242E+002  0.1580405E+03  0.7546771E-02  0.1190927E+00
          2   -1    0    0  504    0 -0.00000000000E+00  0.00000000000E+00  0.11821241256E+04  0.11821241256E+04  0.00000000000E+00 0. -1.
         21   -1    0    0  505  502  0.00000000000E+00 -0.00000000000E+00 -0.39521959476E+03  0.39521959476E+03  0.00000000000E+00 0.  1.
         21    1    1    2  503  501 -0.42249979673E+01 -0.10607935171E+03  0.17508340431E+03  0.20475565421E+03  0.00000000000E+00 0. -1.
         21    1    1    2  504  502  0.39566388324E+02 -0.46969177501E+02  0.68983622008E+03  0.69256451920E+03  0.00000000000E+00 0. -1.
         21    1    1    2  505  503  0.46609874927E+02  0.15641113699E+03 -0.35523035931E+03  0.39092906312E+03  0.00000000000E+00 0.  1.
          2    1    1    2  501    0 -0.81951265284E+02 -0.33626077806E+01  0.27721526571E+03  0.28909448379E+03  0.00000000000E+00 0. -1.
<scales pt_clust_3="14000.00000" pt_clust_4="61.41338" pt_clust_5="158.04051" pt_clust_6="66.51159"></scales>
<clustering>
<clus scale="   61.413">  1  4  2 -1</clus>
<clus scale="   66.512">  1  6  2 -1</clus>
<clus scale="  158.041">  2  5  1 -1</clus>
<clus scale="  158.041">  2  3  1 -1</clus>
</clustering>
</event>
<event>
 6    0  0.4017242E+002  0.1807578E+03  0.7546771E-02  0.1167072E+00
          2   -1    0    0  502    0 -0.00000000000E+00  0.00000000000E+00  0.66121731739E+03  0.66121731739E+03  0.00000000000E+00 0. -1.
         21   -1    0    0  503  502  0.00000000000E+00 -0.00000000000E+00 -0.12043216382E+03  0.12043216382E+03  0.00000000000E+00 0. -1.
         21    1    1    2  503  505  0.48468516134E+02 -0.19366051356E+02 -0.51085176308E+02  0.73033802036E+02  0.00000000000E+00 0. -1.
         21    1    1    2  504  501 -0.29316071155E+01 -0.87733469805E+02  0.20580049461E+03  0.22374002688E+03  0.00000000000E+00 0. -1.
         21    1    1    2  505  504  0.88929999498E+01  0.18081573432E+03  0.16255029362E+03  0.24330230821E+03  0.00000000000E+00 0. -1.
          2    1    1    2  501    0 -0.54429908969E+02 -0.73716213155E+02  0.22351954165E+03  0.24157334408E+03  0.00000000000E+00 0. -1.
<scales pt_clust_3="52.19426" pt_clust_4="53.07141" pt_clust_5="172.71044" pt_clust_6="53.07141"></scales>
<clustering>
<clus scale="   52.194">  2  3  1 -1</clus>
<clus scale="   53.071">  4  6 -1 -1</clus>
<clus scale="  172.710">  2  5  1 -1</clus>
<clus scale="   52.194">  2  3  1 -1</clus>
</clustering>
</event>
<event>
 6    0  0.4017242E+002  0.1334444E+03  0.7546771E-02  0.1222432E+00
         21   -1    0    0  501  502  0.00000000000E+00  0.00000000000E+00  0.13413046667E+02  0.13413046667E+02  0.00000000000E+00 0.  1.
          1   -1    0    0  503    0 -0.00000000000E+00 -0.00000000000E+00 -0.20897508106E+04  0.20897508106E+04  0.00000000000E+00 0.  1.
         21    1    1    2  503  505  0.35525189286E+02  0.67761226732E+02 -0.63852523359E+03  0.64309260364E+03  0.00000000000E+00 0.  1.
         21    1    1    2  504  502  0.36630255364E+02  0.15610672565E+01 -0.63904406307E+02  0.73674864672E+02  0.00000000000E+00 0.  1.
         21    1    1    2  505  504  0.16964363384E+02  0.32618035140E+02 -0.12871446223E+03  0.13386238691E+03  0.00000000000E+00 0.  1.
          1    1    1    2  501    0 -0.89119808034E+02 -0.10194032913E+03 -0.12451936618E+04  0.12525340020E+04  0.00000000000E+00 0.  1.
<scales pt_clust_3="32.30067" pt_clust_4="36.66350" pt_clust_5="32.30067" pt_clust_6="125.04505"></scales>
<clustering>
<clus scale="   32.301">  3  5 -1 -1</clus>
<clus scale="   36.664">  1  4  2 -1</clus>
<clus scale="  125.045">  2  6  1 -1</clus>
<clus scale="   36.664">  1  3  2 -1</clus>
</clustering>
</event>
<event>
 6    0  0.4017242E+002  0.1832635E+03  0.7546771E-02  0.1164681E+00
          2   -1    0    0  505    0 -0.00000000000E+00  0.00000000000E+00  0.13715705755E+04  0.13715705755E+04  0.00000000000E+00 0.  1.
         21   -1    0    0  504  502  0.00000000000E+00 -0.00000000000E+00 -0.38349221905E+03  0.38349221905E+03  0.00000000000E+00 0.  1.
         21    1    1    2  503  502 -0.41825446407E+02 -0.12947011354E+03 -0.14583100903E+03  0.19944563535E+03  0.00000000000E+00 0.  1.
         21    1    1    2  504  501  0.47135307656E+02 -0.56381709923E+02 -0.18874308263E+03  0.20254526823E+03  0.00000000000E+00 0.  1.
         21    1    1    2  505  503  0.13152168251E+02  0.21147297676E+03  0.74465619610E+03  0.77421356861E+03  0.00000000000E+00 0.  1.
          2    1    1    2  501    0 -0.18462029499E+02 -0.25621153304E+02  0.57799625198E+03  0.57885832233E+03  0.00000000000E+00 0.  1.
<scales pt_clust_3="183.26352" pt_clust_4="73.55749" pt_clust_5="14000.00000" pt_clust_6="31.57990"></scales>
<clustering>
<clus scale="   31.580">  1  6  2 -1</clus>
<clus scale="   73.557">  2  4  1 -1</clus>
<clus scale="  183.264">  2  3  1 -1</clus>
<clus scale="   73.557">  2  3  1 -1</clus>
</clustering>
</event>
<event>
 6    0  0.4017242E+002  0.8964577E+02  0.7546771E-02  0.1303712E+00
         21   -1    0    0  504  502  0.00000000000E+00  0.00000000000E+00  0.26375943078E+03  0.26375943078E+03  0.00000000000E+00 0. -1.
          2   -1    0    0  503    0 -0.00000000000E+00 -0.00000000000E+00 -0.19044157467E+04  0.19044157467E+04  0.00000000000E+00 0. -1.
         21    1    1    2  503  505 -0.59145670124E+02 -0.12049565897E+03  0.25670787887E+02  0.13666163864E+03  0.00000000000E+00 0. -1.
         21    1    1    2  504  501  0.37447399672E+02  0.38266616358E+02 -0.22139812271E+03  0.22778009221E+03  0.00000000000E+00 0.  1.
         21    1    1    2  505  502  0.33478631240E+01  0.45620386871E+02  0.17622363075E+03  0.18206371391E+03  0.00000000000E+00 0. -1.
          2    1    1    2  501    0  0.18350407327E+02  0.36608655740E+02 -0.16211526119E+04  0.16216697327E+04  0.00000000000E+00 0. -1.
<scales pt_clust_3="14000.00000" pt_clust_4="89.64577" pt_clust_5="46.13392" pt_clust_6="40.95035"></scales>
<clustering>
<clus scale="   40.950">  2  6  1 -1</clus>
<clus scale="   46.134">  1  5  2 -1</clus>
<clus scale="   89.646">  2  4  1 -1</clus>
<clus scale="   46.134">  1  3  2 -1</clus>
</clustering>
</event>
<event>
 6    0  0.4017242E+002  0.2018555E+03  0.7546771E-02  0.1148183E+00
          1   -1    0    0  503    0 -0.00000000000E+00  0.00000000000E+00  0.73271108287E+03  0.73271108287E+03  0.00000000000E+00 0.  1.
         21   -1    0    0  504  502  0.00000000000E+00 -0.00000000000E+00 -0.64944618390E+03  0.64944618390E+03  0.00000000000E+00 0. -1.
         21    1    1    2  503  505  0.12725046428E+03 -0.51221547635E+01 -0.32542294660E+03  0.34945530659E+03  0.00000000000E+00 0. -1.
         21    1    1    2  504  501 -0.17566315400E+03  0.92891879980E+01 -0.69392703551E+02  0.18910097830E+03  0.00000000000E+00 0. -1.
         21    1    1    2  505  502  0.76367861897E+02  0.28965807061E+02 -0.17287770200E+03  0.19120085815E+03  0.00000000000E+00 0. -1.
          1    1    1    2  501    0 -0.27955172178E+02 -0.33132840295E+02  0.65095825112E+03  0.65240012374E+03  0.00000000000E+00 0.  1.
<scales pt_clust_3="35.60441" pt_clust_4="196.89858" pt_clust_5="35.60441" pt_clust_6="43.35063"></scales>
<clustering>
<clus scale="   35.604">  3  5 -1 -1</clus>
<clus scale="   43.351">  1  6  2 -1</clus>
<clus scale="  196.899">  1  4  2 -1</clus>
<clus scale="  201.856">  2  3  1 -1</clus>
</clustering>
</event>
<event>
 6    0  0.4017242E+002  0.8723430E+02  0.7546771E-02  0.1309691E+00
          2   -1    0    0  505    0 -0.00000000000E+00  0.00000000000E+00  0.91955604540E+03  0.91955604540E+03  0.00000000000E+00 0. -1.
         21   -1    0    0  503  502  0.00000000000E+00 -0.00000000000E+00 -0.17972942365E+03  0.17972942365E+03  0.00000000000E+00 0. -1.
         21    1    1    2  503  501  0.44562516795E+01  0.57897851716E+02 -0.11640700497E+03  0.13008693331E+03  0.00000000000E+00 0. -1.
         21    1    1    2  504  502  0.60176230562E+01 -0.74926167930E+02  0.38558842232E+01  0.75266262502E+02  0.00000000000E+00 0. -1.
         21    1    1    2  505  504  0.36593533602E+02 -0.39044260273E+02  0.18161645368E+02  0.56510055072E+02  0.00000000000E+00 0. -1.
          2    1    1    2  501    0 -0.47067408338E+02  0.56072576488E+02  0.83421609713E+03  0.83742221816E+03  0.00000000000E+00 0. -1.
<scales pt_clust_3="58.06909" pt_clust_4="38.43678" pt_clust_5="38.43678" pt_clust_6="74.39466"></scales>
<clustering>
<clus scale="   38.437">  4  5 -1 -1</clus>
<clus scale="   58.069">  2  3  1 -1</clus>
<clus scale="   74.395">  1  6  2 -1</clus>
<clus scale="   58.069">  2  3  1 -1</clus>
</clustering>
</event>
<event>
 6    0  0.4017242E+002  0.1453190E+03  0.7546771E-02  0.1206346E+00
         21   -1    0    0  504  502  0.00000000000E+00  0.00000000000E+00  0.27511089864E+03  0.27511089864E+03  0.00000000000E+00 0.  1.
          1   -1    0    0  505    0 -0.00000000000E+00 -0.00000000000E+00 -0.16012467495E+04  0.16012467495E+04  0.00000000000E+00 0. -1.
         21    1    1    2  503  502  0.12807962578E+01  0.14082204969E+03  0.25229846808E+03  0.28894118279E+03  0.00000000000E+00 0.  1.
         21    1    1    2  504  501 -0.13323541385E+02 -0.49515851184E+02 -0.59483361459E+03  0.59703966812E+03  0.00000000000E+00 0. -1.
         21    1    1    2  505  503 -0.60163380495E+01 -0.61016465185E+02 -0.31885433186E+03  0.32469568875E+03  0.00000000000E+00 0. -1.
          1    1    1    2  501    0  0.18059083177E+02 -0.30289733317E+02 -0.66474637255E+03  0.66568110852E+03  0.00000000000E+00 0. -1.
<scales pt_clust_3="139.95343" pt_clust_4="32.44500" pt_clust_5="61.31236" pt_clust_6="32.44500"></scales>
<clustering>
<clus scale="   32.445">  4  6 -1 -1</clus>
<clus scale="   61.312">  2  5  1 -1</clus>
<clus scale="  139.953">  1  3  2 -1</clus>
<clus scale="  139.953">  1  3  2 -1</clus>
</clustering>
</event>
<event>
 6    0  0.4017242E+002  0.1047601E+03  0.7546771E-02  0.1270593E+00
         -4   -1    0    0    0  501 -0.00000000000E+00  0.00000000000E+00  0.71773668001E+03  0.71773668001E+03  0.00000000000E+00 0.  1.
         21   -1    0    0  504  502  0.00000000000E+00 -0.00000000000E+00 -0.24903081317E+03  0.24903081317E+03  0.00000000000E+00 0. -1.
         21    1    1    2  503  501 -0.48387427346E+02 -0.55118635402E+02 -0.80565061178E+02  0.10895015455E+03  0.00000000000E+00 0. -1.
         21    1    1    2  504  503 -0.15612926972E+02 -0.34537688218E+02 -0.10019674700E+03  0.10712611029E+03  0.00000000000E+00 0. -1.
         21    1    1    2  505  502  0.75760379007E+02 -0.52215044262E+01 -0.16653198449E+02  0.77744634248E+02  0.00000000000E+00 0. -1.
         -4    1    1    2    0  505 -0.11760024688E+02  0.94877828046E+02  0.66612087346E+03  0.67294659409E+03  0.00000000000E+00 0.  1.
<scales pt_clust_3="31.16805" pt_clust_4="31.16805" pt_clust_5="75.94010" pt_clust_6="95.36700"></scales>
<clustering>
<clus scale="   31.168">  3  4 -1 -1</clus>
<clus scale="   75.940">  2  5  1 -1</clus>
<clus scale="   95.367">  1  6  2 -1</clus>
<clus scale="   75.940">  2  3  1 -1</clus>
</clustering>
</event>
<event>
 6    0  0.4017242E+002  0.1091228E+03  0.7546771E-02  0.1262203E+00
          1   -1    0    0  505    0 -0.00000000000E+00  0.00000000000E+00  0.40761548103E+03  0.40761548103E+03  0.00000000000E+00 0. -1.
         21   -1    0    0  504  502  0.00000000000E+00 -0.00000000000E+00 -0.77646156571E+03  0.77646156571E+03  0.00000000000E+00 0. -1.
         21    1    1    2  503  502  0.53598703838E+02  0.38622371425E+02 -0.71926110700E+03  0.72228875713E+03  0.00000000000E+00 0. -1.
         21    1    1    2  504  501  0.80284515028E+02 -0.72651397101E+02  0.56545527254E+02  0.12215246828E+03  0.00000000000E+00 0. -1.
         21    1    1    2  505  503 -0.44762234862E+02  0.21242542498E+02  0.23824171185E+02  0.54977217229E+02  0.00000000000E+00 0. -1.
          1    1    1    2  501    0 -0.89120984004E+02  0.12786483178E+02  0.27004532388E+03  0.28465860411E+03  0.00000000000E+00 0. -1.
<scales pt_clust_3="65.96642" pt_clust_4="14000.00000" pt_clust_5="49.54698" pt_clust_6="109.12279"></scales>
<clustering>
<clus scale="   49.547">  1  5  2 -1</clus>
<clus scale="   65.966">  2  3  1 -1</clus>
<clus scale="  109.123">  1  6  2 -1</clus>
<clus scale="   65.966">  2  3  1 -1</clus>
</clustering>
</event>
<event>
 6    0  0.4017242E+002  0.1152019E+03  0.7546771E-02  0.1251229E+00
          2   -1    0    0  505    0 -0.00000000000E+00  0.00000000000E+00  0.57105820597E+03  0.57105820597E+03  0.00000000000E+00 0. -1.
         21   -1    0    0  503  502  0.00000000000E+00 -0.00000000000E+00 -0.24852851516E+03  0.24852851516E+03  0.00000000000E+00 0. -1.
         21    1    1    2  503  504 -0.24552793614E+02  0.84841551861E+02  0.21903246205E+02  0.90998246086E+02  0.00000000000E+00 0. -1.
         21    1    1    2  504  501  0.46670271454E+02  0.69092199245E+02  0.37661680010E+02  0.91489061506E+02  0.00000000000E+00 0. -1.
         21    1    1    2  505  502  0.38890915128E+02 -0.11919109933E+03 -0.16285787076E+03  0.20552787526E+03  0.00000000000E+00 0. -1.
          2    1    1    2  501    0 -0.61008392969E+02 -0.34742651772E+02  0.42582263536E+03  0.43157153828E+03  0.00000000000E+00 0. -1.
<scales pt_clust_3="14000.00000" pt_clust_4="56.61508" pt_clust_5="115.20189" pt_clust_6="70.20738"></scales>
<clustering>
<clus scale="   70.207">  1  6  2 -1</clus>
<clus scale="   56.615">  1  4  2 -1</clus>
<clus scale="  115.202">  2  5  1 -1</clus>
<clus scale="  115.202">  2  3  1 -1</clus>
</clustering>
</event>
<event>
 6    0  0.4017242E+002  0.1118454E+03  0.7546771E-02  0.1257190E+00
          2   -1    0    0  503    0 -0.00000000000E+00  0.00000000000E+00  0.60416649258E+02  0.60416649258E+02  0.00000000000E+00 0. -1.
         21   -1    0    0  504  502  0.00000000000E+00 -0.00000000000E+00 -0.12380440966E+04  0.12380440966E+04  0.00000000000E+00 0.  1.
         21    1    1    2  503  502  0.33331168756E+02 -0.37211186772E+01 -0.33923118317E+03  0.34088503805E+03  0.00000000000E+00 0.  1.
         21    1    1    2  504  505  0.90573558813E+01  0.29525490494E+02 -0.18977083082E+03  0.19226741407E+03  0.00000000000E+00 0.  1.
         21    1    1    2  505  501 -0.92453481815E+02  0.74514636079E+02 -0.64211447443E+03  0.65300158925E+03  0.00000000000E+00 0.  1.
          2    1    1    2  501    0  0.50064957178E+02 -0.10031900790E+03 -0.65109589102E+01  0.11230670447E+03  0.00000000000E+00 0. -1.
<scales pt_clust_3="36.74449" pt_clust_4="30.88350" pt_clust_5="111.84539" pt_clust_6="14000.00000"></scales>
<clustering>
<clus scale="   30.883">  2  4  1 -1</clus>
<clus scale="   36.744">  2  3  1 -1</clus>
<clus scale="  111.845">  2  5  1 -1</clus>
<clus scale="   30.883">  2  3  1 -1</clus>
</clustering>
</event>
<event>
 6    0  0.4017242E+002  0.7397370E+02  0.7546771E-02  0.1347079E+00
         21   -1    0    0  505  502  0.00000000000E+00  0.00000000000E+00  0.13147666468E+03  0.13147666468E+03  0.00000000000E+00 0.  1.
          1   -1    0    0  503    0 -0.00000000000E+00 -0.00000000000E+00 -0.32142017459E+03  0.32142017459E+03  0.00000000000E+00 0. -1.
         21    1    1    2  503  502  0.61793466302E+02  0.39955672158E+02  0.61708900967E+02  0.96035809331E+02  0.00000000000E+00 0.  1.
         21    1    1    2  504  501 -0.32606477487E+02  0.70969126115E+02 -0.73558496646E+02  0.10728770509E+03  0.00000000000E+00 0. -1.
         21    1    1    2  505  504 -0.55439059511E+02 -0.51948154816E+02 -0.19637148718E+02  0.78471126652E+02  0.00000000000E+00 0. -1.
          1    1    1    2  501    0  0.26252070696E+02 -0.58976643456E+02 -0.15845676551E+03  0.17110219819E+03  0.00000000000E+00 0. -1.
<scales pt_clust_3="14000.00000" pt_clust_4="40.84064" pt_clust_5="73.97370" pt_clust_6="64.55552"></scales>
<clustering>
<clus scale="   64.556">  2  6  1 -1</clus>
<clus scale="   40.841">  2  4  1 -1</clus>
<clus scale="   73.974">  2  5  1 -1</clus>
<clus scale="   73.974">  1  3  2 -1</clus>
</clustering>
</event>
<event>
 6    0  0.4017242E+002  0.9253404E+02  0.7546771E-02  0.1296829E+00
          1   -1    0    0  505    0 -0.00000000000E+00  0.00000000000E+00  0.43066849908E+03  0.43066849908E+03  0.00000000000E+00 0. -1.
         21   -1    0    0  503  502  0.00000000000E+00 -0.00000000000E+00 -0.29978647101E+03  0.29978647101E+03  0.00000000000E+00 0. -1.
         21    1    1    2  503  504  0.54488425576E+01 -0.31674026449E+02 -0.22143630400E+02  0.39029145571E+02  0.00000000000E+00 0. -1.
         21    1    1    2  504  501 -0.10241534004E+03  0.15641706840E+02 -0.86350109090E+02  0.13486996036E+03  0.00000000000E+00 0. -1.
         21    1    1    2  505  502  0.26823181660E+02 -0.46214855827E+02 -0.14833413972E+03  0.15766519267E+03  0.00000000000E+00 0. -1.
          1    1    1    2  501    0  0.70143315825E+02  0.62247175436E+02  0.38770990727E+03  0.39889067149E+03  0.00000000000E+00 0. -1.
<scales pt_clust_3="32.13929" pt_clust_4="14000.00000" pt_clust_5="70.84491" pt_clust_6="92.53404"></scales>
<clustering>
<clus scale="   32.139">  2  3  1 -1</clus>
<clus scale="   70.845">  2  5  1 -1</clus>
<clus scale="   92.534">  1  6  2 -1</clus>
<clus scale="   32.139">  2  3  1 -1</clus>
</clustering>
</event>
<event>
 6    0  0.4017242E+002  0.1275790E+03  0.7546771E-02  0.1231093E+00
          2   -1    0    0  505    0 -0.00000000000E+00  0.00000000000E+00  0.28541311691E+04  0.28541311691E+04  0.00000000000E+00 0. -1.
         21   -1    0    0  503  502  0.00000000000E+00 -0.00000000000E+00 -0.47842209073E+02  0.47842209073E+02  0.00000000000E+00 0.  1.
         21    1    1    2  503  504  0.98546644947E+02 -0.37345380227E+02  0.15709214804E+03  0.18916675614E+03  0.00000000000E+00 0. -1.
         21    1    1    2  504  501 -0.16128674798E+03 -0.35825483484E+01  0.21088731822E+03  0.26551781619E+03  0.00000000000E+00 0.  1.
         21    1    1    2  505  502 -0.36723033060E+01  0.50443200598E+02  0.15600992245E+03  0.16400334814E+03  0.00000000000E+00 0. -1.
          2    1    1    2  501    0  0.66412406339E+02 -0.95152720223E+01  0.22822995713E+04  0.22832854577E+04  0.00000000000E+00 0. -1.
<scales pt_clust_3="14000.00000" pt_clust_4="127.57903" pt_clust_5="50.57670" pt_clust_6="66.97160"></scales>
<clustering>
<clus scale="   50.577">  2  5  1 -1</clus>
<clus scale="   66.972">  1  6  2 -1</clus>
<clus scale="  127.579">  1  4  2 -1</clus>
<clus scale="   50.577">  2  3  1 -1</clus>
</clustering>
</event>
<event>
 6    0  0.4017242E+002  0.1011245E+03  0.7546771E-02  0.1277949E+00
         21   -1    0    0  505  502  0.00000000000E+00  0.00000000000E+00  0.46847588790E+03  0.46847588790E+03  0.00000000000E+00 0. -1.
          2   -1    0    0  503    0 -0.00000000000E+00 -0.00000000000E+00 -0.23702489276E+03  0.23702489276E+03  0.00000000000E+00 0. -1.
         21    1    1    2  503  504 -0.61886393006E+02  0.25894068412E+02 -0.95045977344E+01  0.67755190180E+02  0.00000000000E+00 0. -1.
         21    1    1    2  504  502 -0.12463836730E+02  0.28772133641E+02  0.32690428943E+03  0.32840462443E+03  0.00000000000E+00 0. -1.
         21    1    1    2  505  501 -0.46765934032E+02 -0.21310861374E+02  0.83714682351E+02  0.98231122561E+02  0.00000000000E+00 0.  1.
          2    1    1    2  501    0  0.12111616377E+03 -0.33355340680E+02 -0.16966337890E+03  0.21110984349E+03  0.00000000000E+00 0. -1.
<scales pt_clust_3="101.12447" pt_clust_4="31.35575" pt_clust_5="54.88539" pt_clust_6="14000.00000"></scales>
<clustering>
<clus scale="   31.356">  1  4  2 -1</clus>
<clus scale="   54.885">  1  5  2 -1</clus>
<clus scale="  101.124">  1  3  2 -1</clus>
<clus scale="   31.356">  1  3  2 -1</clus>
</clustering>
</event>
<event>
 6    0  0.4017242E+002  0.2349273E+03  0.7546771E-02  0.1123219E+00
         21   -1    0    0  503  502  0.00000000000E+00  0.00000000000E+00  0.16818932092E+03  0.16818932092E+03  0.00000000000E+00 0.  1.
          1   -1    0    0  504    0 -0.00000000000E+00 -0.00000000000E+00 -0.22432088428E+04  0.22432088428E+04  0.00000000000E+00 0.  1.
         21    1    1    2  503  501 -0.82424120082E+02 -0.99570326602E+02 -0.32720811869E+03  0.35181406801E+03  0.00000000000E+00 0.  1.
         21    1    1    2  504  505  0.76863436609E+02 -0.11069938272E+03 -0.71708396029E+02  0.15265790278E+03  0.00000000000E+00 0. -1.
         21    1    1    2  505  502  0.16779964470E+02 -0.53003432480E+02  0.98370079502E+02  0.11299382109E+03  0.00000000000E+00 0.  1.
          1    1    1    2  501    0 -0.11219280997E+02  0.26327314180E+03 -0.17744730867E+04  0.17939323719E+04  0.00000000000E+00 0.  1.
<scales pt_clust_3="135.50200" pt_clust_4="234.92735" pt_clust_5="55.59614" pt_clust_6="14000.00000"></scales>
<clustering>
<clus scale="   55.596">  1  5  2 -1</clus>
<clus scale="  135.502">  1  3  2 -1</clus>
<clus scale="  234.927">  1  4  2 -1</clus>
<clus scale="   55.596">  1  3  2 -1</clus>
</clustering>
</event>
<event>
 6    0  0.4017242E+002  0.1086469E+03  0.7546771E-02  0.1263096E+00
          2   -1    0    0  505    0 -0.00000000000E+00  0.00000000000E+00  0.64504800271E+03  0.64504800271E+03  0.00000000000E+00 0. -1.
         21   -1    0    0  504  502  0.00000000000E+00 -0.00000000000E+00 -0.35463606981E+03  0.35463606981E+03  0.00000000000E+00 0.  1.
         21    1    1    2  503  501 -0.82005293401E+02  0.59921164671E+02 -0.18038671137E+03  0.20701396031E+03  0.00000000000E+00 0.  1.
         21    1    1    2  504  503  0.22648991976E+02 -0.37368360261E+02 -0.65611079457E+02  0.78830101698E+02  0.00000000000E+00 0.  1.
         21    1    1    2  505  502 -0.46402083734E+02 -0.57719846068E+02 -0.67214653542E+02  0.10001271747E+03  0.00000000000E+00 0.  1.
          2    1    1    2  501    0  0.10575838516E+03  0.35167041658E+02  0.60362437727E+03  0.61382729304E+03  0.00000000000E+00 0. -1.
<scales pt_clust_3="74.79500" pt_clust_4="43.69635" pt_clust_5="108.64691" pt_clust_6="14000.00000"></scales>
<clustering>
<clus scale="   43.696">  2  4  1 -1</clus>
<clus scale="   74.795">  2  3  1 -1</clus>
<clus scale="  108.647">  2  5  1 -1</clus>
<clus scale="   43.696">  2  3  1 -1</clus>
</clustering>
</event>
<event>
 6    0  0.4017242E+002  0.7266713E+02  0.7546771E-02  0.1351251E+00
         21   -1    0    0  503  502  0.00000000000E+00  0.00000000000E+00  0.35621700358E+02  0.35621700358E+02  0.00000000000E+00 0. -1.
          2   -1    0    0  505    0 -0.00000000000E+00 -0.00000000000E+00 -0.17289691759E+04  0.17289691759E+04  0.00000000000E+00 0. -1.
         21    1    1    2  503  501 -0.48199632605E+02 -0.74465702560E+01 -0.12562168546E+03  0.13475705491E+03  0.00000000000E+00 0. -1.
         21    1    1    2  504  502  0.67565843296E+02 -0.81175142815E+02 -0.92094140160E+02  0.14012807586E+03  0.00000000000E+00 0. -1.
         21    1    1    2  505  504 -0.32975555633E+02  0.40976941832E+02 -0.98334689972E+02  0.11151774874E+03  0.00000000000E+00 0. -1.
          2    1    1    2  501    0  0.13609344941E+02  0.47644771239E+02 -0.13772969600E+04  0.13781879968E+04  0.00000000000E+00 0. -1.
<scales pt_clust_3="48.77147" pt_clust_4="14000.00000" pt_clust_5="72.66713" pt_clust_6="49.26181"></scales>
<clustering>
<clus scale="   48.771">  1  3  2 -1</clus>
<clus scale="   49.262">  2  6  1 -1</clus>
<clus scale="   72.667">  2  5  1 -1</clus>
<clus scale="   48.771">  1  3  2 -1</clus>
</clustering>
</event>
<event>
 6    0  0.4017242E+002  0.2177891E+03  0.7546771E-02  0.1135542E+00
          2   -1    0    0  505    0 -0.00000000000E+00  0.00000000000E+00  0.17818744314E+04  0.17818744314E+04  0.00000000000E+00 0. -1.
         21   -1    0    0  501  502  0.00000000000E+00 -0.00000000000E+00 -0.34414072083E+03  0.34414072083E+03  0.00000000000E+00 0. -1.
         21    1    1    2  503  502  0.68277437307E+02 -0.83887548111E+01 -0.14244082541E+03  0.15818207356E+03  0.00000000000E+00 0. -1.
         21    1    1    2  504  503  0.53217557193E+02 -0.43900630448E+02 -0.11765428523E+03  0.13638879932E+03  0.00000000000E+00 0. -1.
         21    1    1    2  505  504  0.60840380668E+02 -0.25545908352E+02 -0.43391072482E+02  0.78974239626E+02  0.00000000000E+00 0.  1.
          2    1    1    2  501    0 -0.18233537517E+03  0.77835293611E+02  0.17412198937E+04  0.17524700398E+04  0.00000000000E+00 0. -1.
<scales pt_clust_3="40.28230" pt_clust_4="55.27849" pt_clust_5="55.27849" pt_clust_6="198.25368"></scales>
<clustering>
<clus scale="   40.282">  3  4 -1 -1</clus>
<clus scale="   55.278">  3  5 -1 -1</clus>
<clus scale="  198.254">  1  6  2 -1</clus>
<clus scale="  217.789">  2  3  1 -1</clus>
</clustering>
</event>
<event>
 6    0  0.4017242E+002  0.1220482E+03  0.7546771E-02  0.1239756E+00
          2   -1    0    0  504    0 -0.00000000000E+00  0.00000000000E+00  0.16801774670E+04  0.16801774670E+04  0.00000000000E+00 0.  1.
         21   -1    0    0  503  502  0.00000000000E+00 -0.00000000000E+00 -0.18190771653E+03  0.18190771653E+03  0.00000000000E+00 0. -1.
         21    1    1    2  503  505 -0.60476402804E+02 -0.55063386507E+02 -0.14143272661E+03  0.16337866442E+03  0.00000000000E+00 0. -1.
         21    1    1    2  504  502 -0.79572367588E+02 -0.46703419925E+02  0.10238280684E+03  0.13782311219E+03  0.00000000000E+00 0. -1.
         21    1    1    2  505  501  0.94176052119E+02  0.10073465200E+03  0.40882369097E+03  0.43145499094E+03  0.00000000000E+00 0. -1.
          2    1    1    2  501    0  0.45872718273E+02  0.10321544338E+01  0.11284959793E+04  0.11294284160E+04  0.00000000000E+00 0.  1.
<scales pt_clust_3="81.10174" pt_clust_4="122.04822" pt_clust_5="14000.00000" pt_clust_6="45.88433"></scales>
<clustering>
<clus scale="   45.884">  1  6  2 -1</clus>
<clus scale="   81.102">  2  3  1 -1</clus>
<clus scale="  122.048">  1  4  2 -1</clus>
<clus scale="   81.102">  2  3  1 -1</clus>
</clustering>
</event>
<event>
 6    0  0.4017242E+002  0.8267629E+02  0.7546771E-02  0.1321624E+00
         21   -1    0    0  505  502  0.00000000000E+00  0.00000000000E+00  0.11925993122E+03  0.11925993122E+03  0.00000000000E+00 0.  1.
          1   -1    0    0  503    0 -0.00000000000E+00 -0.00000000000E+00 -0.20092896011E+04  0.20092896011E+04  0.00000000000E+00 0.  1.
         21    1    1    2  503  502 -0.90520850958E+01  0.43805859203E+02 -0.10999183963E+02  0.46063820867E+02  0.00000000000E+00 0.  1.
         21    1    1    2  504  501 -0.35710524067E+02 -0.87107231419E+02 -0.93058990174E+02  0.13237404182E+03  0.00000000000E+00 0.  1.
         21    1    1    2  505  504 -0.37523667576E+02  0.26212429098E+02  0.74664837760E+02  0.87578279643E+02  0.00000000000E+00 0.  1.
          1    1    1    2  501    0  0.82286276738E+02  0.17088943119E+02 -0.18606363335E+04  0.18625333900E+04  0.00000000000E+00 0.  1.
<scales pt_clust_3="44.73135" pt_clust_4="14000.00000" pt_clust_5="75.76650" pt_clust_6="82.67629"></scales>
<clustering>
<clus scale="   44.731">  1  3  2 -1</clus>
<clus scale="   75.766">  1  5  2 -1</clus>
<clus scale="   82.676">  2  6  1 -1</clus>
<clus scale="   44.731">  1  3  2 -1</clus>
</clustering>
</event>
<event>
 6    0  0.4017242E+002  0.3343499E+03  0.7546771E-02  0.1069228E+00
          2   -1    0    0  504    0 -0.00000000000E+00  0.00000000000E+00  0.23898503247E+04  0.23898503247E+04  0.00000000000E+00 0. -1.
         21   -1    0    0  505  502  0.00000000000E+00 -0.00000000000E+00 -0.29035429098E+03  0.29035429098E+03  0.00000000000E+00 0.  1.
         21    1    1    2  503  502 -0.16867573902E+03 -0.48209687449E+02 -0.97386975680E+02  0.20064870278E+03  0.00000000000E+00 0.  1.
         21    1    1    2  504  503 -0.11954645298E+03 -0.74393340922E+02 -0.90817563670E+02  0.16755164417E+03  0.00000000000E+00 0. -1.
         21    1    1    2  505  501  0.16027162334E+03  0.22800009319E+02  0.85930411195E+03  0.87442003092E+03  0.00000000000E+00 0.  1.
          2    1    1    2  501    0  0.12795056866E+03  0.99803019052E+02  0.14283964611E+04  0.14375842378E+04  0.00000000000E+00 0. -1.
<scales pt_clust_3="316.46571" pt_clust_4="40.53364" pt_clust_5="116.84917" pt_clust_6="116.84917"></scales>
<clustering>
<clus scale="   40.534">  3  4 -1 -1</clus>
<clus scale="  116.849">  5  6 -1 -1</clus>
<clus scale="  316.466">  2  3  1 -1</clus>
<clus scale="  316.466">  2  3  1 -1</clus>
</clustering>
</event>
<event>
 6    0  0.4017242E+002  0.7887343E+02  0.7546771E-02  0.1332279E+00
         21   -1    0    0  503  502  0.00000000000E+00  0.00000000000E+00  0.19978297548E+04  0.19978297548E+04  0.00000000000E+00 0. -1.
          3   -1    0    0  504    0 -0.00000000000E+00 -0.00000000000E+00 -0.17337468107E+03  0.17337468107E+03  0.00000000000E+00 0. -1.
         21    1    1    2  503  505 -0.52454924162E+02  0.40544883403E+02  0.68542890433E+03  0.68862775832E+03  0.00000000000E+00 0. -1.
         21    1    1    2  504  502 -0.90646865331E+01 -0.17206460780E+03  0.82844106086E+03  0.84616959832E+03  0.00000000000E+00 0. -1.
         21    1    1    2  505  501  0.52971067655E+02  0.54171153998E+02  0.46093026047E+03  0.46711578109E+03  0.00000000000E+00 0. -1.
          3    1    1    2  501    0  0.85485430402E+01  0.77348570396E+02 -0.15034515191E+03  0.16929129816E+03  0.00000000000E+00 0. -1.
<scales pt_clust_3="66.29786" pt_clust_4="78.87343" pt_clust_5="76.67492" pt_clust_6="14000.00000"></scales>
<clustering>
<clus scale="   66.298">  1  3  2 -1</clus>
<clus scale="   76.675">  1  5  2 -1</clus>
<clus scale="   78.873">  1  4  2 -1</clus>
<clus scale="   66.298">  1  3  2 -1</clus>
</clustering>
</event>
<event>
 6    0  0.4017242E+002  0.9109639E+02  0.7546771E-02  0.1300218E+00
         21   -1    0    0  504  502  0.00000000000E+00  0.00000000000E+00  0.38980368407E+03  0.38980368407E+03  0.00000000000E+00 0.  1.
          3   -1    0    0  503    0 -0.00000000000E+00 -0.00000000000E+00 -0.21283840014E+03  0.21283840014E+03  0.00000000000E+00 0.  1.
         21    1    1    2  503  505  0.53130549628E+02 -0.69149774640E+01  0.13415516778E+01  0.53595447362E+02  0.00000000000E+00 0.  1.
         21    1    1    2  504  501  0.59444108226E+02  0.44721615519E+02 -0.40611463258E+02  0.84752084608E+02  0.00000000000E+00 0.  1.
         21    1    1    2  505  502 -0.78233437556E+02 -0.49947728863E+02  0.33106288728E+03  0.34382827357E+03  0.00000000000E+00 0.  1.
          3    1    1    2  501    0 -0.34341220298E+02  0.12141090808E+02 -0.11482769178E+03  0.12046627867E+03  0.00000000000E+00 0.  1.
<scales pt_clust_3="43.85160" pt_clust_4="91.09639" pt_clust_5="14000.00000" pt_clust_6="36.42424"></scales>
<clustering>
<clus scale="   36.424">  2  6  1 -1</clus>
<clus scale="   43.852">  2  3  1 -1</clus>
<clus scale="   91.096">  2  4  1 -1</clus>
<clus scale="   91.096">  1  3  2 -1</clus>
</clustering>
</event>
<event>
 6    0  0.4017242E+002  0.1875076E+03  0.7546771E-02  0.1160729E+00
         21   -1    0    0  504  502  0.00000000000E+00  0.00000000000E+00  0.14872468799E+04  0.14872468799E+04  0.00000000000E+00 0.  1.
          2   -1    0    0  503    0 -0.00000000000E+00 -0.00000000000E+00 -0.63429228054E+03  0.63429228054E+03  0.00000000000E+00 0.  1.
         21    1    1    2  503  502  0.73730611539E+01 -0.11936907250E+03  0.19916092696E+03  0.23231102498E+03  0.00000000000E+00 0.  1.
         21    1    1    2  504  505  0.74987496017E+02  0.46290258834E+02  0.66383529668E+03  0.66965902797E+03  0.00000000000E+00 0.  1.
         21    1    1    2  505  501  0.10016910009E+03  0.49065252582E+02  0.58559839707E+03  0.59612643816E+03  0.00000000000E+00 0.  1.
          2    1    1    2  501    0 -0.18252965726E+03  0.24013561084E+02 -0.59564002136E+03  0.62344266932E+03  0.00000000000E+00 0.  1.
<scales pt_clust_3="119.59656" pt_clust_4="32.72860" pt_clust_5="32.72860" pt_clust_6="183.85682"></scales>
<clustering>
<clus scale="   32.729">  4  5 -1 -1</clus>
<clus scale="  119.597">  1  3  2 -1</clus>
<clus scale="  183.857">  2  6  1 -1</clus>
<clus scale="  119.597">  1  3  2 -1</clus>
</clustering>
</event>
<event>
 6    0  0.4017242E+002  0.1329334E+03  0.7546771E-02  0.1223167E+00
         21   -1    0    0  504  502  0.00000000000E+00  0.00000000000E+00  0.25665895907E+03  0.25665895907E+03  0.00000000000E+00 0.  1.
          2   -1    0    0  503    0 -0.00000000000E+00 -0.00000000000E+00 -0.98490684628E+03  0.98490684628E+03  0.00000000000E+00 0.  1.
         21    1    1    2  503  502  0.31031047835E+02 -0.16004900823E+02  0.18113078730E+02  0.39334036167E+02  0.00000000000E+00 0.  1.
         21    1    1    2  504  505 -0.23547000690E+02  0.43780921668E+02  0.94208283364E+02  0.10651962729E+03  0.00000000000E+00 0.  1.
         21    1    1    2  505  501  0.79643253536E+01  0.94440614682E+02  0.10540607011E+03  0.14174942609E+03  0.00000000000E+00 0.  1.
          2    1    1    2  501    0 -0.15448372498E+02 -0.12221663553E+03 -0.94597531941E+03  0.95396271581E+03  0.00000000000E+00 0.  1.
<scales pt_clust_3="34.91537" pt_clust_4="32.26825" pt_clust_5="32.26825" pt_clust_6="123.40048"></scales>
<clustering>
<clus scale="   34.915">  1  3  2 -1</clus>
<clus scale="   32.268">  4  5 -1 -1</clus>
<clus scale="  123.400">  2  6  1 -1</clus>
<clus scale="   34.915">  1  3  2 -1</clus>
</clustering>
</event>
<event>
 6    0  0.4017242E+002  0.1912852E+03  0.7546771E-02  0.1157307E+00
          1   -1    0    0  503    0 -0.00000000000E+00  0.00000000000E+00  0.79329881340E+03  0.79329881340E+03  0.00000000000E+00 0. -1.
         21   -1    0    0  505  502  0.00000000000E+00 -0.00000000000E+00 -0.72976403642E+03  0.72976403642E+03  0.00000000000E+00 0.  1.
         21    1    1    2  503  504  0.41064261292E+02 -0.51232459375E+02 -0.26747089918E+03  0.27541191034E+03  0.00000000000E+00 0.  1.
         21    1    1    2  504  502  0.59260513085E+02  0.24843687261E+02 -0.54547148345E+02  0.84287653902E+02  0.00000000000E+00 0.  1.
         21    1    1    2  505  501  0.85250100129E+02  0.83175467377E+02 -0.36718076348E+03  0.38601483264E+03  0.00000000000E+00 0.  1.
          1    1    1    2  501    0 -0.18557487451E+03 -0.56786695263E+02  0.75273358799E+03  0.77734845294E+03  0.00000000000E+00 0. -1.
<scales pt_clust_3="77.22006" pt_clust_4="64.25743" pt_clust_5="14000.00000" pt_clust_6="191.28517"></scales>
<clustering>
<clus scale="   64.257">  2  4  1 -1</clus>
<clus scale="   77.220">  2  3  1 -1</clus>
<clus scale="  191.285">  1  6  2 -1</clus>
<clus scale="   64.257">  2  3  1 -1</clus>
</clustering>
</event>
<event>
 6    0  0.4017242E+002  0.3242030E+03  0.7546771E-02  0.1073731E+00
         21   -1    0    0  501  502  0.00000000000E+00  0.00000000000E+00  0.26122997410E+03  0.26122997410E+03  0.00000000000E+00 0. -1.
          1   -1    0    0  503    0 -0.00000000000E+00 -0.00000000000E+00 -0.81750659785E+03  0.81750659785E+03  0.00000000000E+00 0. -1.
         21    1    1    2  503  504 -0.15594115755E+03 -0.20306476956E+03 -0.14281744733E+03  0.29317190949E+03  0.00000000000E+00 0. -1.
         21    1    1    2  504  505  0.10318323176E+03  0.27182812422E+03 -0.60599287513E+02  0.29700097993E+03  0.00000000000E+00 0. -1.
         21    1    1    2  505  502  0.30379580665E+02  0.61333509447E+02  0.36405087645E+02  0.77524503926E+02  0.00000000000E+00 0.  1.
          1    1    1    2  501    0  0.22378345121E+02 -0.13009686411E+03 -0.38926497655E+03  0.41103917860E+03  0.00000000000E+00 0. -1.
<scales pt_clust_3="307.01677" pt_clust_4="50.53464" pt_clust_5="50.53464" pt_clust_6="132.00752"></scales>
<clustering>
<clus scale="   50.535">  4  5 -1 -1</clus>
<clus scale="  132.008">  2  6  1 -1</clus>
<clus scale="  307.017">  2  3  1 -1</clus>
<clus scale="  324.203">  1  3  2 -1</clus>
</clustering>
</event>
<event>
 6    0  0.4017242E+002  0.1379666E+03  0.7546771E-02  0.1216092E+00
          1   -1    0    0  504    0 -0.00000000000E+00  0.00000000000E+00  0.11574432968E+04  0.11574432968E+04  0.00000000000E+00 0. -1.
         21   -1    0    0  501  502  0.00000000000E+00 -0.00000000000E+00 -0.93700209985E+02  0.93700209985E+02  0.00000000000E+00 0.  1.
         21    1    1    2  503  502 -0.30296057201E+02 -0.93838760281E+02  0.20598136921E+02  0.10073652395E+03  0.00000000000E+00 0.  1.
         21    1    1    2  504  505  0.77499667025E+02 -0.47270667748E+02  0.21327633599E+03  0.23179195394E+03  0.00000000000E+00 0. -1.
         21    1    1    2  505  503 -0.99902621800E+02  0.19452998368E+03  0.24277315901E+03  0.32674340870E+03  0.00000000000E+00 0. -1.
          1    1    1    2  501    0  0.52699011976E+02 -0.53420555656E+02  0.58709545488E+03  0.59187162018E+03  0.00000000000E+00 0. -1.
<scales pt_clust_3="102.55561" pt_clust_4="137.96660" pt_clust_5="14000.00000" pt_clust_6="75.03960"></scales>
<clustering>
<clus scale="   75.040">  1  6  2 -1</clus>
<clus scale="  102.556">  2  3  1 -1</clus>
<clus scale="  137.967">  1  4  2 -1</clus>
<clus scale="  102.556">  2  3  1 -1</clus>
</clustering>
</event>
<event>
 6    0  0.4017242E+002  0.1331507E+03  0.7546771E-02  0.1222854E+00
         21   -1    0    0  501  502  0.00000000000E+00  0.00000000000E+00  0.23803798660E+04  0.23803798660E+04  0.00000000000E+00 0. -1.
         -3   -1    0    0    0  501 -0.00000000000E+00 -0.00000000000E+00 -0.68166275535E+02  0.68166275535E+02  0.00000000000E+00 0.  1.
         21    1    1    2  503  504  0.23915189444E+02  0.43064663464E+02  0.34831432780E+03  0.35178029006E+03  0.00000000000E+00 0. -1.
         21    1    1    2  504  505  0.72735124805E+02  0.83687587838E+01  0.49101915277E+03  0.49644762351E+03  0.00000000000E+00 0. -1.
         21    1    1    2  505  502 -0.78143485130E+02 -0.10889434125E+03  0.15186549874E+04  0.15245580844E+04  0.00000000000E+00 0. -1.
         -3    1    1    2    0  503 -0.18506829119E+02  0.57460918999E+02 -0.45774877554E+02  0.75760143554E+02  0.00000000000E+00 0.  1.
<scales pt_clust_3="45.10037" pt_clust_4="45.10037" pt_clust_5="121.26787" pt_clust_6="60.36771"></scales>
<clustering>
<clus scale="   45.100">  3  4 -1 -1</clus>
<clus scale="   60.368">  2  6  1 -1</clus>
<clus scale="  121.268">  1  5  2 -1</clus>
<clus scale="  121.268">  1  3  2 -1</clus>
</clustering>
</event>
<event>
 6    0  0.4017242E+002  0.2377658E+03  0.7546771E-02  0.1121290E+00
          2   -1    0    0  504    0 -0.00000000000E+00  0.00000000000E+00  0.21659540462E+04  0.21659540462E+04  0.00000000000E+00 0.  1.
         21   -1    0    0  505  502  0.00000000000E+00 -0.00000000000E+00 -0.27869309050E+03  0.27869309050E+03  0.00000000000E+00 0.  1.
         21    1    1    2  503  501  0.68941871599E+01 -0.15666680917E+03 -0.93801440829E+02  0.18273130332E+03  0.00000000000E+00 0.  1.
         21    1    1    2  504  502  0.35364190071E+02  0.20761553850E+03  0.40000658403E+03  0.45206205883E+03  0.00000000000E+00 0.  1.
         21    1    1    2  505  503  0.42909624038E+01 -0.77140233835E+02 -0.10088220840E+03  0.12706788739E+03  0.00000000000E+00 0.  1.
          2    1    1    2  501    0 -0.46549339634E+02  0.26191504499E+02  0.16819380209E+04  0.16827858871E+04  0.00000000000E+00 0.  1.
<scales pt_clust_3="40.21713" pt_clust_4="230.75875" pt_clust_5="40.21713" pt_clust_6="53.41195"></scales>
<clustering>
<clus scale="   40.217">  3  5 -1 -1</clus>
<clus scale="   53.412">  1  6  2 -1</clus>
<clus scale="  230.759">  1  4  2 -1</clus>
<clus scale="  237.766">  2  3  1 -1</clus>
</clustering>
</event>
<event>
 6    0  0.4017242E+002  0.7834899E+02  0.7546771E-02  0.1333803E+00
         21   -1    0    0  503  502  0.00000000000E+00  0.00000000000E+00  0.14826787353E+04  0.14826787353E+04  0.00000000000E+00 0. -1.
          2   -1    0    0  504    0 -0.00000000000E+00 -0.00000000000E+00 -0.33757389343E+03  0.33757389343E+03  0.00000000000E+00 0. -1.
         21    1    1    2  503  501 -0.70602302915E+02 -0.31337896419E+02  0.13634716790E+04  0.13656579983E+04  0.00000000000E+00 0. -1.
         21    1    1    2  504  505 -0.29203366438E+02  0.25437032755E+02  0.21115952161E+02  0.44110800065E+02  0.00000000000E+00 0.  1.
         21    1    1    2  505  502  0.15173114081E+03  0.35683472233E+02  0.77934049184E+01  0.15606532748E+03  0.00000000000E+00 0. -1.
          2    1    1    2  501    0 -0.51925471455E+02 -0.29782608569E+02 -0.24727619423E+03  0.25441850285E+03  0.00000000000E+00 0. -1.
<scales pt_clust_3="78.34899" pt_clust_4="38.72827" pt_clust_5="14000.00000" pt_clust_6="75.08927"></scales>
<clustering>
<clus scale="   38.728">  2  4  1 -1</clus>
<clus scale="   75.089">  2  6  1 -1</clus>
<clus scale="   78.349">  1  3  2 -1</clus>
<clus scale="   78.349">  1  3  2 -1</clus>
</clustering>
</event>
<event>
 6    0  0.4017242E+002  0.7315236E+03  0.7546771E-02  0.9664791E-01
         21   -1    0    0  504  502  0.00000000000E+00  0.00000000000E+00  0.97846616862E+03  0.97846616862E+03  0.00000000000E+00 0. -1.
          2   -1    0    0  503    0 -0.00000000000E+00 -0.00000000000E+00 -0.14219671745E+04  0.14219671745E+04  0.00000000000E+00 0. -1.
         21    1    1    2  503  502 -0.32534466589E+03 -0.65389311368E+03  0.11488512074E+03  0.73934021040E+03  0.00000000000E+00 0. -1.
         21    1    1    2  504  505  0.16428811357E+03  0.43757223801E+03  0.27388471624E+03  0.54173137765E+03  0.00000000000E+00 0. -1.
         21    1    1    2  505  501  0.12164857810E+03  0.20972872528E+03  0.40381660063E+02  0.24579502280E+03  0.00000000000E+00 0. -1.
          2    1    1    2  501    0  0.39407974230E+02  0.65921503830E+01 -0.87265250295E+03  0.87356673230E+03  0.00000000000E+00 0. -1.
<scales pt_clust_3="717.25211" pt_clust_4="104.04034" pt_clust_5="104.04034" pt_clust_6="39.95554"></scales>
<clustering>
<clus scale="   39.956">  2  6  1 -1</clus>
<clus scale="  104.040">  4  5 -1 -1</clus>
<clus scale="  717.252">  2  3  1 -1</clus>
<clus scale="  731.524">  1  3  2 -1</clus>
</clustering>
</event>
<event>
 6    0  0.4017242E+002  0.9504915E+02  0.7546771E-02  0.1291065E+00
         21   -1    0    0  505  502  0.00000000000E+00  0.00000000000E+00  0.10253978462E+04  0.10253978462E+04  0.00000000000E+00 0. -1.
         -1   -1    0    0    0  501 -0.00000000000E+00 -0.00000000000E+00 -0.35772528660E+03  0.35772528660E+03  0.00000000000E+00 0. -1.
         21    1    1    2  503  502 -0.14894349093E+03 -0.87573119079E+02  0.28328370519E+03  0.33181752863E+03  0.00000000000E+00 0. -1.
         21    1    1    2  504  501 -0.27368109752E+01  0.74364086490E+02  0.12202647047E+03  0.14292643908E+03  0.00000000000E+00 0. -1.
         21    1    1    2  505  504  0.87442883561E+02 -0.15940658168E+02  0.57808176372E+03  0.58487510463E+03  0.00000000000E+00 0. -1.
         -1    1    1    2    0  503  0.64237418347E+02  0.29149690757E+02 -0.31571937976E+03  0.32350406048E+03  0.00000000000E+00 0. -1.
<scales pt_clust_3="14000.00000" pt_clust_4="83.68906" pt_clust_5="95.04915" pt_clust_6="70.54183"></scales>
<clustering>
<clus scale="   70.542">  2  6  1 -1</clus>
<clus scale="   83.689">  2  4  1 -1</clus>
<clus scale="   95.049">  1  5  2 -1</clus>
<clus scale="   95.049">  1  3  2 -1</clus>
</clustering>
</event>
<event>
 6    0  0.4017242E+002  0.1364813E+03  0.7546771E-02  0.1218144E+00
         21   -1    0    0  504  502  0.00000000000E+00  0.00000000000E+00  0.39101970037E+03  0.39101970037E+03  0.00000000000E+00 0. -1.
          2   -1    0    0  505    0 -0.00000000000E+00 -0.00000000000E+00 -0.11836302958E+04  0.11836302958E+04  0.00000000000E+00 0. -1.
         21    1    1    2  503  502  0.14818420490E+02  0.12762465670E+03  0.24948855678E+03  0.28062818559E+03  0.00000000000E+00 0. -1.
         21    1    1    2  504  501  0.61017548515E+02 -0.18100861614E+02  0.64389325845E+01  0.63970636005E+02  0.00000000000E+00 0. -1.
         21    1    1    2  505  503 -0.15733783974E+03 -0.82173933614E+02  0.49150065121E+00  0.17750490909E+03  0.00000000000E+00 0. -1.
          2    1    1    2  501    0  0.81501870730E+02 -0.27349861469E+02 -0.10490295855E+04  0.10525462655E+04  0.00000000000E+00 0. -1.
<scales pt_clust_3="14000.00000" pt_clust_4="63.64576" pt_clust_5="136.48127" pt_clust_6="86.28275"></scales>
<clustering>
<clus scale="   63.646">  1  4  2 -1</clus>
<clus scale="   86.283">  2  6  1 -1</clus>
<clus scale="  136.481">  2  5  1 -1</clus>
<clus scale="   63.646">  1  3  2 -1</clus>
</clustering>
</event>
<event>
 6    0  0.4017242E+002  0.2215270E+03  0.7546771E-02  0.1132750E+00
         21   -1    0    0  501  502  0.00000000000E+00  0.00000000000E+00  0.24338029166E+03  0.24338029166E+03  0.00000000000E+00 0. -1.
          2   -1    0    0  503    0 -0.00000000000E+00 -0.00000000000E+00 -0.39277801310E+03  0.39277801310E+03  0.00000000000E+00 0.  1.
         21    1    1    2  503  505  0.26518601244E+01  0.41188348147E+02  0.33258712279E+02  0.53006172543E+02  0.00000000000E+00 0. -1.
         21    1    1    2  504  502 -0.19547501162E+02 -0.36303314136E+02  0.61826268936E+02  0.74313679424E+02  0.00000000000E+00 0. -1.
         21    1    1    2  505  504  0.11724980315E+03  0.16269393625E+03 -0.60783023196E+01  0.20063344435E+03  0.00000000000E+00 0. -1.
          2    1    1    2  501    0 -0.10035416212E+03 -0.16757897026E+03 -0.23840440034E+03  0.30820500844E+03  0.00000000000E+00 0.  1.
<scales pt_clust_3="39.67910" pt_clust_4="41.23149" pt_clust_5="39.67910" pt_clust_6="203.52969"></scales>
<clustering>
<clus scale="   39.679">  3  5 -1 -1</clus>
<clus scale="   41.231">  1  4  2 -1</clus>
<clus scale="  203.530">  2  6  1 -1</clus>
<clus scale="   41.231">  1  3  2 -1</clus>
</clustering>
</event>
<event>
 6    0  0.4017242E+002  0.1963982E+03  0.7546771E-02  0.1152814E+00
         -1   -1    0    0    0  501 -0.00000000000E+00  0.00000000000E+00  0.59599743757E+03  0.59599743757E+03  0.00000000000E+00 0.  1.
         21   -1    0    0  503  502  0.00000000000E+00 -0.00000000000E+00 -0.12371096635E+04  0.12371096635E+04  0.00000000000E+00 0. -1.
         21    1    1    2  503  504  0.46527444297E+02  0.48861666907E+02 -0.10266311570E+03  0.12284942365E+03  0.00000000000E+00 0. -1.
         21    1    1    2  504  501  0.82605182165E+02 -0.99915955577E+02 -0.16855228540E+03  0.21264215765E+03  0.00000000000E+00 0. -1.
         21    1    1    2  505  502  0.46051422647E+02 -0.52588297134E+02 -0.91400855728E+03  0.91667764526E+03  0.00000000000E+00 0. -1.
         -1    1    1    2    0  505 -0.17518404911E+03  0.10364258580E+03  0.54411173244E+03  0.58093787451E+03  0.00000000000E+00 0.  1.
<scales pt_clust_3="67.47048" pt_clust_4="196.39820" pt_clust_5="84.90161" pt_clust_6="14000.00000"></scales>
<clustering>
<clus scale="   67.470">  2  3  1 -1</clus>
<clus scale="   84.902">  2  5  1 -1</clus>
<clus scale="  196.398">  2  4  1 -1</clus>
<clus scale="   67.470">  2  3  1 -1</clus>
</clustering>
</event>
<event>
 6    0  0.4017242E+002  0.1139838E+03  0.7546771E-02  0.1253365E+00
         21   -1    0    0  504  502  0.00000000000E+00  0.00000000000E+00  0.13285665048E+04  0.13285665048E+04  0.00000000000E+00 0.  1.
          2   -1    0    0  502    0 -0.00000000000E+00 -0.00000000000E+00 -0.55068987165E+03  0.55068987165E+03  0.00000000000E+00 0.  1.
         21    1    1    2  503  505  0.12248123081E+03  0.27410860588E+01 -0.12962073268E+03  0.17835554321E+03  0.00000000000E+00 0.  1.
         21    1    1    2  504  503 -0.10101824195E+03 -0.52939143247E+02  0.12921635092E+04  0.12971868688E+04  0.00000000000E+00 0.  1.
         21    1    1    2  505  501  0.10975707857E+02  0.54859822562E+02 -0.81933981334E+02  0.99213122074E+02  0.00000000000E+00 0.  1.
          2    1    1    2  501    0 -0.32438696712E+02 -0.46617653740E+01 -0.30273216201E+03  0.30450084239E+03  0.00000000000E+00 0.  1.
<scales pt_clust_3="14000.00000" pt_clust_4="113.98377" pt_clust_5="53.15878" pt_clust_6="32.77196"></scales>
<clustering>
<clus scale="   32.772">  2  6  1 -1</clus>
<clus scale="   53.159">  2  5  1 -1</clus>
<clus scale="  113.984">  1  4  2 -1</clus>
<clus scale="  113.984">  1  3  2 -1</clus>
</clustering>
</event>
<event>
 6    0  0.4017242E+002  0.1427001E+03  0.7546771E-02  0.1209741E+00
          1   -1    0    0  504    0 -0.00000000000E+00  0.00000000000E+00  0.15358494736E+04  0.15358494736E+04  0.00000000000E+00 0. -1.
         21   -1    0    0  505  502  0.00000000000E+00 -0.00000000000E+00 -0.11480721635E+03  0.11480721635E+03  0.00000000000E+00 0. -1.
         21    1    1    2  503  501  0.11093071936E+03  0.10037856378E+03  0.54091830085E+02  0.15908301810E+03  0.00000000000E+00 0. -1.
         21    1    1    2  504  502 -0.68016011125E+02  0.25781684866E+01  0.54634687452E+02  0.87279859046E+02  0.00000000000E+00 0. -1.
         21    1    1    2  505  503  0.48253913043E+02  0.63054821775E+01 -0.28201155861E+02  0.56245039082E+02  0.00000000000E+00 0.  1.
          1    1    1    2  501    0 -0.91168621277E+02 -0.10926221444E+03  0.13405168955E+04  0.13480487737E+04  0.00000000000E+00 0. -1.
<scales pt_clust_3="142.70005" pt_clust_4="57.30426" pt_clust_5="48.66415" pt_clust_6="14000.00000"></scales>
<clustering>
<clus scale="   48.664">  2  5  1 -1</clus>
<clus scale="   57.304">  2  4  1 -1</clus>
<clus scale="  142.700">  2  3  1 -1</clus>
<clus scale="   48.664">  2  3  1 -1</clus>
</clustering>
</event>
<event>
 6    0  0.4017242E+002  0.1183952E+03  0.7546771E-02  0.1245768E+00
         -3   -1    0    0    0  501 -0.00000000000E+00  0.00000000000E+00  0.47330478671E+03  0.47330478671E+03  0.00000000000E+00 0.  1.
         21   -1    0    0  504  502  0.00000000000E+00 -0.00000000000E+00 -0.89397401540E+02  0.89397401540E+02  0.00000000000E+00 0.  1.
         21    1    1    2  503  502 -0.14477272204E+02  0.37380514026E+02 -0.16860700091E+02  0.43487670056E+02  0.00000000000E+00 0.  1.
         21    1    1    2  504  505 -0.33592239356E+02 -0.33023722906E+02  0.31413470595E+01  0.47210940267E+02  0.00000000000E+00 0.  1.
         21    1    1    2  505  501 -0.85789439811E+02  0.12039997440E+02  0.52096631368E+02  0.10108832040E+03  0.00000000000E+00 0. -1.
         -3    1    1    2    0  503  0.13385895137E+03 -0.16396788560E+02  0.34553010683E+03  0.37091525753E+03  0.00000000000E+00 0.  1.
<scales pt_clust_3="40.08609" pt_clust_4="43.41374" pt_clust_5="118.39518" pt_clust_6="14000.00000"></scales>
<clustering>
<clus scale="   40.086">  2  3  1 -1</clus>
<clus scale="   43.414">  2  4  1 -1</clus>
<clus scale="  118.395">  2  5  1 -1</clus>
<clus scale="   40.086">  2  3  1 -1</clus>
</clustering>
</event>
<event>
 6    0  0.4017242E+002  0.1487911E+03  0.7546771E-02  0.1201966E+00
          2   -1    0    0  505    0 -0.00000000000E+00  0.00000000000E+00  0.64812536573E+03  0.64812536573E+03  0.00000000000E+00 0. -1.
         21   -1    0    0  501  502  0.00000000000E+00 -0.00000000000E+00 -0.46498253171E+03  0.46498253171E+03  0.00000000000E+00 0. -1.
         21    1    1    2  503  502  0.14260336888E+03  0.43449503022E+01 -0.43592964322E+03  0.45868208298E+03  0.00000000000E+00 0. -1.
         21    1    1    2  504  503 -0.10134699114E+03  0.22912449549E+02  0.27505773304E+03  0.29402882421E+03  0.00000000000E+00 0. -1.
         21    1    1    2  505  504 -0.70437616563E+02 -0.17358339396E+02  0.19105718615E+03  0.20436638215E+03  0.00000000000E+00 0. -1.
          2    1    1    2  501    0  0.29181238825E+02 -0.98990604557E+01  0.15295755805E+03  0.15603060809E+03  0.00000000000E+00 0. -1.
<scales pt_clust_3="143.33501" pt_clust_4="33.98295" pt_clust_5="33.98295" pt_clust_6="30.81454"></scales>
<clustering>
<clus scale="   30.815">  1  6  2 -1</clus>
<clus scale="   33.983">  4  5 -1 -1</clus>
<clus scale="  143.335">  2  3  1 -1</clus>
<clus scale="  143.335">  2  3  1 -1</clus>
</clustering>
</event>
<event>
 6    0  0.4017242E+002  0.6027103E+02  0.7546771E-02  0.1396698E+00
         21   -1    0    0  505  502  0.00000000000E+00  0.00000000000E+00  0.91596908401E+03  0.91596908401E+03  0.00000000000E+00 0. -1.
          4   -1    0    0  504    0 -0.00000000000E+00 -0.00000000000E+00 -0.65985613725E+02  0.65985613725E+02  0.00000000000E+00 0. -1.
         21    1    1    2  503  501 -0.50111722468E+02 -0.27168344011E+01  0.15001450008E+03  0.15818633365E+03  0.00000000000E+00 0.  1.
         21    1    1    2  504  502  0.68108813051E+02  0.88074331413E+02  0.61415780354E+03  0.62416801097E+03  0.00000000000E+00 0. -1.
         21    1    1    2  505  503  0.15002283213E+02 -0.36514786669E+02  0.12348663443E+03  0.12964315265E+03  0.00000000000E+00 0. -1.
          4    1    1    2  501    0 -0.32999373797E+02 -0.48842710343E+02 -0.37675467770E+02  0.69957200461E+02  0.00000000000E+00 0. -1.
<scales pt_clust_3="48.19926" pt_clust_4="60.27103" pt_clust_5="39.47655" pt_clust_6="14000.00000"></scales>
<clustering>
<clus scale="   39.477">  1  5  2 -1</clus>
<clus scale="   48.199">  1  3  2 -1</clus>
<clus scale="   60.271">  1  4  2 -1</clus>
<clus scale="   39.477">  1  3  2 -1</clus>
</clustering>
</event>
<event>
 6    0  0.4017242E+002  0.1144208E+03  0.7546771E-02  0.1252596E+00
          1   -1    0    0  503    0 -0.00000000000E+00  0.00000000000E+00  0.43617310347E+04  0.43617310347E+04  0.00000000000E+00 0. -1.
         21   -1    0    0  505  502  0.00000000000E+00 -0.00000000000E+00 -0.42550118524E+02  0.42550118524E+02  0.00000000000E+00 0. -1.
         21    1    1    2  503  504  0.22322944182E+02 -0.82737545604E+02  0.11416061858E+03  0.14274614575E+03  0.00000000000E+00 0. -1.
         21    1    1    2  504  502  0.50860850504E+02 -0.30860267481E+02  0.10472639875E+03  0.12044418134E+03  0.00000000000E+00 0. -1.
         21    1    1    2  505  501 -0.33045927470E+02  0.23026525662E+02  0.68287136423E+00  0.40283005346E+02  0.00000000000E+00 0. -1.
          1    1    1    2  501    0 -0.40137867216E+02  0.90571287423E+02  0.40996110275E+04  0.41008078208E+04  0.00000000000E+00 0. -1.
<scales pt_clust_3="45.48451" pt_clust_4="45.48451" pt_clust_5="40.27722" pt_clust_6="99.97409"></scales>
<clustering>
<clus scale="   40.277">  2  5  1 -1</clus>
<clus scale="   45.485">  3  4 -1 -1</clus>
<clus scale="   99.974">  1  6  2 -1</clus>
<clus scale="   40.277">  2  3  1 -1</clus>
</clustering>
</event>
<event>
 6    0  0.4017242E+002  0.8216302E+02  0.7546771E-02  0.1323023E+00
         21   -1    0    0  503  502  0.00000000000E+00  0.00000000000E+00  0.89166260425E+03  0.89166260425E+03  0.00000000000E+00 0.  1.
          1   -1    0    0  505    0 -0.00000000000E+00 -0.00000000000E+00 -0.13423762314E+04  0.13423762314E+04  0.00000000000E+00 0.  1.
         21    1    1    2  503  504 -0.21983966445E+02 -0.22725377551E+02  0.21386221799E+03  0.21618692340E+03  0.00000000000E+00 0.  1.
         21    1    1    2  504  501  0.95023793829E+02  0.22167590632E+02  0.20028837763E+03  0.22279218497E+03  0.00000000000E+00 0.  1.
         21    1    1    2  505  502 -0.60756875328E+02  0.51544068144E+02  0.46116330540E+03  0.46799549475E+03  0.00000000000E+00 0.  1.
          1    1    1    2  501    0 -0.12282952055E+02 -0.50986281225E+02 -0.13260275282E+04  0.13270642326E+04  0.00000000000E+00 0.  1.
<scales pt_clust_3="31.61863" pt_clust_4="82.16302" pt_clust_5="14000.00000" pt_clust_6="52.46581"></scales>
<clustering>
<clus scale="   31.619">  1  3  2 -1</clus>
<clus scale="   52.466">  2  6  1 -1</clus>
<clus scale="   82.163">  2  4  1 -1</clus>
<clus scale="   31.619">  1  3  2 -1</clus>
</clustering>
</event>
<event>
 6    0  0.4017242E+002  0.5686574E+02  0.7546771E-02  0.1411476E+00
         21   -1    0    0  505  502  0.00000000000E+00  0.00000000000E+00  0.12431247630E+04  0.12431247630E+04  0.00000000000E+00 0. -1.
          2   -1    0    0  503    0 -0.00000000000E+00 -0.00000000000E+00 -0.56187343018E+03  0.56187343018E+03  0.00000000000E+00 0.  1.
         21    1    1    2  503  504 -0.73137189686E+02  0.14027825465E+02  0.66852290780E+03  0.67265794179E+03  0.00000000000E+00 0. -1.
         21    1    1    2  504  502  0.56337866301E+02  0.30656839944E+01  0.42851498319E+03  0.43221342461E+03  0.00000000000E+00 0. -1.
         21    1    1    2  505  501  0.46248922873E+01 -0.72502102341E+02  0.13132568836E+03  0.15008124765E+03  0.00000000000E+00 0. -1.
          2    1    1    2  501    0  0.12174431097E+02  0.55408592882E+02 -0.54711224648E+03  0.55004557919E+03  0.00000000000E+00 0.  1.
<scales pt_clust_3="31.37806" pt_clust_4="56.42122" pt_clust_5="56.86574" pt_clust_6="14000.00000"></scales>
<clustering>
<clus scale="   56.421">  1  4  2 -1</clus>
<clus scale="   31.378">  1  3  2 -1</clus>
<clus scale="   56.866">  1  5  2 -1</clus>
<clus scale="   56.421">  1  3  2 -1</clus>
</clustering>
</event>
<event>
 6    0  0.4017242E+002  0.1324251E+03  0.7546771E-02  0.1223901E+00
         21   -1    0    0  504  502  0.00000000000E+00  0.00000000000E+00  0.35120576226E+02  0.35120576226E+02  0.00000000000E+00 0. -1.
          2   -1    0    0  503    0 -0.00000000000E+00 -0.00000000000E+00 -0.11865564970E+04  0.11865564970E+04  0.00000000000E+00 0. -1.
         21    1    1    2  503  502 -0.16712376708E+02 -0.26075859370E+02 -0.17502971577E+00  0.30972320103E+02  0.00000000000E+00 0.  1.
         21    1    1    2  504  505  0.72293036807E+02 -0.22980868861E+02 -0.13083893346E+03  0.15123898312E+03  0.00000000000E+00 0. -1.
         21    1    1    2  505  501  0.58922371848E+02 -0.32610445018E+01 -0.17403814142E+03  0.18377093074E+03  0.00000000000E+00 0. -1.
          2    1    1    2  501    0 -0.11450303195E+03  0.52317772733E+02 -0.84638381615E+03  0.85569483925E+03  0.00000000000E+00 0. -1.
<scales pt_clust_3="30.97183" pt_clust_4="32.30293" pt_clust_5="32.30293" pt_clust_6="127.12561"></scales>
<clustering>
<clus scale="   30.972">  1  3  2 -1</clus>
<clus scale="   32.303">  4  5 -1 -1</clus>
<clus scale="  127.126">  2  6  1 -1</clus>
<clus scale="   30.972">  1  3  2 -1</clus>
</clustering>
</event>
<event>
 6    0  0.4017242E+002  0.1927140E+03  0.7546771E-02  0.1156036E+00
          1   -1    0    0  505    0 -0.00000000000E+00  0.00000000000E+00  0.13468135661E+04  0.13468135661E+04  0.00000000000E+00 0. -1.
         21   -1    0    0  501  502  0.00000000000E+00 -0.00000000000E+00 -0.71078708010E+02  0.71078708010E+02  0.00000000000E+00 0. -1.
         21    1    1    2  503  502  0.46968538265E+02 -0.39628039333E+01 -0.20256581276E+02  0.51303766789E+02  0.00000000000E+00 0. -1.
         21    1    1    2  504  503 -0.84959479272E+02  0.14596075790E+03  0.26223278358E+03  0.31191134758E+03  0.00000000000E+00 0. -1.
         21    1    1    2  505  504 -0.28418470108E+02  0.18409639655E+02  0.12627872085E+03  0.13073958702E+03  0.00000000000E+00 0.  1.
          1    1    1    2  501    0  0.66409411115E+02 -0.16040759362E+03  0.90747993496E+03  0.92393757274E+03  0.00000000000E+00 0. -1.
<scales pt_clust_3="47.13542" pt_clust_4="32.05957" pt_clust_5="32.05957" pt_clust_6="178.91953"></scales>
<clustering>
<clus scale="   32.060">  4  5 -1 -1</clus>
<clus scale="   47.135">  2  3  1 -1</clus>
<clus scale="  178.920">  1  6  2 -1</clus>
<clus scale="   47.135">  2  3  1 -1</clus>
</clustering>
</event>
<event>
 6    0  0.4017242E+002  0.1040477E+03  0.7546771E-02  0.1272007E+00
         21   -1    0    0  505  502  0.00000000000E+00  0.00000000000E+00  0.89454101055E+02  0.89454101055E+02  0.00000000000E+00 0.  1.
         -4   -1    0    0    0  501 -0.00000000000E+00 -0.00000000000E+00 -0.72669939782E+03  0.72669939782E+03  0.00000000000E+00 0. -1.
         21    1    1    2  503  502 -0.37932134465E+02 -0.51591838977E+02  0.52465584112E+02  0.82784069665E+02  0.00000000000E+00 0.  1.
         21    1    1    2  504  501 -0.10390223425E+01  0.39175602165E+02 -0.11311934456E+03  0.11971546887E+03  0.00000000000E+00 0. -1.
         21    1    1    2  505  504 -0.61728018311E+02 -0.12148978577E+01 -0.56376677788E+02  0.83607140962E+02  0.00000000000E+00 0.  1.
         -4    1    1    2    0  503  0.10069917512E+03  0.13631134670E+02 -0.52021485853E+03  0.53004681939E+03  0.00000000000E+00 0. -1.
<scales pt_clust_3="104.04767" pt_clust_4="39.18938" pt_clust_5="61.93399" pt_clust_6="14000.00000"></scales>
<clustering>
<clus scale="   39.189">  2  4  1 -1</clus>
<clus scale="   61.934">  1  5  2 -1</clus>
<clus scale="  104.048">  1  3  2 -1</clus>
<clus scale="   61.934">  1  3  2 -1</clus>
</clustering>
</event>
<event>
 6    0  0.4017242E+002  0.1024175E+03  0.7546771E-02  0.1275293E+00
          2   -1    0    0  505    0 -0.00000000000E+00  0.00000000000E+00  0.53674622828E+04  0.53674622828E+04  0.00000000000E+00 0. -1.
         21   -1    0    0  503  502  0.00000000000E+00 -0.00000000000E+00 -0.31711229068E+02  0.31711229068E+02  0.00000000000E+00 0.  1.
         21    1    1    2  503  504  0.28867390150E+02 -0.18499340235E+02  0.26828952431E+00  0.34287370597E+02  0.00000000000E+00 0.  1.
         21    1    1    2  504  501 -0.13169484872E+03  0.14637992488E+02  0.30490756423E+03  0.33245514995E+03  0.00000000000E+00 0. -1.
         21    1    1    2  505  502  0.44005565029E+02 -0.45090550906E+01  0.67371849623E+03  0.67516918879E+03  0.00000000000E+00 0. -1.
          2    1    1    2  501    0  0.58821893537E+02  0.83704028370E+01  0.43568567037E+04  0.43572618025E+04  0.00000000000E+00 0. -1.
<scales pt_clust_3="34.28632" pt_clust_4="102.41745" pt_clust_5="45.75220" pt_clust_6="14000.00000"></scales>
<clustering>
<clus scale="   34.286">  2  3  1 -1</clus>
<clus scale="   45.752">  1  5  2 -1</clus>
<clus scale="  102.417">  2  4  1 -1</clus>
<clus scale="   34.286">  2  3  1 -1</clus>
</clustering>
</event>
<event>
 6    0  0.4017242E+002  0.1147588E+03  0.7546771E-02  0.1252003E+00
          2   -1    0    0  503    0 -0.00000000000E+00  0.00000000000E+00  0.30288027502E+04  0.30288027502E+04  0.00000000000E+00 0. -1.
         21   -1    0    0  504  502  0.00000000000E+00 -0.00000000000E+00 -0.17237335190E+03  0.17237335190E+03  0.00000000000E+00 0. -1.
         21    1    1    2  503  505  0.14859025272E+02  0.86431345252E+02  0.58354830058E+03  0.59010150583E+03  0.00000000000E+00 0. -1.
         21    1    1    2  504  501 -0.11829394043E+03 -0.56743095023E+02  0.17689694887E+02  0.13238640595E+03  0.00000000000E+00 0. -1.
         21    1    1    2  505  502  0.80732700739E+02 -0.60363215815E+02 -0.88828479430E+02  0.13435767767E+03  0.00000000000E+00 0. -1.
          2    1    1    2  501    0  0.22702214416E+02  0.30674965586E+02  0.23440198823E+04  0.23443305127E+04  0.00000000000E+00 0. -1.
<scales pt_clust_3="114.75875" pt_clust_4="14000.00000" pt_clust_5="100.80598" pt_clust_6="38.16208"></scales>
<clustering>
<clus scale="   38.162">  1  6  2 -1</clus>
<clus scale="  100.806">  2  5  1 -1</clus>
<clus scale="  114.759">  1  3  2 -1</clus>
<clus scale="  100.806">  2  3  1 -1</clus>
</clustering>
</event>
<event>
 6    0  0.4017242E+002  0.1931573E+03  0.7546771E-02  0.1155644E+00
         -3   -1    0    0    0  501 -0.00000000000E+00  0.00000000000E+00  0.14209194599E+04  0.14209194599E+04  0.00000000000E+00 0. -1.
         21   -1    0    0  505  502  0.00000000000E+00 -0.00000000000E+00 -0.10513061843E+03  0.10513061843E+03  0.00000000000E+00 0.  1.
         21    1    1    2  503  501 -0.10020018059E+03 -0.16741317960E+03  0.25679827818E+03  0.32250985189E+03  0.00000000000E+00 0.  1.
         21    1    1    2  504  502  0.96145808174E+02 -0.49332219485E+02  0.21199362099E+03  0.23794743043E+03  0.00000000000E+00 0. -1.
         21    1    1    2  505  503 -0.21915093128E+02  0.21998378567E+02 -0.43630589634E+02  0.53552108438E+02  0.00000000000E+00 0.  1.
         -3    1    1    2    0  504  0.25969465547E+02  0.19474702052E+03  0.89062753191E+03  0.91204068754E+03  0.00000000000E+00 0. -1.
<scales pt_clust_3="193.15733" pt_clust_4="101.30694" pt_clust_5="31.05157" pt_clust_6="14000.00000"></scales>
<clustering>
<clus scale="   31.052">  2  5  1 -1</clus>
<clus scale="  101.307">  2  4  1 -1</clus>
<clus scale="  193.157">  2  3  1 -1</clus>
<clus scale="   31.052">  2  3  1 -1</clus>
</clustering>
</event>
<event>
 6    0  0.4017242E+002  0.2335227E+03  0.7546771E-02  0.1124185E+00
          2   -1    0    0  504    0 -0.00000000000E+00  0.00000000000E+00  0.18825940523E+04  0.18825940523E+04  0.00000000000E+00 0. -1.
         21   -1    0    0  503  502  0.00000000000E+00 -0.00000000000E+00 -0.17086689768E+03  0.17086689768E+03  0.00000000000E+00 0. -1.
         21    1    1    2  503  505  0.81632358023E+01 -0.31464591615E+02  0.19242240291E+02  0.37774631113E+02  0.00000000000E+00 0.  1.
         21    1    1    2  504  502 -0.77767114120E+02  0.71433424446E+02 -0.17780648131E+02  0.10708225630E+03  0.00000000000E+00 0. -1.
         21    1    1    2  505  501 -0.16086469193E+03 -0.10040088748E+03  0.80515582957E+01  0.18979624576E+03  0.00000000000E+00 0. -1.
          2    1    1    2  501    0  0.23046857024E+03  0.60432054646E+02  0.17022140042E+04  0.17188078168E+04  0.00000000000E+00 0. -1.
<scales pt_clust_3="32.50629" pt_clust_4="95.29428" pt_clust_5="14000.00000" pt_clust_6="233.52271"></scales>
<clustering>
<clus scale="   32.506">  2  3  1 -1</clus>
<clus scale="   95.294">  2  4  1 -1</clus>
<clus scale="  233.523">  1  6  2 -1</clus>
<clus scale="   32.506">  2  3  1 -1</clus>
</clustering>
</event>
<event>
 6    0  0.4017242E+002  0.9271634E+02  0.7546771E-02  0.1296404E+00
          3   -1    0    0  503    0 -0.00000000000E+00  0.00000000000E+00  0.85980001175E+03  0.85980001175E+03  0.00000000000E+00 0.  1.
         21   -1    0    0  505  502  0.00000000000E+00 -0.00000000000E+00 -0.98687116967E+02  0.98687116967E+02  0.00000000000E+00 0.  1.
         21    1    1    2  503  504 -0.97763160730E+02  0.33440128381E+02  0.11292665104E+03  0.15306307947E+03  0.00000000000E+00 0.  1.
         21    1    1    2  504  502  0.89891024774E+02 -0.12015058494E+02 -0.38953574202E+02  0.98702274080E+02  0.00000000000E+00 0.  1.
         21    1    1    2  505  501  0.35919114700E+02 -0.33097088166E+02  0.53839025317E+02  0.72692782949E+02  0.00000000000E+00 0.  1.
          3    1    1    2  501    0 -0.28046978744E+02  0.11672018279E+02  0.63330079263E+03  0.63402899222E+03  0.00000000000E+00 0.  1.
<scales pt_clust_3="14000.00000" pt_clust_4="92.71634" pt_clust_5="40.96321" pt_clust_6="30.37876"></scales>
<clustering>
<clus scale="   30.379">  1  6  2 -1</clus>
<clus scale="   40.963">  1  5  2 -1</clus>
<clus scale="   92.716">  2  4  1 -1</clus>
<clus scale="   92.716">  2  3  1 -1</clus>
</clustering>
</event>
<event>
 6    0  0.4017242E+002  0.9497868E+02  0.7546771E-02  0.1291224E+00
          1   -1    0    0  504    0 -0.00000000000E+00  0.00000000000E+00  0.15595953291E+04  0.15595953291E+04  0.00000000000E+00 0. -1.
         21   -1    0    0  503  502  0.00000000000E+00 -0.00000000000E+00 -0.20794963744E+02  0.20794963744E+02  0.00000000000E+00 0. -1.
         21    1    1    2  503  505  0.61782759440E+02  0.66850527343E+02  0.17589005297E+03  0.19804901692E+03  0.00000000000E+00 0. -1.
         21    1    1    2  504  502 -0.59350543008E+02 -0.24060181645E+02  0.23330450710E+03  0.24193464475E+03  0.00000000000E+00 0. -1.
         21    1    1    2  505  501 -0.96367190739E+01  0.32641743540E+02  0.67440654673E+02  0.75541986197E+02  0.00000000000E+00 0. -1.
          1    1    1    2  501    0  0.72045026421E+01 -0.75432089237E+02  0.10621651506E+04  0.10648646450E+04  0.00000000000E+00 0. -1.
<scales pt_clust_3="33.62664" pt_clust_4="64.04201" pt_clust_5="33.62664" pt_clust_6="77.43815"></scales>
<clustering>
<clus scale="   33.627">  3  5 -1 -1</clus>
<clus scale="   64.042">  2  4  1 -1</clus>
<clus scale="   77.438">  1  6  2 -1</clus>
<clus scale="   64.042">  2  3  1 -1</clus>
</clustering>
</event>
<event>
 6    0  0.4017242E+002  0.7451948E+02  0.7546771E-02  0.1345366E+00
         21   -1    0    0  503  502  0.00000000000E+00  0.00000000000E+00  0.30883894969E+03  0.30883894969E+03  0.00000000000E+00 0. -1.
          2   -1    0    0  504    0 -0.00000000000E+00 -0.00000000000E+00 -0.10127083485E+03  0.10127083485E+03  0.00000000000E+00 0. -1.
         21    1    1    2  503  501  0.20916953435E+02 -0.65421079999E+02  0.97930394344E+02  0.11961521135E+03  0.00000000000E+00 0. -1.
         21    1    1    2  504  505 -0.61710433230E+02  0.10788503252E+02  0.61634920254E+02  0.87883063024E+02  0.00000000000E+00 0. -1.
         21    1    1    2  505  502  0.20866699557E+02  0.88783425744E+02  0.10126263583E+03  0.13627926201E+03  0.00000000000E+00 0. -1.
          2    1    1    2  501    0  0.19926780238E+02 -0.34150848997E+02 -0.53259835590E+02  0.66332248152E+02  0.00000000000E+00 0. -1.
<scales pt_clust_3="14000.00000" pt_clust_4="55.40491" pt_clust_5="74.51948" pt_clust_6="39.53931"></scales>
<clustering>
<clus scale="   39.539">  2  6  1 -1</clus>
<clus scale="   55.405">  2  4  1 -1</clus>
<clus scale="   74.519">  2  5  1 -1</clus>
<clus scale="   74.519">  1  3  2 -1</clus>
</clustering>
</event>
<event>
 6    0  0.4017242E+002  0.9454782E+02  0.7546771E-02  0.1292198E+00
         21   -1    0    0  505  502  0.00000000000E+00  0.00000000000E+00  0.46050299166E+03  0.46050299166E+03  0.00000000000E+00 0. -1.
         -1   -1    0    0    0  501 -0.00000000000E+00 -0.00000000000E+00 -0.40224816378E+03  0.40224816378E+03  0.00000000000E+00 0. -1.
         21    1    1    2  503  502  0.53119231954E+02  0.20847232707E+02  0.34099255413E+03  0.34573426485E+03  0.00000000000E+00 0. -1.
         21    1    1    2  504  503 -0.60078304062E+02  0.28106384697E+02  0.69249344089E+02  0.95889744689E+02  0.00000000000E+00 0. -1.
         21    1    1    2  505  501 -0.16555070582E+02  0.46959037808E+02  0.56453922309E+01  0.50110797711E+02  0.00000000000E+00 0. -1.
         -1    1    1    2    0  504  0.23514142691E+02 -0.95912655212E+02 -0.35763246257E+03  0.37101634819E+03  0.00000000000E+00 0. -1.
<scales pt_clust_3="70.54096" pt_clust_4="94.54782" pt_clust_5="49.79178" pt_clust_6="14000.00000"></scales>
<clustering>
<clus scale="   49.792">  1  5  2 -1</clus>
<clus scale="   70.541">  1  3  2 -1</clus>
<clus scale="   94.548">  1  4  2 -1</clus>
<clus scale="   49.792">  1  3  2 -1</clus>
</clustering>
</event>
<event>
 6    0  0.4017242E+002  0.1287329E+03  0.7546771E-02  0.1229348E+00
          4   -1    0    0  502    0 -0.00000000000E+00  0.00000000000E+00  0.18805326423E+03  0.18805326423E+03  0.00000000000E+00 0.  1.
         21   -1    0    0  503  502  0.00000000000E+00 -0.00000000000E+00 -0.37898568468E+03  0.37898568468E+03  0.00000000000E+00 0. -1.
         21    1    1    2  503  505 -0.45657374413E+02  0.77487571696E+01 -0.17756539251E+03  0.18350506177E+03  0.00000000000E+00 0. -1.
         21    1    1    2  504  501 -0.36441951942E+02  0.38404036721E+02 -0.56673546164E+02  0.77554991668E+02  0.00000000000E+00 0. -1.
         21    1    1    2  505  504 -0.17812960222E+02  0.32909814583E+02 -0.10440543648E+03  0.11090920888E+03  0.00000000000E+00 0. -1.
          4    1    1    2  501    0  0.99912286578E+02 -0.79062608474E+02  0.14771195470E+03  0.19506968660E+03  0.00000000000E+00 0.  1.
<scales pt_clust_3="46.31025" pt_clust_4="33.02548" pt_clust_5="33.02548" pt_clust_6="122.59321"></scales>
<clustering>
<clus scale="   33.025">  4  5 -1 -1</clus>
<clus scale="   46.310">  2  3  1 -1</clus>
<clus scale="  122.593">  1  6  2 -1</clus>
<clus scale="   46.310">  2  3  1 -1</clus>
</clustering>
</event>
<event>
 6    0  0.4017242E+002  0.1317504E+03  0.7546771E-02  0.1224881E+00
          1   -1    0    0  502    0 -0.00000000000E+00  0.00000000000E+00  0.48385021129E+03  0.48385021129E+03  0.00000000000E+00 0.  1.
         21   -1    0    0  504  502  0.00000000000E+00 -0.00000000000E+00 -0.14870393726E+03  0.14870393726E+03  0.00000000000E+00 0.  1.
         21    1    1    2  503  505  0.31191035735E+02  0.34567223327E+02  0.63964026448E+02  0.79114918431E+02  0.00000000000E+00 0.  1.
         21    1    1    2  504  503 -0.51041551273E+02 -0.28142739101E+02 -0.93860316664E+02  0.11048535091E+03  0.00000000000E+00 0.  1.
         21    1    1    2  505  501  0.17218965823E+02  0.10760549470E+03  0.77807403674E+02  0.13390081157E+03  0.00000000000E+00 0.  1.
          1    1    1    2  501    0  0.26315497146E+01 -0.11402997893E+03  0.28723516057E+03  0.30905306764E+03  0.00000000000E+00 0.  1.
<scales pt_clust_3="34.08959" pt_clust_4="58.28597" pt_clust_5="34.08959" pt_clust_6="120.98854"></scales>
<clustering>
<clus scale="   34.090">  3  5 -1 -1</clus>
<clus scale="   58.286">  2  4  1 -1</clus>
<clus scale="  120.989">  1  6  2 -1</clus>
<clus scale="   58.286">  2  3  1 -1</clus>
</clustering>
</event>
<event>
 6    0  0.4017242E+002  0.8570192E+02  0.7546771E-02  0.1313607E+00
         21   -1    0    0  503  502  0.00000000000E+00  0.00000000000E+00  0.24179347314E+02  0.24179347314E+02  0.00000000000E+00 0. -1.
          1   -1    0    0  504    0 -0.00000000000E+00 -0.00000000000E+00 -0.99887296708E+03  0.99887296708E+03  0.00000000000E+00 0.  1.
         21    1    1    2  503  501  0.87626275009E+02  0.74694116519E+02 -0.36810376988E+03  0.38569153545E+03  0.00000000000E+00 0. -1.
         21    1    1    2  504  505 -0.17422724442E+02 -0.35344435286E+02 -0.19507356943E+03  0.19901376315E+03  0.00000000000E+00 0.  1.
         21    1    1    2  505  502  0.42641889984E+01 -0.51093533535E+02 -0.60391630931E+02  0.79220461772E+02  0.00000000000E+00 0. -1.
          1    1    1    2  501    0 -0.74467739565E+02  0.11743852302E+02 -0.35112464952E+03  0.35912655402E+03  0.00000000000E+00 0.  1.
<scales pt_clust_3="85.70192" pt_clust_4="39.40534" pt_clust_5="54.24019" pt_clust_6="14000.00000"></scales>
<clustering>
<clus scale="   39.405">  2  4  1 -1</clus>
<clus scale="   54.240">  1  5  2 -1</clus>
<clus scale="   85.702">  1  3  2 -1</clus>
<clus scale="   54.240">  1  3  2 -1</clus>
</clustering>
</event>
<event>
 6    0  0.4017242E+002  0.6446156E+02  0.7546771E-02  0.1380008E+00
         21   -1    0    0  503  502  0.00000000000E+00  0.00000000000E+00  0.44353501860E+03  0.44353501860E+03  0.00000000000E+00 0. -1.
         -2   -1    0    0    0  501 -0.00000000000E+00 -0.00000000000E+00 -0.84055258165E+02  0.84055258165E+02  0.00000000000E+00 0. -1.
         21    1    1    2  503  505 -0.39356887960E+02 -0.58826839236E+02  0.21385570462E+03  0.22526389867E+03  0.00000000000E+00 0. -1.
         21    1    1    2  504  502 -0.26581651071E+02  0.42081744073E+02  0.59190076550E+02  0.77336424276E+02  0.00000000000E+00 0. -1.
         21    1    1    2  505  501  0.79167809949E+02 -0.44070388571E+02  0.12302681006E+03  0.15279181024E+03  0.00000000000E+00 0.  1.
         -2    1    1    2    0  504 -0.13229270918E+02  0.60815483735E+02 -0.36592830800E+02  0.72198143583E+02  0.00000000000E+00 0. -1.
<scales pt_clust_3="14000.00000" pt_clust_4="49.77406" pt_clust_5="61.71998" pt_clust_6="64.46156"></scales>
<clustering>
<clus scale="   49.774">  1  4  2 -1</clus>
<clus scale="   64.462">  2  6  1 -1</clus>
<clus scale="   61.720">  2  5  1 -1</clus>
<clus scale="   49.774">  1  3  2 -1</clus>
</clustering>
</event>
<event>
 6    0  0.4017242E+002  0.2394779E+03  0.7546771E-02  0.1120141E+00
          1   -1    0    0  505    0 -0.00000000000E+00  0.00000000000E+00  0.10185812137E+04  0.10185812137E+04  0.00000000000E+00 0.  1.
         21   -1    0    0  501  502  0.00000000000E+00 -0.00000000000E+00 -0.61773599419E+03  0.61773599419E+03  0.00000000000E+00 0.  1.
         21    1    1    2  503  504  0.12947575638E+03 -0.13299727831E+03 -0.43275784172E+03  0.47088384672E+03  0.00000000000E+00 0.  1.
         21    1    1    2  504  502  0.41481879698E+02 -0.17791378435E+02 -0.47958819946E+02  0.65858392787E+02  0.00000000000E+00 0. -1.
         21    1    1    2  505  503 -0.21522797197E+03  0.10483524503E+03  0.25072228171E+02  0.24071170546E+03  0.00000000000E+00 0.  1.
          1    1    1    2  501    0  0.44270335886E+02  0.45953411708E+02  0.85648965297E+03  0.85886326288E+03  0.00000000000E+00 0.  1.
<scales pt_clust_3="35.00847" pt_clust_4="35.00847" pt_clust_5="228.71307" pt_clust_6="63.80892"></scales>
<clustering>
<clus scale="   35.008">  3  4 -1 -1</clus>
<clus scale="   63.809">  1  6  2 -1</clus>
<clus scale="  228.713">  1  5  2 -1</clus>
<clus scale="  239.478">  2  3  1 -1</clus>
</clustering>
</event>
<event>
 6    0  0.4017242E+002  0.1381844E+03  0.7546771E-02  0.1215793E+00
          1   -1    0    0  503    0 -0.00000000000E+00  0.00000000000E+00  0.27759216428E+04  0.27759216428E+04  0.00000000000E+00 0. -1.
         21   -1    0    0  504  502  0.00000000000E+00 -0.00000000000E+00 -0.49811553954E+02  0.49811553954E+02  0.00000000000E+00 0. -1.
         21    1    1    2  503  505  0.59470924262E+02  0.11142806204E+03  0.12815312330E+03  0.17993395136E+03  0.00000000000E+00 0. -1.
         21    1    1    2  504  501 -0.34917375560E+02 -0.16457065390E+03  0.34161124872E+03  0.38078992699E+03  0.00000000000E+00 0. -1.
         21    1    1    2  505  502 -0.29913893045E+02  0.75604187562E+01  0.54059617635E+02  0.62245025405E+02  0.00000000000E+00 0.  1.
          1    1    1    2  501    0  0.53603443429E+01  0.45582173105E+02  0.22022860992E+04  0.22027642930E+04  0.00000000000E+00 0. -1.
<scales pt_clust_3="138.18445" pt_clust_4="14000.00000" pt_clust_5="30.85451" pt_clust_6="45.91755"></scales>
<clustering>
<clus scale="   30.855">  2  5  1 -1</clus>
<clus scale="   45.918">  1  6  2 -1</clus>
<clus scale="  138.184">  2  3  1 -1</clus>
<clus scale="   30.855">  2  3  1 -1</clus>
</clustering>
</event>
<event>
 6    0  0.4017242E+002  0.1563700E+03  0.7546771E-02  0.1192857E+00
         21   -1    0    0  505  502  0.00000000000E+00  0.00000000000E+00  0.29741632739E+03  0.29741632739E+03  0.00000000000E+00 0.  1.
          4   -1    0    0  503    0 -0.00000000000E+00 -0.00000000000E+00 -0.22691536040E+04  0.22691536040E+04  0.00000000000E+00 0.  1.
         21    1    1    2  503  504 -0.34940421853E+02  0.59906823180E+02 -0.83539768660E+02  0.10857510530E+03  0.00000000000E+00 0.  1.
         21    1    1    2  504  502  0.72488355202E+01  0.84982636712E+02  0.24877441206E+03  0.26298916757E+03  0.00000000000E+00 0.  1.
         21    1    1    2  505  501  0.22378149972E+02 -0.22379599837E+03 -0.42185157376E+03  0.47806294645E+03  0.00000000000E+00 0.  1.
          4    1    1    2  501    0  0.53134363606E+01  0.78906538480E+02 -0.17151203462E+04  0.17169427121E+04  0.00000000000E+00 0.  1.
<scales pt_clust_3="69.35172" pt_clust_4="85.47684" pt_clust_5="156.37004" pt_clust_6="14000.00000"></scales>
<clustering>
<clus scale="   69.352">  2  3  1 -1</clus>
<clus scale="   85.477">  1  4  2 -1</clus>
<clus scale="  156.370">  1  5  2 -1</clus>
<clus scale="   85.477">  1  3  2 -1</clus>
</clustering>
</event>
<event>
 6    0  0.4017242E+002  0.1162406E+03  0.7546771E-02  0.1249431E+00
          3   -1    0    0  503    0 -0.00000000000E+00  0.00000000000E+00  0.26593042518E+04  0.26593042518E+04  0.00000000000E+00 0.  1.
         21   -1    0    0  505  502  0.00000000000E+00 -0.00000000000E+00 -0.53750470746E+02  0.53750470746E+02  0.00000000000E+00 0.  1.
         21    1    1    2  503  504  0.74147726197E+01  0.73562591351E+02  0.16420144853E+03  0.18007928642E+03  0.00000000000E+00 0.  1.
         21    1    1    2  504  502 -0.45248507599E+02  0.23803496625E+02  0.96517738416E+02  0.10922320138E+03  0.00000000000E+00 0.  1.
         21    1    1    2  505  501  0.46063024669E+02 -0.17250008103E+03  0.16657891260E+03  0.24418561448E+03  0.00000000000E+00 0.  1.
          3    1    1    2  501    0 -0.82292896899E+01  0.75133993054E+02  0.21782556815E+04  0.21795666203E+04  0.00000000000E+00 0.  1.
<scales pt_clust_3="116.24061" pt_clust_4="51.12762" pt_clust_5="14000.00000" pt_clust_6="75.98093"></scales>
<clustering>
<clus scale="   51.128">  2  4  1 -1</clus>
<clus scale="   75.981">  1  6  2 -1</clus>
<clus scale="  116.241">  1  3  2 -1</clus>
<clus scale="   51.128">  2  3  1 -1</clus>
</clustering>
</event>
<event>
 6    0  0.4017242E+002  0.1488738E+03  0.7546771E-02  0.1201864E+00
         21   -1    0    0  504  502  0.00000000000E+00  0.00000000000E+00  0.59890888465E+03  0.59890888465E+03  0.00000000000E+00 0.  1.
          2   -1    0    0  505    0 -0.00000000000E+00 -0.00000000000E+00 -0.64879489134E+03  0.64879489134E+03  0.00000000000E+00 0.  1.
         21    1    1    2  503  501  0.32554273641E+02 -0.10587323618E+02  0.13951891674E+03  0.14365723192E+03  0.00000000000E+00 0.  1.
         21    1    1    2  504  503  0.29187808703E+02 -0.11151883037E+03  0.43336911444E+03  0.44843858782E+03  0.00000000000E+00 0.  1.
         21    1    1    2  505  502 -0.58320778456E+01  0.51529184504E+02 -0.38885277371E+02  0.64817704247E+02  0.00000000000E+00 0.  1.
          2    1    1    2  501    0 -0.55910004498E+02  0.70576969479E+02 -0.58388876050E+03  0.59079025200E+03  0.00000000000E+00 0.  1.
<scales pt_clust_3="32.94442" pt_clust_4="32.94442" pt_clust_5="51.85817" pt_clust_6="136.04650"></scales>
<clustering>
<clus scale="   32.944">  3  4 -1 -1</clus>
<clus scale="   51.858">  2  5  1 -1</clus>
<clus scale="  136.046">  2  6  1 -1</clus>
<clus scale="  148.874">  1  3  2 -1</clus>
</clustering>
</event>
<event>
 6    0  0.4017242E+002  0.1279838E+03  0.7546771E-02  0.1230479E+00
          2   -1    0    0  503    0 -0.00000000000E+00  0.00000000000E+00  0.18059742436E+03  0.18059742436E+03  0.00000000000E+00 0. -1.
         21   -1    0    0  504  502  0.00000000000E+00 -0.00000000000E+00 -0.48247751020E+03  0.48247751020E+03  0.00000000000E+00 0. -1.
         21    1    1    2  503  502 -0.32270233122E+02  0.60560711276E+02 -0.20179090624E+03  0.21313971366E+03  0.00000000000E+00 0.  1.
         21    1    1    2  504  505 -0.50541633302E+02 -0.30633241413E-02 -0.17927111366E+03  0.18625946661E+03  0.00000000000E+00 0. -1.
         21    1    1    2  505  501 -0.50415293082E+02 -0.19371357616E+02 -0.49990430285E+02  0.73593439874E+02  0.00000000000E+00 0. -1.
          2    1    1    2  501    0  0.13322715951E+03 -0.41186290336E+02  0.12917236435E+03  0.19008231442E+03  0.00000000000E+00 0. -1.
<scales pt_clust_3="127.98375" pt_clust_4="50.54163" pt_clust_5="63.84538" pt_clust_6="14000.00000"></scales>
<clustering>
<clus scale="   50.542">  2  4  1 -1</clus>
<clus scale="   63.845">  2  5  1 -1</clus>
<clus scale="  127.984">  2  3  1 -1</clus>
<clus scale="   50.542">  2  3  1 -1</clus>
</clustering>
</event>
<event>
 6    0  0.4017242E+002  0.1175463E+03  0.7546771E-02  0.1247201E+00
          1   -1    0    0  505    0 -0.00000000000E+00  0.00000000000E+00  0.94427197731E+03  0.94427197731E+03  0.00000000000E+00 0.  1.
         21   -1    0    0  504  502  0.00000000000E+00 -0.00000000000E+00 -0.12119270334E+03  0.12119270334E+03  0.00000000000E+00 0.  1.
         21    1    1    2  503  502  0.29362435391E+02  0.16696267294E+02 -0.32545044001E+02  0.46905200593E+02  0.00000000000E+00 0.  1.
         21    1    1    2  504  501 -0.18817838882E+02 -0.39500411270E+02 -0.25487162940E+02  0.50635847237E+02  0.00000000000E+00 0.  1.
         21    1    1    2  505  503  0.10019329140E+03 -0.21521908945E+02  0.27617352221E+02  0.10613484983E+03  0.00000000000E+00 0.  1.
          1    1    1    2  501    0 -0.11073788790E+03  0.44326052921E+02  0.85349412869E+03  0.86178878299E+03  0.00000000000E+00 0.  1.
<scales pt_clust_3="33.77748" pt_clust_4="32.10754" pt_clust_5="117.54634" pt_clust_6="14000.00000"></scales>
<clustering>
<clus scale="   33.777">  2  3  1 -1</clus>
<clus scale="   32.108">  2  4  1 -1</clus>
<clus scale="  117.546">  2  5  1 -1</clus>
<clus scale="   33.777">  2  3  1 -1</clus>
</clustering>
</event>
<event>
 6    0  0.4017242E+002  0.8252247E+02  0.7546771E-02  0.1322042E+00
         21   -1    0    0  503  502  0.00000000000E+00  0.00000000000E+00  0.78878796795E+03  0.78878796795E+03  0.00000000000E+00 0.  1.
         -2   -1    0    0    0  501 -0.00000000000E+00 -0.00000000000E+00 -0.77496890266E+02  0.77496890266E+02  0.00000000000E+00 0.  1.
         21    1    1    2  503  505  0.35598307311E+02 -0.23904813905E+02  0.17931387884E+03  0.18436959282E+03  0.00000000000E+00 0.  1.
         21    1    1    2  504  502 -0.22634270622E+02  0.27967690896E+02  0.12151708137E+03  0.12673161802E+03  0.00000000000E+00 0. -1.
         21    1    1    2  505  501 -0.31461212918E+02 -0.84120296361E+02  0.45358274328E+03  0.46238872952E+03  0.00000000000E+00 0.  1.
         -2    1    1    2    0  504  0.18497176229E+02  0.80057419371E+02 -0.43122625811E+02  0.92794917865E+02  0.00000000000E+00 0.  1.
<scales pt_clust_3="33.59877" pt_clust_4="35.97919" pt_clust_5="82.52247" pt_clust_6="14000.00000"></scales>
<clustering>
<clus scale="   35.979">  1  4  2 -1</clus>
<clus scale="   33.599">  1  3  2 -1</clus>
<clus scale="   82.522">  1  5  2 -1</clus>
<clus scale="   35.979">  1  3  2 -1</clus>
</clustering>
</event>
<event>
 6    0  0.4017242E+002  0.1194715E+03  0.7546771E-02  0.1243972E+00
          2   -1    0    0  503    0 -0.00000000000E+00  0.00000000000E+00  0.17984138924E+04  0.17984138924E+04  0.00000000000E+00 0. -1.
         21   -1    0    0  505  502  0.00000000000E+00 -0.00000000000E+00 -0.20923279906E+02  0.20923279906E+02  0.00000000000E+00 0.  1.
         21    1    1    2  503  502 -0.46646315279E+02  0.10847118779E+03  0.33857756311E+03  0.35857585466E+03  0.00000000000E+00 0.  1.
         21    1    1    2  504  501  0.47309807247E+02 -0.25277042586E+02  0.22217717958E+03  0.22856037686E+03  0.00000000000E+00 0.  1.
         21    1    1    2  505  504  0.50193878965E+02 -0.43567163211E+02  0.15678567216E+03  0.17029172085E+03  0.00000000000E+00 0.  1.
          2    1    1    2  501    0 -0.50857370933E+02 -0.39626981992E+02  0.10599501977E+04  0.10619092200E+04  0.00000000000E+00 0. -1.
<scales pt_clust_3="114.23560" pt_clust_4="31.42506" pt_clust_5="31.42506" pt_clust_6="64.47302"></scales>
<clustering>
<clus scale="   31.425">  4  5 -1 -1</clus>
<clus scale="   64.473">  1  6  2 -1</clus>
<clus scale="  114.236">  2  3  1 -1</clus>
<clus scale="  114.236">  2  3  1 -1</clus>
</clustering>
</event>
<event>
 6    0  0.4017242E+002  0.7858341E+02  0.7546771E-02  0.1333120E+00
          2   -1    0    0  503    0 -0.00000000000E+00  0.00000000000E+00  0.40224174971E+03  0.40224174971E+03  0.00000000000E+00 0. -1.
         21   -1    0    0  505  502  0.00000000000E+00 -0.00000000000E+00 -0.82058999479E+02  0.82058999479E+02  0.00000000000E+00 0. -1.
         21    1    1    2  503  502 -0.26978219292E+02  0.31652007537E+02  0.49507183062E+02  0.64657830710E+02  0.00000000000E+00 0. -1.
         21    1    1    2  504  501  0.65443248480E+02  0.94315947881E+02  0.45109990073E+02  0.12334191502E+03  0.00000000000E+00 0. -1.
         21    1    1    2  505  504 -0.11301021838E+02 -0.64894933127E+02  0.52630072637E+01  0.66081500328E+02  0.00000000000E+00 0. -1.
          2    1    1    2  501    0 -0.27164007350E+02 -0.61073022292E+02  0.22030256983E+03  0.23021950313E+03  0.00000000000E+00 0. -1.
<scales pt_clust_3="41.58935" pt_clust_4="14000.00000" pt_clust_5="78.58341" pt_clust_6="60.31481"></scales>
<clustering>
<clus scale="   41.589">  1  3  2 -1</clus>
<clus scale="   60.315">  1  6  2 -1</clus>
<clus scale="   78.583">  2  5  1 -1</clus>
<clus scale="   78.583">  2  3  1 -1</clus>
</clustering>
</event>
<event>
 6    0  0.4017242E+002  0.1323810E+03  0.7546771E-02  0.1223965E+00
          1   -1    0    0  504    0 -0.00000000000E+00  0.00000000000E+00  0.35624134552E+03  0.35624134552E+03  0.00000000000E+00 0.  1.
         21   -1    0    0  505  502  0.00000000000E+00 -0.00000000000E+00 -0.49763220954E+03  0.49763220954E+03  0.00000000000E+00 0. -1.
         21    1    1    2  503  501  0.76820004889E+02 -0.62203115231E+02  0.10666807793E+03  0.14542564954E+03  0.00000000000E+00 0.  1.
         21    1    1    2  504  502 -0.97449711798E+02  0.52263373936E+02  0.10140831026E+03  0.15003850164E+03  0.00000000000E+00 0.  1.
         21    1    1    2  505  503 -0.54701564872E+01  0.35118399327E+02 -0.45006928197E+03  0.45147046765E+03  0.00000000000E+00 0. -1.
          1    1    1    2  501    0  0.26099863396E+02 -0.25178658033E+02  0.10060202977E+03  0.10693893623E+03  0.00000000000E+00 0.  1.
<scales pt_clust_3="30.27898" pt_clust_4="122.57981" pt_clust_5="35.54187" pt_clust_6="30.27898"></scales>
<clustering>
<clus scale="   30.279">  3  6 -1 -1</clus>
<clus scale="   35.542">  2  5  1 -1</clus>
<clus scale="  122.580">  2  4  1 -1</clus>
<clus scale="   35.542">  2  3  1 -1</clus>
</clustering>
</event>
<event>
 6    0  0.4017242E+002  0.1218167E+03  0.7546771E-02  0.1240130E+00
         21   -1    0    0  505  502  0.00000000000E+00  0.00000000000E+00  0.13741237825E+03  0.13741237825E+03  0.00000000000E+00 0. -1.
          1   -1    0    0  503    0 -0.00000000000E+00 -0.00000000000E+00 -0.87400527101E+03  0.87400527101E+03  0.00000000000E+00 0.  1.
         21    1    1    2  503  504 -0.21292976994E+02 -0.24911781219E+02 -0.84736824089E+02  0.90853272200E+02  0.00000000000E+00 0. -1.
         21    1    1    2  504  502  0.53138611552E+02 -0.22888939282E+02 -0.53616290960E+02  0.78881697721E+02  0.00000000000E+00 0.  1.
         21    1    1    2  505  501  0.70669296077E+02  0.53798178642E+02  0.10125608401E+03  0.13468922741E+03  0.00000000000E+00 0. -1.
          1    1    1    2  501    0 -0.10251493064E+03 -0.59974581413E+01 -0.69949586171E+03  0.70699345192E+03  0.00000000000E+00 0.  1.
<scales pt_clust_3="32.77175" pt_clust_4="57.10211" pt_clust_5="121.81672" pt_clust_6="14000.00000"></scales>
<clustering>
<clus scale="   32.772">  2  3  1 -1</clus>
<clus scale="   57.102">  1  4  2 -1</clus>
<clus scale="  121.817">  1  5  2 -1</clus>
<clus scale="   57.102">  1  3  2 -1</clus>
</clustering>
</event>
<event>
 6    0  0.4017242E+002  0.1300996E+03  0.7546771E-02  0.1227308E+00
         21   -1    0    0  505  502  0.00000000000E+00  0.00000000000E+00  0.28035832383E+02  0.28035832383E+02  0.00000000000E+00 0. -1.
          2   -1    0    0  504    0 -0.00000000000E+00 -0.00000000000E+00 -0.27503243236E+04  0.27503243236E+04  0.00000000000E+00 0.  1.
         21    1    1    2  503  501 -0.64751375685E+02 -0.41468570188E+02 -0.11494627852E+03  0.13829327501E+03  0.00000000000E+00 0. -1.
         21    1    1    2  504  502  0.92053512526E+02  0.13520849331E+02 -0.34463811092E+03  0.35697631579E+03  0.00000000000E+00 0. -1.
         21    1    1    2  505  503 -0.69198716084E+02  0.11659625464E+02 -0.11366885064E+03  0.13358524162E+03  0.00000000000E+00 0.  1.
          2    1    1    2  501    0  0.41896579243E+02  0.16288095393E+02 -0.21490352511E+04  0.21495053235E+04  0.00000000000E+00 0.  1.
<scales pt_clust_3="51.02926" pt_clust_4="118.76047" pt_clust_5="51.02926" pt_clust_6="44.95137"></scales>
<clustering>
<clus scale="   44.951">  2  6  1 -1</clus>
<clus scale="   51.029">  3  5 -1 -1</clus>
<clus scale="  118.760">  2  4  1 -1</clus>
<clus scale="  130.100">  1  3  2 -1</clus>
</clustering>
</event>
<event>
 6    0  0.4017242E+002  0.1368996E+03  0.7546771E-02  0.1217563E+00
          2   -1    0    0  505    0 -0.00000000000E+00  0.00000000000E+00  0.13194817652E+04  0.13194817652E+04  0.00000000000E+00 0.  1.
         21   -1    0    0  503  502  0.00000000000E+00 -0.00000000000E+00 -0.12071581438E+03  0.12071581438E+03  0.00000000000E+00 0. -1.
         21    1    1    2  503  504 -0.47191527685E+02 -0.12937618456E+03 -0.44623097790E+02  0.14476345627E+03  0.00000000000E+00 0. -1.
         21    1    1    2  504  501  0.73994935421E+02  0.11405134487E+03  0.21375684010E+03  0.25332774508E+03  0.00000000000E+00 0. -1.
         21    1    1    2  505  502 -0.60252729901E+01 -0.43960265799E+02  0.89673264084E+02  0.10005050312E+03  0.00000000000E+00 0.  1.
          2    1    1    2  501    0 -0.20778134746E+02  0.59285105485E+02  0.93995894445E+03  0.94205587513E+03  0.00000000000E+00 0.  1.
<scales pt_clust_3="136.89964" pt_clust_4="14000.00000" pt_clust_5="44.37126" pt_clust_6="36.00149"></scales>
<clustering>
<clus scale="   44.371">  1  5  2 -1</clus>
<clus scale="   36.001">  1  6  2 -1</clus>
<clus scale="  136.900">  2  3  1 -1</clus>
<clus scale="  136.900">  2  3  1 -1</clus>
</clustering>
</event>
<event>
 6    0  0.4017242E+002  0.1105424E+03  0.7546771E-02  0.1259569E+00
          2   -1    0    0  504    0 -0.00000000000E+00  0.00000000000E+00  0.18790411049E+04  0.18790411049E+04  0.00000000000E+00 0.  1.
         21   -1    0    0  501  502  0.00000000000E+00 -0.00000000000E+00 -0.13744247751E+03  0.13744247751E+03  0.00000000000E+00 0. -1.
         21    1    1    2  503  505 -0.59347186516E+01 -0.43987938629E+02  0.10698815809E+02  0.45657685991E+02  0.00000000000E+00 0. -1.
         21    1    1    2  504  503  0.53162725482E+02 -0.77668850943E+02  0.61563001274E+02  0.11246656798E+03  0.00000000000E+00 0. -1.
         21    1    1    2  505  502 -0.22389620569E+02  0.28601624928E+02 -0.89654589456E+02  0.96733104304E+02  0.00000000000E+00 0. -1.
          2    1    1    2  501    0 -0.24838386261E+02  0.93055164644E+02  0.17589913998E+04  0.17616262241E+04  0.00000000000E+00 0.  1.
<scales pt_clust_3="36.01639" pt_clust_4="36.01639" pt_clust_5="36.32283" pt_clust_6="97.30867"></scales>
<clustering>
<clus scale="   36.016">  3  4 -1 -1</clus>
<clus scale="   36.323">  2  5  1 -1</clus>
<clus scale="   97.309">  1  6  2 -1</clus>
<clus scale="   36.323">  2  3  1 -1</clus>
</clustering>
</event>
<event>
 6    0  0.4017242E+002  0.2493786E+03  0.7546771E-02  0.1113698E+00
         21   -1    0    0  504  502  0.00000000000E+00  0.00000000000E+00  0.19143210057E+03  0.19143210057E+03  0.00000000000E+00 0. -1.
          2   -1    0    0  505    0 -0.00000000000E+00 -0.00000000000E+00 -0.16139714370E+04  0.16139714370E+04  0.00000000000E+00 0. -1.
         21    1    1    2  503  501 -0.81731527913E+02  0.14604467099E+03  0.15911940763E+02  0.16811388533E+03  0.00000000000E+00 0. -1.
         21    1    1    2  504  503 -0.76757828193E+01  0.88944464738E+02 -0.30720424748E+02  0.94412816641E+02  0.00000000000E+00 0. -1.
         21    1    1    2  505  502 -0.21577884633E+02 -0.25320474682E+02  0.53235304043E+02  0.62775227120E+02  0.00000000000E+00 0. -1.
          2    1    1    2  501    0  0.11098519537E+03 -0.20966866105E+03 -0.14609661564E+04  0.14801016084E+04  0.00000000000E+00 0. -1.
<scales pt_clust_3="53.49871" pt_clust_4="53.49871" pt_clust_5="33.26757" pt_clust_6="238.12240"></scales>
<clustering>
<clus scale="   33.268">  1  5  2 -1</clus>
<clus scale="   53.499">  3  4 -1 -1</clus>
<clus scale="  238.122">  2  6  1 -1</clus>
<clus scale="   33.268">  1  3  2 -1</clus>
</clustering>
</event>
<event>
 6    0  0.4017242E+002  0.1327122E+03  0.7546771E-02  0.1223486E+00
         21   -1    0    0  501  502  0.00000000000E+00  0.00000000000E+00  0.26493677551E+02  0.26493677551E+02  0.00000000000E+00 0. -1.
          2   -1    0    0  504    0 -0.00000000000E+00 -0.00000000000E+00 -0.90788274324E+03  0.90788274324E+03  0.00000000000E+00 0. -1.
         21    1    1    2  503  505  0.40839706029E+02  0.47572322470E+02 -0.12423745068E+03  0.13916160248E+03  0.00000000000E+00 0. -1.
         21    1    1    2  504  503 -0.11183381652E+02  0.29645470113E+02 -0.23544251938E+03  0.23756494240E+03  0.00000000000E+00 0. -1.
         21    1    1    2  505  502  0.48027141068E+02  0.32476147531E+02 -0.21698458177E+03  0.22459656089E+03  0.00000000000E+00 0. -1.
          2    1    1    2  501    0 -0.77683465445E+02 -0.10969394011E+03 -0.30472451386E+03  0.33305331502E+03  0.00000000000E+00 0. -1.
<scales pt_clust_3="38.34445" pt_clust_4="31.68473" pt_clust_5="38.34445" pt_clust_6="126.60994"></scales>
<clustering>
<clus scale="   31.685">  2  4  1 -1</clus>
<clus scale="   38.344">  3  5 -1 -1</clus>
<clus scale="  126.610">  1  6  2 -1</clus>
<clus scale="  126.610">  1  3  2 -1</clus>
</clustering>
</event>
<event>
 6    0  0.4017242E+002  0.8636970E+02  0.7546771E-02  0.1311889E+00
          1   -1    0    0  505    0 -0.00000000000E+00  0.00000000000E+00  0.66186008927E+03  0.66186008927E+03  0.00000000000E+00 0. -1.
         21   -1    0    0  504  502  0.00000000000E+00 -0.00000000000E+00 -0.65005311345E+02  0.65005311345E+02  0.00000000000E+00 0.  1.
         21    1    1    2  503  501 -0.34040333655E+02 -0.44802444454E+02  0.28273577432E+02  0.62971410380E+02  0.00000000000E+00 0. -1.
         21    1    1    2  504  503 -0.17890200115E+02  0.27501969011E+02  0.13819023072E+02  0.35600322446E+02  0.00000000000E+00 0. -1.
         21    1    1    2  505  502  0.64407388895E+02 -0.68962856940E+02  0.34019722233E+02  0.10030717264E+03  0.00000000000E+00 0.  1.
          1    1    1    2  501    0 -0.12476855125E+02  0.86263332383E+02  0.52074245519E+03  0.52798649515E+03  0.00000000000E+00 0. -1.
<scales pt_clust_3="53.63833" pt_clust_4="32.80880" pt_clust_5="86.36970" pt_clust_6="14000.00000"></scales>
<clustering>
<clus scale="   32.809">  2  4  1 -1</clus>
<clus scale="   53.638">  2  3  1 -1</clus>
<clus scale="   86.370">  2  5  1 -1</clus>
<clus scale="   32.809">  2  3  1 -1</clus>
</clustering>
</event>
<event>
 6    0  0.4017242E+002  0.9575809E+02  0.7546771E-02  0.1289478E+00
         -2   -1    0    0    0  501 -0.00000000000E+00  0.00000000000E+00  0.50843194484E+03  0.50843194484E+03  0.00000000000E+00 0. -1.
         21   -1    0    0  505  502  0.00000000000E+00 -0.00000000000E+00 -0.26225401551E+03  0.26225401551E+03  0.00000000000E+00 0.  1.
         21    1    1    2  503  502  0.22030446988E+02  0.70524055724E+02 -0.64453614496E+02  0.98047189923E+02  0.00000000000E+00 0.  1.
         21    1    1    2  504  501 -0.73126138267E+02 -0.12561541410E+03  0.29590762777E+02  0.14833164733E+03  0.00000000000E+00 0.  1.
         21    1    1    2  505  504  0.52965805619E+02 -0.12339673454E+02 -0.11253776152E+03  0.12498956706E+03  0.00000000000E+00 0.  1.
         -2    1    1    2    0  503 -0.18701143398E+01  0.67431031834E+02  0.39357854257E+03  0.39931755603E+03  0.00000000000E+00 0. -1.
<scales pt_clust_3="14000.00000" pt_clust_4="95.75809" pt_clust_5="54.38423" pt_clust_6="67.18916"></scales>
<clustering>
<clus scale="   54.384">  2  5  1 -1</clus>
<clus scale="   67.189">  1  6  2 -1</clus>
<clus scale="   95.758">  1  4  2 -1</clus>
<clus scale="   54.384">  2  3  1 -1</clus>
</clustering>
</event>
<event>
 6    0  0.4017242E+002  0.3346620E+03  0.7546771E-02  0.1069093E+00
         21   -1    0    0  501  502  0.00000000000E+00  0.00000000000E+00  0.59092941211E+03  0.59092941211E+03  0.00000000000E+00 0.  1.
         -4   -1    0    0    0  501 -0.00000000000E+00 -0.00000000000E+00 -0.53966273779E+03  0.53966273779E+03  0.00000000000E+00 0. -1.
         21    1    1    2  503  505  0.18057921437E+03  0.23047568521E+03  0.21709792174E+03  0.36449883643E+03  0.00000000000E+00 0.  1.
         21    1    1    2  504  502  0.32506567632E+02  0.40010348409E+01  0.14652201889E+03  0.15013789408E+03  0.00000000000E+00 0.  1.
         21    1    1    2  505  504 -0.65284213545E+02  0.78442912043E+02  0.51068234986E+02  0.11411960223E+03  0.00000000000E+00 0. -1.
         -4    1    1    2    0  503 -0.14780156846E+03 -0.31291963209E+03 -0.36342150130E+03  0.50183581717E+03  0.00000000000E+00 0. -1.
<scales pt_clust_3="334.66197" pt_clust_4="32.75187" pt_clust_5="98.88262" pt_clust_6="14000.00000"></scales>
<clustering>
<clus scale="   32.752">  1  4  2 -1</clus>
<clus scale="   98.883">  1  5  2 -1</clus>
<clus scale="  334.662">  1  3  2 -1</clus>
<clus scale="   32.752">  1  3  2 -1</clus>
</clustering>
</event>
<event>
 6    0  0.4017242E+002  0.1314806E+03  0.7546771E-02  0.1225275E+00
         21   -1    0    0  503  502  0.00000000000E+00  0.00000000000E+00  0.10721778847E+04  0.10721778847E+04  0.00000000000E+00 0. -1.
          2   -1    0    0  505    0 -0.00000000000E+00 -0.00000000000E+00 -0.50993878209E+04  0.50993878209E+04  0.00000000000E+00 0.  1.
         21    1    1    2  503  504 -0.64034265623E+01  0.59692978546E+02  0.54056553248E+03  0.54388909758E+03  0.00000000000E+00 0. -1.
         21    1    1    2  504  501  0.10500370032E+02  0.11010655211E+03  0.44295708619E+03  0.45655743428E+03  0.00000000000E+00 0.  1.
         21    1    1    2  505  502  0.73988145867E+01 -0.58358241021E+02  0.68704130930E+02  0.90447135715E+02  0.00000000000E+00 0. -1.
          2    1    1    2  501    0 -0.11495758057E+02 -0.11144128963E+03 -0.50794366857E+04  0.50806720380E+04  0.00000000000E+00 0.  1.
<scales pt_clust_3="50.65782" pt_clust_4="50.65782" pt_clust_5="58.82539" pt_clust_6="112.06830"></scales>
<clustering>
<clus scale="   50.658">  3  4 -1 -1</clus>
<clus scale="   58.825">  1  5  2 -1</clus>
<clus scale="  112.068">  2  6  1 -1</clus>
<clus scale="   58.825">  1  3  2 -1</clus>
</clustering>
</event>
<event>
 6    0  0.4017242E+002  0.9132563E+02  0.7546771E-02  0.1299673E+00
         21   -1    0    0  503  502  0.00000000000E+00  0.00000000000E+00  0.17519470852E+03  0.17519470852E+03  0.00000000000E+00 0. -1.
         -1   -1    0    0    0  501 -0.00000000000E+00 -0.00000000000E+00 -0.12730167344E+04  0.12730167344E+04  0.00000000000E+00 0. -1.
         21    1    1    2  503  501  0.19339146348E+02  0.31660381733E+02 -0.20777936149E+02  0.42521817735E+02  0.00000000000E+00 0. -1.
         21    1    1    2  504  505 -0.26860516592E+02 -0.12108716814E+03  0.24844962704E+02  0.12649451297E+03  0.00000000000E+00 0. -1.
         21    1    1    2  505  502  0.56785952740E+02  0.40607565046E+02  0.73727171847E+02  0.10153479520E+03  0.00000000000E+00 0. -1.
         -1    1    1    2    0  504 -0.49264582495E+02  0.48819221362E+02 -0.11756162243E+04  0.11776603170E+04  0.00000000000E+00 0. -1.
<scales pt_clust_3="37.09963" pt_clust_4="14000.00000" pt_clust_5="91.32563" pt_clust_6="69.40997"></scales>
<clustering>
<clus scale="   37.100">  1  3  2 -1</clus>
<clus scale="   69.410">  2  6  1 -1</clus>
<clus scale="   91.326">  1  5  2 -1</clus>
<clus scale="   37.100">  1  3  2 -1</clus>
</clustering>
</event>
<event>
 6    0  0.4017242E+002  0.1648443E+03  0.7546771E-02  0.1183334E+00
         21   -1    0    0  505  502  0.00000000000E+00  0.00000000000E+00  0.15852184200E+03  0.15852184200E+03  0.00000000000E+00 0.  1.
          1   -1    0    0  504    0 -0.00000000000E+00 -0.00000000000E+00 -0.22311688492E+04  0.22311688492E+04  0.00000000000E+00 0. -1.
         21    1    1    2  503  502  0.83452273141E+02 -0.50978801684E+02  0.12742702888E+03  0.16062617409E+03  0.00000000000E+00 0.  1.
         21    1    1    2  504  503 -0.20549525221E+03  0.75665862471E+02 -0.12184217638E+04  0.12379439470E+04  0.00000000000E+00 0. -1.
         21    1    1    2  505  501  0.87292010030E+02 -0.27115691478E+02 -0.50565691331E+03  0.51385218665E+03  0.00000000000E+00 0. -1.
          1    1    1    2  501    0  0.34750969043E+02  0.24286306911E+01 -0.47599535898E+03  0.47726838348E+03  0.00000000000E+00 0. -1.
<scales pt_clust_3="97.79121" pt_clust_4="154.91537" pt_clust_5="34.78453" pt_clust_6="34.78453"></scales>
<clustering>
<clus scale="   34.785">  5  6 -1 -1</clus>
<clus scale="   97.791">  1  3  2 -1</clus>
<clus scale="  154.915">  1  4  2 -1</clus>
<clus scale="   97.791">  1  3  2 -1</clus>
</clustering>
</event>
<event>
 6    0  0.4017242E+002  0.1081971E+03  0.7546771E-02  0.1263945E+00
         21   -1    0    0  504  502  0.00000000000E+00  0.00000000000E+00  0.99294068999E+03  0.99294068999E+03  0.00000000000E+00 0. -1.
          2   -1    0    0  502    0 -0.00000000000E+00 -0.00000000000E+00 -0.37937617564E+03  0.37937617564E+03  0.00000000000E+00 0.  1.
         21    1    1    2  503  501 -0.51067639044E+02  0.39464894335E+02 -0.62587788917E+02  0.89903353463E+02  0.00000000000E+00 0. -1.
         21    1    1    2  504  505 -0.52965400135E+02  0.20840162086E+02  0.56002823780E+03  0.56291320210E+03  0.00000000000E+00 0. -1.
         21    1    1    2  505  503  0.13379891296E+03 -0.98249393668E+02  0.39920428879E+03  0.43234148153E+03  0.00000000000E+00 0. -1.
          2    1    1    2  501    0 -0.29765873781E+02  0.37944337247E+02 -0.28308022332E+03  0.28715882853E+03  0.00000000000E+00 0.  1.
<scales pt_clust_3="108.19712" pt_clust_4="57.55561" pt_clust_5="14000.00000" pt_clust_6="48.22634"></scales>
<clustering>
<clus scale="   48.226">  2  6  1 -1</clus>
<clus scale="   57.556">  1  4  2 -1</clus>
<clus scale="  108.197">  2  3  1 -1</clus>
<clus scale="   57.556">  1  3  2 -1</clus>
</clustering>
</event>
<event>
 6    0  0.4017242E+002  0.1144668E+03  0.7546771E-02  0.1252515E+00
         21   -1    0    0  503  502  0.00000000000E+00  0.00000000000E+00  0.80441354528E+03  0.80441354528E+03  0.00000000000E+00 0.  1.
          2   -1    0    0  504    0 -0.00000000000E+00 -0.00000000000E+00 -0.76704189257E+03  0.76704189257E+03  0.00000000000E+00 0. -1.
         21    1    1    2  503  505  0.96176117677E+02  0.33400406739E+02  0.74374677611E+03  0.75068282234E+03  0.00000000000E+00 0.  1.
         21    1    1    2  504  502 -0.35230576435E+02 -0.14425434459E+03 -0.62774465152E+02  0.16121768800E+03  0.00000000000E+00 0.  1.
         21    1    1    2  505  501 -0.60176855844E+02  0.70166884659E+02 -0.31020001344E+03  0.32367992526E+03  0.00000000000E+00 0.  1.
          2    1    1    2  501    0 -0.76868539774E+00  0.40687053191E+02 -0.33340064481E+03  0.33587500225E+03  0.00000000000E+00 0. -1.
<scales pt_clust_3="101.91247" pt_clust_4="14000.00000" pt_clust_5="114.46681" pt_clust_6="40.69431"></scales>
<clustering>
<clus scale="   40.694">  2  6  1 -1</clus>
<clus scale="  101.912">  1  3  2 -1</clus>
<clus scale="  114.467">  2  5  1 -1</clus>
<clus scale="  101.912">  1  3  2 -1</clus>
</clustering>
</event>
<event>
 6    0  0.4017242E+002  0.1061564E+03  0.7546771E-02  0.1267858E+00
         21   -1    0    0  504  502  0.00000000000E+00  0.00000000000E+00  0.65525868205E+03  0.65525868205E+03  0.00000000000E+00 0.  1.
         -4   -1    0    0    0  501 -0.00000000000E+00 -0.00000000000E+00 -0.13746214349E+04  0.13746214349E+04  0.00000000000E+00 0.  1.
         21    1    1    2  503  502 -0.11998692667E+03 -0.26141297569E+02 -0.34166886926E+03  0.36306727508E+03  0.00000000000E+00 0.  1.
         21    1    1    2  504  505  0.41693168095E+02 -0.47450329587E+01  0.62955621347E+03  0.63095313735E+03  0.00000000000E+00 0.  1.
         21    1    1    2  505  501 -0.75866993041E+01 -0.36469042924E+02 -0.19400709465E+02  0.41999245540E+02  0.00000000000E+00 0.  1.
         -4    1    1    2    0  503  0.85880457879E+02  0.67355373452E+02 -0.98784938761E+03  0.99386045900E+03  0.00000000000E+00 0.  1.
<scales pt_clust_3="106.15636" pt_clust_4="41.96054" pt_clust_5="37.24982" pt_clust_6="14000.00000"></scales>
<clustering>
<clus scale="   37.250">  2  5  1 -1</clus>
<clus scale="   41.961">  1  4  2 -1</clus>
<clus scale="  106.156">  1  3  2 -1</clus>
<clus scale="   41.961">  1  3  2 -1</clus>
</clustering>
</event>
<event>
 6    0  0.4017242E+002  0.9735491E+02  0.7546771E-02  0.1285959E+00
         21   -1    0    0  505  502  0.00000000000E+00  0.00000000000E+00  0.50818097774E+02  0.50818097774E+02  0.00000000000E+00 0. -1.
          2   -1    0    0  504    0 -0.00000000000E+00 -0.00000000000E+00 -0.75594516679E+03  0.75594516679E+03  0.00000000000E+00 0. -1.
         21    1    1    2  503  501 -0.28523857138E+02  0.76695601615E+02 -0.96555031708E+02  0.12656500259E+03  0.00000000000E+00 0. -1.
         21    1    1    2  504  502 -0.18312767694E+02 -0.33208821797E+02 -0.70877055292E+02  0.80384950536E+02  0.00000000000E+00 0.  1.
         21    1    1    2  505  503  0.39812260678E+02  0.43755208575E+02 -0.43304187634E+01  0.59315149029E+02  0.00000000000E+00 0. -1.
          2    1    1    2  501    0  0.70243641541E+01 -0.87241988392E+02 -0.53336456326E+03  0.54049816241E+03  0.00000000000E+00 0. -1.
<scales pt_clust_3="14000.00000" pt_clust_4="37.92339" pt_clust_5="57.43288" pt_clust_6="97.35491"></scales>
<clustering>
<clus scale="   37.923">  2  4  1 -1</clus>
<clus scale="   57.433">  1  5  2 -1</clus>
<clus scale="   97.355">  2  6  1 -1</clus>
<clus scale="   57.433">  1  3  2 -1</clus>
</clustering>
</event>
<event>
 6    0  0.4017242E+002  0.2869046E+03  0.7546771E-02  0.1091976E+00
          2   -1    0    0  503    0 -0.00000000000E+00  0.00000000000E+00  0.27409217296E+04  0.27409217296E+04  0.00000000000E+00 0.  1.
         21   -1    0    0  504  502  0.00000000000E+00 -0.00000000000E+00 -0.72655920442E+02  0.72655920442E+02  0.00000000000E+00 0.  1.
         21    1    1    2  503  505  0.13503208887E+03 -0.69933518752E+02  0.15956932498E+03  0.22042398133E+03  0.00000000000E+00 0.  1.
         21    1    1    2  504  501 -0.27594197652E+03  0.15704714793E+03  0.12236494154E+04  0.12641699541E+04  0.00000000000E+00 0.  1.
         21    1    1    2  505  502  0.87416754898E+02 -0.88265820934E+02  0.15952193092E+03  0.20218751353E+03  0.00000000000E+00 0.  1.
          2    1    1    2  501    0  0.53493132749E+02  0.11521917553E+01  0.11255251378E+04  0.11267962011E+04  0.00000000000E+00 0.  1.
<scales pt_clust_3="43.06995" pt_clust_4="282.91968" pt_clust_5="43.06995" pt_clust_6="53.50554"></scales>
<clustering>
<clus scale="   43.070">  3  5 -1 -1</clus>
<clus scale="   53.506">  1  6  2 -1</clus>
<clus scale="  282.920">  1  4  2 -1</clus>
<clus scale="  286.905">  2  3  1 -1</clus>
</clustering>
</event>
<event>
 6    0  0.4017242E+002  0.7035983E+02  0.7546771E-02  0.1358874E+00
         21   -1    0    0  504  502  0.00000000000E+00  0.00000000000E+00  0.43375720151E+02  0.43375720151E+02  0.00000000000E+00 0.  1.
          1   -1    0    0  503    0 -0.00000000000E+00 -0.00000000000E+00 -0.71216258344E+03  0.71216258344E+03  0.00000000000E+00 0.  1.
         21    1    1    2  503  505  0.61611191698E+01  0.50342254843E+02 -0.98455161401E+02  0.11075071475E+03  0.00000000000E+00 0.  1.
         21    1    1    2  504  501  0.59068897327E+02 -0.10254702501E+03 -0.12876879927E+03  0.17488976709E+03  0.00000000000E+00 0.  1.
         21    1    1    2  505  502 -0.30264310951E+02  0.37242825029E+02 -0.30028553517E+02  0.56609809749E+02  0.00000000000E+00 0.  1.
          1    1    1    2  501    0 -0.34965705546E+02  0.14961945135E+02 -0.41153434910E+03  0.41328801200E+03  0.00000000000E+00 0.  1.
<scales pt_clust_3="70.35983" pt_clust_4="14000.00000" pt_clust_5="52.91581" pt_clust_6="38.03236"></scales>
<clustering>
<clus scale="   38.032">  2  6  1 -1</clus>
<clus scale="   52.916">  1  5  2 -1</clus>
<clus scale="   70.360">  2  3  1 -1</clus>
<clus scale="   52.916">  1  3  2 -1</clus>
</clustering>
</event>
<event>
 6    0  0.4017242E+002  0.1415299E+03  0.7546771E-02  0.1211285E+00
         21   -1    0    0  503  502  0.00000000000E+00  0.00000000000E+00  0.23385847533E+03  0.23385847533E+03  0.00000000000E+00 0. -1.
          2   -1    0    0  504    0 -0.00000000000E+00 -0.00000000000E+00 -0.66048619619E+03  0.66048619619E+03  0.00000000000E+00 0. -1.
         21    1    1    2  503  505 -0.52355893540E+02  0.28859173268E+02  0.11354673005E+03  0.12832323007E+03  0.00000000000E+00 0. -1.
         21    1    1    2  504  502 -0.13325737221E+02 -0.41402513099E+02 -0.30413761560E+02  0.53072971046E+02  0.00000000000E+00 0.  1.
         21    1    1    2  505  501 -0.55070577761E+02  0.55066808674E+02  0.78702157032E+02  0.11072105253E+03  0.00000000000E+00 0.  1.
          2    1    1    2  501    0  0.12075220852E+03 -0.42523468843E+02 -0.58846284638E+03  0.60222741787E+03  0.00000000000E+00 0. -1.
<scales pt_clust_3="35.02976" pt_clust_4="43.49418" pt_clust_5="35.02976" pt_clust_6="135.76522"></scales>
<clustering>
<clus scale="   35.030">  3  5 -1 -1</clus>
<clus scale="   43.494">  2  4  1 -1</clus>
<clus scale="  135.765">  2  6  1 -1</clus>
<clus scale="  141.530">  1  3  2 -1</clus>
</clustering>
</event>
<event>
 6    0  0.4017242E+002  0.1361297E+03  0.7546771E-02  0.1218634E+00
         -3   -1    0    0    0  501 -0.00000000000E+00  0.00000000000E+00  0.17524922714E+04  0.17524922714E+04  0.00000000000E+00 0.  1.
         21   -1    0    0  505  502  0.00000000000E+00 -0.00000000000E+00 -0.21577628233E+02  0.21577628233E+02  0.00000000000E+00 0.  1.
         21    1    1    2  503  502  0.41983046657E+02 -0.85931162195E+01  0.52241196201E+02  0.67568930978E+02  0.00000000000E+00 0.  1.
         21    1    1    2  504  501 -0.44305291037E+02  0.75640860470E+02  0.37425861488E+03  0.38438783722E+03  0.00000000000E+00 0.  1.
         21    1    1    2  505  504  0.49091327665E+01  0.52249697006E+02  0.11136556165E+03  0.12311140785E+03  0.00000000000E+00 0. -1.
         -3    1    1    2    0  503 -0.25868883865E+01 -0.11929744126E+03  0.11930492705E+04  0.11990017236E+04  0.00000000000E+00 0.  1.
<scales pt_clust_3="42.85345" pt_clust_4="51.19223" pt_clust_5="51.19223" pt_clust_6="121.30416"></scales>
<clustering>
<clus scale="   42.853">  2  3  1 -1</clus>
<clus scale="   51.192">  4  5 -1 -1</clus>
<clus scale="  121.304">  1  6  2 -1</clus>
<clus scale="   42.853">  2  3  1 -1</clus>
</clustering>
</event>
<event>
 6    0  0.4017242E+002  0.1464136E+03  0.7546771E-02  0.1204950E+00
          2   -1    0    0  505    0 -0.00000000000E+00  0.00000000000E+00  0.34896242860E+04  0.34896242860E+04  0.00000000000E+00 0. -1.
         21   -1    0    0  503  502  0.00000000000E+00 -0.00000000000E+00 -0.42796950275E+02  0.42796950275E+02  0.00000000000E+00 0.  1.
         21    1    1    2  503  504 -0.52225849530E+02  0.73358957677E+00  0.67057721197E+02  0.84998914610E+02  0.00000000000E+00 0.  1.
         21    1    1    2  504  501 -0.82636323517E+02  0.30623004521E+02  0.36570446704E+02  0.95414505933E+02  0.00000000000E+00 0.  1.
         21    1    1    2  505  502  0.17660781609E+02 -0.60221466889E+02  0.30387777739E+03  0.31029056040E+03  0.00000000000E+00 0.  1.
          2    1    1    2  501    0  0.11720139144E+03  0.28864872791E+02  0.30393213904E+04  0.30417172553E+04  0.00000000000E+00 0. -1.
<scales pt_clust_3="39.54946" pt_clust_4="39.54946" pt_clust_5="62.75769" pt_clust_6="137.10499"></scales>
<clustering>
<clus scale="   39.549">  3  4 -1 -1</clus>
<clus scale="   62.758">  1  5  2 -1</clus>
<clus scale="  137.105">  1  6  2 -1</clus>
<clus scale="  146.414">  2  3  1 -1</clus>
</clustering>
</event>
<event>
 6    0  0.4017242E+002  0.1561449E+03  0.7546771E-02  0.1193119E+00
          2   -1    0    0  504    0 -0.00000000000E+00  0.00000000000E+00  0.36525640686E+04  0.36525640686E+04  0.00000000000E+00 0.  1.
         21   -1    0    0  503  502  0.00000000000E+00 -0.00000000000E+00 -0.55227510188E+03  0.55227510188E+03  0.00000000000E+00 0.  1.
         21    1    1    2  503  505  0.41102839801E+02  0.49658064087E+02 -0.14171434077E+03  0.15568661198E+03  0.00000000000E+00 0. -1.
         21    1    1    2  504  502 -0.22064949765E+02 -0.28943435495E+02 -0.17656699028E+03  0.18027891314E+03  0.00000000000E+00 0.  1.
         21    1    1    2  505  501 -0.15082923028E+03  0.62954943530E+02 -0.19358118478E+03  0.25335046225E+03  0.00000000000E+00 0.  1.
          2    1    1    2  501    0  0.13179134025E+03 -0.83669572122E+02  0.36121514825E+04  0.36155231831E+04  0.00000000000E+00 0.  1.
<scales pt_clust_3="50.00098" pt_clust_4="36.39484" pt_clust_5="14000.00000" pt_clust_6="156.14486"></scales>
<clustering>
<clus scale="   36.395">  2  4  1 -1</clus>
<clus scale="   50.001">  2  3  1 -1</clus>
<clus scale="  156.145">  1  6  2 -1</clus>
<clus scale="   36.395">  2  3  1 -1</clus>
</clustering>
</event>
<event>
 6    0  0.4017242E+002  0.1055360E+03  0.7546771E-02  0.1269067E+00
         -1   -1    0    0    0  501 -0.00000000000E+00  0.00000000000E+00  0.18817303127E+03  0.18817303127E+03  0.00000000000E+00 0.  1.
         21   -1    0    0  505  502  0.00000000000E+00 -0.00000000000E+00 -0.64966190501E+03  0.64966190501E+03  0.00000000000E+00 0.  1.
         21    1    1    2  503  504 -0.58217126166E+02  0.21690361316E+02 -0.98459191411E+02  0.11642129499E+03  0.00000000000E+00 0.  1.
         21    1    1    2  504  502  0.42375310308E+02  0.99533769470E+02 -0.23192477353E+03  0.25591353768E+03  0.00000000000E+00 0.  1.
         21    1    1    2  505  501  0.57451401555E+02 -0.11202356547E+03 -0.28193402405E+03  0.30876647596E+03  0.00000000000E+00 0.  1.
         -1    1    1    2    0  503 -0.41609585698E+02 -0.92005653142E+01  0.15082911526E+03  0.15673362765E+03  0.00000000000E+00 0.  1.
<scales pt_clust_3="71.72508" pt_clust_4="105.53597" pt_clust_5="14000.00000" pt_clust_6="42.61465"></scales>
<clustering>
<clus scale="   42.615">  1  6  2 -1</clus>
<clus scale="   71.725">  1  3  2 -1</clus>
<clus scale="  105.536">  2  4  1 -1</clus>
<clus scale="  105.536">  2  3  1 -1</clus>
</clustering>
</event>
<event>
 6    0  0.4017242E+002  0.1235070E+03  0.7546771E-02  0.1237421E+00
          2   -1    0    0  504    0 -0.00000000000E+00  0.00000000000E+00  0.12406750901E+04  0.12406750901E+04  0.00000000000E+00 0.  1.
         21   -1    0    0  503  502  0.00000000000E+00 -0.00000000000E+00 -0.99227924171E+02  0.99227924171E+02  0.00000000000E+00 0.  1.
         21    1    1    2  503  501 -0.10816351497E+03 -0.97549953299E+01  0.84727765009E+02  0.13774360264E+03  0.00000000000E+00 0.  1.
         21    1    1    2  504  505 -0.26709377358E+02 -0.69029437461E+02  0.21676932747E+02  0.77125504785E+02  0.00000000000E+00 0.  1.
         21    1    1    2  505  502  0.32475962146E+02  0.24707213960E+01 -0.34760846781E+02  0.47635166112E+02  0.00000000000E+00 0.  1.
          2    1    1    2  501    0  0.10239693018E+03  0.76313711395E+02  0.10698033150E+04  0.10773987407E+04  0.00000000000E+00 0.  1.
<scales pt_clust_3="14000.00000" pt_clust_4="68.76620" pt_clust_5="32.56981" pt_clust_6="123.50697"></scales>
<clustering>
<clus scale="   32.570">  2  5  1 -1</clus>
<clus scale="   68.766">  2  4  1 -1</clus>
<clus scale="  123.507">  1  6  2 -1</clus>
<clus scale="   32.570">  2  3  1 -1</clus>
</clustering>
</event>
<event>
 6    0  0.4017242E+002  0.8847344E+02  0.7546771E-02  0.1306591E+00
         21   -1    0    0  503  502  0.00000000000E+00  0.00000000000E+00  0.94924878673E+03  0.94924878673E+03  0.00000000000E+00 0. -1.
          1   -1    0    0  505    0 -0.00000000000E+00 -0.00000000000E+00 -0.50743734713E+03  0.50743734713E+03  0.00000000000E+00 0. -1.
         21    1    1    2  503  504 -0.14365378507E+03 -0.19920716100E+02  0.66098947444E+03  0.67671288610E+03  0.00000000000E+00 0. -1.
         21    1    1    2  504  501  0.42088124665E+02  0.48802154383E+02  0.22101244464E+03  0.23021633564E+03  0.00000000000E+00 0. -1.
         21    1    1    2  505  502  0.38600420964E+02  0.13374014763E+01  0.45150395123E+02  0.59416658616E+02  0.00000000000E+00 0. -1.
          1    1    1    2  501    0  0.62965239440E+02 -0.30218839759E+02 -0.48534087460E+03  0.49034025351E+03  0.00000000000E+00 0. -1.
<scales pt_clust_3="88.47344" pt_clust_4="14000.00000" pt_clust_5="38.62358" pt_clust_6="69.93663"></scales>
<clustering>
<clus scale="   38.624">  1  5  2 -1</clus>
<clus scale="   69.937">  2  6  1 -1</clus>
<clus scale="   88.473">  1  3  2 -1</clus>
<clus scale="   38.624">  1  3  2 -1</clus>
</clustering>
</event>
<event>
 6    0  0.4017242E+002  0.2651949E+03  0.7546771E-02  0.1104062E+00
         21   -1    0    0  503  502  0.00000000000E+00  0.00000000000E+00  0.66111318462E+03  0.66111318462E+03  0.00000000000E+00 0.  1.
          2   -1    0    0  505    0 -0.00000000000E+00 -0.00000000000E+00 -0.16499167674E+04  0.16499167674E+04  0.00000000000E+00 0.  1.
         21    1    1    2  503  501  0.22495669729E+02  0.50924920148E+02  0.16760676243E+01  0.55697503098E+02  0.00000000000E+00 0.  1.
         21    1    1    2  504  502 -0.11950655651E+03 -0.11453075182E+02  0.58044776541E+03  0.59273315948E+03  0.00000000000E+00 0.  1.
         21    1    1    2  505  504 -0.12226945622E+03  0.17571199731E+03 -0.42046227018E+03  0.47181887051E+03  0.00000000000E+00 0.  1.
          2    1    1    2  501    0  0.21928034300E+03 -0.21518384228E+03 -0.11504651456E+04  0.11907804189E+04  0.00000000000E+00 0.  1.
<scales pt_clust_3="55.67228" pt_clust_4="104.93038" pt_clust_5="265.19488" pt_clust_6="14000.00000"></scales>
<clustering>
<clus scale="   55.672">  1  3  2 -1</clus>
<clus scale="  104.930">  1  4  2 -1</clus>
<clus scale="  265.195">  1  5  2 -1</clus>
<clus scale="   55.672">  1  3  2 -1</clus>
</clustering>
</event>
<event>
 6    0  0.4017242E+002  0.1106617E+03  0.7546771E-02  0.1259349E+00
          2   -1    0    0  503    0 -0.00000000000E+00  0.00000000000E+00  0.13185343665E+04  0.13185343665E+04  0.00000000000E+00 0. -1.
         21   -1    0    0  505  502  0.00000000000E+00 -0.00000000000E+00 -0.12801690617E+03  0.12801690617E+03  0.00000000000E+00 0.  1.
         21    1    1    2  503  504 -0.13625849070E+02 -0.12689724471E+03 -0.41895989759E+02  0.13432739273E+03  0.00000000000E+00 0.  1.
         21    1    1    2  504  502 -0.34612554079E+02 -0.13244236257E+02 -0.17461217766E+02  0.40967460500E+02  0.00000000000E+00 0.  1.
         21    1    1    2  505  501  0.26890194895E+02  0.32038133156E+02  0.45319034974E+02  0.61671220910E+02  0.00000000000E+00 0. -1.
          2    1    1    2  501    0  0.21348208255E+02  0.10810334782E+03  0.12045556329E+04  0.12095851985E+04  0.00000000000E+00 0. -1.
<scales pt_clust_3="14000.00000" pt_clust_4="37.05993" pt_clust_5="39.17477" pt_clust_6="110.66166"></scales>
<clustering>
<clus scale="   37.060">  2  4  1 -1</clus>
<clus scale="   39.175">  2  5  1 -1</clus>
<clus scale="  110.662">  1  6  2 -1</clus>
<clus scale="   37.060">  2  3  1 -1</clus>
</clustering>
</event>
<event>
 6    0  0.4017242E+002  0.1515540E+03  0.7546771E-02  0.1198576E+00
          1   -1    0    0  502    0 -0.00000000000E+00  0.00000000000E+00  0.19320690660E+04  0.19320690660E+04  0.00000000000E+00 0.  1.
         21   -1    0    0  504  502  0.00000000000E+00 -0.00000000000E+00 -0.69892139861E+02  0.69892139861E+02  0.00000000000E+00 0.  1.
         21    1    1    2  503  501 -0.19348616346E+02 -0.88726041855E+02  0.46304598410E+03  0.47186678507E+03  0.00000000000E+00 0.  1.
         21    1    1    2  504  505  0.36672083487E+02  0.58919268733E+02 -0.49510881313E+01  0.69576110908E+02  0.00000000000E+00 0.  1.
         21    1    1    2  505  503 -0.18661387638E+02  0.83384384354E+02  0.38220333668E+02  0.93605538556E+02  0.00000000000E+00 0.  1.
          1    1    1    2  501    0  0.13379204964E+01 -0.53577611232E+02  0.13658616965E+04  0.13669127714E+04  0.00000000000E+00 0.  1.
<scales pt_clust_3="134.24572" pt_clust_4="64.57008" pt_clust_5="64.57008" pt_clust_6="53.59431"></scales>
<clustering>
<clus scale="   53.594">  1  6  2 -1</clus>
<clus scale="   64.570">  4  5 -1 -1</clus>
<clus scale="  134.246">  1  3  2 -1</clus>
<clus scale="  151.554">  2  3  1 -1</clus>
</clustering>
</event>
<event>
 6    0  0.4017242E+002  0.1016704E+03  0.7546771E-02  0.1276822E+00
         21   -1    0    0  505  502  0.00000000000E+00  0.00000000000E+00  0.20217902633E+03  0.20217902633E+03  0.00000000000E+00 0. -1.
          2   -1    0    0  504    0 -0.00000000000E+00 -0.00000000000E+00 -0.14097704493E+04  0.14097704493E+04  0.00000000000E+00 0. -1.
         21    1    1    2  503  501 -0.76137671057E+02  0.95586157354E+01 -0.97982561421E+02  0.12445438695E+03  0.00000000000E+00 0. -1.
         21    1    1    2  504  502  0.28110984490E+02 -0.26565686284E+02 -0.52770259764E+02  0.65426779321E+02  0.00000000000E+00 0. -1.
         21    1    1    2  505  503 -0.45191580033E+02 -0.18825478307E+02  0.17728005690E+03  0.18391545915E+03  0.00000000000E+00 0. -1.
          2    1    1    2  501    0  0.93218266600E+02  0.35832548855E+02 -0.12341186587E+04  0.12381528502E+04  0.00000000000E+00 0. -1.
<scales pt_clust_3="14000.00000" pt_clust_4="38.67768" pt_clust_5="48.91730" pt_clust_6="101.67044"></scales>
<clustering>
<clus scale="   38.678">  2  4  1 -1</clus>
<clus scale="   48.917">  1  5  2 -1</clus>
<clus scale="  101.670">  2  6  1 -1</clus>
<clus scale="   48.917">  1  3  2 -1</clus>
</clustering>
</event>
<event>
 6    0  0.4017242E+002  0.1266999E+03  0.7546771E-02  0.1232436E+00
          2   -1    0    0  502    0 -0.00000000000E+00  0.00000000000E+00  0.46202969747E+03  0.46202969747E+03  0.00000000000E+00 0. -1.
         21   -1    0    0  504  502  0.00000000000E+00 -0.00000000000E+00 -0.27845983184E+03  0.27845983184E+03  0.00000000000E+00 0.  1.
         21    1    1    2  503  505 -0.57470530515E+02 -0.75545445253E+02  0.15048378627E+03  0.17791949333E+03  0.00000000000E+00 0.  1.
         21    1    1    2  504  503  0.11082361492E+03  0.19078851813E+02 -0.23477120250E+03  0.26031402908E+03  0.00000000000E+00 0.  1.
         21    1    1    2  505  501 -0.62520701243E+02 -0.12629008414E+02  0.82877972892E+02  0.10458053513E+03  0.00000000000E+00 0.  1.
          2    1    1    2  501    0  0.91676168377E+01  0.69095601854E+02  0.18497930897E+03  0.19767547177E+03  0.00000000000E+00 0. -1.
<scales pt_clust_3="46.19642" pt_clust_4="113.47663" pt_clust_5="46.19642" pt_clust_6="69.70113"></scales>
<clustering>
<clus scale="   46.196">  3  5 -1 -1</clus>
<clus scale="   69.701">  1  6  2 -1</clus>
<clus scale="  113.477">  2  4  1 -1</clus>
<clus scale="  113.477">  2  3  1 -1</clus>
</clustering>
</event>
<event>
 6    0  0.4017242E+002  0.4055556E+03  0.7546771E-02  0.1041873E+00
          2   -1    0    0  505    0 -0.00000000000E+00  0.00000000000E+00  0.16679965148E+04  0.16679965148E+04  0.00000000000E+00 0. -1.
         21   -1    0    0  501  502  0.00000000000E+00 -0.00000000000E+00 -0.18997118696E+03  0.18997118696E+03  0.00000000000E+00 0. -1.
         21    1    1    2  503  502  0.21442575938E+02 -0.62067631103E+02 -0.27287602283E+02  0.71111097108E+02  0.00000000000E+00 0. -1.
         21    1    1    2  504  503  0.17567462902E+03 -0.15373917754E+03  0.55706851248E+02  0.24000117347E+03  0.00000000000E+00 0. -1.
         21    1    1    2  505  504  0.88656453667E+02 -0.33631399050E+01  0.50383824049E+02  0.10202846276E+03  0.00000000000E+00 0.  1.
          2    1    1    2  501    0 -0.28577365862E+03  0.21916994855E+03  0.13992222548E+04  0.14448269684E+04  0.00000000000E+00 0. -1.
<scales pt_clust_3="54.49016" pt_clust_4="81.57842" pt_clust_5="81.57842" pt_clust_6="360.14171"></scales>
<clustering>
<clus scale="   54.490">  3  4 -1 -1</clus>
<clus scale="   81.578">  3  5 -1 -1</clus>
<clus scale="  360.142">  1  6  2 -1</clus>
<clus scale="  405.556">  2  3  1 -1</clus>
</clustering>
</event>
<event>
 6    0  0.4017242E+002  0.1448095E+03  0.7546771E-02  0.1207000E+00
         21   -1    0    0  501  502  0.00000000000E+00  0.00000000000E+00  0.32116393230E+03  0.32116393230E+03  0.00000000000E+00 0. -1.
         -2   -1    0    0    0  501 -0.00000000000E+00 -0.00000000000E+00 -0.98559744404E+03  0.98559744404E+03  0.00000000000E+00 0.  1.
         21    1    1    2  503  504 -0.36242759898E+02  0.40653482704E+02 -0.11520050347E+02  0.55668257212E+02  0.00000000000E+00 0. -1.
         21    1    1    2  504  505 -0.57249163563E+02  0.16266749540E+02 -0.75654363550E+01  0.59994247195E+02  0.00000000000E+00 0.  1.
         21    1    1    2  505  502 -0.53535736659E+02 -0.60901561131E+02  0.26078806828E+03  0.27310344525E+03  0.00000000000E+00 0. -1.
         -2    1    1    2    0  503  0.14702766012E+03  0.39813288870E+01 -0.90613609332E+03  0.91799542669E+03  0.00000000000E+00 0.  1.
<scales pt_clust_3="30.74453" pt_clust_4="30.74453" pt_clust_5="81.08684" pt_clust_6="141.19805"></scales>
<clustering>
<clus scale="   30.745">  3  4 -1 -1</clus>
<clus scale="   81.087">  1  5  2 -1</clus>
<clus scale="  141.198">  2  6  1 -1</clus>
<clus scale="   81.087">  1  3  2 -1</clus>
</clustering>
</event>
<event>
 6    0  0.4017242E+002  0.1292550E+03  0.7546771E-02  0.1228565E+00
         21   -1    0    0  501  502  0.00000000000E+00  0.00000000000E+00  0.31923380861E+03  0.31923380861E+03  0.00000000000E+00 0. -1.
         -2   -1    0    0    0  501 -0.00000000000E+00 -0.00000000000E+00 -0.21282263619E+03  0.21282263619E+03  0.00000000000E+00 0.  1.
         21    1    1    2  503  502 -0.31791816959E+02  0.49319304476E+01  0.19566924284E+03  0.19829648549E+03  0.00000000000E+00 0. -1.
         21    1    1    2  504  503 -0.27363964769E+02  0.32428889628E+02  0.25416114644E+02  0.49461078981E+02  0.00000000000E+00 0.  1.
         21    1    1    2  505  504 -0.61919139625E+02 -0.98242461476E+01  0.48493384465E+02  0.79259724963E+02  0.00000000000E+00 0.  1.
         -2    1    1    2    0  505  0.12107492135E+03 -0.27536573928E+02 -0.16316756953E+03  0.20503915536E+03  0.00000000000E+00 0.  1.
<scales pt_clust_3="32.17209" pt_clust_4="40.90228" pt_clust_5="40.90228" pt_clust_6="118.67127"></scales>
<clustering>
<clus scale="   32.172">  1  3  2 -1</clus>
<clus scale="   40.902">  4  5 -1 -1</clus>
<clus scale="  118.671">  2  6  1 -1</clus>
<clus scale="   32.172">  1  3  2 -1</clus>
</clustering>
</event>
<event>
 6    0  0.4017242E+002  0.8675062E+02  0.7546771E-02  0.1310917E+00
         21   -1    0    0  503  502  0.00000000000E+00  0.00000000000E+00  0.55774866221E+03  0.55774866221E+03  0.00000000000E+00 0. -1.
         -1   -1    0    0    0  501 -0.00000000000E+00 -0.00000000000E+00 -0.58956406278E+03  0.58956406278E+03  0.00000000000E+00 0.  1.
         21    1    1    2  503  504  0.64584619520E+01  0.83518165617E+02  0.43744601885E+03  0.44539422440E+03  0.00000000000E+00 0. -1.
         21    1    1    2  504  501 -0.41559932847E+02 -0.27753961990E+02 -0.10944322001E+02  0.51159443004E+02  0.00000000000E+00 0. -1.
         21    1    1    2  505  502  0.27512133006E+01 -0.11241227099E+03  0.60614846658E+02  0.12774289600E+03  0.00000000000E+00 0. -1.
         -1    1    1    2    0  505  0.32350257594E+02  0.56648067363E+02 -0.51893194408E+03  0.52301616159E+03  0.00000000000E+00 0.  1.
<scales pt_clust_3="86.75062" pt_clust_4="49.97510" pt_clust_5="14000.00000" pt_clust_6="31.42158"></scales>
<clustering>
<clus scale="   49.975">  2  4  1 -1</clus>
<clus scale="   31.422">  2  6  1 -1</clus>
<clus scale="   86.751">  1  3  2 -1</clus>
<clus scale="   86.751">  1  3  2 -1</clus>
</clustering>
</event>
<event>
 6    0  0.4017242E+002  0.8275992E+02  0.7546771E-02  0.1321397E+00
         21   -1    0    0  505  502  0.00000000000E+00  0.00000000000E+00  0.17203918105E+04  0.17203918105E+04  0.00000000000E+00 0.  1.
          2   -1    0    0  504    0 -0.00000000000E+00 -0.00000000000E+00 -0.11807017343E+03  0.11807017343E+03  0.00000000000E+00 0. -1.
         21    1    1    2  503  502 -0.31761851651E+02 -0.24096110754E+02  0.15174808005E+04  0.15180044195E+04  0.00000000000E+00 0.  1.
         21    1    1    2  504  503 -0.64287345307E+02 -0.13812939640E+02  0.87674676255E+00  0.65760388936E+02  0.00000000000E+00 0. -1.
         21    1    1    2  505  501  0.10473513275E+03 -0.29358122848E+02  0.13240114147E+03  0.17135171337E+03  0.00000000000E+00 0. -1.
          2    1    1    2  501    0 -0.86859357964E+01  0.67267173242E+02 -0.48437051686E+02  0.83345462100E+02  0.00000000000E+00 0. -1.
<scales pt_clust_3="39.86775" pt_clust_4="82.75992" pt_clust_5="14000.00000" pt_clust_6="66.18474"></scales>
<clustering>
<clus scale="   39.868">  1  3  2 -1</clus>
<clus scale="   66.185">  2  6  1 -1</clus>
<clus scale="   82.760">  2  4  1 -1</clus>
<clus scale="   39.868">  1  3  2 -1</clus>
</clustering>
</event>
<event>
 6    0  0.4017242E+002  0.1147852E+03  0.7546771E-02  0.1251957E+00
         21   -1    0    0  505  502  0.00000000000E+00  0.00000000000E+00  0.40913661919E+02  0.40913661919E+02  0.00000000000E+00 0.  1.
          2   -1    0    0  503    0 -0.00000000000E+00 -0.00000000000E+00 -0.20378194273E+04  0.20378194273E+04  0.00000000000E+00 0.  1.
         21    1    1    2  503  504 -0.57256879887E+02  0.74620382088E+01 -0.99777215227E+02  0.11528020206E+03  0.00000000000E+00 0.  1.
         21    1    1    2  504  502 -0.41204556184E+02  0.45769524350E+02 -0.46160421763E+02  0.76963948358E+02  0.00000000000E+00 0.  1.
         21    1    1    2  505  501  0.15653661287E+02 -0.11145199051E+03 -0.17888358236E+03  0.21134313175E+03  0.00000000000E+00 0.  1.
          2    1    1    2  501    0  0.82807774784E+02  0.58220427953E+02 -0.16720845461E+04  0.16751458071E+04  0.00000000000E+00 0.  1.
<scales pt_clust_3="54.18773" pt_clust_4="54.18773" pt_clust_5="100.21910" pt_clust_6="101.22621"></scales>
<clustering>
<clus scale="   54.188">  3  4 -1 -1</clus>
<clus scale="  101.226">  2  6  1 -1</clus>
<clus scale="  100.219">  2  5  1 -1</clus>
<clus scale="  114.785">  1  3  2 -1</clus>
</clustering>
</event>
<event>
 6    0  0.4017242E+002  0.1487123E+03  0.7546771E-02  0.1202064E+00
          2   -1    0    0  503    0 -0.00000000000E+00  0.00000000000E+00  0.14647880751E+03  0.14647880751E+03  0.00000000000E+00 0.  1.
         21   -1    0    0  505  502  0.00000000000E+00 -0.00000000000E+00 -0.27572903610E+04  0.27572903610E+04  0.00000000000E+00 0.  1.
         21    1    1    2  503  502 -0.32512895387E+02 -0.99291099755E+01 -0.66338198159E+03  0.66425245886E+03  0.00000000000E+00 0.  1.
         21    1    1    2  504  501  0.58159661752E+02 -0.52274585764E+02 -0.69635848125E+03  0.70073555139E+03  0.00000000000E+00 0.  1.
         21    1    1    2  505  504  0.68633014543E+02 -0.37985209236E+02 -0.13606445217E+04  0.13629038415E+04  0.00000000000E+00 0.  1.
          2    1    1    2  501    0 -0.94279780909E+02  0.10018890498E+03  0.10957343102E+03  0.17587731677E+03  0.00000000000E+00 0.  1.
<scales pt_clust_3="33.99523" pt_clust_4="52.74990" pt_clust_5="52.74990" pt_clust_6="137.81277"></scales>
<clustering>
<clus scale="   33.995">  2  3  1 -1</clus>
<clus scale="   52.750">  4  5 -1 -1</clus>
<clus scale="  137.813">  1  6  2 -1</clus>
<clus scale="   33.995">  2  3  1 -1</clus>
</clustering>
</event>
<event>
 6    0  0.4017242E+002  0.9932463E+02  0.7546771E-02  0.1281723E+00
         21   -1    0    0  503  502  0.00000000000E+00  0.00000000000E+00  0.72316803550E+03  0.72316803550E+03  0.00000000000E+00 0.  1.
          3   -1    0    0  504    0 -0.00000000000E+00 -0.00000000000E+00 -0.82804561337E+02  0.82804561337E+02  0.00000000000E+00 0. -1.
         21    1    1    2  503  501  0.34939456556E+02 -0.67397306502E+01  0.11782119990E+03  0.12307731205E+03  0.00000000000E+00 0. -1.
         21    1    1    2  504  505 -0.39743207606E+02 -0.76863377688E+02  0.25193368520E+03  0.26637958465E+03  0.00000000000E+00 0.  1.
         21    1    1    2  505  502 -0.49891527089E+02 -0.14867969279E+01  0.30547237221E+03  0.30952341628E+03  0.00000000000E+00 0.  1.
          3    1    1    2  501    0  0.54695278139E+02  0.85089905266E+02 -0.34863783157E+02  0.10699228386E+03  0.00000000000E+00 0. -1.
<scales pt_clust_3="35.58356" pt_clust_4="99.32463" pt_clust_5="32.44201" pt_clust_6="14000.00000"></scales>
<clustering>
<clus scale="   35.584">  1  3  2 -1</clus>
<clus scale="   32.442">  1  5  2 -1</clus>
<clus scale="   99.325">  1  4  2 -1</clus>
<clus scale="   35.584">  1  3  2 -1</clus>
</clustering>
</event>
<event>
 6    0  0.4017242E+002  0.1078076E+03  0.7546771E-02  0.1264685E+00
         21   -1    0    0  505  502  0.00000000000E+00  0.00000000000E+00  0.38972957321E+03  0.38972957321E+03  0.00000000000E+00 0.  1.
          1   -1    0    0  503    0 -0.00000000000E+00 -0.00000000000E+00 -0.20154008243E+04  0.20154008243E+04  0.00000000000E+00 0. -1.
         21    1    1    2  503  502 -0.36168490680E+02  0.11761866494E+02 -0.13505607960E+03  0.14030910826E+03  0.00000000000E+00 0. -1.
         21    1    1    2  504  501 -0.19612788757E+01 -0.16484570934E+03 -0.11886071493E+03  0.20323834297E+03  0.00000000000E+00 0. -1.
         21    1    1    2  505  504  0.30409727592E+01  0.61670169155E+02  0.34074113438E+03  0.34629030875E+03  0.00000000000E+00 0.  1.
          1    1    1    2  501    0  0.35088796797E+02  0.91413673689E+02 -0.17124955910E+04  0.17152926376E+04  0.00000000000E+00 0. -1.
<scales pt_clust_3="38.03290" pt_clust_4="14000.00000" pt_clust_5="61.75985" pt_clust_6="107.80761"></scales>
<clustering>
<clus scale="   38.033">  2  3  1 -1</clus>
<clus scale="   61.760">  1  5  2 -1</clus>
<clus scale="  107.808">  2  6  1 -1</clus>
<clus scale="   61.760">  1  3  2 -1</clus>
</clustering>
</event>
<event>
 6    0  0.4017242E+002  0.1580176E+03  0.7546771E-02  0.1190953E+00
          2   -1    0    0  505    0 -0.00000000000E+00  0.00000000000E+00  0.92062557832E+03  0.92062557832E+03  0.00000000000E+00 0.  1.
         21   -1    0    0  504  502  0.00000000000E+00 -0.00000000000E+00 -0.40755109263E+03  0.40755109263E+03  0.00000000000E+00 0. -1.
         21    1    1    2  503  501  0.74736357548E+02 -0.10593402138E+03 -0.24255517360E+02  0.13189340449E+03  0.00000000000E+00 0. -1.
         21    1    1    2  504  503  0.24732227456E+02 -0.46231918476E+02 -0.25435989665E+03  0.25970758631E+03  0.00000000000E+00 0. -1.
         21    1    1    2  505  502 -0.71967968007E+02  0.17195971045E+03  0.48505944546E+02  0.19261972146E+03  0.00000000000E+00 0. -1.
          2    1    1    2  501    0 -0.27500616997E+02 -0.19793770596E+02  0.74318395515E+03  0.74395595870E+03  0.00000000000E+00 0.  1.
<scales pt_clust_3="158.01757" pt_clust_4="52.50173" pt_clust_5="14000.00000" pt_clust_6="33.88329"></scales>
<clustering>
<clus scale="   33.883">  1  6  2 -1</clus>
<clus scale="   52.502">  2  4  1 -1</clus>
<clus scale="  158.018">  2  3  1 -1</clus>
<clus scale="   52.502">  2  3  1 -1</clus>
</clustering>
</event>
<event>
 6    0  0.4017242E+002  0.2999280E+03  0.7546771E-02  0.1085277E+00
         21   -1    0    0  505  502  0.00000000000E+00  0.00000000000E+00  0.98458719862E+03  0.98458719862E+03  0.00000000000E+00 0.  1.
          2   -1    0    0  502    0 -0.00000000000E+00 -0.00000000000E+00 -0.88880111658E+03  0.88880111658E+03  0.00000000000E+00 0. -1.
         21    1    1    2  503  501 -0.87196286136E+02  0.98966587993E+02  0.21375007353E+02  0.13362061515E+03  0.00000000000E+00 0.  1.
         21    1    1    2  504  503 -0.59021798146E+02  0.11213813022E+03  0.12601404241E+03  0.17871225977E+03  0.00000000000E+00 0.  1.
         21    1    1    2  505  504  0.12123109385E+03 -0.26686843469E+03  0.72502154693E+03  0.78203067910E+03  0.00000000000E+00 0.  1.
          2    1    1    2  501    0  0.24986990432E+02  0.55763716484E+02 -0.77662451465E+03  0.77902476118E+03  0.00000000000E+00 0. -1.
<scales pt_clust_3="95.54333" pt_clust_4="95.54333" pt_clust_5="282.97254" pt_clust_6="61.10599"></scales>
<clustering>
<clus scale="   61.106">  2  6  1 -1</clus>
<clus scale="   95.543">  3  4 -1 -1</clus>
<clus scale="  282.973">  1  5  2 -1</clus>
<clus scale="  282.973">  1  3  2 -1</clus>
</clustering>
</event>
<event>
 6    0  0.4017242E+002  0.1961249E+03  0.7546771E-02  0.1153050E+00
         21   -1    0    0  505  502  0.00000000000E+00  0.00000000000E+00  0.13229587366E+04  0.13229587366E+04  0.00000000000E+00 0.  1.
         -4   -1    0    0    0  501 -0.00000000000E+00 -0.00000000000E+00 -0.78657327110E+03  0.78657327110E+03  0.00000000000E+00 0. -1.
         21    1    1    2  503  504  0.13295636142E+03  0.45237971922E+02  0.11199766213E+03  0.17963113446E+03  0.00000000000E+00 0.  1.
         21    1    1    2  504  502  0.79527462120E+00  0.62041198428E+02  0.18170192745E+03  0.19200347185E+03  0.00000000000E+00 0. -1.
         21    1    1    2  505  501 -0.22652650234E+03 -0.32192399240E+02  0.97216087937E+03  0.99872287558E+03  0.00000000000E+00 0.  1.
         -4    1    1    2    0  503  0.92774866303E+02 -0.75086771110E+02 -0.72947500342E+03  0.73917452582E+03  0.00000000000E+00 0. -1.
<scales pt_clust_3="196.12490" pt_clust_4="62.04630" pt_clust_5="14000.00000" pt_clust_6="119.18946"></scales>
<clustering>
<clus scale="   62.046">  1  4  2 -1</clus>
<clus scale="  119.189">  2  6  1 -1</clus>
<clus scale="  196.125">  2  3  1 -1</clus>
<clus scale="   62.046">  1  3  2 -1</clus>
</clustering>
</event>
<event>
 6    0  0.4017242E+002  0.1093952E+03  0.7546771E-02  0.1261694E+00
          1   -1    0    0  504    0 -0.00000000000E+00  0.00000000000E+00  0.11385223308E+04  0.11385223308E+04  0.00000000000E+00 0.  1.
         21   -1    0    0  503  502  0.00000000000E+00 -0.00000000000E+00 -0.73073936386E+03  0.73073936386E+03  0.00000000000E+00 0. -1.
         21    1    1    2  503  501  0.22972841393E+02 -0.29846368081E+02 -0.37762631919E+03  0.37949992632E+03  0.00000000000E+00 0. -1.
         21    1    1    2  504  505 -0.14232210063E+02 -0.88865952931E+02  0.20848475356E+01  0.90022552634E+02  0.00000000000E+00 0. -1.
         21    1    1    2  505  502  0.56264429660E+02  0.11451158572E+03 -0.29397704713E+03  0.32047011335E+03  0.00000000000E+00 0. -1.
          1    1    1    2  501    0 -0.65005060990E+02  0.42007352888E+01  0.10773014857E+04  0.10792691024E+04  0.00000000000E+00 0.  1.
<scales pt_clust_3="37.66374" pt_clust_4="14000.00000" pt_clust_5="109.39520" pt_clust_6="65.07128"></scales>
<clustering>
<clus scale="   37.664">  2  3  1 -1</clus>
<clus scale="   65.071">  1  6  2 -1</clus>
<clus scale="  109.395">  2  5  1 -1</clus>
<clus scale="   37.664">  2  3  1 -1</clus>
</clustering>
</event>
<event>
 6    0  0.4017242E+002  0.7636596E+02  0.7546771E-02  0.1339693E+00
         21   -1    0    0  504  502  0.00000000000E+00  0.00000000000E+00  0.73823551026E+03  0.73823551026E+03  0.00000000000E+00 0.  1.
         -4   -1    0    0    0  501 -0.00000000000E+00 -0.00000000000E+00 -0.14071213690E+03  0.14071213690E+03  0.00000000000E+00 0.  1.
         21    1    1    2  503  501  0.53969779440E+02 -0.11431330299E+02  0.13636823455E+02  0.56827593290E+02  0.00000000000E+00 0.  1.
         21    1    1    2  504  503  0.46472993916E+02  0.57839404676E+02  0.61231323989E+03  0.61679221756E+03  0.00000000000E+00 0.  1.
         21    1    1    2  505  502 -0.82985498997E+02 -0.81893110890E+02  0.42522245263E+02  0.12410163576E+03  0.00000000000E+00 0.  1.
         -4    1    1    2    0  505 -0.17457274360E+02  0.35485036513E+02 -0.70948935250E+02  0.81226200560E+02  0.00000000000E+00 0.  1.
<scales pt_clust_3="48.13803" pt_clust_4="14000.00000" pt_clust_5="76.36596" pt_clust_6="39.54673"></scales>
<clustering>
<clus scale="   39.547">  2  6  1 -1</clus>
<clus scale="   48.138">  2  3  1 -1</clus>
<clus scale="   76.366">  2  5  1 -1</clus>
<clus scale="   76.366">  1  3  2 -1</clus>
</clustering>
</event>
<event>
 6    0  0.4017242E+002  0.8668399E+02  0.7546771E-02  0.1311087E+00
         21   -1    0    0  501  502  0.00000000000E+00  0.00000000000E+00  0.86102643040E+02  0.86102643040E+02  0.00000000000E+00 0.  1.
          1   -1    0    0  505    0 -0.00000000000E+00 -0.00000000000E+00 -0.20649871268E+04  0.20649871268E+04  0.00000000000E+00 0. -1.
         21    1    1    2  503  504 -0.44211980498E+02 -0.56697862481E+02 -0.24845807143E+03  0.25865181246E+03  0.00000000000E+00 0. -1.
         21    1    1    2  504  502 -0.86718809754E+02 -0.27796647741E+01  0.50762317514E+02  0.10052209399E+03  0.00000000000E+00 0.  1.
         21    1    1    2  505  503  0.50660865578E+02  0.21183657393E+02 -0.17835576343E+03  0.18661738662E+03  0.00000000000E+00 0.  1.
          1    1    1    2  501    0  0.80269924674E+02  0.38293869862E+02 -0.16028329664E+04  0.16052984768E+04  0.00000000000E+00 0. -1.
<scales pt_clust_3="65.55257" pt_clust_4="14000.00000" pt_clust_5="54.91148" pt_clust_6="86.68399"></scales>
<clustering>
<clus scale="   54.911">  2  5  1 -1</clus>
<clus scale="   65.553">  2  3  1 -1</clus>
<clus scale="   86.684">  2  6  1 -1</clus>
<clus scale="   86.684">  1  3  2 -1</clus>
</clustering>
</event>
<event>
 6    0  0.4017242E+002  0.1092846E+03  0.7546771E-02  0.1261900E+00
         21   -1    0    0  501  502  0.00000000000E+00  0.00000000000E+00  0.27474601515E+03  0.27474601515E+03  0.00000000000E+00 0. -1.
          1   -1    0    0  503    0 -0.00000000000E+00 -0.00000000000E+00 -0.74339182808E+03  0.74339182808E+03  0.00000000000E+00 0.  1.
         21    1    1    2  503  505 -0.24511550783E+02 -0.27214887087E+02 -0.48141860770E+02  0.60490536114E+02  0.00000000000E+00 0.  1.
         21    1    1    2  504  502  0.98635762937E+02  0.50056135148E+02  0.23899293076E+03  0.26334815616E+03  0.00000000000E+00 0. -1.
         21    1    1    2  505  504 -0.59263132403E+02  0.49845754279E+02 -0.84818710418E+02  0.11485178152E+03  0.00000000000E+00 0. -1.
          1    1    1    2  501    0 -0.14861079752E+02 -0.72687002340E+02 -0.57467817251E+03  0.57944736945E+03  0.00000000000E+00 0.  1.
<scales pt_clust_3="36.62603" pt_clust_4="109.28461" pt_clust_5="77.79922" pt_clust_6="14000.00000"></scales>
<clustering>
<clus scale="   36.626">  2  3  1 -1</clus>
<clus scale="   77.799">  2  5  1 -1</clus>
<clus scale="  109.285">  1  4  2 -1</clus>
<clus scale="  109.285">  1  3  2 -1</clus>
</clustering>
</event>
<event>
 6    0  0.4017242E+002  0.9947550E+02  0.7546771E-02  0.1281403E+00
         21   -1    0    0  505  502  0.00000000000E+00  0.00000000000E+00  0.17562390286E+03  0.17562390286E+03  0.00000000000E+00 0. -1.
          2   -1    0    0  504    0 -0.00000000000E+00 -0.00000000000E+00 -0.24525784225E+03  0.24525784225E+03  0.00000000000E+00 0. -1.
         21    1    1    2  503  501 -0.40421860403E+00 -0.48447187823E+02  0.32610955772E+02  0.58401779400E+02  0.00000000000E+00 0. -1.
         21    1    1    2  504  502  0.20212917725E+02  0.75549255888E+02  0.62530395422E+01  0.78456055290E+02  0.00000000000E+00 0. -1.
         21    1    1    2  505  503  0.44879219258E+02 -0.45747672495E+02  0.69010730914E+02  0.94177889344E+02  0.00000000000E+00 0. -1.
          2    1    1    2  501    0 -0.64687918378E+02  0.18645604431E+02 -0.17750866562E+03  0.18984602108E+03  0.00000000000E+00 0. -1.
<scales pt_clust_3="39.87211" pt_clust_4="88.27505" pt_clust_5="39.87211" pt_clust_6="67.32151"></scales>
<clustering>
<clus scale="   39.872">  3  5 -1 -1</clus>
<clus scale="   67.322">  2  6  1 -1</clus>
<clus scale="   88.275">  2  4  1 -1</clus>
<clus scale="   99.475">  1  3  2 -1</clus>
</clustering>
</event>
<event>
 6    0  0.4017242E+002  0.1199481E+03  0.7546771E-02  0.1243183E+00
         21   -1    0    0  505  502  0.00000000000E+00  0.00000000000E+00  0.10836726802E+04  0.10836726802E+04  0.00000000000E+00 0. -1.
         -2   -1    0    0    0  501 -0.00000000000E+00 -0.00000000000E+00 -0.12627244846E+03  0.12627244846E+03  0.00000000000E+00 0. -1.
         21    1    1    2  503  501  0.27654902555E+02 -0.32228222572E+02  0.47061121803E+02  0.63389282617E+02  0.00000000000E+00 0.  1.
         21    1    1    2  504  502  0.86768008457E+02  0.10979588372E+03  0.57828682394E+03  0.59497854929E+03  0.00000000000E+00 0. -1.
         21    1    1    2  505  503 -0.31454375905E+02  0.75763291781E+01  0.40879649997E+03  0.41007481868E+03  0.00000000000E+00 0. -1.
         -2    1    1    2    0  504 -0.82968535107E+02 -0.85143990322E+02 -0.76744214010E+02  0.14150247803E+03  0.00000000000E+00 0. -1.
<scales pt_clust_3="40.34821" pt_clust_4="119.94808" pt_clust_5="32.35396" pt_clust_6="14000.00000"></scales>
<clustering>
<clus scale="   32.354">  1  5  2 -1</clus>
<clus scale="   40.348">  1  3  2 -1</clus>
<clus scale="  119.948">  1  4  2 -1</clus>
<clus scale="   32.354">  1  3  2 -1</clus>
</clustering>
</event>
<event>
 6    0  0.4017242E+002  0.3781115E+03  0.7546771E-02  0.1051634E+00
          2   -1    0    0  502    0 -0.00000000000E+00  0.00000000000E+00  0.15771893659E+04  0.15771893659E+04  0.00000000000E+00 0. -1.
         21   -1    0    0  504  502  0.00000000000E+00 -0.00000000000E+00 -0.50985055767E+03  0.50985055767E+03  0.00000000000E+00 0. -1.
         21    1    1    2  503  505 -0.59301735272E+02 -0.10848164280E+03  0.20553228294E+02  0.12532915792E+03  0.00000000000E+00 0. -1.
         21    1    1    2  504  503  0.22792157806E+03  0.27900555793E+03 -0.30900964310E+03  0.47463597275E+03  0.00000000000E+00 0. -1.
         21    1    1    2  505  501 -0.20955596706E+03 -0.11850166778E+03  0.15913109051E+03  0.28858110223E+03  0.00000000000E+00 0. -1.
          2    1    1    2  501    0  0.40936124270E+02 -0.52022247346E+02  0.11966641325E+04  0.11984936907E+04  0.00000000000E+00 0. -1.
<scales pt_clust_3="90.91560" pt_clust_4="357.40588" pt_clust_5="90.91560" pt_clust_6="66.19728"></scales>
<clustering>
<clus scale="   66.197">  1  6  2 -1</clus>
<clus scale="   90.916">  3  5 -1 -1</clus>
<clus scale="  357.406">  2  4  1 -1</clus>
<clus scale="  357.406">  2  3  1 -1</clus>
</clustering>
</event>
<event>
 6    0  0.4017242E+002  0.7829567E+02  0.7546771E-02  0.1333959E+00
          2   -1    0    0  504    0 -0.00000000000E+00  0.00000000000E+00  0.88396592728E+03  0.88396592728E+03  0.00000000000E+00 0. -1.
         21   -1    0    0  501  502  0.00000000000E+00 -0.00000000000E+00 -0.36492395041E+02  0.36492395041E+02  0.00000000000E+00 0.  1.
         21    1    1    2  503  502 -0.16494361952E+02  0.49399944515E+02  0.33762907493E+02  0.62067321649E+02  0.00000000000E+00 0.  1.
         21    1    1    2  504  505  0.11541480695E+02  0.38890552240E+02  0.15643626384E+03  0.16161059827E+03  0.00000000000E+00 0. -1.
         21    1    1    2  505  503 -0.68211580111E+02 -0.44388519718E+02  0.83145468812E+02  0.11634573189E+03  0.00000000000E+00 0.  1.
          2    1    1    2  501    0  0.73164461368E+02 -0.43901977037E+02  0.57412889210E+03  0.58043467052E+03  0.00000000000E+00 0. -1.
<scales pt_clust_3="54.29922" pt_clust_4="40.56699" pt_clust_5="14000.00000" pt_clust_6="78.29567"></scales>
<clustering>
<clus scale="   40.567">  1  4  2 -1</clus>
<clus scale="   54.299">  2  3  1 -1</clus>
<clus scale="   78.296">  1  6  2 -1</clus>
<clus scale="   54.299">  2  3  1 -1</clus>
</clustering>
</event>
<event>
 6    0  0.4017242E+002  0.3335490E+03  0.7546771E-02  0.1069577E+00
          1   -1    0    0  504    0 -0.00000000000E+00  0.00000000000E+00  0.79329608297E+03  0.79329608297E+03  0.00000000000E+00 0.  1.
         21   -1    0    0  503  502  0.00000000000E+00 -0.00000000000E+00 -0.85128970215E+03  0.85128970215E+03  0.00000000000E+00 0. -1.
         21    1    1    2  503  501 -0.97685726794E+01 -0.75304823363E+02 -0.53887574698E+03  0.54419969875E+03  0.00000000000E+00 0. -1.
         21    1    1    2  504  505  0.11845084007E+03 -0.31879298466E+02 -0.46824948806E+02  0.13129915085E+03  0.00000000000E+00 0. -1.
         21    1    1    2  505  502  0.19196772506E+03 -0.39114731988E+02 -0.12732682343E+03  0.23365292570E+03  0.00000000000E+00 0. -1.
          1    1    1    2  501    0 -0.30064999245E+03  0.14629885382E+03  0.65503390004E+03  0.73543400981E+03  0.00000000000E+00 0.  1.
<scales pt_clust_3="75.93577" pt_clust_4="30.24870" pt_clust_5="30.24870" pt_clust_6="331.35118"></scales>
<clustering>
<clus scale="   30.249">  4  5 -1 -1</clus>
<clus scale="   75.936">  2  3  1 -1</clus>
<clus scale="  331.351">  1  6  2 -1</clus>
<clus scale="   75.936">  2  3  1 -1</clus>
</clustering>
</event>
<event>
 6    0  0.4017242E+002  0.1287746E+03  0.7546771E-02  0.1229285E+00
         21   -1    0    0  503  502  0.00000000000E+00  0.00000000000E+00  0.28600755974E+03  0.28600755974E+03  0.00000000000E+00 0.  1.
          1   -1    0    0  505    0 -0.00000000000E+00 -0.00000000000E+00 -0.41114527517E+03  0.41114527517E+03  0.00000000000E+00 0.  1.
         21    1    1    2  503  504  0.11714246578E+02  0.43933671402E+02  0.17873732830E+03  0.18442999643E+03  0.00000000000E+00 0.  1.
         21    1    1    2  504  501 -0.16654799581E+02 -0.71206401463E+02 -0.16535960859E+03  0.18080800345E+03  0.00000000000E+00 0.  1.
         21    1    1    2  505  502  0.35619649332E+02  0.74938468671E+02  0.74484575314E+02  0.11150105589E+03  0.00000000000E+00 0.  1.
          1    1    1    2  501    0 -0.30679096329E+02 -0.47665738610E+02 -0.21300001044E+03  0.22041377915E+03  0.00000000000E+00 0.  1.
<scales pt_clust_3="45.46857" pt_clust_4="33.54683" pt_clust_5="123.00841" pt_clust_6="33.54683"></scales>
<clustering>
<clus scale="   33.547">  4  6 -1 -1</clus>
<clus scale="   45.469">  1  3  2 -1</clus>
<clus scale="  123.008">  1  5  2 -1</clus>
<clus scale="   45.469">  1  3  2 -1</clus>
</clustering>
</event>
<event>
 6    0  0.4017242E+002  0.1707224E+03  0.7546771E-02  0.1177097E+00
          2   -1    0    0  503    0 -0.00000000000E+00  0.00000000000E+00  0.11152832891E+04  0.11152832891E+04  0.00000000000E+00 0. -1.
         21   -1    0    0  505  502  0.00000000000E+00 -0.00000000000E+00 -0.17509201671E+03  0.17509201671E+03  0.00000000000E+00 0.  1.
         21    1    1    2  503  504  0.11276133486E+03 -0.80990093219E+01  0.11837849233E+03  0.16368927893E+03  0.00000000000E+00 0. -1.
         21    1    1    2  504  502  0.52696509014E+02  0.50670780636E+02  0.10566869864E+03  0.12849250541E+03  0.00000000000E+00 0.  1.
         21    1    1    2  505  501 -0.13607625786E+03 -0.62311402882E+02 -0.10082490071E+03  0.18045808235E+03  0.00000000000E+00 0.  1.
          2    1    1    2  501    0 -0.29381586009E+02  0.19739631567E+02  0.81696898215E+03  0.81773543915E+03  0.00000000000E+00 0. -1.
<scales pt_clust_3="65.77241" pt_clust_4="65.77241" pt_clust_5="152.18976" pt_clust_6="35.39676"></scales>
<clustering>
<clus scale="   35.397">  1  6  2 -1</clus>
<clus scale="   65.772">  3  4 -1 -1</clus>
<clus scale="  152.190">  2  5  1 -1</clus>
<clus scale="  152.190">  2  3  1 -1</clus>
</clustering>
</event>
<event>
 6    0  0.4017242E+002  0.3086896E+03  0.7546771E-02  0.1080976E+00
          2   -1    0    0  504    0 -0.00000000000E+00  0.00000000000E+00  0.15250781121E+04  0.15250781121E+04  0.00000000000E+00 0. -1.
         21   -1    0    0  503  502  0.00000000000E+00 -0.00000000000E+00 -0.26863387726E+03  0.26863387726E+03  0.00000000000E+00 0.  1.
         21    1    1    2  503  505 -0.20818785739E+03 -0.34125946798E+01  0.44216436822E+02  0.21285892758E+03  0.00000000000E+00 0.  1.
         21    1    1    2  504  502  0.24685887317E+03  0.38272503923E+02  0.50544437264E+02  0.25487021787E+03  0.00000000000E+00 0.  1.
         21    1    1    2  505  501 -0.19093843368E+03  0.49460056956E+02  0.53711550547E+02  0.20442287874E+03  0.00000000000E+00 0.  1.
          2    1    1    2  501    0  0.15226741789E+03 -0.84319966199E+02  0.11079718102E+04  0.11215599652E+04  0.00000000000E+00 0. -1.
<scales pt_clust_3="54.29557" pt_clust_4="303.60698" pt_clust_5="54.29557" pt_clust_6="174.05523"></scales>
<clustering>
<clus scale="   54.296">  3  5 -1 -1</clus>
<clus scale="  174.055">  1  6  2 -1</clus>
<clus scale="  303.607">  2  4  1 -1</clus>
<clus scale="  303.607">  2  3  1 -1</clus>
</clustering>
</event>
<event>
 6    0  0.4017242E+002  0.7910293E+02  0.7546771E-02  0.1331617E+00
         21   -1    0    0  503  502  0.00000000000E+00  0.00000000000E+00  0.60791659022E+03  0.60791659022E+03  0.00000000000E+00 0. -1.
          2   -1    0    0  504    0 -0.00000000000E+00 -0.00000000000E+00 -0.59401623564E+03  0.59401623564E+03  0.00000000000E+00 0.  1.
         21    1    1    2  503  505 -0.40313316058E+02 -0.91898939731E+01  0.74747237804E+01  0.42017723623E+02  0.00000000000E+00 0.  1.
         21    1    1    2  504  502  0.10344299367E+03  0.82983272831E+02  0.46185910370E+03  0.48052107985E+03  0.00000000000E+00 0. -1.
         21    1    1    2  505  501 -0.22743215466E+02 -0.52400540332E+02  0.10370183694E+03  0.11839400940E+03  0.00000000000E+00 0.  1.
          2    1    1    2  501    0 -0.40386462147E+02 -0.21392838525E+02 -0.55913530984E+03  0.56100001299E+03  0.00000000000E+00 0.  1.
<scales pt_clust_3="41.34752" pt_clust_4="14000.00000" pt_clust_5="79.10293" pt_clust_6="45.76635"></scales>
<clustering>
<clus scale="   41.348">  1  3  2 -1</clus>
<clus scale="   45.766">  2  6  1 -1</clus>
<clus scale="   79.103">  2  5  1 -1</clus>
<clus scale="   41.348">  1  3  2 -1</clus>
</clustering>
</event>
<event>
 6    0  0.4017242E+002  0.1065613E+03  0.7546771E-02  0.1267074E+00
         -4   -1    0    0    0  501 -0.00000000000E+00  0.00000000000E+00  0.59507779057E+03  0.59507779057E+03  0.00000000000E+00 0. -1.
         21   -1    0    0  505  502  0.00000000000E+00 -0.00000000000E+00 -0.95620696185E+03  0.95620696185E+03  0.00000000000E+00 0. -1.
         21    1    1    2  503  501 -0.59504625884E+02  0.32950903546E+02  0.21651652652E+01  0.68053291521E+02  0.00000000000E+00 0. -1.
         21    1    1    2  504  502  0.98909066180E+02 -0.11181100629E+03  0.19505694634E+03  0.24562556222E+03  0.00000000000E+00 0. -1.
         21    1    1    2  505  503 -0.10645628308E+03  0.52085660867E+01 -0.88741803071E+03  0.89379574322E+03  0.00000000000E+00 0. -1.
         -4    1    1    2    0  504  0.67051842780E+02  0.73651536657E+02  0.32906674783E+03  0.34381015546E+03  0.00000000000E+00 0. -1.
<scales pt_clust_3="68.01884" pt_clust_4="106.56131" pt_clust_5="14000.00000" pt_clust_6="98.55168"></scales>
<clustering>
<clus scale="   68.019">  1  3  2 -1</clus>
<clus scale="   98.552">  1  6  2 -1</clus>
<clus scale="  106.561">  1  4  2 -1</clus>
<clus scale="  106.561">  2  3  1 -1</clus>
</clustering>
</event>
<event>
 6    0  0.4017242E+002  0.8390270E+02  0.7546771E-02  0.1318327E+00
         21   -1    0    0  503  502  0.00000000000E+00  0.00000000000E+00  0.12083910640E+03  0.12083910640E+03  0.00000000000E+00 0. -1.
          1   -1    0    0  505    0 -0.00000000000E+00 -0.00000000000E+00 -0.11254612623E+04  0.11254612623E+04  0.00000000000E+00 0. -1.
         21    1    1    2  503  504  0.25238986361E+02  0.18519592821E+02  0.53066614245E+02  0.61612071043E+02  0.00000000000E+00 0. -1.
         21    1    1    2  504  501 -0.13286505685E+03 -0.17804873880E+02 -0.34094626284E+02  0.13832057117E+03  0.00000000000E+00 0. -1.
         21    1    1    2  505  502  0.26893409875E+02  0.16358982542E+02 -0.15836482754E+02  0.35237281259E+02  0.00000000000E+00 0. -1.
          1    1    1    2  501    0  0.80732660617E+02 -0.17073701482E+02 -0.10077576611E+04  0.10111304452E+04  0.00000000000E+00 0. -1.
<scales pt_clust_3="31.30466" pt_clust_4="14000.00000" pt_clust_5="36.24476" pt_clust_6="83.90270"></scales>
<clustering>
<clus scale="   31.305">  1  3  2 -1</clus>
<clus scale="   36.245">  1  5  2 -1</clus>
<clus scale="   83.903">  2  6  1 -1</clus>
<clus scale="   31.305">  1  3  2 -1</clus>
</clustering>
</event>
<event>
 6    0  0.4017242E+002  0.1085250E+03  0.7546771E-02  0.1263326E+00
         21   -1    0    0  504  502  0.00000000000E+00  0.00000000000E+00  0.45442018003E+03  0.45442018003E+03  0.00000000000E+00 0.  1.
          4   -1    0    0  503    0 -0.00000000000E+00 -0.00000000000E+00 -0.40933921116E+03  0.40933921116E+03  0.00000000000E+00 0. -1.
         21    1    1    2  503  505 -0.12197409872E+02 -0.37046774839E+02 -0.19387718062E+02  0.43555986330E+02  0.00000000000E+00 0. -1.
         21    1    1    2  504  501  0.62088857355E+02  0.10562997538E+03  0.19412247538E+03  0.22955664519E+03  0.00000000000E+00 0.  1.
         21    1    1    2  505  502 -0.33687553985E+02  0.29254752545E+00  0.22575926266E+03  0.22825902294E+03  0.00000000000E+00 0.  1.
          4    1    1    2  501    0 -0.16203893498E+02 -0.68875748065E+02 -0.35541305110E+03  0.36238773672E+03  0.00000000000E+00 0. -1.
<scales pt_clust_3="39.58487" pt_clust_4="14000.00000" pt_clust_5="33.68882" pt_clust_6="108.52499"></scales>
<clustering>
<clus scale="   33.689">  1  5  2 -1</clus>
<clus scale="   39.585">  2  3  1 -1</clus>
<clus scale="  108.525">  2  6  1 -1</clus>
<clus scale="   33.689">  1  3  2 -1</clus>
</clustering>
</event>
<event>
 6    0  0.4017242E+002  0.1032919E+03  0.7546771E-02  0.1273522E+00
         21   -1    0    0  504  502  0.00000000000E+00  0.00000000000E+00  0.11827715149E+03  0.11827715149E+03  0.00000000000E+00 0.  1.
          2   -1    0    0  503    0 -0.00000000000E+00 -0.00000000000E+00 -0.10676486888E+04  0.10676486888E+04  0.00000000000E+00 0.  1.
         21    1    1    2  503  505  0.10758806113E+03 -0.13916889730E+02 -0.20489524216E+01  0.10850377378E+03  0.00000000000E+00 0.  1.
         21    1    1    2  504  501  0.75167188341E+02  0.36076558405E+02 -0.83487803324E+02  0.11799083682E+03  0.00000000000E+00 0.  1.
         21    1    1    2  505  502 -0.84574658661E+02 -0.53582852800E+02 -0.11378394533E+02  0.10076439284E+03  0.00000000000E+00 0. -1.
          2    1    1    2  501    0 -0.98180590813E+02  0.31423184125E+02 -0.85245638701E+03  0.85866683683E+03  0.00000000000E+00 0.  1.
<scales pt_clust_3="103.29194" pt_clust_4="83.37640" pt_clust_5="63.63450" pt_clust_6="14000.00000"></scales>
<clustering>
<clus scale="   83.376">  1  4  2 -1</clus>
<clus scale="   63.634">  1  5  2 -1</clus>
<clus scale="  103.292">  1  3  2 -1</clus>
<clus scale="   83.376">  1  3  2 -1</clus>
</clustering>
</event>
<event>
 6    0  0.4017242E+002  0.1016692E+03  0.7546771E-02  0.1276824E+00
          1   -1    0    0  503    0 -0.00000000000E+00  0.00000000000E+00  0.13140394901E+04  0.13140394901E+04  0.00000000000E+00 0.  1.
         21   -1    0    0  504  502  0.00000000000E+00 -0.00000000000E+00 -0.65519304859E+02  0.65519304859E+02  0.00000000000E+00 0.  1.
         21    1    1    2  503  505 -0.13445543187E+03 -0.31712615350E+02  0.81692486584E+03  0.82852289622E+03  0.00000000000E+00 0.  1.
         21    1    1    2  504  501  0.75354131379E+02  0.27585941891E+01  0.20625039424E+03  0.21960209489E+03  0.00000000000E+00 0.  1.
         21    1    1    2  505  502  0.29432117648E+02  0.18912850864E+02 -0.46276376684E+02  0.58012485864E+02  0.00000000000E+00 0.  1.
          1    1    1    2  501    0  0.29669182840E+02  0.10041170297E+02  0.27162130182E+03  0.27342131796E+03  0.00000000000E+00 0.  1.
<scales pt_clust_3="14000.00000" pt_clust_4="101.66921" pt_clust_5="35.15617" pt_clust_6="31.32228"></scales>
<clustering>
<clus scale="   31.322">  1  6  2 -1</clus>
<clus scale="   35.156">  2  5  1 -1</clus>
<clus scale="  101.669">  2  4  1 -1</clus>
<clus scale="   35.156">  2  3  1 -1</clus>
</clustering>
</event>
<event>
 6    0  0.4017242E+002  0.7874485E+02  0.7546771E-02  0.1332652E+00
          2   -1    0    0  504    0 -0.00000000000E+00  0.00000000000E+00  0.24136282309E+03  0.24136282309E+03  0.00000000000E+00 0. -1.
         21   -1    0    0  503  502  0.00000000000E+00 -0.00000000000E+00 -0.95573316367E+03  0.95573316367E+03  0.00000000000E+00 0.  1.
         21    1    1    2  503  501 -0.10755058796E+03 -0.66116663350E+02 -0.34743538228E+03  0.36966185495E+03  0.00000000000E+00 0.  1.
         21    1    1    2  504  505  0.23583479932E+02 -0.22460756647E+02  0.23752599769E+02  0.40309454358E+02  0.00000000000E+00 0.  1.
         21    1    1    2  505  502  0.42634839115E+02  0.24744543053E+02 -0.58052918096E+03  0.58261835867E+03  0.00000000000E+00 0.  1.
          2    1    1    2  501    0  0.41332268918E+02  0.63832876944E+02  0.18984162290E+03  0.20450631877E+03  0.00000000000E+00 0. -1.
<scales pt_clust_3="78.74485" pt_clust_4="32.56787" pt_clust_5="49.34102" pt_clust_6="14000.00000"></scales>
<clustering>
<clus scale="   32.568">  1  4  2 -1</clus>
<clus scale="   49.341">  2  5  1 -1</clus>
<clus scale="   78.745">  2  3  1 -1</clus>
<clus scale="   49.341">  2  3  1 -1</clus>
</clustering>
</event>
<event>
 6    0  0.4017242E+002  0.1661718E+03  0.7546771E-02  0.1181900E+00
         21   -1    0    0  503  502  0.00000000000E+00  0.00000000000E+00  0.93528376836E+02  0.93528376836E+02  0.00000000000E+00 0. -1.
          2   -1    0    0  505    0 -0.00000000000E+00 -0.00000000000E+00 -0.15173152224E+04  0.15173152224E+04  0.00000000000E+00 0. -1.
         21    1    1    2  503  504 -0.19800903702E+02  0.46744886533E+02 -0.43575993313E+01  0.50952417767E+02  0.00000000000E+00 0. -1.
         21    1    1    2  504  501  0.46933123897E+01  0.97781857897E+02 -0.82545255437E+02  0.12805091999E+03  0.00000000000E+00 0. -1.
         21    1    1    2  505  502 -0.46006758450E+02 -0.16831723151E+03 -0.11675511614E+03  0.20995015930E+03  0.00000000000E+00 0. -1.
          2    1    1    2  501    0  0.61114349762E+02  0.23790487081E+02 -0.12201288747E+04  0.12218901022E+04  0.00000000000E+00 0. -1.
<scales pt_clust_3="41.82833" pt_clust_4="41.82833" pt_clust_5="155.68938" pt_clust_6="65.58164"></scales>
<clustering>
<clus scale="   41.828">  3  4 -1 -1</clus>
<clus scale="   65.582">  2  6  1 -1</clus>
<clus scale="  155.689">  2  5  1 -1</clus>
<clus scale="  166.172">  1  3  2 -1</clus>
</clustering>
</event>
<event>
 6    0  0.4017242E+002  0.1218178E+03  0.7546771E-02  0.1240128E+00
         21   -1    0    0  503  502  0.00000000000E+00  0.00000000000E+00  0.11148973735E+03  0.11148973735E+03  0.00000000000E+00 0. -1.
         -1   -1    0    0    0  501 -0.00000000000E+00 -0.00000000000E+00 -0.57745350078E+03  0.57745350078E+03  0.00000000000E+00 0. -1.
         21    1    1    2  503  504  0.10203734769E+02 -0.77930246357E+02  0.52891734092E+01  0.78773186148E+02  0.00000000000E+00 0. -1.
         21    1    1    2  504  501 -0.25829411643E+02 -0.79075195366E+02  0.95523671687E+00  0.83192292343E+02  0.00000000000E+00 0. -1.
         21    1    1    2  505  502 -0.27367623977E+02  0.52077615599E+02 -0.22163281865E+02  0.62867129342E+02  0.00000000000E+00 0. -1.
         -1    1    1    2    0  505  0.42993300852E+02  0.10492782612E+03 -0.45004489169E+03  0.46411063029E+03  0.00000000000E+00 0. -1.
<scales pt_clust_3="35.03226" pt_clust_4="35.03226" pt_clust_5="58.83082" pt_clust_6="116.36423"></scales>
<clustering>
<clus scale="   35.032">  3  4 -1 -1</clus>
<clus scale="   58.831">  1  5  2 -1</clus>
<clus scale="  116.364">  2  6  1 -1</clus>
<clus scale="   58.831">  1  3  2 -1</clus>
</clustering>
</event>
<event>
 6    0  0.4017242E+002  0.1503900E+03  0.7546771E-02  0.1199995E+00
          1   -1    0    0  504    0 -0.00000000000E+00  0.00000000000E+00  0.18538875259E+04  0.18538875259E+04  0.00000000000E+00 0. -1.
         21   -1    0    0  503  502  0.00000000000E+00 -0.00000000000E+00 -0.30174492657E+03  0.30174492657E+03  0.00000000000E+00 0.  1.
         21    1    1    2  503  505  0.88526603033E+02 -0.38278788048E+02  0.17537172430E+00  0.96448202752E+02  0.00000000000E+00 0. -1.
         21    1    1    2  504  502 -0.18077089537E+03  0.18167531496E+03 -0.17628549145E+03  0.31106367704E+03  0.00000000000E+00 0.  1.
         21    1    1    2  505  501  0.33135987614E+02 -0.64057187877E+01  0.36159943507E+02  0.49462798372E+02  0.00000000000E+00 0.  1.
          1    1    1    2  501    0  0.59108304721E+02 -0.13699080812E+03  0.16920927755E+04  0.16986577743E+04  0.00000000000E+00 0. -1.
<scales pt_clust_3="141.31442" pt_clust_4="150.38995" pt_clust_5="33.31223" pt_clust_6="14000.00000"></scales>
<clustering>
<clus scale="   33.312">  3  5 -1 -1</clus>
<clus scale="  141.314">  2  3  1 -1</clus>
<clus scale="  150.390">  2  4  1 -1</clus>
<clus scale="  141.314">  2  3  1 -1</clus>
</clustering>
</event>
<event>
 6    0  0.4017242E+002  0.7480470E+02  0.7546771E-02  0.1344477E+00
         21   -1    0    0  503  502  0.00000000000E+00  0.00000000000E+00  0.22474497356E+03  0.22474497356E+03  0.00000000000E+00 0. -1.
          2   -1    0    0  504    0 -0.00000000000E+00 -0.00000000000E+00 -0.90362108852E+03  0.90362108852E+03  0.00000000000E+00 0.  1.
         21    1    1    2  503  505  0.55071545922E+02 -0.58064144120E+02  0.12568945659E+03  0.14900389089E+03  0.00000000000E+00 0. -1.
         21    1    1    2  504  502  0.31899662414E+02  0.74928690384E+02 -0.89671671691E+02  0.12113177043E+03  0.00000000000E+00 0. -1.
         21    1    1    2  505  501 -0.73277664017E+02  0.15127640719E+02  0.51636236533E+02  0.90910739084E+02  0.00000000000E+00 0. -1.
          2    1    1    2  501    0 -0.13693544320E+02 -0.31992186983E+02 -0.76653013639E+03  0.76731966167E+03  0.00000000000E+00 0.  1.
<scales pt_clust_3="14000.00000" pt_clust_4="54.60375" pt_clust_5="74.80470" pt_clust_6="34.79961"></scales>
<clustering>
<clus scale="   34.800">  2  6  1 -1</clus>
<clus scale="   54.604">  2  4  1 -1</clus>
<clus scale="   74.805">  2  5  1 -1</clus>
<clus scale="   74.805">  1  3  2 -1</clus>
</clustering>
</event>
<event>
 6    0  0.4017242E+002  0.8116979E+02  0.7546771E-02  0.1325764E+00
         21   -1    0    0  505  502  0.00000000000E+00  0.00000000000E+00  0.99142769524E+02  0.99142769524E+02  0.00000000000E+00 0. -1.
         -2   -1    0    0    0  501 -0.00000000000E+00 -0.00000000000E+00 -0.93708912574E+03  0.93708912574E+03  0.00000000000E+00 0.  1.
         21    1    1    2  503  504  0.11987764147E+02  0.72387142030E+02  0.39922382072E+01  0.73481581274E+02  0.00000000000E+00 0. -1.
         21    1    1    2  504  502  0.30550086622E+02 -0.35484224460E+02 -0.60107898016E+02  0.76193158368E+02  0.00000000000E+00 0. -1.
         21    1    1    2  505  501  0.39115104735E+02 -0.49438725535E+02  0.30503606446E+02  0.70033199321E+02  0.00000000000E+00 0. -1.
         -2    1    1    2    0  503 -0.81652955504E+02  0.12535807966E+02 -0.81233430286E+03  0.81652395630E+03  0.00000000000E+00 0.  1.
<scales pt_clust_3="62.50645" pt_clust_4="46.82348" pt_clust_5="14000.00000" pt_clust_6="81.16979"></scales>
<clustering>
<clus scale="   46.823">  1  4  2 -1</clus>
<clus scale="   62.506">  1  3  2 -1</clus>
<clus scale="   81.170">  2  6  1 -1</clus>
<clus scale="   46.823">  1  3  2 -1</clus>
</clustering>
</event>
<event>
 6    0  0.4017242E+002  0.7718444E+02  0.7546771E-02  0.1337237E+00
          2   -1    0    0  502    0 -0.00000000000E+00  0.00000000000E+00  0.30447450240E+04  0.30447450240E+04  0.00000000000E+00 0. -1.
         21   -1    0    0  504  502  0.00000000000E+00 -0.00000000000E+00 -0.29039485205E+03  0.29039485205E+03  0.00000000000E+00 0.  1.
         21    1    1    2  503  505 -0.32468859352E+02  0.64093693990E+02  0.73495019858E+02  0.10278008747E+03  0.00000000000E+00 0. -1.
         21    1    1    2  504  503  0.80095504357E+02  0.62981871926E-01 -0.26332467198E+03  0.27523658306E+03  0.00000000000E+00 0.  1.
         21    1    1    2  505  501 -0.48308788523E+01 -0.70685812649E+02  0.19285328231E+03  0.20545610236E+03  0.00000000000E+00 0. -1.
          2    1    1    2  501    0 -0.42795766152E+02  0.65291367870E+01  0.27513265418E+04  0.27516671032E+04  0.00000000000E+00 0. -1.
<scales pt_clust_3="77.18444" pt_clust_4="14000.00000" pt_clust_5="74.41873" pt_clust_6="43.29096"></scales>
<clustering>
<clus scale="   43.291">  1  6  2 -1</clus>
<clus scale="   74.419">  1  5  2 -1</clus>
<clus scale="   77.184">  1  3  2 -1</clus>
<clus scale="   77.184">  2  3  1 -1</clus>
</clustering>
</event>
<event>
 6    0  0.4017242E+002  0.1979294E+03  0.7546771E-02  0.1151498E+00
          4   -1    0    0  505    0 -0.00000000000E+00  0.00000000000E+00  0.21882457199E+03  0.21882457199E+03  0.00000000000E+00 0. -1.
         21   -1    0    0  503  502  0.00000000000E+00 -0.00000000000E+00 -0.14773786713E+04  0.14773786713E+04  0.00000000000E+00 0.  1.
         21    1    1    2  503  501  0.19432370737E+03 -0.70290961121E+02 -0.83333123168E+03  0.85857059358E+03  0.00000000000E+00 0.  1.
         21    1    1    2  504  502 -0.18268857321E+03  0.37316613703E+02 -0.45480558818E+03  0.49154426808E+03  0.00000000000E+00 0.  1.
         21    1    1    2  505  504 -0.34897429705E+02  0.71570320544E+02 -0.14519469678E+03  0.16559481077E+03  0.00000000000E+00 0.  1.
          4    1    1    2  501    0  0.23262295539E+02 -0.38595973126E+02  0.17477741730E+03  0.18049357089E+03  0.00000000000E+00 0. -1.
<scales pt_clust_3="197.92940" pt_clust_4="14000.00000" pt_clust_5="68.51635" pt_clust_6="45.06422"></scales>
<clustering>
<clus scale="   45.064">  1  6  2 -1</clus>
<clus scale="   68.516">  1  5  2 -1</clus>
<clus scale="  197.929">  2  3  1 -1</clus>
<clus scale="  197.929">  2  3  1 -1</clus>
</clustering>
</event>
<event>
 6    0  0.4017242E+002  0.2121263E+03  0.7546771E-02  0.1139893E+00
         21   -1    0    0  503  502  0.00000000000E+00  0.00000000000E+00  0.98537627286E+02  0.98537627286E+02  0.00000000000E+00 0. -1.
          2   -1    0    0  504    0 -0.00000000000E+00 -0.00000000000E+00 -0.23265314992E+04  0.23265314992E+04  0.00000000000E+00 0.  1.
         21    1    1    2  503  505 -0.19234038104E+02  0.77814526434E+02  0.96062322529E+01  0.80729972402E+02  0.00000000000E+00 0. -1.
         21    1    1    2  504  502  0.63203881530E+02  0.57032801515E+01 -0.38161932701E+02  0.74051273806E+02  0.00000000000E+00 0. -1.
         21    1    1    2  505  501 -0.83690897263E+01  0.11327327166E+03 -0.74221175351E+02  0.13568219709E+03  0.00000000000E+00 0. -1.
          2    1    1    2  501    0 -0.35600753699E+02 -0.19679107825E+03 -0.21252169962E+04  0.21346056832E+04  0.00000000000E+00 0.  1.
<scales pt_clust_3="61.63291" pt_clust_4="63.46068" pt_clust_5="61.63291" pt_clust_6="199.03500"></scales>
<clustering>
<clus scale="   61.633">  3  5 -1 -1</clus>
<clus scale="   63.461">  1  4  2 -1</clus>
<clus scale="  199.035">  2  6  1 -1</clus>
<clus scale="   63.461">  1  3  2 -1</clus>
</clustering>
</event>
<event>
 6    0  0.4017242E+002  0.1200498E+03  0.7546771E-02  0.1243015E+00
          2   -1    0    0  503    0 -0.00000000000E+00  0.00000000000E+00  0.17782734987E+04  0.17782734987E+04  0.00000000000E+00 0. -1.
         21   -1    0    0  504  502  0.00000000000E+00 -0.00000000000E+00 -0.16403385540E+03  0.16403385540E+03  0.00000000000E+00 0. -1.
         21    1    1    2  503  502 -0.59826162945E+01  0.68803954956E+02 -0.59967588603E+01  0.69323423402E+02  0.00000000000E+00 0. -1.
         21    1    1    2  504  505 -0.46836982963E+02  0.13296551904E+02 -0.11249412424E+03  0.12257825768E+03  0.00000000000E+00 0. -1.
         21    1    1    2  505  501  0.43434921279E+02  0.40796686310E+02  0.13073172645E+03  0.14367235747E+03  0.00000000000E+00 0.  1.
          2    1    1    2  501    0  0.93846779784E+01 -0.12289719317E+03  0.16019988000E+04  0.16067333156E+04  0.00000000000E+00 0. -1.
<scales pt_clust_3="120.04984" pt_clust_4="48.68779" pt_clust_5="56.40617" pt_clust_6="14000.00000"></scales>
<clustering>
<clus scale="   48.688">  2  4  1 -1</clus>
<clus scale="   56.406">  2  5  1 -1</clus>
<clus scale="  120.050">  2  3  1 -1</clus>
<clus scale="   48.688">  2  3  1 -1</clus>
</clustering>
</event>
<event>
 6    0  0.4017242E+002  0.1373846E+03  0.7546771E-02  0.1216892E+00
         -3   -1    0    0    0  501 -0.00000000000E+00  0.00000000000E+00  0.13481435084E+03  0.13481435084E+03  0.00000000000E+00 0. -1.
         21   -1    0    0  503  502  0.00000000000E+00 -0.00000000000E+00 -0.12291814254E+04  0.12291814254E+04  0.00000000000E+00 0. -1.
         21    1    1    2  503  504  0.72687045044E+02 -0.28007808511E+02 -0.73878633335E+03  0.74288161250E+03  0.00000000000E+00 0. -1.
         21    1    1    2  504  501 -0.46249473601E+02  0.14593719154E+03 -0.24030952437E+03  0.28493042166E+03  0.00000000000E+00 0.  1.
         21    1    1    2  505  502 -0.61347350701E+02  0.12292750090E+02 -0.17712577513E+03  0.18785140233E+03  0.00000000000E+00 0.  1.
         -3    1    1    2    0  505  0.34909779258E+02 -0.13022213312E+03  0.61854558263E+02  0.14833233976E+03  0.00000000000E+00 0. -1.
<scales pt_clust_3="35.06112" pt_clust_4="14000.00000" pt_clust_5="62.56684" pt_clust_6="137.38463"></scales>
<clustering>
<clus scale="   62.567">  2  5  1 -1</clus>
<clus scale="   35.061">  2  3  1 -1</clus>
<clus scale="  137.385">  1  6  2 -1</clus>
<clus scale="   62.567">  2  3  1 -1</clus>
</clustering>
</event>
<event>
 6    0  0.4017242E+002  0.1368214E+03  0.7546771E-02  0.1217671E+00
         21   -1    0    0  503  502  0.00000000000E+00  0.00000000000E+00  0.29822578015E+03  0.29822578015E+03  0.00000000000E+00 0.  1.
          2   -1    0    0  505    0 -0.00000000000E+00 -0.00000000000E+00 -0.38126236190E+03  0.38126236190E+03  0.00000000000E+00 0. -1.
         21    1    1    2  503  504  0.74883378707E+01  0.58380783812E+02  0.17184242398E+03  0.18164308355E+03  0.00000000000E+00 0.  1.
         21    1    1    2  504  501  0.96612610721E+02  0.11228240216E+03  0.20271281995E+01  0.14813994611E+03  0.00000000000E+00 0.  1.
         21    1    1    2  505  502 -0.73624521472E+02 -0.98449083941E+02 -0.58033761426E+02  0.13594377425E+03  0.00000000000E+00 0. -1.
          2    1    1    2  501    0 -0.30476427120E+02 -0.72214102026E+02 -0.19887237250E+03  0.21376133815E+03  0.00000000000E+00 0. -1.
<scales pt_clust_3="58.85908" pt_clust_4="14000.00000" pt_clust_5="136.82141" pt_clust_6="74.91345"></scales>
<clustering>
<clus scale="   58.859">  1  3  2 -1</clus>
<clus scale="   74.913">  2  6  1 -1</clus>
<clus scale="  136.821">  1  5  2 -1</clus>
<clus scale="   58.859">  1  3  2 -1</clus>
</clustering>
</event>
<event>
 6    0  0.4017242E+002  0.8091366E+02  0.7546771E-02  0.1326478E+00
          1   -1    0    0  505    0 -0.00000000000E+00  0.00000000000E+00  0.14452895012E+04  0.14452895012E+04  0.00000000000E+00 0. -1.
         21   -1    0    0  504  502  0.00000000000E+00 -0.00000000000E+00 -0.11479776551E+04  0.11479776551E+04  0.00000000000E+00 0. -1.
         21    1    1    2  503  501 -0.59747553833E+02  0.10241644047E+03 -0.74378144134E+03  0.75317310756E+03  0.00000000000E+00 0. -1.
         21    1    1    2  504  503  0.38506836720E+02  0.27669148003E+02 -0.32525824757E+03  0.32869634290E+03  0.00000000000E+00 0.  1.
         21    1    1    2  505  502 -0.34402858468E+02 -0.71415276129E+02 -0.49358232340E+02  0.93380583823E+02  0.00000000000E+00 0.  1.
          1    1    1    2  501    0  0.55643575581E+02 -0.58670312343E+02  0.14157097673E+04  0.14180171220E+04  0.00000000000E+00 0. -1.
<scales pt_clust_3="80.91366" pt_clust_4="47.41686" pt_clust_5="75.67577" pt_clust_6="14000.00000"></scales>
<clustering>
<clus scale="   47.417">  2  4  1 -1</clus>
<clus scale="   75.676">  2  5  1 -1</clus>
<clus scale="   80.914">  2  3  1 -1</clus>
<clus scale="   47.417">  2  3  1 -1</clus>
</clustering>
</event>
<event>
 6    0  0.4017242E+002  0.1330519E+03  0.7546771E-02  0.1222996E+00
         21   -1    0    0  505  502  0.00000000000E+00  0.00000000000E+00  0.31856163171E+02  0.31856163171E+02  0.00000000000E+00 0.  1.
          1   -1    0    0  503    0 -0.00000000000E+00 -0.00000000000E+00 -0.24705480048E+04  0.24705480048E+04  0.00000000000E+00 0. -1.
         21    1    1    2  503  504 -0.64283301743E+01 -0.40433329689E+02 -0.29464385517E+03  0.29747466945E+03  0.00000000000E+00 0.  1.
         21    1    1    2  504  502  0.16196465267E+03  0.25838744370E+02 -0.22938211184E+03  0.28198642282E+03  0.00000000000E+00 0.  1.
         21    1    1    2  505  501 -0.32689502669E+02 -0.47380155534E+01 -0.13672592471E+03  0.14065927222E+03  0.00000000000E+00 0. -1.
          1    1    1    2  501    0 -0.12284681983E+03  0.19332600872E+02 -0.17779399499E+04  0.17822838035E+04  0.00000000000E+00 0. -1.
<scales pt_clust_3="41.43272" pt_clust_4="14000.00000" pt_clust_5="33.03108" pt_clust_6="133.05195"></scales>
<clustering>
<clus scale="   33.031">  1  5  2 -1</clus>
<clus scale="   41.433">  2  3  1 -1</clus>
<clus scale="  133.052">  2  6  1 -1</clus>
<clus scale="   33.031">  1  3  2 -1</clus>
</clustering>
</event>
<event>
 6    0  0.4017242E+002  0.1115839E+03  0.7546771E-02  0.1257665E+00
          2   -1    0    0  503    0 -0.00000000000E+00  0.00000000000E+00  0.12069460637E+04  0.12069460637E+04  0.00000000000E+00 0. -1.
         21   -1    0    0  504  502  0.00000000000E+00 -0.00000000000E+00 -0.22265397636E+03  0.22265397636E+03  0.00000000000E+00 0.  1.
         21    1    1    2  503  505 -0.16964784860E+02 -0.10549512542E+03  0.10110543767E+03  0.14710314388E+03  0.00000000000E+00 0.  1.
         21    1    1    2  504  501  0.71898991367E+02  0.55245555470E+02 -0.15651355221E+03  0.18088125493E+03  0.00000000000E+00 0.  1.
         21    1    1    2  505  502  0.49743899782E+01  0.39246692870E+02 -0.17073701137E+02  0.43087802536E+02  0.00000000000E+00 0. -1.
          2    1    1    2  501    0 -0.59908596485E+02  0.11002877083E+02  0.10567739030E+04  0.10585278387E+04  0.00000000000E+00 0. -1.
<scales pt_clust_3="14000.00000" pt_clust_4="111.58388" pt_clust_5="39.56068" pt_clust_6="60.92089"></scales>
<clustering>
<clus scale="   39.561">  2  5  1 -1</clus>
<clus scale="   60.921">  1  6  2 -1</clus>
<clus scale="  111.584">  2  4  1 -1</clus>
<clus scale="   39.561">  2  3  1 -1</clus>
</clustering>
</event>
<event>
 6    0  0.4017242E+002  0.8084944E+02  0.7546771E-02  0.1326658E+00
          2   -1    0    0  503    0 -0.00000000000E+00  0.00000000000E+00  0.13007783980E+04  0.13007783980E+04  0.00000000000E+00 0. -1.
         21   -1    0    0  505  502  0.00000000000E+00 -0.00000000000E+00 -0.26524582568E+03  0.26524582568E+03  0.00000000000E+00 0.  1.
         21    1    1    2  503  502  0.65024655547E+01 -0.35260123353E+02  0.10730760655E+02  0.37426028127E+02  0.00000000000E+00 0. -1.
         21    1    1    2  504  501  0.75657010314E+02 -0.26737310187E+02  0.81395806202E+02  0.11429848745E+03  0.00000000000E+00 0. -1.
         21    1    1    2  505  504 -0.79810078339E+02 -0.17481243599E+02 -0.22696921660E+03  0.24122659009E+03  0.00000000000E+00 0.  1.
          2    1    1    2  501    0 -0.23493975291E+01  0.79478677139E+02  0.11703752221E+04  0.11730731180E+04  0.00000000000E+00 0. -1.
<scales pt_clust_3="35.85468" pt_clust_4="80.84944" pt_clust_5="14000.00000" pt_clust_6="79.32363"></scales>
<clustering>
<clus scale="   35.855">  2  3  1 -1</clus>
<clus scale="   79.324">  1  6  2 -1</clus>
<clus scale="   80.849">  1  4  2 -1</clus>
<clus scale="   35.855">  2  3  1 -1</clus>
</clustering>
</event>
<event>
 6    0  0.4017242E+002  0.7553807E+02  0.7546771E-02  0.1342213E+00
          2   -1    0    0  505    0 -0.00000000000E+00  0.00000000000E+00  0.39293259909E+04  0.39293259909E+04  0.00000000000E+00 0. -1.
         21   -1    0    0  503  502  0.00000000000E+00 -0.00000000000E+00 -0.78746500336E+02  0.78746500336E+02  0.00000000000E+00 0.  1.
         21    1    1    2  503  501  0.75470093641E+02 -0.20602216291E+02  0.35805393675E+01  0.78313514878E+02  0.00000000000E+00 0.  1.
         21    1    1    2  504  502 -0.40780682418E+02  0.68098715650E+02  0.17949321157E+02  0.81379833261E+02  0.00000000000E+00 0. -1.
         21    1    1    2  505  504 -0.82482412719E+02  0.10999902983E+02  0.17738291660E+03  0.19593122613E+03  0.00000000000E+00 0. -1.
          2    1    1    2  501    0  0.47793001495E+02 -0.58496402342E+02  0.36516667135E+04  0.36524479170E+04  0.00000000000E+00 0. -1.
<scales pt_clust_3="73.10852" pt_clust_4="14000.00000" pt_clust_5="57.76097" pt_clust_6="75.53807"></scales>
<clustering>
<clus scale="   75.538">  1  6  2 -1</clus>
<clus scale="   57.761">  1  5  2 -1</clus>
<clus scale="   73.109">  2  3  1 -1</clus>
<clus scale="   73.109">  2  3  1 -1</clus>
</clustering>
</event>
<event>
 6    0  0.4017242E+002  0.1526488E+03  0.7546771E-02  0.1197255E+00
         21   -1    0    0  503  502  0.00000000000E+00  0.00000000000E+00  0.77967650069E+02  0.77967650069E+02  0.00000000000E+00 0. -1.
          2   -1    0    0  505    0 -0.00000000000E+00 -0.00000000000E+00 -0.10134128096E+04  0.10134128096E+04  0.00000000000E+00 0. -1.
         21    1    1    2  503  501 -0.67075841578E+01  0.12370982251E+03 -0.54636191623E+02  0.13540393387E+03  0.00000000000E+00 0. -1.
         21    1    1    2  504  502  0.37835903894E+01 -0.57185586496E+02 -0.14575476204E+03  0.15661723250E+03  0.00000000000E+00 0. -1.
         21    1    1    2  505  504  0.78150522578E+02 -0.15232061787E+03 -0.26376506559E+03  0.31445362875E+03  0.00000000000E+00 0. -1.
          2    1    1    2  501    0 -0.75226528809E+02  0.85796381849E+02 -0.47128914031E+03  0.48490566458E+03  0.00000000000E+00 0. -1.
<scales pt_clust_3="140.37967" pt_clust_4="34.69203" pt_clust_5="34.69203" pt_clust_6="114.10543"></scales>
<clustering>
<clus scale="   34.692">  4  5 -1 -1</clus>
<clus scale="  114.105">  2  6  1 -1</clus>
<clus scale="  140.380">  1  3  2 -1</clus>
<clus scale="  140.380">  1  3  2 -1</clus>
</clustering>
</event>
<event>
 6    0  0.4017242E+002  0.2648456E+03  0.7546771E-02  0.1104266E+00
         -1   -1    0    0    0  501 -0.00000000000E+00  0.00000000000E+00  0.95880624492E+02  0.95880624492E+02  0.00000000000E+00 0. -1.
         21   -1    0    0  504  502  0.00000000000E+00 -0.00000000000E+00 -0.15794861586E+04  0.15794861586E+04  0.00000000000E+00 0.  1.
         21    1    1    2  503  502 -0.13019497051E+03  0.16858281055E+02 -0.33374347419E+03  0.35863580211E+03  0.00000000000E+00 0.  1.
         21    1    1    2  504  501  0.38714747884E+02  0.57836362815E+01 -0.54822157958E+03  0.54961730546E+03  0.00000000000E+00 0. -1.
         21    1    1    2  505  503 -0.15110475366E+03 -0.61098120015E+02 -0.44964182428E+03  0.47827125879E+03  0.00000000000E+00 0.  1.
         -1    1    1    2    0  505  0.24258497629E+03  0.38456202679E+02 -0.15199865603E+03  0.28884241670E+03  0.00000000000E+00 0. -1.
<scales pt_clust_3="67.69753" pt_clust_4="39.14438" pt_clust_5="67.69753" pt_clust_6="253.98622"></scales>
<clustering>
<clus scale="   39.144">  2  4  1 -1</clus>
<clus scale="   67.698">  3  5 -1 -1</clus>
<clus scale="  253.986">  1  6  2 -1</clus>
<clus scale="   39.144">  2  3  1 -1</clus>
</clustering>
</event>
<event>
 6    0  0.4017242E+002  0.9778268E+02  0.7546771E-02  0.1285029E+00
         21   -1    0    0  503  502  0.00000000000E+00  0.00000000000E+00  0.47359610989E+03  0.47359610989E+03  0.00000000000E+00 0.  1.
          2   -1    0    0  505    0 -0.00000000000E+00 -0.00000000000E+00 -0.21170239214E+04  0.21170239214E+04  0.00000000000E+00 0.  1.
         21    1    1    2  503  504 -0.13608660574E+02  0.43440170517E+02  0.17382908346E+03  0.17969082980E+03  0.00000000000E+00 0.  1.
         21    1    1    2  504  501 -0.20917017017E+02 -0.82405197064E+02 -0.16223177303E+02  0.86552467243E+02  0.00000000000E+00 0.  1.
         21    1    1    2  505  502  0.71236432490E+02  0.47217408416E+02  0.25451641522E+03  0.26848225005E+03  0.00000000000E+00 0.  1.
          2    1    1    2  501    0 -0.36710754899E+02 -0.82523818686E+01 -0.20555501329E+04  0.20558944842E+04  0.00000000000E+00 0.  1.
<scales pt_clust_3="45.70528" pt_clust_4="14000.00000" pt_clust_5="97.78268" pt_clust_6="37.62687"></scales>
<clustering>
<clus scale="   37.627">  2  6  1 -1</clus>
<clus scale="   45.705">  1  3  2 -1</clus>
<clus scale="   97.783">  1  5  2 -1</clus>
<clus scale="   45.705">  1  3  2 -1</clus>
</clustering>
</event>
<event>
 6    0  0.4017242E+002  0.6759961E+02  0.7546771E-02  0.1368451E+00
         21   -1    0    0  504  502  0.00000000000E+00  0.00000000000E+00  0.23148299517E+03  0.23148299517E+03  0.00000000000E+00 0. -1.
          3   -1    0    0  503    0 -0.00000000000E+00 -0.00000000000E+00 -0.40292886025E+03  0.40292886025E+03  0.00000000000E+00 0.  1.
         21    1    1    2  503  505 -0.38348667431E+02 -0.22819953090E+02 -0.32170349291E+02  0.55011834420E+02  0.00000000000E+00 0.  1.
         21    1    1    2  504  501  0.29142703508E+02 -0.23218856924E+02  0.88837996779E+02  0.96335881977E+02  0.00000000000E+00 0. -1.
         21    1    1    2  505  502 -0.68268300370E+02  0.72765529597E+02  0.10214432475E+03  0.14278951716E+03  0.00000000000E+00 0. -1.
          3    1    1    2  501    0  0.77474264293E+02 -0.26726719583E+02 -0.33025783732E+03  0.34027462186E+03  0.00000000000E+00 0.  1.
<scales pt_clust_3="43.63605" pt_clust_4="37.26141" pt_clust_5="14000.00000" pt_clust_6="67.59961"></scales>
<clustering>
<clus scale="   37.261">  1  4  2 -1</clus>
<clus scale="   43.636">  2  3  1 -1</clus>
<clus scale="   67.600">  2  6  1 -1</clus>
<clus scale="   37.261">  1  3  2 -1</clus>
</clustering>
</event>
<event>
 6    0  0.4017242E+002  0.1725244E+03  0.7546771E-02  0.1175241E+00
          2   -1    0    0  505    0 -0.00000000000E+00  0.00000000000E+00  0.85038640560E+03  0.85038640560E+03  0.00000000000E+00 0.  1.
         21   -1    0    0  503  502  0.00000000000E+00 -0.00000000000E+00 -0.11850679115E+03  0.11850679115E+03  0.00000000000E+00 0.  1.
         21    1    1    2  503  501  0.57198441385E+02  0.16341983144E+03 -0.21454109977E+02  0.17446484414E+03  0.00000000000E+00 0.  1.
         21    1    1    2  504  502  0.75876455525E+01 -0.66591308742E+02  0.98345187775E+02  0.11901155710E+03  0.00000000000E+00 0.  1.
         21    1    1    2  505  504 -0.25749293793E+02 -0.80772755427E+02  0.18457968246E+03  0.20311800345E+03  0.00000000000E+00 0.  1.
          2    1    1    2  501    0 -0.39036793145E+02 -0.16055767272E+02  0.47040885419E+03  0.47229879206E+03  0.00000000000E+00 0.  1.
<scales pt_clust_3="167.59985" pt_clust_4="36.38903" pt_clust_5="36.38903" pt_clust_6="42.20970"></scales>
<clustering>
<clus scale="   36.389">  4  5 -1 -1</clus>
<clus scale="   42.210">  1  6  2 -1</clus>
<clus scale="  167.600">  2  3  1 -1</clus>
<clus scale="  167.600">  2  3  1 -1</clus>
</clustering>
</event>
<event>
 6    0  0.4017242E+002  0.7532418E+02  0.7546771E-02  0.1342870E+00
          2   -1    0    0  503    0 -0.00000000000E+00  0.00000000000E+00  0.98916821815E+03  0.98916821815E+03  0.00000000000E+00 0. -1.
         21   -1    0    0  505  502  0.00000000000E+00 -0.00000000000E+00 -0.12173388607E+03  0.12173388607E+03  0.00000000000E+00 0.  1.
         21    1    1    2  503  502 -0.27843234873E+02 -0.51261819882E+02  0.54571667677E+02  0.79881705157E+02  0.00000000000E+00 0. -1.
         21    1    1    2  504  501  0.83583107201E+02  0.24766116526E+02  0.14284273205E+03  0.16734259003E+03  0.00000000000E+00 0.  1.
         21    1    1    2  505  504 -0.11142138429E+01 -0.32908994076E+02 -0.91835342715E+02  0.97560102169E+02  0.00000000000E+00 0.  1.
          2    1    1    2  501    0 -0.54625658485E+02  0.59404697432E+02  0.76185527506E+03  0.76611770687E+03  0.00000000000E+00 0. -1.
<scales pt_clust_3="72.44920" pt_clust_4="75.32418" pt_clust_5="32.92785" pt_clust_6="14000.00000"></scales>
<clustering>
<clus scale="   32.928">  2  5  1 -1</clus>
<clus scale="   72.449">  2  3  1 -1</clus>
<clus scale="   75.324">  2  4  1 -1</clus>
<clus scale="   32.928">  2  3  1 -1</clus>
</clustering>
</event>
<event>
 6    0  0.4017242E+002  0.8765516E+02  0.7546771E-02  0.1308631E+00
         -1   -1    0    0    0  501 -0.00000000000E+00  0.00000000000E+00  0.82964736718E+03  0.82964736718E+03  0.00000000000E+00 0. -1.
         21   -1    0    0  504  502  0.00000000000E+00 -0.00000000000E+00 -0.17855461830E+03  0.17855461830E+03  0.00000000000E+00 0. -1.
         21    1    1    2  503  502 -0.59685017725E+02  0.54629294280E+02 -0.86827222645E+02  0.11868288725E+03  0.00000000000E+00 0. -1.
         21    1    1    2  504  501  0.52857412209E+02  0.10530361376E+02  0.24111797380E+02  0.59043825325E+02  0.00000000000E+00 0. -1.
         21    1    1    2  505  503  0.48866356288E+02 -0.10784494845E+03  0.43369150397E+01  0.11847895389E+03  0.00000000000E+00 0. -1.
         -1    1    1    2    0  505 -0.42038750772E+02  0.42685292792E+02  0.70947125911E+03  0.71199631901E+03  0.00000000000E+00 0. -1.
<scales pt_clust_3="14000.00000" pt_clust_4="53.89615" pt_clust_5="87.65516" pt_clust_6="59.67985"></scales>
<clustering>
<clus scale="   53.896">  2  4  1 -1</clus>
<clus scale="   59.680">  1  6  2 -1</clus>
<clus scale="   87.655">  1  5  2 -1</clus>
<clus scale="   53.896">  2  3  1 -1</clus>
</clustering>
</event>
<event>
 6    0  0.4017242E+002  0.6615204E+02  0.7546771E-02  0.1373690E+00
         -4   -1    0    0    0  501 -0.00000000000E+00  0.00000000000E+00  0.24999651254E+02  0.24999651254E+02  0.00000000000E+00 0. -1.
         21   -1    0    0  503  502  0.00000000000E+00 -0.00000000000E+00 -0.97495936582E+03  0.97495936582E+03  0.00000000000E+00 0. -1.
         21    1    1    2  503  501 -0.44491619105E+02  0.44212102906E+02 -0.13051613789E+03  0.14480565066E+03  0.00000000000E+00 0. -1.
         21    1    1    2  504  505  0.80876413084E+02 -0.25883824319E+02 -0.36505257516E+03  0.37479907842E+03  0.00000000000E+00 0. -1.
         21    1    1    2  505  502 -0.48207034074E+02  0.33807617956E+02 -0.39919306329E+03  0.40351205055E+03  0.00000000000E+00 0.  1.
         -4    1    1    2    0  504  0.11822240095E+02 -0.52135896543E+02 -0.55197938223E+02  0.76842237430E+02  0.00000000000E+00 0. -1.
<scales pt_clust_3="42.50450" pt_clust_4="66.15204" pt_clust_5="14000.00000" pt_clust_6="53.45949"></scales>
<clustering>
<clus scale="   53.459">  1  6  2 -1</clus>
<clus scale="   42.505">  1  3  2 -1</clus>
<clus scale="   66.152">  1  4  2 -1</clus>
<clus scale="   66.152">  2  3  1 -1</clus>
</clustering>
</event>
<event>
 6    0  0.4017242E+002  0.1512827E+03  0.7546771E-02  0.1198906E+00
         21   -1    0    0  501  502  0.00000000000E+00  0.00000000000E+00  0.38324143414E+03  0.38324143414E+03  0.00000000000E+00 0. -1.
          2   -1    0    0  505    0 -0.00000000000E+00 -0.00000000000E+00 -0.23155709124E+04  0.23155709124E+04  0.00000000000E+00 0.  1.
         21    1    1    2  503  504  0.97153709444E+02 -0.13020816426E+02 -0.20418131972E+03  0.22649149265E+03  0.00000000000E+00 0.  1.
         21    1    1    2  504  502 -0.11800616632E+03 -0.72800361458E+02  0.35117416253E+03  0.37755614198E+03  0.00000000000E+00 0. -1.
         21    1    1    2  505  503  0.31155407377E+02  0.30202924297E+02 -0.56929569451E+02  0.71581086349E+02  0.00000000000E+00 0.  1.
          2    1    1    2  501    0 -0.10302950505E+02  0.55618253587E+02 -0.20223927516E+04  0.20231836256E+04  0.00000000000E+00 0.  1.
<scales pt_clust_3="41.60316" pt_clust_4="137.75539" pt_clust_5="41.60316" pt_clust_6="56.56448"></scales>
<clustering>
<clus scale="   41.603">  3  5 -1 -1</clus>
<clus scale="   56.564">  2  6  1 -1</clus>
<clus scale="  137.755">  1  4  2 -1</clus>
<clus scale="  137.755">  1  3  2 -1</clus>
</clustering>
</event>
<event>
 6    0  0.4017242E+002  0.1190417E+03  0.7546771E-02  0.1244686E+00
         21   -1    0    0  503  502  0.00000000000E+00  0.00000000000E+00  0.35105550811E+03  0.35105550811E+03  0.00000000000E+00 0.  1.
          2   -1    0    0  505    0 -0.00000000000E+00 -0.00000000000E+00 -0.79926322788E+03  0.79926322788E+03  0.00000000000E+00 0.  1.
         21    1    1    2  503  501 -0.10990543528E+02 -0.13195913116E+03  0.31157993967E+03  0.33854994188E+03  0.00000000000E+00 0.  1.
         21    1    1    2  504  502  0.41615211337E+02  0.35447827197E+02 -0.63344195205E+03  0.63579641465E+03  0.00000000000E+00 0.  1.
         21    1    1    2  505  504 -0.10354477016E+02  0.30037553094E+02 -0.94178025507E+02  0.99393009204E+02  0.00000000000E+00 0.  1.
          2    1    1    2  501    0 -0.20270190793E+02  0.66473750869E+02 -0.32167681892E+02  0.76579370249E+02  0.00000000000E+00 0.  1.
<scales pt_clust_3="119.04167" pt_clust_4="70.40952" pt_clust_5="31.77215" pt_clust_6="14000.00000"></scales>
<clustering>
<clus scale="   31.772">  2  5  1 -1</clus>
<clus scale="   70.410">  2  4  1 -1</clus>
<clus scale="  119.042">  1  3  2 -1</clus>
<clus scale="  119.042">  1  3  2 -1</clus>
</clustering>
</event>
<event>
 6    0  0.4017242E+002  0.1609618E+03  0.7546771E-02  0.1187615E+00
         21   -1    0    0  501  502  0.00000000000E+00  0.00000000000E+00  0.84581198524E+02  0.84581198524E+02  0.00000000000E+00 0.  1.
          1   -1    0    0  505    0 -0.00000000000E+00 -0.00000000000E+00 -0.66158759261E+03  0.66158759261E+03  0.00000000000E+00 0. -1.
         21    1    1    2  503  504 -0.10881673007E+03  0.85428532586E+01 -0.17998116065E+03  0.21049294353E+03  0.00000000000E+00 0. -1.
         21    1    1    2  504  502  0.42829312849E+02  0.57798519056E+02  0.88104859391E+01  0.72475123365E+02  0.00000000000E+00 0.  1.
         21    1    1    2  505  503 -0.68452478405E+02 -0.41729871309E+02 -0.99648666800E+02  0.12789441252E+03  0.00000000000E+00 0. -1.
          1    1    1    2  501    0  0.13443989562E+03 -0.24611501006E+02 -0.30618705257E+03  0.33530631172E+03  0.00000000000E+00 0. -1.
<scales pt_clust_3="52.74247" pt_clust_4="71.93760" pt_clust_5="52.74247" pt_clust_6="148.73224"></scales>
<clustering>
<clus scale="   52.742">  3  5 -1 -1</clus>
<clus scale="   71.938">  1  4  2 -1</clus>
<clus scale="  148.732">  2  6  1 -1</clus>
<clus scale="   71.938">  1  3  2 -1</clus>
</clustering>
</event>
<event>
 6    0  0.4017242E+002  0.8968184E+02  0.7546771E-02  0.1303624E+00
          2   -1    0    0  505    0 -0.00000000000E+00  0.00000000000E+00  0.14838690951E+04  0.14838690951E+04  0.00000000000E+00 0. -1.
         21   -1    0    0  503  502  0.00000000000E+00 -0.00000000000E+00 -0.96435531766E+02  0.96435531766E+02  0.00000000000E+00 0.  1.
         21    1    1    2  503  504  0.23414164068E+02  0.28611707404E+02  0.65730917668E+00  0.36976816181E+02  0.00000000000E+00 0.  1.
         21    1    1    2  504  501 -0.93129004558E+02 -0.49782268019E+02  0.11826072318E+02  0.10625978395E+03  0.00000000000E+00 0.  1.
         21    1    1    2  505  502  0.15526953394E+03  0.93974230314E+01  0.17550781167E+03  0.23452064234E+03  0.00000000000E+00 0.  1.
          2    1    1    2  501    0 -0.85554693448E+02  0.11773137584E+02  0.11994423702E+04  0.12025473844E+04  0.00000000000E+00 0. -1.
<scales pt_clust_3="36.97097" pt_clust_4="85.43774" pt_clust_5="14000.00000" pt_clust_6="89.68184"></scales>
<clustering>
<clus scale="   36.971">  2  3  1 -1</clus>
<clus scale="   85.438">  2  4  1 -1</clus>
<clus scale="   89.682">  1  6  2 -1</clus>
<clus scale="   36.971">  2  3  1 -1</clus>
</clustering>
</event>
<event>
 6    0  0.4017242E+002  0.9869489E+02  0.7546771E-02  0.1283065E+00
         21   -1    0    0  504  502  0.00000000000E+00  0.00000000000E+00  0.17253465862E+04  0.17253465862E+04  0.00000000000E+00 0. -1.
          1   -1    0    0  505    0 -0.00000000000E+00 -0.00000000000E+00 -0.19294942625E+03  0.19294942625E+03  0.00000000000E+00 0. -1.
         21    1    1    2  503  501  0.99119665191E+02 -0.86026831831E+01  0.31645882989E+03  0.33173016927E+03  0.00000000000E+00 0. -1.
         21    1    1    2  504  503 -0.33320146271E+02  0.37501935789E+02  0.12339795129E+03  0.13320541174E+03  0.00000000000E+00 0. -1.
         21    1    1    2  505  502 -0.10402102928E+03  0.62104462754E+02  0.12563142304E+04  0.12621421411E+04  0.00000000000E+00 0. -1.
          1    1    1    2  501    0  0.38221510357E+02 -0.91003715360E+02 -0.16377385166E+03  0.19121829031E+03  0.00000000000E+00 0. -1.
<scales pt_clust_3="92.36321" pt_clust_4="50.16600" pt_clust_5="98.69489" pt_clust_6="14000.00000"></scales>
<clustering>
<clus scale="   50.166">  1  4  2 -1</clus>
<clus scale="   92.363">  1  3  2 -1</clus>
<clus scale="   98.695">  1  5  2 -1</clus>
<clus scale="   50.166">  1  3  2 -1</clus>
</clustering>
</event>
<event>
 6    0  0.4017242E+002  0.1072157E+03  0.7546771E-02  0.1265815E+00
         21   -1    0    0  504  502  0.00000000000E+00  0.00000000000E+00  0.11199290631E+03  0.11199290631E+03  0.00000000000E+00 0.  1.
          2   -1    0    0  505    0 -0.00000000000E+00 -0.00000000000E+00 -0.45206383656E+03  0.45206383656E+03  0.00000000000E+00 0.  1.
         21    1    1    2  503  502  0.13860189132E+02 -0.40874979994E+02  0.28747647985E+02  0.51858423587E+02  0.00000000000E+00 0.  1.
         21    1    1    2  504  501  0.64946424163E+02  0.31249787066E+02  0.27457716620E+02  0.77126606338E+02  0.00000000000E+00 0.  1.
         21    1    1    2  505  503  0.31642767806E+02  0.35572293707E+02 -0.43462562127E+02  0.64464309045E+02  0.00000000000E+00 0.  1.
          2    1    1    2  501    0 -0.11044938110E+03 -0.25947100780E+02 -0.35281373273E+03  0.37060740390E+03  0.00000000000E+00 0.  1.
<scales pt_clust_3="43.16096" pt_clust_4="107.21571" pt_clust_5="44.82348" pt_clust_6="14000.00000"></scales>
<clustering>
<clus scale="   43.161">  1  3  2 -1</clus>
<clus scale="   44.823">  1  5  2 -1</clus>
<clus scale="  107.216">  1  4  2 -1</clus>
<clus scale="   43.161">  1  3  2 -1</clus>
</clustering>
</event>
<event>
 6    0  0.4017242E+002  0.1330315E+03  0.7546771E-02  0.1223026E+00
         21   -1    0    0  501  502  0.00000000000E+00  0.00000000000E+00  0.45786653641E+02  0.45786653641E+02  0.00000000000E+00 0.  1.
          2   -1    0    0  503    0 -0.00000000000E+00 -0.00000000000E+00 -0.24381310278E+04  0.24381310278E+04  0.00000000000E+00 0.  1.
         21    1    1    2  503  505  0.12416691794E+02  0.14849149158E+03 -0.81603010234E+03  0.82952337232E+03  0.00000000000E+00 0.  1.
         21    1    1    2  504  502 -0.41497324715E+02 -0.10789448224E+03 -0.68001707815E+02  0.13411740947E+03  0.00000000000E+00 0.  1.
         21    1    1    2  505  504 -0.89588982402E+01  0.52951628895E+02 -0.17283158189E+03  0.18098312783E+03  0.00000000000E+00 0.  1.
          2    1    1    2  501    0  0.38039531161E+02 -0.93548638240E+02 -0.13354809821E+04  0.13392937718E+04  0.00000000000E+00 0.  1.
<scales pt_clust_3="31.10585" pt_clust_4="122.52637" pt_clust_5="31.10585" pt_clust_6="100.98690"></scales>
<clustering>
<clus scale="   31.106">  3  5 -1 -1</clus>
<clus scale="  100.987">  2  6  1 -1</clus>
<clus scale="  122.526">  1  4  2 -1</clus>
<clus scale="  122.526">  1  3  2 -1</clus>
</clustering>
</event>
<event>
 6    0  0.4017242E+002  0.8281725E+02  0.7546771E-02  0.1321241E+00
          3   -1    0    0  505    0 -0.00000000000E+00  0.00000000000E+00  0.14682084740E+04  0.14682084740E+04  0.00000000000E+00 0. -1.
         21   -1    0    0  504  502  0.00000000000E+00 -0.00000000000E+00 -0.17980958011E+03  0.17980958011E+03  0.00000000000E+00 0.  1.
         21    1    1    2  503  501 -0.42286991291E+01 -0.68559091358E+02  0.57310297858E+02  0.89457817684E+02  0.00000000000E+00 0.  1.
         21    1    1    2  504  503  0.12733407522E+02  0.10998199673E+03  0.17963441322E+02  0.11216445291E+03  0.00000000000E+00 0.  1.
         21    1    1    2  505  502  0.31796273803E+02 -0.40282875104E+02 -0.11066833263E+03  0.12198849496E+03  0.00000000000E+00 0.  1.
          3    1    1    2  501    0 -0.40300982196E+02 -0.11400302728E+01  0.13237934873E+04  0.13244072885E+04  0.00000000000E+00 0. -1.
<scales pt_clust_3="82.81725" pt_clust_4="14000.00000" pt_clust_5="50.39016" pt_clust_6="40.31710"></scales>
<clustering>
<clus scale="   40.317">  1  6  2 -1</clus>
<clus scale="   50.390">  2  5  1 -1</clus>
<clus scale="   82.817">  1  3  2 -1</clus>
<clus scale="   50.390">  2  3  1 -1</clus>
</clustering>
</event>
<event>
 6    0  0.4017242E+002  0.1110735E+03  0.7546771E-02  0.1258595E+00
         -2   -1    0    0    0  501 -0.00000000000E+00  0.00000000000E+00  0.18751462070E+04  0.18751462070E+04  0.00000000000E+00 0.  1.
         21   -1    0    0  504  502  0.00000000000E+00 -0.00000000000E+00 -0.52700916126E+02  0.52700916126E+02  0.00000000000E+00 0. -1.
         21    1    1    2  503  502  0.28978068144E+02  0.15944302358E+02  0.85536956666E+02  0.91708888156E+02  0.00000000000E+00 0.  1.
         21    1    1    2  504  505  0.41867225318E+02  0.24695452159E+01 -0.27945382042E+02  0.50397495839E+02  0.00000000000E+00 0. -1.
         21    1    1    2  505  501  0.54521308370E+02 -0.36559765792E+02  0.12669121429E+03  0.14268795787E+03  0.00000000000E+00 0. -1.
         -2    1    1    2    0  503 -0.12536660183E+03  0.18145918218E+02  0.16381625019E+04  0.16430527813E+04  0.00000000000E+00 0.  1.
<scales pt_clust_3="33.07490" pt_clust_4="66.47357" pt_clust_5="111.07350" pt_clust_6="14000.00000"></scales>
<clustering>
<clus scale="   33.075">  2  3  1 -1</clus>
<clus scale="   66.474">  2  4  1 -1</clus>
<clus scale="  111.074">  2  5  1 -1</clus>
<clus scale="   33.075">  2  3  1 -1</clus>
</clustering>
</event>
<event>
 6    0  0.4017242E+002  0.2274443E+03  0.7546771E-02  0.1128452E+00
         21   -1    0    0  505  502  0.00000000000E+00  0.00000000000E+00  0.68737772990E+03  0.68737772990E+03  0.00000000000E+00 0.  1.
         -1   -1    0    0    0  501 -0.00000000000E+00 -0.00000000000E+00 -0.20692466434E+04  0.20692466434E+04  0.00000000000E+00 0. -1.
         21    1    1    2  503  502  0.48168828166E+02  0.36703004688E+02  0.95537165024E+02  0.11311364401E+03  0.00000000000E+00 0.  1.
         21    1    1    2  504  503  0.21095426367E+03 -0.67146975585E+02 -0.20738786013E+02  0.22235223169E+03  0.00000000000E+00 0. -1.
         21    1    1    2  505  501 -0.24142318684E+03  0.77417946540E+02  0.44856956235E+03  0.51526046409E+03  0.00000000000E+00 0.  1.
         -1    1    1    2    0  504 -0.17699904993E+02 -0.46973975642E+02 -0.19052368548E+04  0.19058980335E+04  0.00000000000E+00 0. -1.
<scales pt_clust_3="58.29167" pt_clust_4="14000.00000" pt_clust_5="227.44426" pt_clust_6="50.19802"></scales>
<clustering>
<clus scale="   50.198">  2  6  1 -1</clus>
<clus scale="   58.292">  1  3  2 -1</clus>
<clus scale="  227.444">  1  5  2 -1</clus>
<clus scale="   58.292">  1  3  2 -1</clus>
</clustering>
</event>
<event>
 6    0  0.4017242E+002  0.7466646E+02  0.7546771E-02  0.1344907E+00
         -2   -1    0    0    0  501 -0.00000000000E+00  0.00000000000E+00  0.12874179687E+04  0.12874179687E+04  0.00000000000E+00 0. -1.
         21   -1    0    0  503  502  0.00000000000E+00 -0.00000000000E+00 -0.37821916909E+02  0.37821916909E+02  0.00000000000E+00 0.  1.
         21    1    1    2  503  504  0.33662679304E+02 -0.38104994735E+01  0.46552468840E+01  0.34196011576E+02  0.00000000000E+00 0.  1.
         21    1    1    2  504  501 -0.74241386670E+02 -0.14126776876E+02  0.14344221250E+03  0.16213271615E+03  0.00000000000E+00 0.  1.
         21    1    1    2  505  502  0.54834351949E+02  0.77821444870E+02  0.16578103874E+03  0.19117096077E+03  0.00000000000E+00 0.  1.
         -2    1    1    2    0  505 -0.14255644583E+02 -0.59884168520E+02  0.93571755369E+03  0.93774019713E+03  0.00000000000E+00 0. -1.
<scales pt_clust_3="33.87766" pt_clust_4="74.66646" pt_clust_5="14000.00000" pt_clust_6="61.39594"></scales>
<clustering>
<clus scale="   33.878">  2  3  1 -1</clus>
<clus scale="   61.396">  1  6  2 -1</clus>
<clus scale="   74.666">  2  4  1 -1</clus>
<clus scale="   33.878">  2  3  1 -1</clus>
</clustering>
</event>
<event>
 6    0  0.4017242E+002  0.2094877E+03  0.7546771E-02  0.1141972E+00
         21   -1    0    0  505  502  0.00000000000E+00  0.00000000000E+00  0.67445548922E+02  0.67445548922E+02  0.00000000000E+00 0. -1.
          2   -1    0    0  503    0 -0.00000000000E+00 -0.00000000000E+00 -0.16413571314E+04  0.16413571314E+04  0.00000000000E+00 0. -1.
         21    1    1    2  503  502 -0.29913700674E+01 -0.30740086172E+02 -0.38196680434E+02  0.49121152153E+02  0.00000000000E+00 0. -1.
         21    1    1    2  504  501 -0.34004565452E+02  0.89371013070E+02 -0.34571020646E+02  0.10167912233E+03  0.00000000000E+00 0. -1.
         21    1    1    2  505  504 -0.78206565468E+02  0.92850847559E+02 -0.14744317853E+03  0.19098962712E+03  0.00000000000E+00 0. -1.
          2    1    1    2  501    0  0.11520250099E+03 -0.15148177446E+03 -0.13537007029E+04  0.13670127787E+04  0.00000000000E+00 0. -1.
<scales pt_clust_3="30.88529" pt_clust_4="69.11889" pt_clust_5="69.11889" pt_clust_6="192.75740"></scales>
<clustering>
<clus scale="   30.885">  1  3  2 -1</clus>
<clus scale="   69.119">  4  5 -1 -1</clus>
<clus scale="  192.757">  2  6  1 -1</clus>
<clus scale="   30.885">  1  3  2 -1</clus>
</clustering>
</event>
<event>
 6    0  0.4017242E+002  0.1161280E+03  0.7546771E-02  0.1249625E+00
          1   -1    0    0  505    0 -0.00000000000E+00  0.00000000000E+00  0.15084696030E+04  0.15084696030E+04  0.00000000000E+00 0. -1.
         21   -1    0    0  504  502  0.00000000000E+00 -0.00000000000E+00 -0.11746082807E+03  0.11746082807E+03  0.00000000000E+00 0.  1.
         21    1    1    2  503  501  0.46396301078E+02  0.14987307117E+03  0.54843206777E+02  0.16619967372E+03  0.00000000000E+00 0.  1.
         21    1    1    2  504  503 -0.19731447308E+02 -0.83611604386E+02 -0.19869672946E+02  0.88176154962E+02  0.00000000000E+00 0.  1.
         21    1    1    2  505  502  0.62089310559E+01 -0.29352899549E+02  0.23518957049E+02  0.38121973683E+02  0.00000000000E+00 0.  1.
          1    1    1    2  501    0 -0.32873784826E+02 -0.36908567231E+02  0.13325162841E+04  0.13334326288E+04  0.00000000000E+00 0. -1.
<scales pt_clust_3="116.12795" pt_clust_4="14000.00000" pt_clust_5="30.00239" pt_clust_6="49.50008"></scales>
<clustering>
<clus scale="   30.002">  2  5  1 -1</clus>
<clus scale="   49.500">  1  6  2 -1</clus>
<clus scale="  116.128">  1  3  2 -1</clus>
<clus scale="   30.002">  2  3  1 -1</clus>
</clustering>
</event>
<event>
 6    0  0.4017242E+002  0.1073242E+03  0.7546771E-02  0.1265607E+00
         21   -1    0    0  505  502  0.00000000000E+00  0.00000000000E+00  0.80933237514E+02  0.80933237514E+02  0.00000000000E+00 0.  1.
          1   -1    0    0  504    0 -0.00000000000E+00 -0.00000000000E+00 -0.93533149620E+03  0.93533149620E+03  0.00000000000E+00 0.  1.
         21    1    1    2  503  502  0.15232311472E+02  0.38042171012E+02 -0.26536867644E+02  0.48820440723E+02  0.00000000000E+00 0.  1.
         21    1    1    2  504  503 -0.95930844849E+02 -0.94315794097E+02 -0.40217081482E+02  0.14041228455E+03  0.00000000000E+00 0.  1.
         21    1    1    2  505  501  0.18628539765E+02 -0.29067264423E+02 -0.22688176916E+01  0.34598784495E+02  0.00000000000E+00 0.  1.
          1    1    1    2  501    0  0.62069993613E+02  0.85340887508E+02 -0.78537549186E+03  0.79243322394E+03  0.00000000000E+00 0.  1.
<scales pt_clust_3="37.83760" pt_clust_4="14000.00000" pt_clust_5="34.52432" pt_clust_6="107.32416"></scales>
<clustering>
<clus scale="   34.524">  1  5  2 -1</clus>
<clus scale="   37.838">  1  3  2 -1</clus>
<clus scale="  107.324">  2  6  1 -1</clus>
<clus scale="   34.524">  1  3  2 -1</clus>
</clustering>
</event>
<event>
 6    0  0.4017242E+002  0.1185728E+03  0.7546771E-02  0.1245470E+00
         21   -1    0    0  503  502  0.00000000000E+00  0.00000000000E+00  0.92663484383E+03  0.92663484383E+03  0.00000000000E+00 0.  1.
          4   -1    0    0  504    0 -0.00000000000E+00 -0.00000000000E+00 -0.44261328001E+02  0.44261328001E+02  0.00000000000E+00 0. -1.
         21    1    1    2  503  501 -0.77404330667E+02 -0.55428927760E+02  0.18127311075E+03  0.20475286841E+03  0.00000000000E+00 0.  1.
         21    1    1    2  504  505  0.26841576239E+02  0.52292845940E+02  0.38174359604E+03  0.38624239160E+03  0.00000000000E+00 0.  1.
         21    1    1    2  505  502  0.57508299476E+02  0.34316366248E+02  0.33687586249E+03  0.34346785036E+03  0.00000000000E+00 0.  1.
          4    1    1    2  501    0 -0.69455450491E+01 -0.31180284428E+02 -0.17519053462E+02  0.36433061459E+02  0.00000000000E+00 0. -1.
<scales pt_clust_3="112.30518" pt_clust_4="35.48421" pt_clust_5="35.48421" pt_clust_6="31.94449"></scales>
<clustering>
<clus scale="   31.944">  2  6  1 -1</clus>
<clus scale="   35.484">  4  5 -1 -1</clus>
<clus scale="  112.305">  2  3  1 -1</clus>
<clus scale="  118.573">  1  3  2 -1</clus>
</clustering>
</event>
<event>
 6    0  0.4017242E+002  0.1064779E+03  0.7546771E-02  0.1267235E+00
         21   -1    0    0  501  502  0.00000000000E+00  0.00000000000E+00  0.35568328677E+02  0.35568328677E+02  0.00000000000E+00 0. -1.
          1   -1    0    0  505    0 -0.00000000000E+00 -0.00000000000E+00 -0.74039352710E+03  0.74039352710E+03  0.00000000000E+00 0. -1.
         21    1    1    2  503  504 -0.40337419973E+02 -0.37037034152E+02 -0.76594204669E+02  0.94156898514E+02  0.00000000000E+00 0. -1.
         21    1    1    2  504  502  0.38924948401E+02  0.85953253277E+02 -0.88741404437E+02  0.12953049918E+03  0.00000000000E+00 0. -1.
         21    1    1    2  505  503 -0.39454113717E+02 -0.47253878003E+02 -0.17528470593E+03  0.18578020403E+03  0.00000000000E+00 0.  1.
          1    1    1    2  501    0  0.40866585289E+02 -0.16623411210E+01 -0.36420488338E+03  0.36649425405E+03  0.00000000000E+00 0. -1.
<scales pt_clust_3="35.91682" pt_clust_4="99.43540" pt_clust_5="35.91682" pt_clust_6="40.90038"></scales>
<clustering>
<clus scale="   35.917">  3  5 -1 -1</clus>
<clus scale="   40.900">  2  6  1 -1</clus>
<clus scale="   99.435">  1  4  2 -1</clus>
<clus scale="   99.435">  1  3  2 -1</clus>
</clustering>
</event>
<event>
 6    0  0.4017242E+002  0.1563709E+03  0.7546771E-02  0.1192856E+00
         -2   -1    0    0    0  501 -0.00000000000E+00  0.00000000000E+00  0.15260519393E+03  0.15260519393E+03  0.00000000000E+00 0. -1.
         21   -1    0    0  505  502  0.00000000000E+00 -0.00000000000E+00 -0.26751502101E+04  0.26751502101E+04  0.00000000000E+00 0.  1.
         21    1    1    2  503  504  0.24145746898E+02  0.11803640574E+03 -0.23720117200E+03  0.26604512056E+03  0.00000000000E+00 0.  1.
         21    1    1    2  504  502 -0.77081394376E+01  0.47241647786E+02 -0.24981260843E+03  0.25435708764E+03  0.00000000000E+00 0.  1.
         21    1    1    2  505  501 -0.73287065529E+02 -0.19026027387E+03 -0.21592873466E+04  0.21688918394E+04  0.00000000000E+00 0.  1.
         -2    1    1    2    0  503  0.56849458069E+02  0.24982220345E+02  0.12375611094E+03  0.13846135638E+03  0.00000000000E+00 0. -1.
<scales pt_clust_3="156.37087" pt_clust_4="47.86636" pt_clust_5="14000.00000" pt_clust_6="62.13289"></scales>
<clustering>
<clus scale="   47.866">  2  4  1 -1</clus>
<clus scale="   62.133">  1  6  2 -1</clus>
<clus scale="  156.371">  1  3  2 -1</clus>
<clus scale="   47.866">  2  3  1 -1</clus>
</clustering>
</event>
<event>
 6    0  0.4017242E+002  0.8416903E+02  0.7546771E-02  0.1317620E+00
         21   -1    0    0  503  502  0.00000000000E+00  0.00000000000E+00  0.25151572510E+03  0.25151572510E+03  0.00000000000E+00 0.  1.
          2   -1    0    0  504    0 -0.00000000000E+00 -0.00000000000E+00 -0.59915081952E+03  0.59915081952E+03  0.00000000000E+00 0. -1.
         21    1    1    2  503  505 -0.32292779741E+02 -0.21142041056E+02  0.15872617315E+03  0.16335179083E+03  0.00000000000E+00 0.  1.
         21    1    1    2  504  502  0.77117961299E+01  0.59692778601E+02 -0.72929717551E+01  0.60629094119E+02  0.00000000000E+00 0. -1.
         21    1    1    2  505  501  0.99424501131E+02 -0.64210392549E+00  0.19545656921E+02  0.10132954370E+03  0.00000000000E+00 0. -1.
          2    1    1    2  501    0 -0.74843517520E+02 -0.37908633619E+02 -0.51861395274E+03  0.52535611598E+03  0.00000000000E+00 0. -1.
<scales pt_clust_3="38.59805" pt_clust_4="53.49167" pt_clust_5="14000.00000" pt_clust_6="84.16903"></scales>
<clustering>
<clus scale="   38.598">  1  3  2 -1</clus>
<clus scale="   53.492">  1  4  2 -1</clus>
<clus scale="   84.169">  2  6  1 -1</clus>
<clus scale="   38.598">  1  3  2 -1</clus>
</clustering>
</event>
<event>
 6    0  0.4017242E+002  0.9658825E+02  0.7546771E-02  0.1287638E+00
         -1   -1    0    0    0  501 -0.00000000000E+00  0.00000000000E+00  0.11188108392E+03  0.11188108392E+03  0.00000000000E+00 0. -1.
         21   -1    0    0  504  502  0.00000000000E+00 -0.00000000000E+00 -0.41104180761E+03  0.41104180761E+03  0.00000000000E+00 0. -1.
         21    1    1    2  503  502 -0.52035369722E+02 -0.50587452488E+02 -0.94704716863E+02  0.11931367670E+03  0.00000000000E+00 0. -1.
         21    1    1    2  504  505  0.37459054994E+02  0.57622784338E+02 -0.15576617529E+03  0.17025471342E+03  0.00000000000E+00 0. -1.
         21    1    1    2  505  501  0.73378688524E+02  0.42138119440E+02 -0.10745147854E+03  0.13676941646E+03  0.00000000000E+00 0. -1.
         -1    1    1    2    0  503 -0.58802373796E+02 -0.49173451290E+02  0.58761647001E+02  0.96585084946E+02  0.00000000000E+00 0. -1.
<scales pt_clust_3="72.57252" pt_clust_4="47.20136" pt_clust_5="47.20136" pt_clust_6="81.15572"></scales>
<clustering>
<clus scale="   47.201">  4  5 -1 -1</clus>
<clus scale="   72.573">  2  3  1 -1</clus>
<clus scale="   81.156">  1  6  2 -1</clus>
<clus scale="   72.573">  2  3  1 -1</clus>
</clustering>
</event>
<event>
 6    0  0.4017242E+002  0.6862571E+02  0.7546771E-02  0.1364830E+00
         21   -1    0    0  501  502  0.00000000000E+00  0.00000000000E+00  0.37804122103E+03  0.37804122103E+03  0.00000000000E+00 0. -1.
          1   -1    0    0  504    0 -0.00000000000E+00 -0.00000000000E+00 -0.20386297342E+03  0.20386297342E+03  0.00000000000E+00 0. -1.
         21    1    1    2  503  502  0.41064014483E+02  0.26657203892E+02  0.14258052860E+03  0.15075167309E+03  0.00000000000E+00 0. -1.
         21    1    1    2  504  505 -0.61561318369E+02  0.52009377427E+02  0.62563771906E+02  0.10202449125E+03  0.00000000000E+00 0. -1.
         21    1    1    2  505  503 -0.25033761101E+02 -0.85763429191E+02  0.13221192564E+03  0.15956831848E+03  0.00000000000E+00 0. -1.
          1    1    1    2  501    0  0.45531064988E+02  0.70968478715E+01 -0.16317797853E+03  0.16955971163E+03  0.00000000000E+00 0. -1.
<scales pt_clust_3="53.57952" pt_clust_4="14000.00000" pt_clust_5="68.62571" pt_clust_6="46.08083"></scales>
<clustering>
<clus scale="   46.081">  2  6  1 -1</clus>
<clus scale="   53.580">  1  3  2 -1</clus>
<clus scale="   68.626">  1  5  2 -1</clus>
<clus scale="   53.580">  1  3  2 -1</clus>
</clustering>
</event>
<event>
 6    0  0.4017242E+002  0.8391493E+02  0.7546771E-02  0.1318295E+00
         21   -1    0    0  504  502  0.00000000000E+00  0.00000000000E+00  0.67657864237E+02  0.67657864237E+02  0.00000000000E+00 0.  1.
          1   -1    0    0  505    0 -0.00000000000E+00 -0.00000000000E+00 -0.68500442839E+03  0.68500442839E+03  0.00000000000E+00 0.  1.
         21    1    1    2  503  501 -0.75492652858E+02  0.48694785120E+02 -0.18967736023E+03  0.20987573399E+03  0.00000000000E+00 0.  1.
         21    1    1    2  504  503 -0.94818412264E+01  0.44755440372E+02 -0.93927932013E+02  0.10447684513E+03  0.00000000000E+00 0.  1.
         21    1    1    2  505  502  0.44512200749E+02 -0.45820604266E+02  0.29048685934E+02  0.70176135155E+02  0.00000000000E+00 0.  1.
          1    1    1    2  501    0  0.40462293335E+02 -0.47629621226E+02 -0.36278995784E+03  0.36813357835E+03  0.00000000000E+00 0.  1.
<scales pt_clust_3="35.19221" pt_clust_4="35.19221" pt_clust_5="67.89508" pt_clust_6="62.49622"></scales>
<clustering>
<clus scale="   35.192">  3  4 -1 -1</clus>
<clus scale="   62.496">  2  6  1 -1</clus>
<clus scale="   67.895">  1  5  2 -1</clus>
<clus scale="   67.895">  1  3  2 -1</clus>
</clustering>
</event>
<event>
 6    0  0.4017242E+002  0.1838611E+03  0.7546771E-02  0.1164118E+00
         21   -1    0    0  503  502  0.00000000000E+00  0.00000000000E+00  0.25484902233E+04  0.25484902233E+04  0.00000000000E+00 0. -1.
          2   -1    0    0  502    0 -0.00000000000E+00 -0.00000000000E+00 -0.11477244356E+03  0.11477244356E+03  0.00000000000E+00 0.  1.
         21    1    1    2  503  505 -0.23786510733E+02 -0.51108395819E+02  0.10110698406E+04  0.10126401576E+04  0.00000000000E+00 0. -1.
         21    1    1    2  504  501  0.10589803831E+03  0.11269265452E+03  0.65378144126E+03  0.67182155505E+03  0.00000000000E+00 0. -1.
         21    1    1    2  505  504 -0.71545087642E+02 -0.94539249478E+02  0.86683200904E+03  0.87490233807E+03  0.00000000000E+00 0. -1.
          2    1    1    2  501    0 -0.10566439940E+02  0.32954990782E+02 -0.97965511126E+02  0.10389861616E+03  0.00000000000E+00 0.  1.
<scales pt_clust_3="53.99989" pt_clust_4="166.74809" pt_clust_5="53.99989" pt_clust_6="34.60753"></scales>
<clustering>
<clus scale="   34.608">  2  6  1 -1</clus>
<clus scale="   54.000">  3  5 -1 -1</clus>
<clus scale="  166.748">  2  4  1 -1</clus>
<clus scale="  183.861">  1  3  2 -1</clus>
</clustering>
</event>
<event>
 6    0  0.4017242E+002  0.1011346E+03  0.7546771E-02  0.1277928E+00
         21   -1    0    0  503  502  0.00000000000E+00  0.00000000000E+00  0.28990264069E+03  0.28990264069E+03  0.00000000000E+00 0. -1.
          2   -1    0    0  505    0 -0.00000000000E+00 -0.00000000000E+00 -0.68768549830E+03  0.68768549830E+03  0.00000000000E+00 0.  1.
         21    1    1    2  503  504  0.47637859161E+02  0.62022708204E+02  0.18667275767E+03  0.20239293568E+03  0.00000000000E+00 0. -1.
         21    1    1    2  504  501  0.83283214518E+02  0.12244663531E+02  0.33424523496E+02  0.90571653272E+02  0.00000000000E+00 0.  1.
         21    1    1    2  505  502 -0.42269282697E+02 -0.22490586401E+02  0.95721540667E+01  0.48827705966E+02  0.00000000000E+00 0. -1.
          2    1    1    2  501    0 -0.88651790982E+02 -0.51776785334E+02 -0.62745229284E+03  0.63579584407E+03  0.00000000000E+00 0.  1.
<scales pt_clust_3="48.01898" pt_clust_4="101.13455" pt_clust_5="47.88025" pt_clust_6="14000.00000"></scales>
<clustering>
<clus scale="   47.880">  1  5  2 -1</clus>
<clus scale="   48.019">  1  3  2 -1</clus>
<clus scale="  101.135">  1  4  2 -1</clus>
<clus scale="   47.880">  1  3  2 -1</clus>
</clustering>
</event>
<event>
 6    0  0.4017242E+002  0.7715917E+02  0.7546771E-02  0.1337312E+00
          2   -1    0    0  505    0 -0.00000000000E+00  0.00000000000E+00  0.68259704935E+03  0.68259704935E+03  0.00000000000E+00 0. -1.
         21   -1    0    0  503  502  0.00000000000E+00 -0.00000000000E+00 -0.17281151604E+03  0.17281151604E+03  0.00000000000E+00 0.  1.
         21    1    1    2  503  504 -0.11278907271E+01 -0.80835099284E+02 -0.94204720332E+02  0.12413748325E+03  0.00000000000E+00 0.  1.
         21    1    1    2  504  501  0.55410570358E+02  0.61183586469E+02 -0.17199735841E+01  0.82563435428E+02  0.00000000000E+00 0.  1.
         21    1    1    2  505  502 -0.45674712308E+02  0.66037915903E+02  0.58200357019E+02  0.99168882410E+02  0.00000000000E+00 0.  1.
          2    1    1    2  501    0 -0.86079673234E+01 -0.46386403088E+02  0.54750987021E+03  0.54953876430E+03  0.00000000000E+00 0. -1.
<scales pt_clust_3="77.15917" pt_clust_4="14000.00000" pt_clust_5="63.87301" pt_clust_6="47.17834"></scales>
<clustering>
<clus scale="   47.178">  1  6  2 -1</clus>
<clus scale="   63.873">  1  5  2 -1</clus>
<clus scale="   77.159">  2  3  1 -1</clus>
<clus scale="   77.159">  2  3  1 -1</clus>
</clustering>
</event>
<event>
 6    0  0.4017242E+002  0.2735512E+03  0.7546771E-02  0.1099264E+00
         21   -1    0    0  504  502  0.00000000000E+00  0.00000000000E+00  0.12205116563E+03  0.12205116563E+03  0.00000000000E+00 0.  1.
          2   -1    0    0  503    0 -0.00000000000E+00 -0.00000000000E+00 -0.18581517149E+04  0.18581517149E+04  0.00000000000E+00 0. -1.
         21    1    1    2  503  505  0.12554953738E+03 -0.20806040389E+03 -0.53280879926E+03  0.58560826033E+03  0.00000000000E+00 0.  1.
         21    1    1    2  504  501  0.10749238994E+03  0.78572435815E+02 -0.15461592234E+02  0.13404216650E+03  0.00000000000E+00 0.  1.
         21    1    1    2  505  502  0.32178365777E+02 -0.31633519021E+02 -0.15292825774E+02  0.47644488347E+02  0.00000000000E+00 0.  1.
          2    1    1    2  501    0 -0.26522029310E+03  0.16112148710E+03 -0.11725373320E+04  0.12129079653E+04  0.00000000000E+00 0. -1.
<scales pt_clust_3="273.55117" pt_clust_4="139.48832" pt_clust_5="45.12346" pt_clust_6="14000.00000"></scales>
<clustering>
<clus scale="   45.123">  1  5  2 -1</clus>
<clus scale="  139.488">  1  4  2 -1</clus>
<clus scale="  273.551">  1  3  2 -1</clus>
<clus scale="   45.123">  1  3  2 -1</clus>
</clustering>
</event>
<event>
 6    0  0.4017242E+002  0.9150815E+02  0.7546771E-02  0.1299240E+00
         21   -1    0    0  501  502  0.00000000000E+00  0.00000000000E+00  0.95867817984E+02  0.95867817984E+02  0.00000000000E+00 0. -1.
          1   -1    0    0  504    0 -0.00000000000E+00 -0.00000000000E+00 -0.33236040756E+03  0.33236040756E+03  0.00000000000E+00 0. -1.
         21    1    1    2  503  505  0.39053802215E+02 -0.30964642570E+02 -0.77189469364E+02  0.91881569086E+02  0.00000000000E+00 0. -1.
         21    1    1    2  504  503  0.12120645651E+02 -0.80599249473E+02 -0.94895444972E+02  0.12509314347E+03  0.00000000000E+00 0. -1.
         21    1    1    2  505  502 -0.30017861770E+02  0.66275523351E+02  0.48728268852E+02  0.87566895606E+02  0.00000000000E+00 0. -1.
          1    1    1    2  501    0 -0.21156586096E+02  0.45288368692E+02 -0.11313594409E+03  0.12368661738E+03  0.00000000000E+00 0. -1.
<scales pt_clust_3="38.30483" pt_clust_4="38.30483" pt_clust_5="77.29333" pt_clust_6="49.98637"></scales>
<clustering>
<clus scale="   38.305">  3  4 -1 -1</clus>
<clus scale="   49.986">  2  6  1 -1</clus>
<clus scale="   77.293">  1  5  2 -1</clus>
<clus scale="   77.293">  1  3  2 -1</clus>
</clustering>
</event>
<event>
 6    0  0.4017242E+002  0.1727398E+03  0.7546771E-02  0.1175020E+00
          1   -1    0    0  505    0 -0.00000000000E+00  0.00000000000E+00  0.81019703047E+02  0.81019703047E+02  0.00000000000E+00 0. -1.
         21   -1    0    0  504  502  0.00000000000E+00 -0.00000000000E+00 -0.11117039027E+04  0.11117039027E+04  0.00000000000E+00 0.  1.
         21    1    1    2  503  501 -0.21481665033E+02 -0.79870757404E+02 -0.34646748837E+03  0.35620292014E+03  0.00000000000E+00 0.  1.
         21    1    1    2  504  503 -0.68776264985E+02 -0.30379931768E+02 -0.27398097717E+03  0.28411034957E+03  0.00000000000E+00 0.  1.
         21    1    1    2  505  502  0.10219484341E+03  0.16037169010E+03 -0.44921210306E+03  0.48780567703E+03  0.00000000000E+00 0.  1.
          1    1    1    2  501    0 -0.11936913397E+02 -0.50121000933E+02  0.38976368914E+02  0.64604659040E+02  0.00000000000E+00 0. -1.
<scales pt_clust_3="64.83430" pt_clust_4="64.83430" pt_clust_5="158.41708" pt_clust_6="51.52286"></scales>
<clustering>
<clus scale="   51.523">  1  6  2 -1</clus>
<clus scale="   64.834">  3  4 -1 -1</clus>
<clus scale="  158.417">  1  5  2 -1</clus>
<clus scale="  172.740">  2  3  1 -1</clus>
</clustering>
</event>
<event>
 6    0  0.4017242E+002  0.2168038E+03  0.7546771E-02  0.1136289E+00
          2   -1    0    0  504    0 -0.00000000000E+00  0.00000000000E+00  0.18434926663E+04  0.18434926663E+04  0.00000000000E+00 0. -1.
         21   -1    0    0  501  502  0.00000000000E+00 -0.00000000000E+00 -0.59141988329E+02  0.59141988329E+02  0.00000000000E+00 0.  1.
         21    1    1    2  503  502 -0.14074821600E+03  0.59305155119E+02  0.15209306334E+03  0.21554456997E+03  0.00000000000E+00 0.  1.
         21    1    1    2  504  505  0.65862440377E+02  0.45240620668E+02  0.36895448494E+03  0.37750759829E+03  0.00000000000E+00 0. -1.
         21    1    1    2  505  503 -0.65591298468E+02 -0.31137073404E+02  0.55410507239E+02  0.91334878811E+02  0.00000000000E+00 0.  1.
          2    1    1    2  501    0  0.14047707409E+03 -0.73408702383E+02  0.12078926225E+04  0.12182476076E+04  0.00000000000E+00 0. -1.
<scales pt_clust_3="60.68941" pt_clust_4="79.90353" pt_clust_5="60.68941" pt_clust_6="198.13143"></scales>
<clustering>
<clus scale="   60.689">  3  5 -1 -1</clus>
<clus scale="   79.904">  1  4  2 -1</clus>
<clus scale="  198.131">  1  6  2 -1</clus>
<clus scale="  216.804">  2  3  1 -1</clus>
</clustering>
</event>
<event>
 6    0  0.4017242E+002  0.1350478E+03  0.7546771E-02  0.1220152E+00
         -1   -1    0    0    0  501 -0.00000000000E+00  0.00000000000E+00  0.22797589275E+04  0.22797589275E+04  0.00000000000E+00 0. -1.
         21   -1    0    0  505  502  0.00000000000E+00 -0.00000000000E+00 -0.21104567427E+03  0.21104567427E+03  0.00000000000E+00 0. -1.
         21    1    1    2  503  504 -0.84864360788E+01 -0.67059770092E+02  0.44739708687E+02  0.81059693409E+02  0.00000000000E+00 0. -1.
         21    1    1    2  504  501 -0.46540654649E+02 -0.22213054760E+02  0.60712537932E+02  0.79658424533E+02  0.00000000000E+00 0.  1.
         21    1    1    2  505  503 -0.40176761507E+02  0.13192952205E+02 -0.17922044423E+03  0.18414177631E+03  0.00000000000E+00 0. -1.
         -1    1    1    2    0  502  0.95203852235E+02  0.76079872647E+02  0.21424814508E+04  0.21459447075E+04  0.00000000000E+00 0. -1.
<scales pt_clust_3="58.38977" pt_clust_4="58.38977" pt_clust_5="42.28742" pt_clust_6="120.52136"></scales>
<clustering>
<clus scale="   42.287">  2  5  1 -1</clus>
<clus scale="   58.390">  3  4 -1 -1</clus>
<clus scale="  120.521">  1  6  2 -1</clus>
<clus scale="   42.287">  2  3  1 -1</clus>
</clustering>
</event>
<event>
 6    0  0.4017242E+002  0.1571492E+03  0.7546771E-02  0.1191953E+00
         21   -1    0    0  504  502  0.00000000000E+00  0.00000000000E+00  0.15912057462E+04  0.15912057462E+04  0.00000000000E+00 0. -1.
          1   -1    0    0  503    0 -0.00000000000E+00 -0.00000000000E+00 -0.66793078182E+02  0.66793078182E+02  0.00000000000E+00 0.  1.
         21    1    1    2  503  502 -0.29874207747E+02 -0.13710236951E+02  0.88305002617E+02  0.94224266370E+02  0.00000000000E+00 0.  1.
         21    1    1    2  504  505  0.14271181917E+02 -0.48394730855E+02  0.82289850776E+03  0.82444385539E+03  0.00000000000E+00 0. -1.
         21    1    1    2  505  501  0.33542644449E+02 -0.81668463724E+02  0.58512160847E+03  0.59174499885E+03  0.00000000000E+00 0. -1.
          1    1    1    2  501    0 -0.17939618619E+02  0.14377343153E+03  0.28087549124E+02  0.14758570373E+03  0.00000000000E+00 0.  1.
<scales pt_clust_3="32.87003" pt_clust_4="49.11139" pt_clust_5="49.11139" pt_clust_6="144.31992"></scales>
<clustering>
<clus scale="   32.870">  1  3  2 -1</clus>
<clus scale="   49.111">  4  5 -1 -1</clus>
<clus scale="  144.320">  2  6  1 -1</clus>
<clus scale="   32.870">  1  3  2 -1</clus>
</clustering>
</event>
<event>
 6    0  0.4017242E+002  0.1413605E+03  0.7546771E-02  0.1211510E+00
         21   -1    0    0  505  502  0.00000000000E+00  0.00000000000E+00  0.10494925647E+04  0.10494925647E+04  0.00000000000E+00 0.  1.
          1   -1    0    0  504    0 -0.00000000000E+00 -0.00000000000E+00 -0.31631855451E+03  0.31631855451E+03  0.00000000000E+00 0.  1.
         21    1    1    2  503  501  0.59066125780E+02 -0.55076963793E+02  0.23511644656E+03  0.24860012590E+03  0.00000000000E+00 0. -1.
         21    1    1    2  504  502 -0.13494273428E+03  0.29961580340E+02  0.72847800689E+03  0.74147652987E+03  0.00000000000E+00 0.  1.
         21    1    1    2  505  503  0.41841860923E+02  0.33832206396E+01  0.65103762656E+02  0.77464104070E+02  0.00000000000E+00 0.  1.
          1    1    1    2  501    0  0.34034747573E+02  0.21732162814E+02 -0.29552420595E+03  0.29827035932E+03  0.00000000000E+00 0.  1.
<scales pt_clust_3="45.76885" pt_clust_4="129.04169" pt_clust_5="45.76885" pt_clust_6="40.38132"></scales>
<clustering>
<clus scale="   40.381">  2  6  1 -1</clus>
<clus scale="   45.769">  3  5 -1 -1</clus>
<clus scale="  129.042">  1  4  2 -1</clus>
<clus scale="  129.042">  1  3  2 -1</clus>
</clustering>
</event>
<event>
 6    0  0.4017242E+002  0.6161710E+02  0.7546771E-02  0.1391168E+00
          2   -1    0    0  503    0 -0.00000000000E+00  0.00000000000E+00  0.14913042704E+04  0.14913042704E+04  0.00000000000E+00 0. -1.
         21   -1    0    0  504  502  0.00000000000E+00 -0.00000000000E+00 -0.74294149480E+02  0.74294149480E+02  0.00000000000E+00 0. -1.
         21    1    1    2  503  505  0.57831907033E+02 -0.11130838415E+02  0.13112322526E+03  0.14374187016E+03  0.00000000000E+00 0. -1.
         21    1    1    2  504  501 -0.44618265599E+02  0.93866439002E+02  0.44510559893E+03  0.45707843112E+03  0.00000000000E+00 0. -1.
         21    1    1    2  505  502  0.14880401463E+02 -0.58428880136E+02 -0.46858353143E+02  0.76361414608E+02  0.00000000000E+00 0. -1.
          2    1    1    2  501    0 -0.28094042896E+02 -0.24306720451E+02  0.88763964984E+03  0.88841670396E+03  0.00000000000E+00 0. -1.
<scales pt_clust_3="54.06530" pt_clust_4="61.61710" pt_clust_5="14000.00000" pt_clust_6="37.14959"></scales>
<clustering>
<clus scale="   37.150">  1  6  2 -1</clus>
<clus scale="   54.065">  1  3  2 -1</clus>
<clus scale="   61.617">  1  4  2 -1</clus>
<clus scale="   61.617">  2  3  1 -1</clus>
</clustering>
</event>
<event>
 6    0  0.4017242E+002  0.1088507E+03  0.7546771E-02  0.1262713E+00
         21   -1    0    0  504  502  0.00000000000E+00  0.00000000000E+00  0.20253831231E+03  0.20253831231E+03  0.00000000000E+00 0.  1.
          1   -1    0    0  505    0 -0.00000000000E+00 -0.00000000000E+00 -0.10346936846E+04  0.10346936846E+04  0.00000000000E+00 0.  1.
         21    1    1    2  503  502  0.47145831772E+02 -0.86359291116E+02  0.66814825290E+01  0.98616929705E+02  0.00000000000E+00 0. -1.
         21    1    1    2  504  501 -0.61806695111E+02 -0.26468901779E+02  0.13120550973E+03  0.14742983451E+03  0.00000000000E+00 0.  1.
         21    1    1    2  505  503 -0.30391040974E+02  0.18545142856E+00 -0.27874659455E+02  0.41238894304E+02  0.00000000000E+00 0.  1.
          1    1    1    2  501    0  0.45051904312E+02  0.11264274147E+03 -0.94216770508E+03  0.94994633837E+03  0.00000000000E+00 0.  1.
<scales pt_clust_3="14000.00000" pt_clust_4="67.46201" pt_clust_5="30.39161" pt_clust_6="108.85068"></scales>
<clustering>
<clus scale="   30.392">  2  5  1 -1</clus>
<clus scale="   67.462">  1  4  2 -1</clus>
<clus scale="  108.851">  2  6  1 -1</clus>
<clus scale="   67.462">  1  3  2 -1</clus>
</clustering>
</event>
<event>
 6    0  0.4017242E+002  0.1873228E+03  0.7546771E-02  0.1160898E+00
         21   -1    0    0  504  502  0.00000000000E+00  0.00000000000E+00  0.11050625687E+04  0.11050625687E+04  0.00000000000E+00 0.  1.
          1   -1    0    0  503    0 -0.00000000000E+00 -0.00000000000E+00 -0.53671668390E+03  0.53671668390E+03  0.00000000000E+00 0. -1.
         21    1    1    2  503  502 -0.84614368065E+01  0.43221580294E+02  0.22480831880E+02  0.49447838355E+02  0.00000000000E+00 0. -1.
         21    1    1    2  504  505 -0.48108252594E+02 -0.17754669146E+02  0.59254991733E+03  0.59476469025E+03  0.00000000000E+00 0.  1.
         21    1    1    2  505  501 -0.73904728424E+02  0.11187356875E+03  0.44811449939E+03  0.46774374270E+03  0.00000000000E+00 0.  1.
          1    1    1    2  501    0  0.13047441782E+03 -0.13734047990E+03 -0.49479936379E+03  0.52982298132E+03  0.00000000000E+00 0. -1.
<scales pt_clust_3="44.04204" pt_clust_4="53.17486" pt_clust_5="187.32279" pt_clust_6="14000.00000"></scales>
<clustering>
<clus scale="   44.042">  1  3  2 -1</clus>
<clus scale="   53.175">  1  4  2 -1</clus>
<clus scale="  187.323">  1  5  2 -1</clus>
<clus scale="   44.042">  1  3  2 -1</clus>
</clustering>
</event>
<event>
 6    0  0.4017242E+002  0.1238325E+03  0.7546771E-02  0.1236905E+00
          1   -1    0    0  503    0 -0.00000000000E+00  0.00000000000E+00  0.10648432927E+04  0.10648432927E+04  0.00000000000E+00 0. -1.
         21   -1    0    0  501  502  0.00000000000E+00 -0.00000000000E+00 -0.53266934532E+03  0.53266934532E+03  0.00000000000E+00 0.  1.
         21    1    1    2  503  505  0.54751275016E+02  0.14437220547E+03  0.65667844614E+02  0.16778945629E+03  0.00000000000E+00 0. -1.
         21    1    1    2  504  502 -0.26541725719E+02 -0.19244686028E+02 -0.49046795094E+02  0.58994993461E+02  0.00000000000E+00 0. -1.
         21    1    1    2  505  504 -0.53973832683E+02 -0.76184911726E+02 -0.42166579166E+03  0.43187886641E+03  0.00000000000E+00 0.  1.
          1    1    1    2  501    0  0.25764283386E+02 -0.48942607713E+02  0.93721868954E+03  0.93884932187E+03  0.00000000000E+00 0. -1.
<scales pt_clust_3="14000.00000" pt_clust_4="32.78446" pt_clust_5="123.83248" pt_clust_6="55.31780"></scales>
<clustering>
<clus scale="   32.784">  2  4  1 -1</clus>
<clus scale="   55.318">  1  6  2 -1</clus>
<clus scale="  123.832">  2  5  1 -1</clus>
<clus scale="   32.784">  2  3  1 -1</clus>
</clustering>
</event>
<event>
 6    0  0.4017242E+002  0.1271881E+03  0.7546771E-02  0.1231689E+00
         21   -1    0    0  503  502  0.00000000000E+00  0.00000000000E+00  0.18392017739E+04  0.18392017739E+04  0.00000000000E+00 0. -1.
         -1   -1    0    0    0  501 -0.00000000000E+00 -0.00000000000E+00 -0.47078459019E+03  0.47078459019E+03  0.00000000000E+00 0. -1.
         21    1    1    2  503  505 -0.33799307001E+02 -0.63801618276E+02  0.64107571093E+03  0.64512875210E+03  0.00000000000E+00 0. -1.
         21    1    1    2  504  501  0.65180594359E+02  0.10208077372E+03  0.82606359327E+03  0.83489523556E+03  0.00000000000E+00 0. -1.
         21    1    1    2  505  504  0.20023616742E+02  0.69927498210E+02  0.35413509550E+03  0.36152796033E+03  0.00000000000E+00 0. -1.
         -1    1    1    2    0  502 -0.51404904101E+02 -0.10820665365E+03 -0.45285721601E+03  0.46843441606E+03  0.00000000000E+00 0. -1.
<scales pt_clust_3="72.20138" pt_clust_4="32.07364" pt_clust_5="32.07364" pt_clust_6="120.26597"></scales>
<clustering>
<clus scale="   32.074">  4  5 -1 -1</clus>
<clus scale="   72.201">  1  3  2 -1</clus>
<clus scale="  120.266">  2  6  1 -1</clus>
<clus scale="   72.201">  1  3  2 -1</clus>
</clustering>
</event>
<event>
 6    0  0.4017242E+002  0.1197376E+03  0.7546771E-02  0.1243530E+00
         21   -1    0    0  505  502  0.00000000000E+00  0.00000000000E+00  0.11431050658E+03  0.11431050658E+03  0.00000000000E+00 0.  1.
         -4   -1    0    0    0  501 -0.00000000000E+00 -0.00000000000E+00 -0.17976339695E+04  0.17976339695E+04  0.00000000000E+00 0.  1.
         21    1    1    2  503  504  0.88882124361E+02  0.33832772872E+02 -0.36752395668E+03  0.37962948684E+03  0.00000000000E+00 0.  1.
         21    1    1    2  504  502 -0.27666068026E+02  0.16338729266E+02 -0.37579724093E+02  0.49442907044E+02  0.00000000000E+00 0.  1.
         21    1    1    2  505  501 -0.93669256843E+02 -0.52521764522E+02  0.73900673783E+02  0.13036017418E+03  0.00000000000E+00 0.  1.
         -4    1    1    2    0  503  0.32453200508E+02  0.23502623835E+01 -0.13521204559E+04  0.13525119080E+04  0.00000000000E+00 0.  1.
<scales pt_clust_3="119.73763" pt_clust_4="32.13044" pt_clust_5="14000.00000" pt_clust_6="32.49051"></scales>
<clustering>
<clus scale="   32.130">  1  4  2 -1</clus>
<clus scale="   32.491">  2  6  1 -1</clus>
<clus scale="  119.738">  2  3  1 -1</clus>
<clus scale="   32.130">  1  3  2 -1</clus>
</clustering>
</event>
<event>
 6    0  0.4017242E+002  0.8957401E+02  0.7546771E-02  0.1303887E+00
         21   -1    0    0  503  502  0.00000000000E+00  0.00000000000E+00  0.32373201784E+03  0.32373201784E+03  0.00000000000E+00 0.  1.
         -3   -1    0    0    0  501 -0.00000000000E+00 -0.00000000000E+00 -0.11343074089E+03  0.11343074089E+03  0.00000000000E+00 0.  1.
         21    1    1    2  503  504 -0.50311351866E+02 -0.31206297415E+02  0.14783148589E+03  0.15924576398E+03  0.00000000000E+00 0.  1.
         21    1    1    2  504  501 -0.34893624606E+02 -0.17272733975E+01  0.10322863692E+02  0.36429521358E+02  0.00000000000E+00 0. -1.
         21    1    1    2  505  502  0.21275889932E+02 -0.66247777404E+02  0.93414040545E+02  0.11648010334E+03  0.00000000000E+00 0.  1.
         -3    1    1    2    0  505  0.63929086540E+02  0.99181348216E+02 -0.41267113173E+02  0.12500737006E+03  0.00000000000E+00 0.  1.
<scales pt_clust_3="60.94891" pt_clust_4="34.93635" pt_clust_5="14000.00000" pt_clust_6="89.57401"></scales>
<clustering>
<clus scale="   34.936">  2  4  1 -1</clus>
<clus scale="   60.949">  1  3  2 -1</clus>
<clus scale="   89.574">  2  6  1 -1</clus>
<clus scale="   60.949">  1  3  2 -1</clus>
</clustering>
</event>
<event>
 6    0  0.4017242E+002  0.1482106E+03  0.7546771E-02  0.1202689E+00
          2   -1    0    0  503    0 -0.00000000000E+00  0.00000000000E+00  0.11969604748E+04  0.11969604748E+04  0.00000000000E+00 0.  1.
         21   -1    0    0  505  502  0.00000000000E+00 -0.00000000000E+00 -0.15148903816E+03  0.15148903816E+03  0.00000000000E+00 0. -1.
         21    1    1    2  503  502 -0.27195369969E+02 -0.47046600679E+02  0.90342205086E+02  0.10542620548E+03  0.00000000000E+00 0. -1.
         21    1    1    2  504  501 -0.95498712212E+02  0.11708712431E+02  0.23037181745E+03  0.24965630827E+03  0.00000000000E+00 0. -1.
         21    1    1    2  505  504  0.15835755169E+03 -0.58962329809E+01 -0.86324853425E+02  0.18045459279E+03  0.00000000000E+00 0. -1.
          2    1    1    2  501    0 -0.35663469512E+02  0.41234121229E+02  0.81108226748E+03  0.81291240637E+03  0.00000000000E+00 0.  1.
<scales pt_clust_3="54.34124" pt_clust_4="14000.00000" pt_clust_5="148.21056" pt_clust_6="56.13025"></scales>
<clustering>
<clus scale="   54.341">  1  3  2 -1</clus>
<clus scale="   56.130">  1  6  2 -1</clus>
<clus scale="  148.211">  2  5  1 -1</clus>
<clus scale="  148.211">  2  3  1 -1</clus>
</clustering>
</event>
<event>
 6    0  0.4017242E+002  0.1025829E+03  0.7546771E-02  0.1274956E+00
          1   -1    0    0  503    0 -0.00000000000E+00  0.00000000000E+00  0.65900068246E+03  0.65900068246E+03  0.00000000000E+00 0. -1.
         21   -1    0    0  505  502  0.00000000000E+00 -0.00000000000E+00 -0.42786641963E+03  0.42786641963E+03  0.00000000000E+00 0. -1.
         21    1    1    2  503  504  0.41030661058E+02 -0.69631046051E+02 -0.18933988685E+03  0.20586789568E+03  0.00000000000E+00 0. -1.
         21    1    1    2  504  502 -0.11169555820E+02 -0.60283004610E+02 -0.80778265935E+02  0.10140970303E+03  0.00000000000E+00 0. -1.
         21    1    1    2  505  501 -0.17749097010E+02  0.27442991353E+02 -0.13302134788E+03  0.13697746972E+03  0.00000000000E+00 0. -1.
          1    1    1    2  501    0 -0.12112008228E+02  0.10247105931E+03  0.63427376349E+03  0.64261203365E+03  0.00000000000E+00 0. -1.
<scales pt_clust_3="102.58287" pt_clust_4="54.37210" pt_clust_5="32.68254" pt_clust_6="14000.00000"></scales>
<clustering>
<clus scale="   32.683">  2  5  1 -1</clus>
<clus scale="   54.372">  2  4  1 -1</clus>
<clus scale="  102.583">  2  3  1 -1</clus>
<clus scale="   32.683">  2  3  1 -1</clus>
</clustering>
</event>
<event>
 6    0  0.4017242E+002  0.7785117E+02  0.7546771E-02  0.1335263E+00
         21   -1    0    0  504  502  0.00000000000E+00  0.00000000000E+00  0.25949525572E+03  0.25949525572E+03  0.00000000000E+00 0. -1.
          1   -1    0    0  503    0 -0.00000000000E+00 -0.00000000000E+00 -0.10445333704E+04  0.10445333704E+04  0.00000000000E+00 0. -1.
         21    1    1    2  503  505 -0.49962604149E+02 -0.23108600609E+02  0.68055084881E+01  0.55466964774E+02  0.00000000000E+00 0. -1.
         21    1    1    2  504  501 -0.51827183855E+02  0.22779903109E+02  0.51665202417E+02  0.76643813272E+02  0.00000000000E+00 0. -1.
         21    1    1    2  505  502  0.10374910730E+03 -0.32907806908E+02  0.14585701867E+03  0.18199195289E+03  0.00000000000E+00 0. -1.
          1    1    1    2  501    0 -0.19593192962E+01  0.33236504409E+02 -0.98936584425E+03  0.98992589517E+03  0.00000000000E+00 0. -1.
<scales pt_clust_3="51.51652" pt_clust_4="77.85117" pt_clust_5="14000.00000" pt_clust_6="33.29421"></scales>
<clustering>
<clus scale="   33.294">  2  6  1 -1</clus>
<clus scale="   51.517">  2  3  1 -1</clus>
<clus scale="   77.851">  1  4  2 -1</clus>
<clus scale="   77.851">  1  3  2 -1</clus>
</clustering>
</event>
<event>
 6    0  0.4017242E+002  0.1002076E+03  0.7546771E-02  0.1279860E+00
          2   -1    0    0  505    0 -0.00000000000E+00  0.00000000000E+00  0.14840511768E+04  0.14840511768E+04  0.00000000000E+00 0. -1.
         21   -1    0    0  504  502  0.00000000000E+00 -0.00000000000E+00 -0.31106145004E+03  0.31106145004E+03  0.00000000000E+00 0. -1.
         21    1    1    2  503  501 -0.68068687432E+02  0.64222299283E+02  0.29951385458E+03  0.31379356115E+03  0.00000000000E+00 0. -1.
         21    1    1    2  504  503  0.13242264845E+01 -0.10116021972E+03 -0.29080503132E+03  0.30790048696E+03  0.00000000000E+00 0. -1.
         21    1    1    2  505  502  0.59169940268E+02  0.77637136500E+02  0.62788763357E+03  0.63543015917E+03  0.00000000000E+00 0. -1.
          2    1    1    2  501    0  0.75745206799E+01 -0.40699216064E+02  0.53639326998E+03  0.53798841960E+03  0.00000000000E+00 0. -1.
<scales pt_clust_3="100.20755" pt_clust_4="14000.00000" pt_clust_5="81.69124" pt_clust_6="41.39806"></scales>
<clustering>
<clus scale="   41.398">  1  6  2 -1</clus>
<clus scale="   81.691">  1  5  2 -1</clus>
<clus scale="  100.208">  1  3  2 -1</clus>
<clus scale="  100.208">  2  3  1 -1</clus>
</clustering>
</event>
<event>
 6    0  0.4017242E+002  0.1225064E+03  0.7546771E-02  0.1239019E+00
         21   -1    0    0  501  502  0.00000000000E+00  0.00000000000E+00  0.10621355800E+03  0.10621355800E+03  0.00000000000E+00 0. -1.
          1   -1    0    0  505    0 -0.00000000000E+00 -0.00000000000E+00 -0.47979748150E+03  0.47979748150E+03  0.00000000000E+00 0. -1.
         21    1    1    2  503  504 -0.45929679357E+02  0.12667725838E+03 -0.10514028932E+03  0.17091267851E+03  0.00000000000E+00 0. -1.
         21    1    1    2  504  502  0.34886027372E+02 -0.29655934698E+02  0.38750014252E+02  0.59983939293E+02  0.00000000000E+00 0. -1.
         21    1    1    2  505  503  0.20975539384E+01  0.38975024759E+02 -0.97490191147E+02  0.10501328324E+03  0.00000000000E+00 0. -1.
          1    1    1    2  501    0  0.89460980467E+01 -0.13599634844E+03 -0.20970345728E+03  0.25010113845E+03  0.00000000000E+00 0. -1.
<scales pt_clust_3="122.50638" pt_clust_4="45.13289" pt_clust_5="39.03143" pt_clust_6="14000.00000"></scales>
<clustering>
<clus scale="   39.031">  2  5  1 -1</clus>
<clus scale="   45.133">  1  4  2 -1</clus>
<clus scale="  122.506">  1  3  2 -1</clus>
<clus scale="   45.133">  1  3  2 -1</clus>
</clustering>
</event>
<event>
 6    0  0.4017242E+002  0.9134132E+02  0.7546771E-02  0.1299636E+00
          1   -1    0    0  505    0 -0.00000000000E+00  0.00000000000E+00  0.29215754954E+03  0.29215754954E+03  0.00000000000E+00 0.  1.
         21   -1    0    0  504  502  0.00000000000E+00 -0.00000000000E+00 -0.18594040783E+03  0.18594040783E+03  0.00000000000E+00 0.  1.
         21    1    1    2  503  502 -0.47820095310E+02  0.64184083337E+00 -0.53450312872E+02  0.71722447122E+02  0.00000000000E+00 0.  1.
         21    1    1    2  504  501  0.14497929318E+03 -0.40144002190E+02 -0.25006874923E+02  0.15249878740E+03  0.00000000000E+00 0.  1.
         21    1    1    2  505  503 -0.37455012377E+02  0.48753143078E+02  0.20452553465E+01  0.61513656870E+02  0.00000000000E+00 0.  1.
          1    1    1    2  501    0 -0.59704185497E+02 -0.92509817217E+01  0.18262907415E+03  0.19236306598E+03  0.00000000000E+00 0.  1.
<scales pt_clust_3="47.82440" pt_clust_4="91.34132" pt_clust_5="14000.00000" pt_clust_6="62.27807"></scales>
<clustering>
<clus scale="   47.824">  2  3  1 -1</clus>
<clus scale="   62.278">  1  6  2 -1</clus>
<clus scale="   91.341">  2  4  1 -1</clus>
<clus scale="   47.824">  2  3  1 -1</clus>
</clustering>
</event>
<event>
 6    0  0.4017242E+002  0.7662718E+02  0.7546771E-02  0.1338905E+00
         21   -1    0    0  503  502  0.00000000000E+00  0.00000000000E+00  0.16998521804E+03  0.16998521804E+03  0.00000000000E+00 0. -1.
          1   -1    0    0  504    0 -0.00000000000E+00 -0.00000000000E+00 -0.26965167707E+03  0.26965167707E+03  0.00000000000E+00 0. -1.
         21    1    1    2  503  505 -0.65233670428E+02  0.62787039364E+02  0.57913026894E+02  0.10747819664E+03  0.00000000000E+00 0. -1.
         21    1    1    2  504  502  0.33645294364E+02  0.50117223639E+02  0.37756560248E+02  0.71199015302E+02  0.00000000000E+00 0. -1.
         21    1    1    2  505  501  0.16252388319E+02 -0.59824506031E+02 -0.43532493547E+01  0.62145494027E+02  0.00000000000E+00 0. -1.
          1    1    1    2  501    0  0.15335987745E+02 -0.53079756973E+02 -0.19098279682E+03  0.19881418913E+03  0.00000000000E+00 0. -1.
<scales pt_clust_3="76.62718" pt_clust_4="53.26553" pt_clust_5="14000.00000" pt_clust_6="55.25082"></scales>
<clustering>
<clus scale="   55.251">  2  6  1 -1</clus>
<clus scale="   53.266">  1  4  2 -1</clus>
<clus scale="   76.627">  1  3  2 -1</clus>
<clus scale="   53.266">  1  3  2 -1</clus>
</clustering>
</event>
<event>
 6    0  0.4017242E+002  0.9554204E+02  0.7546771E-02  0.1289960E+00
         -2   -1    0    0    0  501 -0.00000000000E+00  0.00000000000E+00  0.56604411177E+03  0.56604411177E+03  0.00000000000E+00 0.  1.
         21   -1    0    0  504  502  0.00000000000E+00 -0.00000000000E+00 -0.79947110031E+02  0.79947110031E+02  0.00000000000E+00 0. -1.
         21    1    1    2  503  505 -0.56780037043E+02 -0.60445799330E+02  0.38967909674E+02  0.91630591221E+02  0.00000000000E+00 0. -1.
         21    1    1    2  504  501  0.34566155131E+02  0.10506659778E+02  0.34157342187E+01  0.36288789185E+02  0.00000000000E+00 0. -1.
         21    1    1    2  505  502 -0.32827549706E+02 -0.31389711698E+02 -0.15870746277E+02  0.48112811262E+02  0.00000000000E+00 0. -1.
         -2    1    1    2    0  503  0.55041431617E+02  0.81328851250E+02  0.45958410413E+03  0.46995903014E+03  0.00000000000E+00 0.  1.
<scales pt_clust_3="95.54204" pt_clust_4="36.12768" pt_clust_5="30.31027" pt_clust_6="14000.00000"></scales>
<clustering>
<clus scale="   36.128">  2  4  1 -1</clus>
<clus scale="   30.310">  2  5  1 -1</clus>
<clus scale="   95.542">  2  3  1 -1</clus>
<clus scale="   36.128">  2  3  1 -1</clus>
</clustering>
</event>
<event>
 6    0  0.4017242E+002  0.1363144E+03  0.7546771E-02  0.1218376E+00
         21   -1    0    0  504  502  0.00000000000E+00  0.00000000000E+00  0.31989301118E+03  0.31989301118E+03  0.00000000000E+00 0.  1.
         -2   -1    0    0    0  501 -0.00000000000E+00 -0.00000000000E+00 -0.63957586909E+03  0.63957586909E+03  0.00000000000E+00 0. -1.
         21    1    1    2  503  505  0.10934089351E+03  0.35446471442E+02  0.16503489719E+02  0.11612169696E+03  0.00000000000E+00 0.  1.
         21    1    1    2  504  501  0.24093954453E+02 -0.28600721067E+02 -0.15250480914E+02  0.40386842596E+02  0.00000000000E+00 0.  1.
         21    1    1    2  505  502 -0.12699887514E+02  0.75273424129E+02  0.22512445098E+03  0.23771494263E+03  0.00000000000E+00 0.  1.
         -2    1    1    2    0  503 -0.12073496045E+03 -0.82119174504E+02 -0.54606031769E+03  0.56524539808E+03  0.00000000000E+00 0. -1.
<scales pt_clust_3="136.31437" pt_clust_4="37.39679" pt_clust_5="76.00604" pt_clust_6="14000.00000"></scales>
<clustering>
<clus scale="   37.397">  2  4  1 -1</clus>
<clus scale="   76.006">  1  5  2 -1</clus>
<clus scale="  136.314">  1  3  2 -1</clus>
<clus scale="   76.006">  1  3  2 -1</clus>
</clustering>
</event>
<event>
 6    0  0.4017242E+002  0.2702375E+03  0.7546771E-02  0.1101144E+00
          1   -1    0    0  503    0 -0.00000000000E+00  0.00000000000E+00  0.27055960082E+04  0.27055960082E+04  0.00000000000E+00 0.  1.
         21   -1    0    0  501  502  0.00000000000E+00 -0.00000000000E+00 -0.29913492461E+03  0.29913492461E+03  0.00000000000E+00 0.  1.
         21    1    1    2  503  504 -0.69094394528E+02 -0.50654071960E+02  0.32465925647E+03  0.33577299351E+03  0.00000000000E+00 0.  1.
         21    1    1    2  504  505 -0.37597558349E+02 -0.75033065269E+02  0.24707760982E+03  0.26094229736E+03  0.00000000000E+00 0.  1.
         21    1    1    2  505  502 -0.88525960437E+02  0.25808179614E+03 -0.21338032245E+03  0.34637295099E+03  0.00000000000E+00 0.  1.
          1    1    1    2  501    0  0.19521791331E+03 -0.13239465891E+03  0.20481045398E+04  0.20616426910E+04  0.00000000000E+00 0.  1.
<scales pt_clust_3="170.83938" pt_clust_4="44.32562" pt_clust_5="270.23752" pt_clust_6="14000.00000"></scales>
<clustering>
<clus scale="   44.326">  3  4 -1 -1</clus>
<clus scale="  170.839">  1  3  2 -1</clus>
<clus scale="  270.238">  2  5  1 -1</clus>
<clus scale="  270.238">  2  3  1 -1</clus>
</clustering>
</event>
<event>
 6    0  0.4017242E+002  0.1445524E+03  0.7546771E-02  0.1207331E+00
         21   -1    0    0  504  502  0.00000000000E+00  0.00000000000E+00  0.67814569678E+03  0.67814569678E+03  0.00000000000E+00 0.  1.
          2   -1    0    0  503    0 -0.00000000000E+00 -0.00000000000E+00 -0.23459132207E+03  0.23459132207E+03  0.00000000000E+00 0. -1.
         21    1    1    2  503  502  0.94054029031E+02 -0.10059689892E+03  0.55594218430E+03  0.57274567544E+03  0.00000000000E+00 0.  1.
         21    1    1    2  504  505 -0.10541109643E+03  0.68346777807E+01  0.25780785685E+02  0.10873298020E+03  0.00000000000E+00 0. -1.
         21    1    1    2  505  501 -0.35108352496E+02  0.30978046094E+02  0.22995964900E+02  0.52163686186E+02  0.00000000000E+00 0.  1.
          2    1    1    2  501    0  0.46465419898E+02  0.62784175047E+02 -0.16116456018E+03  0.17909467703E+03  0.00000000000E+00 0. -1.
<scales pt_clust_3="136.24375" pt_clust_4="32.15770" pt_clust_5="32.15770" pt_clust_6="78.10818"></scales>
<clustering>
<clus scale="   32.158">  4  5 -1 -1</clus>
<clus scale="   78.108">  2  6  1 -1</clus>
<clus scale="  136.244">  1  3  2 -1</clus>
<clus scale="  136.244">  1  3  2 -1</clus>
</clustering>
</event>
<event>
 6    0  0.4017242E+002  0.1588187E+03  0.7546771E-02  0.1190037E+00
          1   -1    0    0  505    0 -0.00000000000E+00  0.00000000000E+00  0.41515071840E+03  0.41515071840E+03  0.00000000000E+00 0. -1.
         21   -1    0    0  504  502  0.00000000000E+00 -0.00000000000E+00 -0.14265690105E+03  0.14265690105E+03  0.00000000000E+00 0. -1.
         21    1    1    2  503  502 -0.32096999449E+02 -0.69102815624E+02 -0.25901639425E+02  0.80475533088E+02  0.00000000000E+00 0. -1.
         21    1    1    2  504  501  0.68892853255E+02  0.20486588316E+02  0.37087644941E+01  0.71969996974E+02  0.00000000000E+00 0. -1.
         21    1    1    2  505  503 -0.43218150084E+02 -0.93815312490E+02  0.34909988863E+02  0.10903131971E+03  0.00000000000E+00 0. -1.
          1    1    1    2  501    0  0.64222962787E+01  0.14243153980E+03  0.25977670342E+03  0.29633076968E+03  0.00000000000E+00 0. -1.
<scales pt_clust_3="51.65364" pt_clust_4="71.87437" pt_clust_5="51.65364" pt_clust_6="146.99102"></scales>
<clustering>
<clus scale="   51.654">  3  5 -1 -1</clus>
<clus scale="   71.874">  2  4  1 -1</clus>
<clus scale="  146.991">  1  6  2 -1</clus>
<clus scale="   71.874">  2  3  1 -1</clus>
</clustering>
</event>
<event>
 6    0  0.4017242E+002  0.1369495E+03  0.7546771E-02  0.1217494E+00
         21   -1    0    0  503  502  0.00000000000E+00  0.00000000000E+00  0.71949247241E+02  0.71949247241E+02  0.00000000000E+00 0. -1.
          2   -1    0    0  505    0 -0.00000000000E+00 -0.00000000000E+00 -0.37288305260E+04  0.37288305260E+04  0.00000000000E+00 0.  1.
         21    1    1    2  503  501 -0.15213901985E+02  0.63012708716E+02  0.29210599565E+02  0.71100797466E+02  0.00000000000E+00 0. -1.
         21    1    1    2  504  502  0.44231670484E+02 -0.50649675108E+02 -0.81635929784E+02  0.10576509488E+03  0.00000000000E+00 0. -1.
         21    1    1    2  505  504  0.80371706700E+02 -0.59871259875E+02 -0.28132296272E+03  0.29864157171E+03  0.00000000000E+00 0. -1.
          2    1    1    2  501    0 -0.10938947520E+03  0.47508226267E+02 -0.33231329858E+04  0.33252723092E+04  0.00000000000E+00 0.  1.
<scales pt_clust_3="64.82333" pt_clust_4="52.22339" pt_clust_5="52.22339" pt_clust_6="121.20413"></scales>
<clustering>
<clus scale="   52.223">  4  5 -1 -1</clus>
<clus scale="   64.823">  1  3  2 -1</clus>
<clus scale="  121.204">  2  6  1 -1</clus>
<clus scale="   64.823">  1  3  2 -1</clus>
</clustering>
</event>
<event>
 6    0  0.4017242E+002  0.8317471E+02  0.7546771E-02  0.1320276E+00
         21   -1    0    0  501  502  0.00000000000E+00  0.00000000000E+00  0.95037667699E+02  0.95037667699E+02  0.00000000000E+00 0.  1.
          1   -1    0    0  505    0 -0.00000000000E+00 -0.00000000000E+00 -0.86374533760E+03  0.86374533760E+03  0.00000000000E+00 0.  1.
         21    1    1    2  503  502 -0.78670394345E+02 -0.31633218392E+02  0.57307160728E+02  0.10234159527E+03  0.00000000000E+00 0.  1.
         21    1    1    2  504  503  0.37412652531E+02 -0.63795874282E+02 -0.16034088476E+03  0.17657525158E+03  0.00000000000E+00 0.  1.
         21    1    1    2  505  504  0.34993586056E+02 -0.66689632861E+01 -0.15379246352E+03  0.15786433407E+03  0.00000000000E+00 0.  1.
          1    1    1    2  501    0  0.62641557593E+01  0.10209805596E+03 -0.51188148234E+03  0.52200182437E+03  0.00000000000E+00 0.  1.
<scales pt_clust_3="14000.00000" pt_clust_4="79.79379" pt_clust_5="35.62339" pt_clust_6="83.17471"></scales>
<clustering>
<clus scale="   35.623">  2  5  1 -1</clus>
<clus scale="   79.794">  2  4  1 -1</clus>
<clus scale="   83.175">  2  6  1 -1</clus>
<clus scale="   83.175">  1  3  2 -1</clus>
</clustering>
</event>
<event>
 6    0  0.4017242E+002  0.1478421E+03  0.7546771E-02  0.1203150E+00
         21   -1    0    0  504  502  0.00000000000E+00  0.00000000000E+00  0.12022099455E+04  0.12022099455E+04  0.00000000000E+00 0.  1.
         -1   -1    0    0    0  501 -0.00000000000E+00 -0.00000000000E+00 -0.37651908803E+03  0.37651908803E+03  0.00000000000E+00 0.  1.
         21    1    1    2  503  502 -0.34518106486E+02 -0.13177177873E+03  0.33304374109E+03  0.35982417209E+03  0.00000000000E+00 0.  1.
         21    1    1    2  504  505 -0.45468746576E+02  0.44846485954E+02  0.41442288400E+03  0.41931484710E+03  0.00000000000E+00 0.  1.
         21    1    1    2  505  501  0.77267903202E+02  0.15370859960E+03  0.41867372063E+03  0.45264152129E+03  0.00000000000E+00 0.  1.
         -1    1    1    2    0  503  0.27189498598E+01 -0.66783306815E+02 -0.34044948826E+03  0.34694849303E+03  0.00000000000E+00 0.  1.
<scales pt_clust_3="14000.00000" pt_clust_4="63.86403" pt_clust_5="147.84207" pt_clust_6="66.64582"></scales>
<clustering>
<clus scale="   63.864">  1  4  2 -1</clus>
<clus scale="   66.646">  2  6  1 -1</clus>
<clus scale="  147.842">  2  5  1 -1</clus>
<clus scale="   63.864">  1  3  2 -1</clus>
</clustering>
</event>
<event>
 6    0  0.4017242E+002  0.2113748E+03  0.7546771E-02  0.1140482E+00
         21   -1    0    0  505  502  0.00000000000E+00  0.00000000000E+00  0.26832536947E+03  0.26832536947E+03  0.00000000000E+00 0. -1.
          2   -1    0    0  504    0 -0.00000000000E+00 -0.00000000000E+00 -0.32323378269E+04  0.32323378269E+04  0.00000000000E+00 0.  1.
         21    1    1    2  503  501  0.12495956973E+03 -0.18230906447E+03  0.87601797874E+02  0.23775105478E+03  0.00000000000E+00 0. -1.
         21    1    1    2  504  502  0.53587055175E+01 -0.30590323437E+02 -0.27743885251E+02  0.41643808442E+02  0.00000000000E+00 0. -1.
         21    1    1    2  505  503 -0.98986280143E+02  0.35878145604E+01  0.69286548797E+02  0.12087920381E+03  0.00000000000E+00 0. -1.
          2    1    1    2  501    0 -0.31331995108E+02  0.20931157335E+03 -0.30931569189E+04  0.31003891294E+04  0.00000000000E+00 0.  1.
<scales pt_clust_3="211.37477" pt_clust_4="31.05614" pt_clust_5="97.32942" pt_clust_6="14000.00000"></scales>
<clustering>
<clus scale="   31.056">  1  4  2 -1</clus>
<clus scale="   97.329">  1  5  2 -1</clus>
<clus scale="  211.375">  1  3  2 -1</clus>
<clus scale="   31.056">  1  3  2 -1</clus>
</clustering>
</event>
<event>
 6    0  0.4017242E+002  0.7495375E+02  0.7546771E-02  0.1344014E+00
         21   -1    0    0  504  502  0.00000000000E+00  0.00000000000E+00  0.39691060132E+02  0.39691060132E+02  0.00000000000E+00 0.  1.
          1   -1    0    0  505    0 -0.00000000000E+00 -0.00000000000E+00 -0.21915671097E+04  0.21915671097E+04  0.00000000000E+00 0.  1.
         21    1    1    2  503  502 -0.32526742867E+02  0.37852465346E+02 -0.91207156635E+02  0.10396895477E+03  0.00000000000E+00 0.  1.
         21    1    1    2  504  501  0.39415568938E+02  0.24430421214E+02 -0.11352954505E+01  0.46386651648E+02  0.00000000000E+00 0.  1.
         21    1    1    2  505  503 -0.81256323206E+02 -0.61562737152E+02 -0.25199449447E+03  0.27183411469E+03  0.00000000000E+00 0.  1.
          1    1    1    2  501    0  0.74367497135E+02 -0.72014940741E+00 -0.18075391030E+04  0.18090684487E+04  0.00000000000E+00 0.  1.
<scales pt_clust_3="50.24185" pt_clust_4="46.37276" pt_clust_5="74.95375" pt_clust_6="14000.00000"></scales>
<clustering>
<clus scale="   46.373">  1  4  2 -1</clus>
<clus scale="   50.242">  1  3  2 -1</clus>
<clus scale="   74.954">  1  5  2 -1</clus>
<clus scale="   46.373">  1  3  2 -1</clus>
</clustering>
</event>
<event>
 6    0  0.4017242E+002  0.1821485E+03  0.7546771E-02  0.1165740E+00
          2   -1    0    0  505    0 -0.00000000000E+00  0.00000000000E+00  0.14587298972E+04  0.14587298972E+04  0.00000000000E+00 0. -1.
         21   -1    0    0  504  502  0.00000000000E+00 -0.00000000000E+00 -0.66049634197E+02  0.66049634197E+02  0.00000000000E+00 0. -1.
         21    1    1    2  503  502  0.23590392840E+01  0.61570572811E+02  0.20653540131E+02  0.64985146169E+02  0.00000000000E+00 0. -1.
         21    1    1    2  504  501  0.47890802542E+02 -0.11934658843E+03  0.23939919010E+03  0.27175192613E+03  0.00000000000E+00 0. -1.
         21    1    1    2  505  503 -0.56207119254E+01  0.14850804054E+03  0.19599587734E+03  0.24596872656E+03  0.00000000000E+00 0. -1.
          2    1    1    2  501    0 -0.44629129901E+02 -0.90732024927E+02  0.93663165541E+03  0.94207373252E+03  0.00000000000E+00 0. -1.
<scales pt_clust_3="48.23495" pt_clust_4="166.03134" pt_clust_5="48.23495" pt_clust_6="101.11409"></scales>
<clustering>
<clus scale="   48.235">  3  5 -1 -1</clus>
<clus scale="  101.114">  1  6  2 -1</clus>
<clus scale="  166.031">  1  4  2 -1</clus>
<clus scale="  182.149">  2  3  1 -1</clus>
</clustering>
</event>
<event>
 6    0  0.4017242E+002  0.1079843E+03  0.7546771E-02  0.1264349E+00
         21   -1    0    0  501  502  0.00000000000E+00  0.00000000000E+00  0.13924817426E+03  0.13924817426E+03  0.00000000000E+00 0. -1.
          3   -1    0    0  505    0 -0.00000000000E+00 -0.00000000000E+00 -0.25585038566E+04  0.25585038566E+04  0.00000000000E+00 0. -1.
         21    1    1    2  503  504  0.14279406635E+02 -0.17524416026E+03 -0.15228094913E+03  0.23260246049E+03  0.00000000000E+00 0.  1.
         21    1    1    2  504  502 -0.41751254805E+02  0.72022045678E+02  0.79282154945E+02  0.11496087349E+03  0.00000000000E+00 0. -1.
         21    1    1    2  505  503  0.56819169170E+02  0.72444675446E+02 -0.17473217387E+04  0.17497456694E+04  0.00000000000E+00 0. -1.
          3    1    1    2  501    0 -0.29347321000E+02  0.30777439133E+02 -0.59893514943E+03  0.60044302747E+03  0.00000000000E+00 0. -1.
<scales pt_clust_3="107.98434" pt_clust_4="83.62527" pt_clust_5="14000.00000" pt_clust_6="42.52665"></scales>
<clustering>
<clus scale="   42.527">  2  6  1 -1</clus>
<clus scale="   83.625">  1  4  2 -1</clus>
<clus scale="  107.984">  1  3  2 -1</clus>
<clus scale="   83.625">  1  3  2 -1</clus>
</clustering>
</event>
<event>
 6    0  0.4017242E+002  0.1391537E+03  0.7546771E-02  0.1214472E+00
         21   -1    0    0  501  502  0.00000000000E+00  0.00000000000E+00  0.52704768262E+02  0.52704768262E+02  0.00000000000E+00 0. -1.
          3   -1    0    0  505    0 -0.00000000000E+00 -0.00000000000E+00 -0.77399893222E+03  0.77399893222E+03  0.00000000000E+00 0. -1.
         21    1    1    2  503  504 -0.62372927535E+02 -0.42070222211E+02 -0.18627135024E+03  0.20089126812E+03  0.00000000000E+00 0. -1.
         21    1    1    2  504  502  0.12801870405E+03 -0.57646440823E+02 -0.16323383664E+03  0.21530719020E+03  0.00000000000E+00 0. -1.
         21    1    1    2  505  503 -0.72472339274E+02 -0.15786682619E+01 -0.15193725977E+03  0.16834388334E+03  0.00000000000E+00 0. -1.
          3    1    1    2  501    0  0.68265627538E+01  0.10129533130E+03 -0.21985171731E+03  0.24216135882E+03  0.00000000000E+00 0. -1.
<scales pt_clust_3="42.34561" pt_clust_4="132.29772" pt_clust_5="42.34561" pt_clust_6="101.52510"></scales>
<clustering>
<clus scale="   42.346">  3  5 -1 -1</clus>
<clus scale="  101.525">  2  6  1 -1</clus>
<clus scale="  132.298">  1  4  2 -1</clus>
<clus scale="  132.298">  1  3  2 -1</clus>
</clustering>
</event>
<event>
 6    0  0.4017242E+002  0.1103431E+03  0.7546771E-02  0.1259936E+00
         -1   -1    0    0    0  501 -0.00000000000E+00  0.00000000000E+00  0.40328456804E+03  0.40328456804E+03  0.00000000000E+00 0.  1.
         21   -1    0    0  501  502  0.00000000000E+00 -0.00000000000E+00 -0.11660289726E+03  0.11660289726E+03  0.00000000000E+00 0.  1.
         21    1    1    2  503  504 -0.34936152717E+01  0.51621643988E+02  0.17095017539E+02  0.54490724902E+02  0.00000000000E+00 0. -1.
         21    1    1    2  504  505 -0.35695019193E+02  0.24197060466E+02  0.64485955998E+01  0.43602941593E+02  0.00000000000E+00 0. -1.
         21    1    1    2  505  502 -0.16626016412E+02 -0.12351518671E+03 -0.22698195816E+02  0.12667925585E+03  0.00000000000E+00 0.  1.
         -1    1    1    2    0  503  0.55814650876E+02  0.47696482253E+02  0.28583625346E+03  0.29511454296E+03  0.00000000000E+00 0.  1.
<scales pt_clust_3="38.55873" pt_clust_4="38.55873" pt_clust_5="101.93998" pt_clust_6="73.41818"></scales>
<clustering>
<clus scale="   38.559">  3  4 -1 -1</clus>
<clus scale="   73.418">  1  6  2 -1</clus>
<clus scale="  101.940">  2  5  1 -1</clus>
<clus scale="  101.940">  2  3  1 -1</clus>
</clustering>
</event>
<event>
 6    0  0.4017242E+002  0.1380104E+03  0.7546771E-02  0.1216031E+00
         21   -1    0    0  505  502  0.00000000000E+00  0.00000000000E+00  0.29667486462E+03  0.29667486462E+03  0.00000000000E+00 0. -1.
          1   -1    0    0  502    0 -0.00000000000E+00 -0.00000000000E+00 -0.86446519326E+03  0.86446519326E+03  0.00000000000E+00 0. -1.
         21    1    1    2  503  501  0.33533701168E+02 -0.38478163877E+02 -0.24714921988E+02  0.56708955009E+02  0.00000000000E+00 0. -1.
         21    1    1    2  504  503  0.12093813882E+03 -0.90353495383E+02 -0.20573836836E+03  0.25518241272E+03  0.00000000000E+00 0. -1.
         21    1    1    2  505  504 -0.85060112737E+02  0.38578188045E+02  0.24170269594E+03  0.25912099992E+03  0.00000000000E+00 0. -1.
          1    1    1    2  501    0 -0.69411727249E+02  0.90253471215E+02 -0.57903973425E+03  0.59012769024E+03  0.00000000000E+00 0. -1.
<scales pt_clust_3="35.40879" pt_clust_4="35.40879" pt_clust_5="93.39968" pt_clust_6="123.84874"></scales>
<clustering>
<clus scale="   35.409">  3  4 -1 -1</clus>
<clus scale="   93.400">  1  5  2 -1</clus>
<clus scale="  123.849">  2  6  1 -1</clus>
<clus scale="   93.400">  1  3  2 -1</clus>
</clustering>
</event>
<event>
 6    0  0.4017242E+002  0.2023838E+03  0.7546771E-02  0.1147743E+00
         21   -1    0    0  505  502  0.00000000000E+00  0.00000000000E+00  0.96041651206E+02  0.96041651206E+02  0.00000000000E+00 0. -1.
         -1   -1    0    0    0  501 -0.00000000000E+00 -0.00000000000E+00 -0.14074208712E+04  0.14074208712E+04  0.00000000000E+00 0.  1.
         21    1    1    2  503  502 -0.33196225375E+02 -0.17920639643E+02  0.42192501531E+02  0.56598108536E+02  0.00000000000E+00 0. -1.
         21    1    1    2  504  501 -0.40593967196E+02 -0.45552616438E+02 -0.10131548386E+03  0.11826976920E+03  0.00000000000E+00 0. -1.
         21    1    1    2  505  504 -0.73869658892E+02 -0.70959638792E+02 -0.57904353828E+02  0.11766440003E+03  0.00000000000E+00 0. -1.
         -1    1    1    2    0  503  0.14765985146E+03  0.13443289487E+03 -0.11943518838E+04  0.12109302446E+04  0.00000000000E+00 0.  1.
<scales pt_clust_3="37.72451" pt_clust_4="44.16110" pt_clust_5="44.16110" pt_clust_6="193.18968"></scales>
<clustering>
<clus scale="   37.725">  1  3  2 -1</clus>
<clus scale="   44.161">  4  5 -1 -1</clus>
<clus scale="  193.190">  2  6  1 -1</clus>
<clus scale="   37.725">  1  3  2 -1</clus>
</clustering>
</event>
<event>
 6    0  0.4017242E+002  0.5822408E+02  0.7546771E-02  0.1405439E+00
          2   -1    0    0  505    0 -0.00000000000E+00  0.00000000000E+00  0.18918997110E+04  0.18918997110E+04  0.00000000000E+00 0.  1.
         21   -1    0    0  503  502  0.00000000000E+00 -0.00000000000E+00 -0.77959785878E+02  0.77959785878E+02  0.00000000000E+00 0. -1.
         21    1    1    2  503  504  0.26411321066E+02  0.40282939725E+02  0.31140573066E+02  0.57358594859E+02  0.00000000000E+00 0.  1.
         21    1    1    2  504  501 -0.12516353882E+02  0.74586704095E+02  0.19079031432E+03  0.20523347578E+03  0.00000000000E+00 0.  1.
         21    1    1    2  505  502  0.21347142671E+02 -0.68116896855E+02 -0.34793568052E+02  0.79411614486E+02  0.00000000000E+00 0. -1.
          2    1    1    2  501    0 -0.35242109855E+02 -0.46752746965E+02  0.16268026058E+04  0.16278558117E+04  0.00000000000E+00 0.  1.
<scales pt_clust_3="48.16921" pt_clust_4="14000.00000" pt_clust_5="55.27420" pt_clust_6="58.22408"></scales>
<clustering>
<clus scale="   48.169">  2  3  1 -1</clus>
<clus scale="   55.274">  2  5  1 -1</clus>
<clus scale="   58.224">  1  6  2 -1</clus>
<clus scale="   48.169">  2  3  1 -1</clus>
</clustering>
</event>
<event>
 6    0  0.4017242E+002  0.8411532E+02  0.7546771E-02  0.1317762E+00
         21   -1    0    0  505  502  0.00000000000E+00  0.00000000000E+00  0.53416721862E+03  0.53416721862E+03  0.00000000000E+00 0.  1.
          2   -1    0    0  502    0 -0.00000000000E+00 -0.00000000000E+00 -0.64356560645E+03  0.64356560645E+03  0.00000000000E+00 0. -1.
         21    1    1    2  503  501  0.91153437119E+01  0.31038750420E+02 -0.16495102808E+02  0.36312283532E+02  0.00000000000E+00 0.  1.
         21    1    1    2  504  503 -0.10875197095E+03 -0.50348422881E+02 -0.14875402923E+02  0.12076105533E+03  0.00000000000E+00 0.  1.
         21    1    1    2  505  504  0.82724002269E+02 -0.60885983846E+01  0.46723638878E+03  0.47454206830E+03  0.00000000000E+00 0.  1.
          2    1    1    2  501    0  0.16912624967E+02  0.25398270845E+02 -0.54526427088E+03  0.54611741791E+03  0.00000000000E+00 0. -1.
<scales pt_clust_3="40.28362" pt_clust_4="84.11532" pt_clust_5="14000.00000" pt_clust_6="30.51408"></scales>
<clustering>
<clus scale="   30.514">  2  6  1 -1</clus>
<clus scale="   40.284">  2  3  1 -1</clus>
<clus scale="   84.115">  2  4  1 -1</clus>
<clus scale="   84.115">  1  3  2 -1</clus>
</clustering>
</event>
<event>
 6    0  0.4017242E+002  0.7484836E+03  0.7546771E-02  0.9637732E-01
          2   -1    0    0  504    0 -0.00000000000E+00  0.00000000000E+00  0.35657958348E+04  0.35657958348E+04  0.00000000000E+00 0. -1.
         21   -1    0    0  505  502  0.00000000000E+00 -0.00000000000E+00 -0.95138308232E+03  0.95138308232E+03  0.00000000000E+00 0. -1.
         21    1    1    2  503  501 -0.67990908094E+02 -0.52214234388E+02  0.15561865057E+02  0.87127845723E+02  0.00000000000E+00 0. -1.
         21    1    1    2  504  502  0.64630831903E+03  0.30836959874E+03 -0.62109154966E+02  0.71879329422E+03  0.00000000000E+00 0. -1.
         21    1    1    2  505  503 -0.62329151698E+03 -0.20527818334E+03 -0.31960660928E+03  0.72991768877E+03  0.00000000000E+00 0. -1.
          2    1    1    2  501    0  0.44974106036E+02 -0.50877181016E+02  0.29805666517E+04  0.29813400885E+04  0.00000000000E+00 0. -1.
<scales pt_clust_3="63.58248" pt_clust_4="727.51713" pt_clust_5="63.58248" pt_clust_6="67.90551"></scales>
<clustering>
<clus scale="   63.582">  3  5 -1 -1</clus>
<clus scale="   67.906">  1  6  2 -1</clus>
<clus scale="  727.517">  1  4  2 -1</clus>
<clus scale="  748.484">  2  3  1 -1</clus>
</clustering>
</event>
<event>
 6    0  0.4017242E+002  0.7339992E+02  0.7546771E-02  0.1348899E+00
         21   -1    0    0  505  502  0.00000000000E+00  0.00000000000E+00  0.12951323549E+04  0.12951323549E+04  0.00000000000E+00 0. -1.
          1   -1    0    0  504    0 -0.00000000000E+00 -0.00000000000E+00 -0.98756037441E+03  0.98756037441E+03  0.00000000000E+00 0. -1.
         21    1    1    2  503  501 -0.44458630928E+02  0.26972823002E+02  0.58193118820E+02  0.78041925416E+02  0.00000000000E+00 0. -1.
         21    1    1    2  504  502 -0.59992217817E+02  0.20544871297E+01  0.28874827001E+03  0.29492177022E+03  0.00000000000E+00 0. -1.
         21    1    1    2  505  503  0.99308784804E+02 -0.73720834775E+02  0.93056682088E+03  0.93875002228E+03  0.00000000000E+00 0. -1.
          1    1    1    2  501    0  0.51420639412E+01  0.44693524643E+02 -0.96993622917E+03  0.97097901143E+03  0.00000000000E+00 0. -1.
<scales pt_clust_3="14000.00000" pt_clust_4="59.92502" pt_clust_5="73.39992" pt_clust_6="44.98835"></scales>
<clustering>
<clus scale="   44.988">  2  6  1 -1</clus>
<clus scale="   59.925">  1  4  2 -1</clus>
<clus scale="   73.400">  1  5  2 -1</clus>
<clus scale="   59.925">  1  3  2 -1</clus>
</clustering>
</event>
<event>
 6    0  0.4017242E+002  0.2275138E+03  0.7546771E-02  0.1128402E+00
         21   -1    0    0  503  502  0.00000000000E+00  0.00000000000E+00  0.22761231306E+03  0.22761231306E+03  0.00000000000E+00 0.  1.
          2   -1    0    0  504    0 -0.00000000000E+00 -0.00000000000E+00 -0.19677238803E+04  0.19677238803E+04  0.00000000000E+00 0.  1.
         21    1    1    2  503  501 -0.26747982386E+03 -0.17045062398E+02 -0.10042658464E+03  0.28621930268E+03  0.00000000000E+00 0.  1.
         21    1    1    2  504  505  0.19482806297E+03  0.24769291025E+02 -0.95961765095E+02  0.21858671565E+03  0.00000000000E+00 0.  1.
         21    1    1    2  505  502  0.58182240857E+02 -0.34339271354E+02  0.57684380376E+02  0.88836065016E+02  0.00000000000E+00 0. -1.
          2    1    1    2  501    0  0.14469520027E+02  0.26615042726E+02 -0.16014075979E+04  0.16016941101E+04  0.00000000000E+00 0.  1.
<scales pt_clust_3="14000.00000" pt_clust_4="227.51380" pt_clust_5="67.52694" pt_clust_6="30.29402"></scales>
<clustering>
<clus scale="   30.294">  2  6  1 -1</clus>
<clus scale="   67.527">  1  5  2 -1</clus>
<clus scale="  227.514">  2  4  1 -1</clus>
<clus scale="   67.527">  1  3  2 -1</clus>
</clustering>
</event>
<event>
 6    0  0.4017242E+002  0.2023865E+03  0.7546771E-02  0.1147741E+00
         -1   -1    0    0    0  501 -0.00000000000E+00  0.00000000000E+00  0.11862268710E+03  0.11862268710E+03  0.00000000000E+00 0.  1.
         21   -1    0    0  505  502  0.00000000000E+00 -0.00000000000E+00 -0.98437323983E+03  0.98437323983E+03  0.00000000000E+00 0.  1.
         21    1    1    2  503  504  0.50908571492E+02  0.24858682076E+02 -0.26821474146E+02  0.62681960733E+02  0.00000000000E+00 0. -1.
         21    1    1    2  504  501  0.97093357723E+02  0.11087142667E+03  0.15479623897E+02  0.14818641004E+03  0.00000000000E+00 0.  1.
         21    1    1    2  505  503 -0.70329955347E+02 -0.12148482818E+03 -0.73947100478E+03  0.75267671214E+03  0.00000000000E+00 0.  1.
         -1    1    1    2    0  502 -0.77671973868E+02 -0.14245280567E+02 -0.11493769771E+03  0.13945084402E+03  0.00000000000E+00 0.  1.
<scales pt_clust_3="39.26011" pt_clust_4="39.26011" pt_clust_5="192.22568" pt_clust_6="78.96748"></scales>
<clustering>
<clus scale="   39.260">  3  4 -1 -1</clus>
<clus scale="   78.967">  2  6  1 -1</clus>
<clus scale="  192.226">  2  5  1 -1</clus>
<clus scale="   78.967">  2  3  1 -1</clus>
</clustering>
</event>
<event>
 6    0  0.4017242E+002  0.2510603E+03  0.7546771E-02  0.1112637E+00
         21   -1    0    0  503  502  0.00000000000E+00  0.00000000000E+00  0.84907886920E+02  0.84907886920E+02  0.00000000000E+00 0.  1.
          2   -1    0    0  505    0 -0.00000000000E+00 -0.00000000000E+00 -0.11968042422E+04  0.11968042422E+04  0.00000000000E+00 0.  1.
         21    1    1    2  503  501 -0.20998773945E+03 -0.36542060724E+02 -0.26995515741E+03  0.34395633434E+03  0.00000000000E+00 0.  1.
         21    1    1    2  504  502  0.18262452870E+03  0.65555821552E+02 -0.23919465480E+03  0.30799897258E+03  0.00000000000E+00 0.  1.
         21    1    1    2  505  504  0.87064602871E+02  0.26217085742E+02 -0.21267854274E+03  0.23130011501E+03  0.00000000000E+00 0. -1.
          2    1    1    2  501    0 -0.59701392114E+02 -0.55230846570E+02 -0.39006800033E+03  0.39845670720E+03  0.00000000000E+00 0.  1.
<scales pt_clust_3="239.85761" pt_clust_4="50.76589" pt_clust_5="50.76589" pt_clust_6="81.33082"></scales>
<clustering>
<clus scale="   50.766">  4  5 -1 -1</clus>
<clus scale="   81.331">  2  6  1 -1</clus>
<clus scale="  239.858">  1  3  2 -1</clus>
<clus scale="  239.858">  1  3  2 -1</clus>
</clustering>
</event>
<event>
 6    0  0.4017242E+002  0.8524903E+02  0.7546771E-02  0.1314783E+00
         21   -1    0    0  504  502  0.00000000000E+00  0.00000000000E+00  0.72300965983E+02  0.72300965983E+02  0.00000000000E+00 0. -1.
         -3   -1    0    0    0  501 -0.00000000000E+00 -0.00000000000E+00 -0.96939757594E+03  0.96939757594E+03  0.00000000000E+00 0. -1.
         21    1    1    2  503  501 -0.38069969899E+02  0.38900243743E+01 -0.10626377188E+03  0.11294442931E+03  0.00000000000E+00 0. -1.
         21    1    1    2  504  505  0.59714607345E+02 -0.71657447768E+01  0.32697850629E+02  0.68456786839E+02  0.00000000000E+00 0. -1.
         21    1    1    2  505  503 -0.81480369396E+02  0.29660372804E+02 -0.94169982777E+02  0.12801083535E+03  0.00000000000E+00 0. -1.
         -3    1    1    2    0  502  0.59835731950E+02 -0.26384652402E+02 -0.72936070593E+03  0.73228649042E+03  0.00000000000E+00 0. -1.
<scales pt_clust_3="33.00200" pt_clust_4="60.14301" pt_clust_5="33.00200" pt_clust_6="69.27885"></scales>
<clustering>
<clus scale="   33.002">  3  5 -1 -1</clus>
<clus scale="   60.143">  1  4  2 -1</clus>
<clus scale="   69.279">  2  6  1 -1</clus>
<clus scale="   60.143">  1  3  2 -1</clus>
</clustering>
</event>
<event>
 6    0  0.4017242E+002  0.1030130E+03  0.7546771E-02  0.1274085E+00
         21   -1    0    0  501  502  0.00000000000E+00  0.00000000000E+00  0.51562159011E+03  0.51562159011E+03  0.00000000000E+00 0.  1.
         -1   -1    0    0    0  501 -0.00000000000E+00 -0.00000000000E+00 -0.49537331803E+03  0.49537331803E+03  0.00000000000E+00 0. -1.
         21    1    1    2  503  504  0.39753718853E+02  0.11896300098E+03  0.13927917838E+03  0.18743330359E+03  0.00000000000E+00 0.  1.
         21    1    1    2  504  505 -0.89174450477E+02 -0.45335100172E+02  0.14341371363E+03  0.17485664752E+03  0.00000000000E+00 0.  1.
         21    1    1    2  505  502  0.39441661127E+02 -0.38955004682E+02  0.18841651976E+03  0.19640244892E+03  0.00000000000E+00 0.  1.
         -1    1    1    2    0  503  0.99790704976E+01 -0.34672896122E+02 -0.45086113969E+03  0.45230250812E+03  0.00000000000E+00 0. -1.
<scales pt_clust_3="14000.00000" pt_clust_4="103.01303" pt_clust_5="58.32710" pt_clust_6="36.08035"></scales>
<clustering>
<clus scale="   36.080">  2  6  1 -1</clus>
<clus scale="   58.327">  1  5  2 -1</clus>
<clus scale="  103.013">  1  4  2 -1</clus>
<clus scale="   58.327">  1  3  2 -1</clus>
</clustering>
</event>
<event>
 6    0  0.4017242E+002  0.1302111E+03  0.7546771E-02  0.1227143E+00
          3   -1    0    0  503    0 -0.00000000000E+00  0.00000000000E+00  0.30706017845E+03  0.30706017845E+03  0.00000000000E+00 0. -1.
         21   -1    0    0  505  502  0.00000000000E+00 -0.00000000000E+00 -0.21714936016E+03  0.21714936016E+03  0.00000000000E+00 0.  1.
         21    1    1    2  503  504 -0.80560113547E+02  0.66450348016E+02 -0.47847297429E+02  0.11486924966E+03  0.00000000000E+00 0.  1.
         21    1    1    2  504  502  0.15789176142E+02  0.38056573503E+02 -0.11479409921E+02  0.42771225400E+02  0.00000000000E+00 0.  1.
         21    1    1    2  505  501  0.76591104331E+02 -0.15418653957E+03 -0.34743384571E+02  0.17563253975E+03  0.00000000000E+00 0.  1.
          3    1    1    2  501    0 -0.11820166926E+02  0.49679618052E+02  0.18398091022E+03  0.19093652380E+03  0.00000000000E+00 0. -1.
<scales pt_clust_3="14000.00000" pt_clust_4="41.20195" pt_clust_5="130.21112" pt_clust_6="51.67903"></scales>
<clustering>
<clus scale="   41.202">  2  4  1 -1</clus>
<clus scale="   51.679">  1  6  2 -1</clus>
<clus scale="  130.211">  1  5  2 -1</clus>
<clus scale="   41.202">  2  3  1 -1</clus>
</clustering>
</event>
<event>
 6    0  0.4017242E+002  0.1407312E+03  0.7546771E-02  0.1212348E+00
         21   -1    0    0  503  502  0.00000000000E+00  0.00000000000E+00  0.38302471576E+03  0.38302471576E+03  0.00000000000E+00 0. -1.
          1   -1    0    0  505    0 -0.00000000000E+00 -0.00000000000E+00 -0.81013931778E+03  0.81013931778E+03  0.00000000000E+00 0.  1.
         21    1    1    2  503  501 -0.13980767871E+03  0.74038827235E+02 -0.45479713661E+03  0.48152712326E+03  0.00000000000E+00 0. -1.
         21    1    1    2  504  502  0.25911596771E+02 -0.15552633492E+02  0.26398397074E+03  0.26570817086E+03  0.00000000000E+00 0. -1.
         21    1    1    2  505  504  0.10713267574E+02 -0.13011642139E+03  0.44808454804E+02  0.13803207902E+03  0.00000000000E+00 0. -1.
          1    1    1    2  501    0  0.10318281437E+03  0.71630227642E+02 -0.28110989096E+03  0.30789666040E+03  0.00000000000E+00 0.  1.
<scales pt_clust_3="140.73124" pt_clust_4="30.22078" pt_clust_5="14000.00000" pt_clust_6="127.05438"></scales>
<clustering>
<clus scale="   30.221">  1  4  2 -1</clus>
<clus scale="  127.054">  2  6  1 -1</clus>
<clus scale="  140.731">  2  3  1 -1</clus>
<clus scale="   30.221">  1  3  2 -1</clus>
</clustering>
</event>
<event>
 6    0  0.4017242E+002  0.1033115E+03  0.7546771E-02  0.1273483E+00
         21   -1    0    0  503  502  0.00000000000E+00  0.00000000000E+00  0.12007467463E+04  0.12007467463E+04  0.00000000000E+00 0. -1.
         -3   -1    0    0    0  501 -0.00000000000E+00 -0.00000000000E+00 -0.27753024655E+03  0.27753024655E+03  0.00000000000E+00 0.  1.
         21    1    1    2  503  501 -0.67606340621E+02 -0.38327070708E+01  0.10382857463E+03  0.12395837949E+03  0.00000000000E+00 0. -1.
         21    1    1    2  504  505 -0.10185502648E+03  0.19032330014E+01  0.71761953578E+03  0.72481436717E+03  0.00000000000E+00 0. -1.
         21    1    1    2  505  502  0.70512109738E+02  0.31891284589E+02  0.35113155752E+03  0.35955859375E+03  0.00000000000E+00 0.  1.
         -3    1    1    2    0  504  0.98949257363E+02 -0.29961810520E+02 -0.24936316819E+03  0.26994565244E+03  0.00000000000E+00 0.  1.
<scales pt_clust_3="67.71489" pt_clust_4="103.31146" pt_clust_5="57.28930" pt_clust_6="14000.00000"></scales>
<clustering>
<clus scale="   67.715">  1  3  2 -1</clus>
<clus scale="   57.289">  1  5  2 -1</clus>
<clus scale="  103.311">  1  4  2 -1</clus>
<clus scale="   67.715">  1  3  2 -1</clus>
</clustering>
</event>
<event>
 6    0  0.4017242E+002  0.1467814E+03  0.7546771E-02  0.1204485E+00
         21   -1    0    0  505  502  0.00000000000E+00  0.00000000000E+00  0.32019035246E+03  0.32019035246E+03  0.00000000000E+00 0. -1.
          1   -1    0    0  503    0 -0.00000000000E+00 -0.00000000000E+00 -0.16816596914E+04  0.16816596914E+04  0.00000000000E+00 0. -1.
         21    1    1    2  503  504  0.70597958618E+02  0.71809385132E+02  0.17466464803E+03  0.20161448069E+03  0.00000000000E+00 0. -1.
         21    1    1    2  504  502  0.80894981151E+02 -0.36007583214E+01  0.94019735836E+02  0.12408333556E+03  0.00000000000E+00 0. -1.
         21    1    1    2  505  501 -0.70926278042E+02  0.25141627634E+02 -0.48120962011E+02  0.89321136031E+02  0.00000000000E+00 0.  1.
          1    1    1    2  501    0 -0.80566661727E+02 -0.93350254445E+02 -0.15820327608E+04  0.15868310916E+04  0.00000000000E+00 0. -1.
<scales pt_clust_3="71.09190" pt_clust_4="71.09190" pt_clust_5="75.25050" pt_clust_6="123.52956"></scales>
<clustering>
<clus scale="   71.092">  3  4 -1 -1</clus>
<clus scale="   75.251">  1  5  2 -1</clus>
<clus scale="  123.530">  2  6  1 -1</clus>
<clus scale="   75.251">  1  3  2 -1</clus>
</clustering>
</event>
<event>
 6    0  0.4017242E+002  0.1342746E+03  0.7546771E-02  0.1221247E+00
          1   -1    0    0  503    0 -0.00000000000E+00  0.00000000000E+00  0.14322294809E+04  0.14322294809E+04  0.00000000000E+00 0.  1.
         21   -1    0    0  505  502  0.00000000000E+00 -0.00000000000E+00 -0.37071690368E+02  0.37071690368E+02  0.00000000000E+00 0.  1.
         21    1    1    2  503  502  0.46440215944E+02  0.66994846802E+01  0.28727546701E+02  0.55016803719E+02  0.00000000000E+00 0.  1.
         21    1    1    2  504  501 -0.28595671846E+02 -0.44222265691E+02  0.11999234443E+03  0.13104000898E+03  0.00000000000E+00 0.  1.
         21    1    1    2  505  504 -0.16877101531E+02 -0.89283628045E+02  0.12433482687E+03  0.15399854534E+03  0.00000000000E+00 0.  1.
          1    1    1    2  501    0 -0.96744256771E+00  0.12680640906E+03  0.11221030725E+04  0.11292458132E+04  0.00000000000E+00 0.  1.
<scales pt_clust_3="46.92096" pt_clust_4="31.01386" pt_clust_5="31.01386" pt_clust_6="127.94547"></scales>
<clustering>
<clus scale="   31.014">  4  5 -1 -1</clus>
<clus scale="   46.921">  2  3  1 -1</clus>
<clus scale="  127.945">  1  6  2 -1</clus>
<clus scale="   46.921">  2  3  1 -1</clus>
</clustering>
</event>
<event>
 6    0  0.4017242E+002  0.1252363E+03  0.7546771E-02  0.1234700E+00
         21   -1    0    0  501  502  0.00000000000E+00  0.00000000000E+00  0.12120712315E+04  0.12120712315E+04  0.00000000000E+00 0.  1.
         -3   -1    0    0    0  501 -0.00000000000E+00 -0.00000000000E+00 -0.66352922820E+03  0.66352922820E+03  0.00000000000E+00 0.  1.
         21    1    1    2  503  504 -0.35522277692E+02  0.12046754922E+03  0.45067157953E+02  0.13343654429E+03  0.00000000000E+00 0.  1.
         21    1    1    2  504  502  0.44725861805E+02  0.33056119273E+02  0.10787364678E+04  0.10801691889E+04  0.00000000000E+00 0.  1.
         21    1    1    2  505  503 -0.68196021375E+02 -0.10841979225E+03 -0.60055712257E+02  0.14146461486E+03  0.00000000000E+00 0.  1.
         -3    1    1    2    0  505  0.58992437262E+02 -0.45103876247E+02 -0.51520591014E+03  0.52053011167E+03  0.00000000000E+00 0.  1.
<scales pt_clust_3="14000.00000" pt_clust_4="55.61573" pt_clust_5="125.23630" pt_clust_6="74.57736"></scales>
<clustering>
<clus scale="   55.616">  1  4  2 -1</clus>
<clus scale="   74.577">  2  6  1 -1</clus>
<clus scale="  125.236">  2  5  1 -1</clus>
<clus scale="   55.616">  1  3  2 -1</clus>
</clustering>
</event>
<event>
 6    0  0.4017242E+002  0.1015642E+03  0.7546771E-02  0.1277041E+00
          1   -1    0    0  505    0 -0.00000000000E+00  0.00000000000E+00  0.40708768170E+03  0.40708768170E+03  0.00000000000E+00 0. -1.
         21   -1    0    0  503  502  0.00000000000E+00 -0.00000000000E+00 -0.19625460422E+03  0.19625460422E+03  0.00000000000E+00 0. -1.
         21    1    1    2  503  501  0.25135226633E+01 -0.13055504319E+03 -0.11962630115E+03  0.17709147078E+03  0.00000000000E+00 0. -1.
         21    1    1    2  504  502  0.12140406508E+02  0.30110719520E+02 -0.27346189392E+02  0.42448309442E+02  0.00000000000E+00 0.  1.
         21    1    1    2  505  504  0.94571124964E+01  0.31353931314E+02  0.20467891133E+02  0.38619173386E+02  0.00000000000E+00 0.  1.
          1    1    1    2  501    0 -0.24111041668E+02  0.69090392352E+02  0.33733767689E+03  0.34518333230E+03  0.00000000000E+00 0. -1.
<scales pt_clust_3="14000.00000" pt_clust_4="32.46606" pt_clust_5="34.56816" pt_clust_6="101.56421"></scales>
<clustering>
<clus scale="   32.466">  2  4  1 -1</clus>
<clus scale="   34.568">  1  5  2 -1</clus>
<clus scale="  101.564">  1  6  2 -1</clus>
<clus scale="   32.466">  2  3  1 -1</clus>
</clustering>
</event>
<event>
 6    0  0.4017242E+002  0.8033609E+02  0.7546771E-02  0.1328100E+00
          1   -1    0    0  503    0 -0.00000000000E+00  0.00000000000E+00  0.88554950133E+03  0.88554950133E+03  0.00000000000E+00 0. -1.
         21   -1    0    0  504  502  0.00000000000E+00 -0.00000000000E+00 -0.70676341304E+02  0.70676341304E+02  0.00000000000E+00 0. -1.
         21    1    1    2  503  502 -0.56408457236E+02  0.75806723678E+02  0.27166321090E+03  0.28762731713E+03  0.00000000000E+00 0. -1.
         21    1    1    2  504  505  0.28548876651E+02 -0.30745114312E+02 -0.41981184260E+02  0.59352508321E+02  0.00000000000E+00 0. -1.
         21    1    1    2  505  501  0.25717183125E+02  0.34553646021E+02  0.41705112645E+02  0.59955353238E+02  0.00000000000E+00 0. -1.
          1    1    1    2  501    0  0.21423974599E+01 -0.79615255388E+02  0.54348602074E+03  0.54929066395E+03  0.00000000000E+00 0. -1.
<scales pt_clust_3="80.33609" pt_clust_4="41.95593" pt_clust_5="43.84192" pt_clust_6="14000.00000"></scales>
<clustering>
<clus scale="   41.956">  2  4  1 -1</clus>
<clus scale="   43.842">  2  5  1 -1</clus>
<clus scale="   80.336">  2  3  1 -1</clus>
<clus scale="   41.956">  2  3  1 -1</clus>
</clustering>
</event>
<event>
 6    0  0.4017242E+002  0.1650586E+03  0.7546771E-02  0.1183101E+00
         21   -1    0    0  504  502  0.00000000000E+00  0.00000000000E+00  0.27755679859E+03  0.27755679859E+03  0.00000000000E+00 0. -1.
          2   -1    0    0  503    0 -0.00000000000E+00 -0.00000000000E+00 -0.83725190159E+03  0.83725190159E+03  0.00000000000E+00 0. -1.
         21    1    1    2  503  502 -0.12567389665E+03  0.12714154559E+03 -0.28895404601E+03  0.33978425746E+03  0.00000000000E+00 0. -1.
         21    1    1    2  504  505  0.36131285149E+02 -0.81622136230E+02  0.76013897859E+02  0.11724229423E+03  0.00000000000E+00 0. -1.
         21    1    1    2  505  501  0.17377761375E+02 -0.59934122085E+02  0.14641151138E+03  0.15915532114E+03  0.00000000000E+00 0. -1.
          2    1    1    2  501    0  0.72164850121E+02  0.14414712726E+02 -0.49316646623E+03  0.49862682735E+03  0.00000000000E+00 0. -1.
<scales pt_clust_3="152.39146" pt_clust_4="53.02077" pt_clust_5="53.02077" pt_clust_6="73.59042"></scales>
<clustering>
<clus scale="   53.021">  4  5 -1 -1</clus>
<clus scale="   73.590">  2  6  1 -1</clus>
<clus scale="  152.391">  2  3  1 -1</clus>
<clus scale="  165.059">  1  3  2 -1</clus>
</clustering>
</event>
<event>
 6    0  0.4017242E+002  0.1672765E+03  0.7546771E-02  0.1180718E+00
         21   -1    0    0  503  502  0.00000000000E+00  0.00000000000E+00  0.52478010018E+03  0.52478010018E+03  0.00000000000E+00 0.  1.
          1   -1    0    0  504    0 -0.00000000000E+00 -0.00000000000E+00 -0.77916254039E+03  0.77916254039E+03  0.00000000000E+00 0.  1.
         21    1    1    2  503  501  0.71786493683E+02 -0.20779155893E+02  0.11285032779E+03  0.13535239369E+03  0.00000000000E+00 0.  1.
         21    1    1    2  504  505  0.16462884819E+02 -0.10041913936E+03  0.19124864507E+03  0.21663581045E+03  0.00000000000E+00 0.  1.
         21    1    1    2  505  502 -0.55498538650E+02 -0.46019733373E+02  0.18008824366E+03  0.19398370848E+03  0.00000000000E+00 0.  1.
          1    1    1    2  501    0 -0.32750839852E+02  0.16721802863E+03 -0.73856965672E+03  0.75797072796E+03  0.00000000000E+00 0.  1.
<scales pt_clust_3="63.73213" pt_clust_4="167.27652" pt_clust_5="72.09649" pt_clust_6="14000.00000"></scales>
<clustering>
<clus scale="   72.096">  1  5  2 -1</clus>
<clus scale="   63.732">  1  3  2 -1</clus>
<clus scale="  167.277">  1  4  2 -1</clus>
<clus scale="   72.096">  1  3  2 -1</clus>
</clustering>
</event>
<event>
 6    0  0.4017242E+002  0.2041365E+03  0.7546771E-02  0.1146295E+00
          2   -1    0    0  503    0 -0.00000000000E+00  0.00000000000E+00  0.15704191148E+04  0.15704191148E+04  0.00000000000E+00 0. -1.
         21   -1    0    0  504  502  0.00000000000E+00 -0.00000000000E+00 -0.51587160701E+02  0.51587160701E+02  0.00000000000E+00 0.  1.
         21    1    1    2  503  502 -0.13728002554E+03 -0.10994139619E+03  0.31101528167E+03  0.35730018394E+03  0.00000000000E+00 0.  1.
         21    1    1    2  504  505  0.20020159950E+02  0.16349601535E+03  0.52545755029E+03  0.55066994743E+03  0.00000000000E+00 0.  1.
         21    1    1    2  505  501  0.55496466917E+02  0.54609298265E+02  0.17374433176E+03  0.19039203270E+03  0.00000000000E+00 0.  1.
          2    1    1    2  501    0  0.61763398679E+02 -0.10816391743E+03  0.50861479041E+03  0.52364411147E+03  0.00000000000E+00 0. -1.
<scales pt_clust_3="186.15804" pt_clust_4="57.59141" pt_clust_5="57.59141" pt_clust_6="124.55581"></scales>
<clustering>
<clus scale="   57.591">  4  5 -1 -1</clus>
<clus scale="  124.556">  1  6  2 -1</clus>
<clus scale="  186.158">  2  3  1 -1</clus>
<clus scale="  186.158">  2  3  1 -1</clus>
</clustering>
</event>
<event>
 6    0  0.4017242E+002  0.2445647E+03  0.7546771E-02  0.1116789E+00
         21   -1    0    0  504  502  0.00000000000E+00  0.00000000000E+00  0.11372475835E+03  0.11372475835E+03  0.00000000000E+00 0. -1.
          4   -1    0    0  505    0 -0.00000000000E+00 -0.00000000000E+00 -0.18734704546E+04  0.18734704546E+04  0.00000000000E+00 0. -1.
         21    1    1    2  503  502  0.11265006996E+02  0.29249691560E+02  0.29119221086E+02  0.42782868951E+02  0.00000000000E+00 0. -1.
         21    1    1    2  504  501 -0.20130066276E+03  0.21939792011E+03 -0.45479125484E+03  0.54359220897E+03  0.00000000000E+00 0. -1.
         21    1    1    2  505  503  0.16491381460E+03 -0.88104902526E+01 -0.34100317656E+03  0.37888963750E+03  0.00000000000E+00 0. -1.
          4    1    1    2  501    0  0.25121841168E+02 -0.23983712141E+03 -0.99307048595E+03  0.10219304975E+04  0.00000000000E+00 0. -1.
<scales pt_clust_3="31.34398" pt_clust_4="244.56472" pt_clust_5="167.66610" pt_clust_6="14000.00000"></scales>
<clustering>
<clus scale="   31.344">  1  3  2 -1</clus>
<clus scale="  167.666">  1  5  2 -1</clus>
<clus scale="  244.565">  1  4  2 -1</clus>
<clus scale="   31.344">  1  3  2 -1</clus>
</clustering>
</event>
<event>
 6    0  0.4017242E+002  0.1076615E+03  0.7546771E-02  0.1264963E+00
         21   -1    0    0  504  502  0.00000000000E+00  0.00000000000E+00  0.17225699954E+03  0.17225699954E+03  0.00000000000E+00 0. -1.
         -4   -1    0    0    0  501 -0.00000000000E+00 -0.00000000000E+00 -0.32253206430E+03  0.32253206430E+03  0.00000000000E+00 0.  1.
         21    1    1    2  503  505 -0.50064128995E+02 -0.12314191927E+03 -0.22183256625E+03  0.25861174904E+03  0.00000000000E+00 0. -1.
         21    1    1    2  504  503  0.27807323122E+01  0.48200669638E+02  0.26437805657E+02  0.55045386670E+02  0.00000000000E+00 0.  1.
         21    1    1    2  505  501 -0.38680218707E+02  0.47820066265E+02 -0.25540308475E+02  0.66597488044E+02  0.00000000000E+00 0.  1.
         -4    1    1    2    0  502  0.85963615390E+02  0.27121183370E+02  0.70660004296E+02  0.11453444008E+03  0.00000000000E+00 0.  1.
<scales pt_clust_3="107.66154" pt_clust_4="48.28081" pt_clust_5="67.27339" pt_clust_6="14000.00000"></scales>
<clustering>
<clus scale="   48.281">  1  4  2 -1</clus>
<clus scale="   67.273">  2  5  1 -1</clus>
<clus scale="  107.662">  2  3  1 -1</clus>
<clus scale="   48.281">  1  3  2 -1</clus>
</clustering>
</event>
<event>
 6    0  0.4017242E+002  0.1193457E+03  0.7546771E-02  0.1244180E+00
          1   -1    0    0  504    0 -0.00000000000E+00  0.00000000000E+00  0.13781416609E+04  0.13781416609E+04  0.00000000000E+00 0. -1.
         21   -1    0    0  503  502  0.00000000000E+00 -0.00000000000E+00 -0.48266891401E+02  0.48266891401E+02  0.00000000000E+00 0.  1.
         21    1    1    2  503  505 -0.59761298172E+02 -0.39751531238E+02  0.11468594902E+03  0.13529399062E+03  0.00000000000E+00 0.  1.
         21    1    1    2  504  502  0.56485338414E+02 -0.34035773264E+02  0.21200028044E+02  0.69270978819E+02  0.00000000000E+00 0.  1.
         21    1    1    2  505  501 -0.73050947969E+02 -0.91272050927E+01  0.11217247248E+03  0.13417306158E+03  0.00000000000E+00 0.  1.
          1    1    1    2  501    0  0.76326907728E+02  0.82914509595E+02  0.10818163199E+04  0.10876705213E+04  0.00000000000E+00 0. -1.
<scales pt_clust_3="33.03754" pt_clust_4="65.94716" pt_clust_5="33.03754" pt_clust_6="114.55951"></scales>
<clustering>
<clus scale="   33.038">  3  5 -1 -1</clus>
<clus scale="   65.947">  2  4  1 -1</clus>
<clus scale="  114.560">  1  6  2 -1</clus>
<clus scale="   65.947">  2  3  1 -1</clus>
</clustering>
</event>
<event>
 6    0  0.4017242E+002  0.1260324E+03  0.7546771E-02  0.1233465E+00
          2   -1    0    0  502    0 -0.00000000000E+00  0.00000000000E+00  0.21140892949E+03  0.21140892949E+03  0.00000000000E+00 0. -1.
         21   -1    0    0  503  502  0.00000000000E+00 -0.00000000000E+00 -0.12300269121E+03  0.12300269121E+03  0.00000000000E+00 0. -1.
         21    1    1    2  503  505  0.31328553259E+02 -0.19272371076E+02 -0.40924138724E+02  0.55024427907E+02  0.00000000000E+00 0. -1.
         21    1    1    2  504  501  0.25771540561E+02  0.76051385740E+02  0.33167904471E+02  0.86879775914E+02  0.00000000000E+00 0. -1.
         21    1    1    2  505  504 -0.29090287100E+02  0.47168403807E+02  0.14215521476E+02  0.57211748550E+02  0.00000000000E+00 0. -1.
          2    1    1    2  501    0 -0.28009806720E+02 -0.10394741847E+03  0.81946951063E+02  0.13529566833E+03  0.00000000000E+00 0. -1.
<scales pt_clust_3="36.78182" pt_clust_4="44.26899" pt_clust_5="44.26899" pt_clust_6="112.07640"></scales>
<clustering>
<clus scale="   36.782">  2  3  1 -1</clus>
<clus scale="   44.269">  4  5 -1 -1</clus>
<clus scale="  112.076">  1  6  2 -1</clus>
<clus scale="   36.782">  2  3  1 -1</clus>
</clustering>
</event>
<event>
 6    0  0.4017242E+002  0.1247578E+03  0.7546771E-02  0.1235448E+00
          2   -1    0    0  503    0 -0.00000000000E+00  0.00000000000E+00  0.44192582771E+04  0.44192582771E+04  0.00000000000E+00 0.  1.
         21   -1    0    0  505  502  0.00000000000E+00 -0.00000000000E+00 -0.91134634465E+02  0.91134634465E+02  0.00000000000E+00 0.  1.
         21    1    1    2  503  502  0.10345813595E+03  0.39252179626E+02  0.43616762816E+03  0.44998502126E+03  0.00000000000E+00 0. -1.
         21    1    1    2  504  501  0.39521493307E+02 -0.14136817414E+03  0.64376516404E+03  0.66028819126E+03  0.00000000000E+00 0.  1.
         21    1    1    2  505  504  0.69243101584E+02  0.10233186936E+03 -0.19896390142E+02  0.12514905092E+03  0.00000000000E+00 0.  1.
          2    1    1    2  501    0 -0.21222273084E+03 -0.21587485167E+00  0.32680872406E+04  0.32749706482E+04  0.00000000000E+00 0.  1.
<scales pt_clust_3="110.65405" pt_clust_4="123.40979" pt_clust_5="124.75785" pt_clust_6="14000.00000"></scales>
<clustering>
<clus scale="  110.654">  1  3  2 -1</clus>
<clus scale="  124.758">  2  5  1 -1</clus>
<clus scale="  123.410">  2  4  1 -1</clus>
<clus scale="  124.758">  2  3  1 -1</clus>
</clustering>
</event>
<event>
 6    0  0.4017242E+002  0.1652140E+03  0.7546771E-02  0.1182933E+00
          1   -1    0    0  505    0 -0.00000000000E+00  0.00000000000E+00  0.16088061955E+03  0.16088061955E+03  0.00000000000E+00 0. -1.
         21   -1    0    0  504  502  0.00000000000E+00 -0.00000000000E+00 -0.44349060435E+03  0.44349060435E+03  0.00000000000E+00 0. -1.
         21    1    1    2  503  502 -0.28787704937E+02 -0.12045028457E+03 -0.16374952702E+03  0.20530686936E+03  0.00000000000E+00 0. -1.
         21    1    1    2  504  501  0.87962721099E+02  0.10270545595E+03 -0.16366362247E+03  0.21230080618E+03  0.00000000000E+00 0. -1.
         21    1    1    2  505  503 -0.44299054323E+02 -0.48322691761E+02 -0.41101946305E+02  0.77374793978E+02  0.00000000000E+00 0.  1.
          1    1    1    2  501    0 -0.14875961839E+02  0.66067520380E+02  0.85905110993E+02  0.10938875438E+03  0.00000000000E+00 0. -1.
<scales pt_clust_3="46.69326" pt_clust_4="152.23949" pt_clust_5="46.69326" pt_clust_6="67.72157"></scales>
<clustering>
<clus scale="   46.693">  3  5 -1 -1</clus>
<clus scale="   67.722">  1  6  2 -1</clus>
<clus scale="  152.239">  2  4  1 -1</clus>
<clus scale="  152.239">  2  3  1 -1</clus>
</clustering>
</event>
<event>
 6    0  0.4017242E+002  0.1299167E+03  0.7546771E-02  0.1227579E+00
         21   -1    0    0  503  502  0.00000000000E+00  0.00000000000E+00  0.46651856460E+03  0.46651856460E+03  0.00000000000E+00 0.  1.
          2   -1    0    0  504    0 -0.00000000000E+00 -0.00000000000E+00 -0.68572744914E+03  0.68572744914E+03  0.00000000000E+00 0.  1.
         21    1    1    2  503  501 -0.32906289951E+02 -0.11562452291E+03  0.44890831495E+03  0.46472629520E+03  0.00000000000E+00 0.  1.
         21    1    1    2  504  505  0.58826646465E+00  0.68572762648E+02 -0.33297208488E+03  0.33996026113E+03  0.00000000000E+00 0.  1.
         21    1    1    2  505  502  0.17362360743E+01  0.42273428315E+02 -0.79590365573E+02  0.90137026517E+02  0.00000000000E+00 0.  1.
          2    1    1    2  501    0  0.30581787413E+02  0.47783319504E+01 -0.25555474903E+03  0.25742243090E+03  0.00000000000E+00 0.  1.
<scales pt_clust_3="119.97806" pt_clust_4="37.78893" pt_clust_5="37.78893" pt_clust_6="30.95284"></scales>
<clustering>
<clus scale="   30.953">  2  6  1 -1</clus>
<clus scale="   37.789">  4  5 -1 -1</clus>
<clus scale="  119.978">  1  3  2 -1</clus>
<clus scale="  119.978">  1  3  2 -1</clus>
</clustering>
</event>
<event>
 6    0  0.4017242E+002  0.1297387E+03  0.7546771E-02  0.1227844E+00
         21   -1    0    0  503  502  0.00000000000E+00  0.00000000000E+00  0.71509248868E+03  0.71509248868E+03  0.00000000000E+00 0. -1.
          3   -1    0    0  504    0 -0.00000000000E+00 -0.00000000000E+00 -0.91365901375E+03  0.91365901375E+03  0.00000000000E+00 0. -1.
         21    1    1    2  503  501 -0.75059206776E+02  0.31770341442E+01  0.33152916516E+02  0.82116343935E+02  0.00000000000E+00 0. -1.
         21    1    1    2  504  505  0.69858140327E+02 -0.13034537727E+03  0.21377722597E+03  0.25994380063E+03  0.00000000000E+00 0. -1.
         21    1    1    2  505  502 -0.60584094223E+02  0.79652077288E+02  0.41270322429E+03  0.42466320446E+03  0.00000000000E+00 0. -1.
          3    1    1    2  501    0  0.65785160672E+02  0.47516265834E+02 -0.85819989185E+03  0.86202815340E+03  0.00000000000E+00 0. -1.
<scales pt_clust_3="75.12641" pt_clust_4="14000.00000" pt_clust_5="129.73874" pt_clust_6="80.97937"></scales>
<clustering>
<clus scale="   75.126">  1  3  2 -1</clus>
<clus scale="   80.979">  2  6  1 -1</clus>
<clus scale="  129.739">  1  5  2 -1</clus>
<clus scale="   75.126">  1  3  2 -1</clus>
</clustering>
</event>
<event>
 6    0  0.4017242E+002  0.2079432E+03  0.7546771E-02  0.1143205E+00
          2   -1    0    0  503    0 -0.00000000000E+00  0.00000000000E+00  0.17433735124E+04  0.17433735124E+04  0.00000000000E+00 0. -1.
         21   -1    0    0  505  502  0.00000000000E+00 -0.00000000000E+00 -0.12145524438E+03  0.12145524438E+03  0.00000000000E+00 0. -1.
         21    1    1    2  503  504  0.56238747300E+02  0.52842902548E+02  0.21388510828E+03  0.22738075686E+03  0.00000000000E+00 0. -1.
         21    1    1    2  504  502  0.12866966855E+01  0.20456242967E+03  0.95145682706E+02  0.22561060294E+03  0.00000000000E+00 0. -1.
         21    1    1    2  505  501  0.12709940514E+03 -0.50205758967E+02  0.10461178441E+03  0.17210026862E+03  0.00000000000E+00 0. -1.
          2    1    1    2  501    0 -0.18462484913E+03 -0.20719957325E+03  0.12082756926E+04  0.12397371283E+04  0.00000000000E+00 0. -1.
<scales pt_clust_3="77.16974" pt_clust_4="14000.00000" pt_clust_5="139.78859" pt_clust_6="207.94318"></scales>
<clustering>
<clus scale="   77.170">  1  3  2 -1</clus>
<clus scale="  139.789">  2  5  1 -1</clus>
<clus scale="  207.943">  1  6  2 -1</clus>
<clus scale="  139.789">  2  3  1 -1</clus>
</clustering>
</event>
<event>
 6    0  0.4017242E+002  0.3143299E+03  0.7546771E-02  0.1078289E+00
          2   -1    0    0  504    0 -0.00000000000E+00  0.00000000000E+00  0.24624809946E+04  0.24624809946E+04  0.00000000000E+00 0. -1.
         21   -1    0    0  503  502  0.00000000000E+00 -0.00000000000E+00 -0.86065664975E+02  0.86065664975E+02  0.00000000000E+00 0. -1.
         21    1    1    2  503  501  0.96973236670E+02  0.17626496207E+01  0.14215087673E+02  0.98025426709E+02  0.00000000000E+00 0. -1.
         21    1    1    2  504  505 -0.99455992145E+02 -0.13127136302E+03  0.45003151227E+03  0.47922022825E+03  0.00000000000E+00 0.  1.
         21    1    1    2  505  502  0.44151103667E+02 -0.14604780537E+03  0.31506696816E+03  0.35006638776E+03  0.00000000000E+00 0. -1.
          2    1    1    2  501    0 -0.41668348192E+02  0.27555651877E+03  0.15971017616E+04  0.16212346169E+04  0.00000000000E+00 0. -1.
<scales pt_clust_3="96.98925" pt_clust_4="140.29551" pt_clust_5="140.29551" pt_clust_6="276.45475"></scales>
<clustering>
<clus scale="   96.989">  2  3  1 -1</clus>
<clus scale="  140.296">  4  5 -1 -1</clus>
<clus scale="  276.455">  1  6  2 -1</clus>
<clus scale="   96.989">  2  3  1 -1</clus>
</clustering>
</event>
<event>
 6    0  0.4017242E+002  0.1165047E+03  0.7546771E-02  0.1248977E+00
          3   -1    0    0  504    0 -0.00000000000E+00  0.00000000000E+00  0.12099410952E+04  0.12099410952E+04  0.00000000000E+00 0. -1.
         21   -1    0    0  505  502  0.00000000000E+00 -0.00000000000E+00 -0.47340090826E+02  0.47340090826E+02  0.00000000000E+00 0.  1.
         21    1    1    2  503  501  0.55694747767E+02 -0.10006198236E+03  0.40464678905E+03  0.42053933126E+03  0.00000000000E+00 0. -1.
         21    1    1    2  504  502 -0.47678488195E+02  0.77097116903E+02  0.31990174054E+02  0.96127909097E+02  0.00000000000E+00 0.  1.
         21    1    1    2  505  503  0.29856363308E+02 -0.22108702301E+02  0.51050455519E+02  0.63137517817E+02  0.00000000000E+00 0. -1.
          3    1    1    2  501    0 -0.37872622881E+02  0.45073567756E+02  0.67491358570E+03  0.67747642781E+03  0.00000000000E+00 0. -1.
<scales pt_clust_3="36.19653" pt_clust_4="97.64577" pt_clust_5="36.19653" pt_clust_6="58.87242"></scales>
<clustering>
<clus scale="   36.197">  3  5 -1 -1</clus>
<clus scale="   58.872">  1  6  2 -1</clus>
<clus scale="   97.646">  2  4  1 -1</clus>
<clus scale="   97.646">  2  3  1 -1</clus>
</clustering>
</event>
<event>
 6    0  0.4017242E+002  0.8659075E+02  0.7546771E-02  0.1311324E+00
          2   -1    0    0  504    0 -0.00000000000E+00  0.00000000000E+00  0.17492707020E+04  0.17492707020E+04  0.00000000000E+00 0. -1.
         21   -1    0    0  505  502  0.00000000000E+00 -0.00000000000E+00 -0.32277667534E+03  0.32277667534E+03  0.00000000000E+00 0. -1.
         21    1    1    2  503  502  0.86229247670E+02  0.30063014797E+02 -0.27460541418E+03  0.28939143303E+03  0.00000000000E+00 0. -1.
         21    1    1    2  504  503 -0.51437711349E+02 -0.10709131073E+01  0.10419407400E+03  0.11620408797E+03  0.00000000000E+00 0. -1.
         21    1    1    2  505  501 -0.31405939078E+02 -0.73797772650E+02  0.12218287026E+02  0.81127866947E+02  0.00000000000E+00 0. -1.
          2    1    1    2  501    0 -0.33855972426E+01  0.44805670961E+02  0.15846870798E+04  0.15853239894E+04  0.00000000000E+00 0. -1.
<scales pt_clust_3="86.59075" pt_clust_4="61.03218" pt_clust_5="14000.00000" pt_clust_6="44.93340"></scales>
<clustering>
<clus scale="   44.933">  1  6  2 -1</clus>
<clus scale="   61.032">  1  4  2 -1</clus>
<clus scale="   86.591">  2  3  1 -1</clus>
<clus scale="   86.591">  2  3  1 -1</clus>
</clustering>
</event>
<event>
 6    0  0.4017242E+002  0.8921322E+02  0.7546771E-02  0.1304768E+00
          2   -1    0    0  504    0 -0.00000000000E+00  0.00000000000E+00  0.16265380201E+04  0.16265380201E+04  0.00000000000E+00 0. -1.
         21   -1    0    0  505  502  0.00000000000E+00 -0.00000000000E+00 -0.13640266040E+02  0.13640266040E+02  0.00000000000E+00 0. -1.
         21    1    1    2  503  502  0.45692007676E+02 -0.51178308019E+00  0.24723540424E+03  0.25142268513E+03  0.00000000000E+00 0.  1.
         21    1    1    2  504  503  0.20288396492E+02 -0.69365480101E+02  0.34569799647E+03  0.35317176221E+03  0.00000000000E+00 0. -1.
         21    1    1    2  505  501 -0.54955194441E+02 -0.36713255190E+02  0.26833630743E+03  0.27635540593E+03  0.00000000000E+00 0. -1.
          2    1    1    2  501    0 -0.11025209727E+02  0.10659051837E+03  0.75162804587E+03  0.75922843282E+03  0.00000000000E+00 0. -1.
<scales pt_clust_3="45.69487" pt_clust_4="89.21322" pt_clust_5="53.74822" pt_clust_6="14000.00000"></scales>
<clustering>
<clus scale="   45.695">  2  3  1 -1</clus>
<clus scale="   53.748">  2  5  1 -1</clus>
<clus scale="   89.213">  1  4  2 -1</clus>
<clus scale="   45.695">  2  3  1 -1</clus>
</clustering>
</event>
<event>
 6    0  0.4017242E+002  0.1920129E+03  0.7546771E-02  0.1156658E+00
         21   -1    0    0  504  502  0.00000000000E+00  0.00000000000E+00  0.26172918222E+03  0.26172918222E+03  0.00000000000E+00 0.  1.
          2   -1    0    0  505    0 -0.00000000000E+00 -0.00000000000E+00 -0.27761908917E+04  0.27761908917E+04  0.00000000000E+00 0.  1.
         21    1    1    2  503  501 -0.57982846824E+02 -0.41490566483E+02  0.10774798238E+03  0.12920180084E+03  0.00000000000E+00 0.  1.
         21    1    1    2  504  503 -0.11800517948E+03 -0.28750220935E+02  0.81370067257E+02  0.14619468333E+03  0.00000000000E+00 0.  1.
         21    1    1    2  505  502  0.13381375671E+03  0.55451095451E+02 -0.14988628865E+03  0.20843906783E+03  0.00000000000E+00 0.  1.
          2    1    1    2  501    0  0.42174269595E+02  0.14789691967E+02 -0.25536934705E+04  0.25540845219E+04  0.00000000000E+00 0.  1.
<scales pt_clust_3="50.12149" pt_clust_4="50.12149" pt_clust_5="180.82295" pt_clust_6="44.69233"></scales>
<clustering>
<clus scale="   44.692">  2  6  1 -1</clus>
<clus scale="   50.121">  3  4 -1 -1</clus>
<clus scale="  180.823">  2  5  1 -1</clus>
<clus scale="  192.013">  1  3  2 -1</clus>
</clustering>
</event>
<event>
 6    0  0.4017242E+002  0.1851647E+03  0.7546771E-02  0.1162896E+00
         21   -1    0    0  504  502  0.00000000000E+00  0.00000000000E+00  0.49659481754E+02  0.49659481754E+02  0.00000000000E+00 0. -1.
          2   -1    0    0  505    0 -0.00000000000E+00 -0.00000000000E+00 -0.23217559511E+04  0.23217559511E+04  0.00000000000E+00 0.  1.
         21    1    1    2  503  502 -0.27548001061E+02  0.22568380984E+02 -0.68010894638E+02  0.76770475915E+02  0.00000000000E+00 0.  1.
         21    1    1    2  504  501 -0.16050675709E+02 -0.50225557733E+02 -0.96323768281E+01  0.53600499286E+02  0.00000000000E+00 0. -1.
         21    1    1    2  505  503 -0.58865745250E+02 -0.13828709745E+03 -0.29000875089E+03  0.32663982133E+03  0.00000000000E+00 0. -1.
          2    1    1    2  501    0  0.10246442202E+03  0.16594427420E+03 -0.19044444469E+04  0.19144046363E+04  0.00000000000E+00 0.  1.
<scales pt_clust_3="35.61214" pt_clust_4="49.07000" pt_clust_5="185.16471" pt_clust_6="14000.00000"></scales>
<clustering>
<clus scale="   35.612">  1  3  2 -1</clus>
<clus scale="   49.070">  1  4  2 -1</clus>
<clus scale="  185.165">  1  5  2 -1</clus>
<clus scale="   35.612">  1  3  2 -1</clus>
</clustering>
</event>
<event>
 6    0  0.4017242E+002  0.7555796E+02  0.7546771E-02  0.1342152E+00
         21   -1    0    0  504  502  0.00000000000E+00  0.00000000000E+00  0.10000381279E+03  0.10000381279E+03  0.00000000000E+00 0. -1.
          1   -1    0    0  505    0 -0.00000000000E+00 -0.00000000000E+00 -0.71290744067E+03  0.71290744067E+03  0.00000000000E+00 0.  1.
         21    1    1    2  503  502 -0.28187741181E+02 -0.67148890800E+02 -0.10383434933E+03  0.12682702547E+03  0.00000000000E+00 0. -1.
         21    1    1    2  504  501 -0.28399942365E+02  0.24730200117E+02  0.75245253042E+02  0.84142662363E+02  0.00000000000E+00 0. -1.
         21    1    1    2  505  503  0.44967305431E+01 -0.43403466163E+02 -0.15329917143E+03  0.15938857368E+03  0.00000000000E+00 0. -1.
          1    1    1    2  501    0  0.52090953003E+02  0.85822156846E+02 -0.43101536015E+03  0.44255299194E+03  0.00000000000E+00 0.  1.
<scales pt_clust_3="14000.00000" pt_clust_4="37.65819" pt_clust_5="39.69682" pt_clust_6="75.55796"></scales>
<clustering>
<clus scale="   37.658">  1  4  2 -1</clus>
<clus scale="   39.697">  2  5  1 -1</clus>
<clus scale="   75.558">  2  6  1 -1</clus>
<clus scale="   37.658">  1  3  2 -1</clus>
</clustering>
</event>
<event>
 6    0  0.4017242E+002  0.9903651E+02  0.7546771E-02  0.1282335E+00
         21   -1    0    0  505  502  0.00000000000E+00  0.00000000000E+00  0.11824502107E+03  0.11824502107E+03  0.00000000000E+00 0. -1.
          1   -1    0    0  503    0 -0.00000000000E+00 -0.00000000000E+00 -0.68601257503E+03  0.68601257503E+03  0.00000000000E+00 0. -1.
         21    1    1    2  503  504  0.97654002723E+02  0.27789160865E+02 -0.56522096516E+02  0.11620365357E+03  0.00000000000E+00 0. -1.
         21    1    1    2  504  502 -0.21605490086E+02 -0.23746842509E+02  0.47666801349E+02  0.57470285208E+02  0.00000000000E+00 0. -1.
         21    1    1    2  505  501 -0.47879861418E+02  0.94072620762E+02 -0.60168007559E+02  0.12150032197E+03  0.00000000000E+00 0. -1.
          1    1    1    2  501    0 -0.28168651219E+02 -0.98114939118E+02 -0.49874425123E+03  0.50908333535E+03  0.00000000000E+00 0. -1.
<scales pt_clust_3="89.46720" pt_clust_4="32.10467" pt_clust_5="14000.00000" pt_clust_6="99.03651"></scales>
<clustering>
<clus scale="   32.105">  1  4  2 -1</clus>
<clus scale="   89.467">  1  3  2 -1</clus>
<clus scale="   99.037">  2  6  1 -1</clus>
<clus scale="   32.105">  1  3  2 -1</clus>
</clustering>
</event>
<event>
 6    0  0.4017242E+002  0.1479551E+03  0.7546771E-02  0.1203009E+00
          2   -1    0    0  504    0 -0.00000000000E+00  0.00000000000E+00  0.16677856349E+04  0.16677856349E+04  0.00000000000E+00 0. -1.
         21   -1    0    0  503  502  0.00000000000E+00 -0.00000000000E+00 -0.46099430398E+02  0.46099430398E+02  0.00000000000E+00 0.  1.
         21    1    1    2  503  505  0.11595222594E+03 -0.83485903741E+02  0.82564531818E+02  0.16502035250E+03  0.00000000000E+00 0.  1.
         21    1    1    2  504  502 -0.29692073288E+02  0.83678154398E+01  0.10467689305E+03  0.10912786761E+03  0.00000000000E+00 0. -1.
         21    1    1    2  505  501 -0.73281375614E+02  0.40984808548E+02  0.84477449985E+03  0.84893690586E+03  0.00000000000E+00 0. -1.
          2    1    1    2  501    0 -0.12978777039E+02  0.34133279753E+02  0.58967027978E+03  0.59079993932E+03  0.00000000000E+00 0. -1.
<scales pt_clust_3="140.58410" pt_clust_4="30.84866" pt_clust_5="30.41373" pt_clust_6="30.41373"></scales>
<clustering>
<clus scale="   30.414">  5  6 -1 -1</clus>
<clus scale="   30.849">  1  4  2 -1</clus>
<clus scale="  140.584">  2  3  1 -1</clus>
<clus scale="  140.584">  2  3  1 -1</clus>
</clustering>
</event>
<event>
 6    0  0.4017242E+002  0.3178053E+03  0.7546771E-02  0.1076664E+00
          2   -1    0    0  503    0 -0.00000000000E+00  0.00000000000E+00  0.59783050831E+03  0.59783050831E+03  0.00000000000E+00 0. -1.
         21   -1    0    0  505  502  0.00000000000E+00 -0.00000000000E+00 -0.80827304278E+03  0.80827304278E+03  0.00000000000E+00 0. -1.
         21    1    1    2  503  504 -0.19529690155E+03 -0.12259710921E+03 -0.63642011358E+03  0.67690582204E+03  0.00000000000E+00 0. -1.
         21    1    1    2  504  502 -0.31960055237E+02 -0.25207621832E+02 -0.79373951068E+01  0.41471334319E+02  0.00000000000E+00 0. -1.
         21    1    1    2  505  501 -0.72216494079E+02  0.22918538511E+02 -0.60082995056E+02  0.96697713103E+02  0.00000000000E+00 0. -1.
          2    1    1    2  501    0  0.29947345087E+03  0.12488619253E+03  0.49399796927E+03  0.59102868162E+03  0.00000000000E+00 0. -1.
<scales pt_clust_3="317.80527" pt_clust_4="40.70466" pt_clust_5="78.12347" pt_clust_6="14000.00000"></scales>
<clustering>
<clus scale="   40.705">  2  4  1 -1</clus>
<clus scale="   78.123">  2  5  1 -1</clus>
<clus scale="  317.805">  2  3  1 -1</clus>
<clus scale="   40.705">  2  3  1 -1</clus>
</clustering>
</event>
<event>
 6    0  0.4017242E+002  0.1819176E+03  0.7546771E-02  0.1165960E+00
         21   -1    0    0  505  502  0.00000000000E+00  0.00000000000E+00  0.16272043570E+03  0.16272043570E+03  0.00000000000E+00 0.  1.
         -1   -1    0    0    0  501 -0.00000000000E+00 -0.00000000000E+00 -0.57237562830E+03  0.57237562830E+03  0.00000000000E+00 0.  1.
         21    1    1    2  503  502 -0.10169374041E+03  0.22666091787E+02  0.44995295849E+01  0.10428621348E+03  0.00000000000E+00 0.  1.
         21    1    1    2  504  501  0.27103503678E+02  0.29738293753E+02  0.89687253382E+01  0.41223828802E+02  0.00000000000E+00 0.  1.
         21    1    1    2  505  504  0.19769047190E+03  0.36904257085E+02 -0.84041827509E+02  0.21795980282E+03  0.00000000000E+00 0.  1.
         -1    1    1    2    0  503 -0.12310023517E+03 -0.89308642624E+02 -0.33908162001E+03  0.37162621890E+03  0.00000000000E+00 0.  1.
<scales pt_clust_3="104.18910" pt_clust_4="36.24670" pt_clust_5="36.24670" pt_clust_6="162.87236"></scales>
<clustering>
<clus scale="   36.247">  4  5 -1 -1</clus>
<clus scale="  104.189">  1  3  2 -1</clus>
<clus scale="  162.872">  2  6  1 -1</clus>
<clus scale="  104.189">  1  3  2 -1</clus>
</clustering>
</event>
<event>
 6    0  0.4017242E+002  0.7747030E+02  0.7546771E-02  0.1336388E+00
         21   -1    0    0  504  502  0.00000000000E+00  0.00000000000E+00  0.29139311375E+03  0.29139311375E+03  0.00000000000E+00 0.  1.
          1   -1    0    0  505    0 -0.00000000000E+00 -0.00000000000E+00 -0.51392213024E+03  0.51392213024E+03  0.00000000000E+00 0.  1.
         21    1    1    2  503  501 -0.38364837096E+02 -0.32204212079E+02  0.37981005064E+01  0.50233430786E+02  0.00000000000E+00 0.  1.
         21    1    1    2  504  503  0.45232099667E+02  0.16216644450E+02  0.10358591028E+03  0.11418827964E+03  0.00000000000E+00 0. -1.
         21    1    1    2  505  502 -0.82440255594E+02 -0.74652895263E+00  0.14117709710E+03  0.16348677559E+03  0.00000000000E+00 0.  1.
          1    1    1    2  501    0  0.75572993024E+02  0.16734096581E+02 -0.47109012438E+03  0.47740675796E+03  0.00000000000E+00 0.  1.
<scales pt_clust_3="43.48798" pt_clust_4="48.05125" pt_clust_5="77.47030" pt_clust_6="14000.00000"></scales>
<clustering>
<clus scale="   48.051">  1  4  2 -1</clus>
<clus scale="   43.488">  1  3  2 -1</clus>
<clus scale="   77.470">  1  5  2 -1</clus>
<clus scale="   48.051">  1  3  2 -1</clus>
</clustering>
</event>
<event>
 6    0  0.4017242E+002  0.1557071E+03  0.7546771E-02  0.1193630E+00
          3   -1    0    0  503    0 -0.00000000000E+00  0.00000000000E+00  0.18049930532E+04  0.18049930532E+04  0.00000000000E+00 0.  1.
         21   -1    0    0  501  502  0.00000000000E+00 -0.00000000000E+00 -0.96656293408E+02  0.96656293408E+02  0.00000000000E+00 0.  1.
         21    1    1    2  503  504  0.29456478048E+02  0.55553414331E+02  0.52356156373E+02  0.81823181635E+02  0.00000000000E+00 0.  1.
         21    1    1    2  504  505  0.58427740762E+02  0.21508679668E+02  0.27939216127E+02  0.68242391440E+02  0.00000000000E+00 0.  1.
         21    1    1    2  505  502  0.78263733477E+01  0.39602308187E+02 -0.51410947321E+02  0.65365743612E+02  0.00000000000E+00 0.  1.
          3    1    1    2  501    0 -0.95710592158E+02 -0.11666440219E+03  0.16794523346E+04  0.16862180299E+04  0.00000000000E+00 0.  1.
<scales pt_clust_3="48.34796" pt_clust_4="48.34796" pt_clust_5="40.36824" pt_clust_6="147.76523"></scales>
<clustering>
<clus scale="   40.368">  2  5  1 -1</clus>
<clus scale="   48.348">  3  4 -1 -1</clus>
<clus scale="  147.765">  1  6  2 -1</clus>
<clus scale="   40.368">  2  3  1 -1</clus>
</clustering>
</event>
<event>
 6    0  0.4017242E+002  0.1005514E+03  0.7546771E-02  0.1279141E+00
          1   -1    0    0  503    0 -0.00000000000E+00  0.00000000000E+00  0.21675437794E+04  0.21675437794E+04  0.00000000000E+00 0. -1.
         21   -1    0    0  505  502  0.00000000000E+00 -0.00000000000E+00 -0.56909189376E+03  0.56909189376E+03  0.00000000000E+00 0. -1.
         21    1    1    2  503  502 -0.77781337236E+02  0.10772481991E+03 -0.20014495112E+03  0.24023441616E+03  0.00000000000E+00 0. -1.
         21    1    1    2  504  501  0.66087553737E+02 -0.34864881843E+02 -0.29822610892E+03  0.30744420110E+03  0.00000000000E+00 0. -1.
         21    1    1    2  505  504  0.12107357042E+02 -0.32439054453E+02 -0.39342551183E+02  0.52409127849E+02  0.00000000000E+00 0. -1.
          1    1    1    2  501    0 -0.41357354323E+00 -0.40420883619E+02  0.21361654969E+04  0.21365479281E+04  0.00000000000E+00 0. -1.
<scales pt_clust_3="100.55138" pt_clust_4="14000.00000" pt_clust_5="34.62485" pt_clust_6="40.43481"></scales>
<clustering>
<clus scale="   34.625">  2  5  1 -1</clus>
<clus scale="   40.435">  1  6  2 -1</clus>
<clus scale="  100.551">  1  3  2 -1</clus>
<clus scale="   34.625">  2  3  1 -1</clus>
</clustering>
</event>
<event>
 6    0  0.4017242E+002  0.1096156E+03  0.7546771E-02  0.1261283E+00
         21   -1    0    0  505  502  0.00000000000E+00  0.00000000000E+00  0.22382835011E+04  0.22382835011E+04  0.00000000000E+00 0. -1.
         -3   -1    0    0    0  501 -0.00000000000E+00 -0.00000000000E+00 -0.28933844487E+02  0.28933844487E+02  0.00000000000E+00 0. -1.
         21    1    1    2  503  504 -0.96319176004E+02  0.20034138480E+02  0.11716740015E+04  0.11757970557E+04  0.00000000000E+00 0. -1.
         21    1    1    2  504  502 -0.27296697560E+02 -0.36240055668E+02  0.74848745811E+03  0.74986127136E+03  0.00000000000E+00 0. -1.
         21    1    1    2  505  501  0.57681347203E+02  0.50536793195E+02  0.24115224961E+03  0.25305239136E+03  0.00000000000E+00 0. -1.
         -3    1    1    2    0  503  0.65934526361E+02 -0.34330876008E+02  0.48035947401E+02  0.88506627191E+02  0.00000000000E+00 0. -1.
<scales pt_clust_3="109.61564" pt_clust_4="45.37016" pt_clust_5="69.33554" pt_clust_6="14000.00000"></scales>
<clustering>
<clus scale="   45.370">  1  4  2 -1</clus>
<clus scale="   69.336">  2  5  1 -1</clus>
<clus scale="  109.616">  1  3  2 -1</clus>
<clus scale="   45.370">  1  3  2 -1</clus>
</clustering>
</event>
<event>
 6    0  0.4017242E+002  0.9869278E+02  0.7546771E-02  0.1283069E+00
         21   -1    0    0  504  502  0.00000000000E+00  0.00000000000E+00  0.79953726274E+02  0.79953726274E+02  0.00000000000E+00 0.  1.
          1   -1    0    0  503    0 -0.00000000000E+00 -0.00000000000E+00 -0.11318422017E+04  0.11318422017E+04  0.00000000000E+00 0.  1.
         21    1    1    2  503  505  0.80135455072E+02  0.40801922723E+01 -0.96636428792E+02  0.12560628367E+03  0.00000000000E+00 0. -1.
         21    1    1    2  504  501 -0.59093887244E+02 -0.30498185361E+02  0.31885952878E+02  0.73749174984E+02  0.00000000000E+00 0.  1.
         21    1    1    2  505  502  0.44313972755E+02 -0.30858900996E+02 -0.57996618056E+02  0.79243975531E+02  0.00000000000E+00 0. -1.
          1    1    1    2  501    0 -0.65355540582E+02  0.57276894085E+02 -0.92914138142E+03  0.93319649375E+03  0.00000000000E+00 0.  1.
<scales pt_clust_3="35.26099" pt_clust_4="66.49983" pt_clust_5="35.26099" pt_clust_6="88.84129"></scales>
<clustering>
<clus scale="   35.261">  3  5 -1 -1</clus>
<clus scale="   66.500">  1  4  2 -1</clus>
<clus scale="   88.841">  2  6  1 -1</clus>
<clus scale="   66.500">  1  3  2 -1</clus>
</clustering>
</event>
<event>
 6    0  0.4017242E+002  0.1769502E+03  0.7546771E-02  0.1170788E+00
         21   -1    0    0  504  502  0.00000000000E+00  0.00000000000E+00  0.39931340170E+03  0.39931340170E+03  0.00000000000E+00 0.  1.
          1   -1    0    0  503    0 -0.00000000000E+00 -0.00000000000E+00 -0.13204201760E+04  0.13204201760E+04  0.00000000000E+00 0.  1.
         21    1    1    2  503  502  0.40189489232E+02  0.55391484893E+02 -0.44518138179E+02  0.81641143245E+02  0.00000000000E+00 0.  1.
         21    1    1    2  504  505  0.22681810154E+02  0.30349596394E+02  0.63599644937E+02  0.74030246179E+02  0.00000000000E+00 0.  1.
         21    1    1    2  505  501 -0.18446713448E+02  0.87640017598E+02  0.29894349417E+03  0.31207093205E+03  0.00000000000E+00 0.  1.
          1    1    1    2  501    0 -0.44424585937E+02 -0.17338109889E+03 -0.12391317752E+04  0.12519912562E+04  0.00000000000E+00 0.  1.
<scales pt_clust_3="70.56317" pt_clust_4="37.88882" pt_clust_5="176.95019" pt_clust_6="14000.00000"></scales>
<clustering>
<clus scale="   37.889">  1  4  2 -1</clus>
<clus scale="   70.563">  1  3  2 -1</clus>
<clus scale="  176.950">  1  5  2 -1</clus>
<clus scale="   37.889">  1  3  2 -1</clus>
</clustering>
</event>
<event>
 6    0  0.4017242E+002  0.8820397E+02  0.7546771E-02  0.1307260E+00
         21   -1    0    0  505  502  0.00000000000E+00  0.00000000000E+00  0.12519846398E+04  0.12519846398E+04  0.00000000000E+00 0.  1.
          1   -1    0    0  502    0 -0.00000000000E+00 -0.00000000000E+00 -0.30396422220E+03  0.30396422220E+03  0.00000000000E+00 0.  1.
         21    1    1    2  503  504 -0.53072821501E+02  0.47255013580E+02  0.58993072391E+02  0.92357692049E+02  0.00000000000E+00 0.  1.
         21    1    1    2  504  501  0.26486424445E+02  0.84814265257E+02  0.91845090811E+02  0.12779088769E+03  0.00000000000E+00 0.  1.
         21    1    1    2  505  503  0.43171990755E+02 -0.45446322898E+02  0.10583180576E+04  0.10601727689E+04  0.00000000000E+00 0.  1.
          1    1    1    2  501    0 -0.16585593699E+02 -0.86622955939E+02 -0.26113580316E+03  0.27562751333E+03  0.00000000000E+00 0.  1.
<scales pt_clust_3="46.58154" pt_clust_4="14000.00000" pt_clust_5="62.68324" pt_clust_6="88.20397"></scales>
<clustering>
<clus scale="   62.683">  1  5  2 -1</clus>
<clus scale="   46.582">  1  3  2 -1</clus>
<clus scale="   88.204">  2  6  1 -1</clus>
<clus scale="   62.683">  1  3  2 -1</clus>
</clustering>
</event>
<event>
 6    0  0.4017242E+002  0.9184149E+02  0.7546771E-02  0.1298453E+00
         21   -1    0    0  503  502  0.00000000000E+00  0.00000000000E+00  0.27875183707E+04  0.27875183707E+04  0.00000000000E+00 0. -1.
          4   -1    0    0  505    0 -0.00000000000E+00 -0.00000000000E+00 -0.20044359574E+02  0.20044359574E+02  0.00000000000E+00 0. -1.
         21    1    1    2  503  504 -0.53729144413E+02 -0.37382754708E+02  0.15013885338E+04  0.15028146328E+04  0.00000000000E+00 0. -1.
         21    1    1    2  504  501  0.77356840066E+02  0.70814922535E+02  0.59521860486E+03  0.60438731086E+03  0.00000000000E+00 0. -1.
         21    1    1    2  505  502  0.50674615787E+02  0.48237062658E+02  0.12323628300E+03  0.14171066419E+03  0.00000000000E+00 0. -1.
          4    1    1    2  501    0 -0.74302311440E+02 -0.81669230486E+02  0.54763058955E+03  0.55865012244E+03  0.00000000000E+00 0. -1.
<scales pt_clust_3="65.45450" pt_clust_4="91.84149" pt_clust_5="63.30371" pt_clust_6="14000.00000"></scales>
<clustering>
<clus scale="   65.454">  1  3  2 -1</clus>
<clus scale="   63.304">  2  5  1 -1</clus>
<clus scale="   91.841">  1  4  2 -1</clus>
<clus scale="   65.454">  1  3  2 -1</clus>
</clustering>
</event>
<event>
 6    0  0.4017242E+002  0.6854663E+02  0.7546771E-02  0.1365106E+00
         21   -1    0    0  505  502  0.00000000000E+00  0.00000000000E+00  0.62182309996E+02  0.62182309996E+02  0.00000000000E+00 0. -1.
          2   -1    0    0  503    0 -0.00000000000E+00 -0.00000000000E+00 -0.15373071166E+04  0.15373071166E+04  0.00000000000E+00 0.  1.
         21    1    1    2  503  502  0.27842533866E+02  0.42344213127E+02 -0.32434955177E+02  0.60168641291E+02  0.00000000000E+00 0.  1.
         21    1    1    2  504  501  0.87012932630E+02 -0.22468271758E+02 -0.22291633098E+03  0.24034925483E+03  0.00000000000E+00 0.  1.
         21    1    1    2  505  504 -0.71623724221E+02  0.66079306777E+01  0.59743741048E+01  0.72175589814E+02  0.00000000000E+00 0. -1.
          2    1    1    2  501    0 -0.43231742275E+02 -0.26483872048E+02 -0.12257478946E+04  0.12267959407E+04  0.00000000000E+00 0.  1.
<scales pt_clust_3="50.67780" pt_clust_4="68.54663" pt_clust_5="14000.00000" pt_clust_6="50.20204"></scales>
<clustering>
<clus scale="   50.678">  1  3  2 -1</clus>
<clus scale="   50.202">  2  6  1 -1</clus>
<clus scale="   68.547">  2  4  1 -1</clus>
<clus scale="   50.678">  1  3  2 -1</clus>
</clustering>
</event>
<event>
 6    0  0.4017242E+002  0.1444151E+03  0.7546771E-02  0.1207509E+00
         21   -1    0    0  503  502  0.00000000000E+00  0.00000000000E+00  0.52207265241E+03  0.52207265241E+03  0.00000000000E+00 0.  1.
          1   -1    0    0  504    0 -0.00000000000E+00 -0.00000000000E+00 -0.17308075176E+04  0.17308075176E+04  0.00000000000E+00 0. -1.
         21    1    1    2  503  505 -0.95093875825E+01  0.72991011707E+02  0.21570951304E+03  0.22792259708E+03  0.00000000000E+00 0.  1.
         21    1    1    2  504  502  0.65202387697E+01 -0.44668734896E+02 -0.28787196082E+02  0.53539817418E+02  0.00000000000E+00 0. -1.
         21    1    1    2  505  501  0.27483061575E+02  0.63578558689E+02  0.28234782506E+03  0.29071953171E+03  0.00000000000E+00 0.  1.
          1    1    1    2  501    0 -0.24493912762E+02 -0.91900835499E+02 -0.16780050072E+04  0.16806982238E+04  0.00000000000E+00 0. -1.
<scales pt_clust_3="42.88272" pt_clust_4="45.14210" pt_clust_5="42.88272" pt_clust_6="137.48267"></scales>
<clustering>
<clus scale="   42.883">  3  5 -1 -1</clus>
<clus scale="   45.142">  2  4  1 -1</clus>
<clus scale="  137.483">  2  6  1 -1</clus>
<clus scale="  144.415">  1  3  2 -1</clus>
</clustering>
</event>
<event>
 6    0  0.4017242E+002  0.1138264E+03  0.7546771E-02  0.1253644E+00
         21   -1    0    0  503  502  0.00000000000E+00  0.00000000000E+00  0.98706918927E+02  0.98706918927E+02  0.00000000000E+00 0. -1.
          2   -1    0    0  504    0 -0.00000000000E+00 -0.00000000000E+00 -0.13365889477E+04  0.13365889477E+04  0.00000000000E+00 0.  1.
         21    1    1    2  503  505 -0.50124935873E+02 -0.72959382795E+01 -0.24216147696E+02  0.56144115639E+02  0.00000000000E+00 0.  1.
         21    1    1    2  504  502 -0.10683646997E+03 -0.13146778029E+02 -0.44104074552E+03  0.45398657281E+03  0.00000000000E+00 0.  1.
         21    1    1    2  505  501  0.14921735294E+03  0.57627515883E+02 -0.85927088198E+01  0.16018921202E+03  0.00000000000E+00 0. -1.
          2    1    1    2  501    0  0.77440529111E+01 -0.37184799575E+02 -0.76403242676E+03  0.76497596617E+03  0.00000000000E+00 0.  1.
<scales pt_clust_3="50.56125" pt_clust_4="113.82641" pt_clust_5="14000.00000" pt_clust_6="37.98262"></scales>
<clustering>
<clus scale="   37.983">  2  6  1 -1</clus>
<clus scale="   50.561">  1  3  2 -1</clus>
<clus scale="  113.826">  2  4  1 -1</clus>
<clus scale="   50.561">  1  3  2 -1</clus>
</clustering>
</event>
<event>
 6    0  0.4017242E+002  0.2067633E+03  0.7546771E-02  0.1144155E+00
         -4   -1    0    0    0  501 -0.00000000000E+00  0.00000000000E+00  0.19990308834E+03  0.19990308834E+03  0.00000000000E+00 0.  1.
         21   -1    0    0  503  502  0.00000000000E+00 -0.00000000000E+00 -0.48103029679E+03  0.48103029679E+03  0.00000000000E+00 0. -1.
         21    1    1    2  503  504 -0.54582771394E+02  0.67357143749E+02 -0.20446648883E+03  0.22208739001E+03  0.00000000000E+00 0. -1.
         21    1    1    2  504  501 -0.13539223928E+03 -0.14312923529E+03  0.57210279721E+02  0.20515860342E+03  0.00000000000E+00 0. -1.
         21    1    1    2  505  502  0.35642967157E+02  0.34836434820E+02 -0.82333002689E+01  0.50515200999E+02  0.00000000000E+00 0.  1.
         -4    1    1    2    0  505  0.15433204352E+03  0.40935656722E+02 -0.12563769907E+03  0.20317219070E+03  0.00000000000E+00 0.  1.
<scales pt_clust_3="86.69639" pt_clust_4="195.31287" pt_clust_5="37.90901" pt_clust_6="37.90901"></scales>
<clustering>
<clus scale="   37.909">  5  6 -1 -1</clus>
<clus scale="   86.696">  2  3  1 -1</clus>
<clus scale="  195.313">  1  4  2 -1</clus>
<clus scale="   86.696">  2  3  1 -1</clus>
</clustering>
</event>
<event>
 6    0  0.4017242E+002  0.1568901E+03  0.7546771E-02  0.1192253E+00
         21   -1    0    0  504  502  0.00000000000E+00  0.00000000000E+00  0.30346562906E+03  0.30346562906E+03  0.00000000000E+00 0. -1.
          1   -1    0    0  503    0 -0.00000000000E+00 -0.00000000000E+00 -0.17387672598E+03  0.17387672598E+03  0.00000000000E+00 0. -1.
         21    1    1    2  503  502  0.12821129444E+01 -0.30715533432E+02  0.16771094165E+02  0.35019386161E+02  0.00000000000E+00 0. -1.
         21    1    1    2  504  505 -0.15414480349E+03 -0.43178702996E+02  0.18469613701E+03  0.24441293718E+03  0.00000000000E+00 0. -1.
         21    1    1    2  505  501  0.12123416481E+03  0.66856911906E+02 -0.24633154225E+02  0.14062134146E+03  0.00000000000E+00 0. -1.
          1    1    1    2  501    0  0.31628525741E+02  0.70373245224E+01 -0.47245173864E+02  0.57288690249E+02  0.00000000000E+00 0. -1.
<scales pt_clust_3="30.74228" pt_clust_4="156.89009" pt_clust_5="14000.00000" pt_clust_6="32.30856"></scales>
<clustering>
<clus scale="   30.742">  1  3  2 -1</clus>
<clus scale="   32.309">  2  6  1 -1</clus>
<clus scale="  156.890">  1  4  2 -1</clus>
<clus scale="   30.742">  1  3  2 -1</clus>
</clustering>
</event>
<event>
 6    0  0.4017242E+002  0.1348798E+03  0.7546771E-02  0.1220389E+00
         21   -1    0    0  503  502  0.00000000000E+00  0.00000000000E+00  0.68499729328E+02  0.68499729328E+02  0.00000000000E+00 0. -1.
          1   -1    0    0  502    0 -0.00000000000E+00 -0.00000000000E+00 -0.22538506373E+04  0.22538506373E+04  0.00000000000E+00 0.  1.
         21    1    1    2  503  504 -0.40315589238E+02  0.24241311008E+02 -0.69847302861E+02  0.84211837719E+02  0.00000000000E+00 0.  1.
         21    1    1    2  504  505  0.46561522457E+01  0.64474901580E+02 -0.11858930287E+03  0.13506337565E+03  0.00000000000E+00 0. -1.
         21    1    1    2  505  501 -0.84868858976E+02 -0.14836836681E+03 -0.93331117575E+02  0.19474751090E+03  0.00000000000E+00 0. -1.
          1    1    1    2  501    0  0.12052829597E+03  0.59652154227E+02 -0.19035831847E+04  0.19083276424E+04  0.00000000000E+00 0.  1.
<scales pt_clust_3="47.04241" pt_clust_4="67.73560" pt_clust_5="14000.00000" pt_clust_6="134.87983"></scales>
<clustering>
<clus scale="   47.042">  1  3  2 -1</clus>
<clus scale="   67.736">  1  4  2 -1</clus>
<clus scale="  134.880">  2  6  1 -1</clus>
<clus scale="   47.042">  1  3  2 -1</clus>
</clustering>
</event>
<event>
 6    0  0.4017242E+002  0.1606995E+03  0.7546771E-02  0.1187909E+00
         21   -1    0    0  505  502  0.00000000000E+00  0.00000000000E+00  0.44060126973E+03  0.44060126973E+03  0.00000000000E+00 0. -1.
          2   -1    0    0  503    0 -0.00000000000E+00 -0.00000000000E+00 -0.20255349395E+04  0.20255349395E+04  0.00000000000E+00 0.  1.
         21    1    1    2  503  502 -0.17074007978E+03  0.51415596095E+02  0.27369906063E+03  0.32666024269E+03  0.00000000000E+00 0. -1.
         21    1    1    2  504  501  0.13364127941E+03 -0.13404514297E+03 -0.48823186878E+02  0.19547837603E+03  0.00000000000E+00 0. -1.
         21    1    1    2  505  504  0.17720354571E+02 -0.26359157293E+02  0.61605560720E+02  0.69311335659E+02  0.00000000000E+00 0. -1.
          2    1    1    2  501    0  0.19378445800E+02  0.10898870417E+03 -0.18714151042E+04  0.18746862548E+04  0.00000000000E+00 0.  1.
<scales pt_clust_3="160.69950" pt_clust_4="14000.00000" pt_clust_5="31.76187" pt_clust_6="110.59848"></scales>
<clustering>
<clus scale="   31.762">  1  5  2 -1</clus>
<clus scale="  110.598">  2  6  1 -1</clus>
<clus scale="  160.700">  1  3  2 -1</clus>
<clus scale="   31.762">  1  3  2 -1</clus>
</clustering>
</event>
<event>
 6    0  0.4017242E+002  0.9965824E+02  0.7546771E-02  0.1281016E+00
          1   -1    0    0  503    0 -0.00000000000E+00  0.00000000000E+00  0.16228244063E+04  0.16228244063E+04  0.00000000000E+00 0.  1.
         21   -1    0    0  504  502  0.00000000000E+00 -0.00000000000E+00 -0.49543579599E+03  0.49543579599E+03  0.00000000000E+00 0.  1.
         21    1    1    2  503  505  0.11689130775E+03 -0.40439028324E+02 -0.57660918092E+02  0.13646858362E+03  0.00000000000E+00 0.  1.
         21    1    1    2  504  501 -0.39131710405E+02 -0.94017663365E+01  0.14078780969E+02  0.42636792129E+02  0.00000000000E+00 0.  1.
         21    1    1    2  505  502  0.13491814320E+02  0.90254369823E+02 -0.37704191113E+03  0.38792845098E+03  0.00000000000E+00 0.  1.
          1    1    1    2  501    0 -0.91251411668E+02 -0.40413575162E+02  0.15480126586E+04  0.15512263756E+04  0.00000000000E+00 0.  1.
<scales pt_clust_3="99.65824" pt_clust_4="40.24530" pt_clust_5="84.63407" pt_clust_6="14000.00000"></scales>
<clustering>
<clus scale="   40.245">  2  4  1 -1</clus>
<clus scale="   84.634">  2  5  1 -1</clus>
<clus scale="   99.658">  2  3  1 -1</clus>
<clus scale="   40.245">  2  3  1 -1</clus>
</clustering>
</event>
<event>
 6    0  0.4017242E+002  0.6980123E+02  0.7546771E-02  0.1360770E+00
          1   -1    0    0  503    0 -0.00000000000E+00  0.00000000000E+00  0.55432235779E+03  0.55432235779E+03  0.00000000000E+00 0. -1.
         21   -1    0    0  505  502  0.00000000000E+00 -0.00000000000E+00 -0.14807162034E+04  0.14807162034E+04  0.00000000000E+00 0.  1.
         21    1    1    2  503  504 -0.56242647340E+02 -0.49893039747E+01 -0.26781287572E+02  0.62492926784E+02  0.00000000000E+00 0. -1.
         21    1    1    2  504  502 -0.30342618170E+02 -0.57884193952E+02 -0.11854558882E+03  0.13536731886E+03  0.00000000000E+00 0. -1.
         21    1    1    2  505  501  0.58008751768E+02 -0.14963313950E+02 -0.13051763711E+04  0.13065505255E+04  0.00000000000E+00 0.  1.
          1    1    1    2  501    0  0.28576513742E+02  0.77836811877E+02  0.52410940188E+03  0.53062779004E+03  0.00000000000E+00 0. -1.
<scales pt_clust_3="56.46352" pt_clust_4="14000.00000" pt_clust_5="59.83941" pt_clust_6="69.80123"></scales>
<clustering>
<clus scale="   56.464">  1  3  2 -1</clus>
<clus scale="   59.839">  2  5  1 -1</clus>
<clus scale="   69.801">  1  6  2 -1</clus>
<clus scale="   59.839">  2  3  1 -1</clus>
</clustering>
</event>
<event>
 6    0  0.4017242E+002  0.9322153E+02  0.7546771E-02  0.1295233E+00
          2   -1    0    0  504    0 -0.00000000000E+00  0.00000000000E+00  0.43679959364E+03  0.43679959364E+03  0.00000000000E+00 0. -1.
         21   -1    0    0  503  502  0.00000000000E+00 -0.00000000000E+00 -0.35208835399E+03  0.35208835399E+03  0.00000000000E+00 0.  1.
         21    1    1    2  503  505 -0.13074249496E+02 -0.73568609064E+02 -0.30015037023E+03  0.30931136576E+03  0.00000000000E+00 0.  1.
         21    1    1    2  504  502  0.27786382280E+02 -0.19694241571E+02 -0.84586255267E+01  0.35092656455E+02  0.00000000000E+00 0.  1.
         21    1    1    2  505  501  0.28866970496E+02  0.10181719529E+03  0.92966194376E+02  0.14086431961E+03  0.00000000000E+00 0. -1.
          2    1    1    2  501    0 -0.43579103280E+02 -0.85543446575E+01  0.30035404103E+03  0.30361960579E+03  0.00000000000E+00 0. -1.
<scales pt_clust_3="93.22153" pt_clust_4="34.05798" pt_clust_5="14000.00000" pt_clust_6="44.29489"></scales>
<clustering>
<clus scale="   34.058">  2  4  1 -1</clus>
<clus scale="   44.295">  1  6  2 -1</clus>
<clus scale="   93.222">  2  3  1 -1</clus>
<clus scale="   34.058">  2  3  1 -1</clus>
</clustering>
</event>
<event>
 6    0  0.4017242E+002  0.1067147E+03  0.7546771E-02  0.1266778E+00
         21   -1    0    0  505  502  0.00000000000E+00  0.00000000000E+00  0.22658115585E+03  0.22658115585E+03  0.00000000000E+00 0. -1.
          2   -1    0    0  504    0 -0.00000000000E+00 -0.00000000000E+00 -0.73980173502E+03  0.73980173502E+03  0.00000000000E+00 0.  1.
         21    1    1    2  503  501  0.76962374963E+01 -0.73665279036E+02 -0.10352450542E+03  0.12729151044E+03  0.00000000000E+00 0. -1.
         21    1    1    2  504  502  0.73771935265E+02  0.24615532207E+02 -0.21291971986E+03  0.22667825207E+03  0.00000000000E+00 0.  1.
         21    1    1    2  505  503 -0.10880066112E+03  0.56462581079E+01  0.19173734430E+03  0.22052816893E+03  0.00000000000E+00 0. -1.
          2    1    1    2  501    0  0.27332488362E+02  0.43403488721E+02 -0.38851369819E+03  0.39188495944E+03  0.00000000000E+00 0.  1.
<scales pt_clust_3="61.64768" pt_clust_4="14000.00000" pt_clust_5="106.71471" pt_clust_6="51.29257"></scales>
<clustering>
<clus scale="   51.293">  2  6  1 -1</clus>
<clus scale="   61.648">  2  3  1 -1</clus>
<clus scale="  106.715">  1  5  2 -1</clus>
<clus scale="  106.715">  1  3  2 -1</clus>
</clustering>
</event>
<event>
 6    0  0.4017242E+002  0.1831074E+03  0.7546771E-02  0.1164829E+00
         21   -1    0    0  505  502  0.00000000000E+00  0.00000000000E+00  0.17616227835E+03  0.17616227835E+03  0.00000000000E+00 0.  1.
          2   -1    0    0  504    0 -0.00000000000E+00 -0.00000000000E+00 -0.15103710061E+04  0.15103710061E+04  0.00000000000E+00 0.  1.
         21    1    1    2  503  502  0.36301251019E+01 -0.10375594661E+03 -0.98406212038E+01  0.10428476442E+03  0.00000000000E+00 0.  1.
         21    1    1    2  504  503  0.72053789002E+02 -0.56611673734E+02 -0.20298889650E+02  0.93854541891E+02  0.00000000000E+00 0.  1.
         21    1    1    2  505  501 -0.86761157100E+02  0.12926958079E+03  0.26062739380E+02  0.15785242882E+03  0.00000000000E+00 0. -1.
          2    1    1    2  501    0  0.11077242996E+02  0.31098039550E+02 -0.13301319563E+04  0.13305415493E+04  0.00000000000E+00 0.  1.
<scales pt_clust_3="80.71883" pt_clust_4="80.71883" pt_clust_5="163.16664" pt_clust_6="33.01202"></scales>
<clustering>
<clus scale="   33.012">  2  6  1 -1</clus>
<clus scale="   80.719">  3  4 -1 -1</clus>
<clus scale="  163.167">  1  5  2 -1</clus>
<clus scale="  163.167">  1  3  2 -1</clus>
</clustering>
</event>
<event>
 6    0  0.4017242E+002  0.1581513E+03  0.7546771E-02  0.1190800E+00
         21   -1    0    0  505  502  0.00000000000E+00  0.00000000000E+00  0.89716352448E+03  0.89716352448E+03  0.00000000000E+00 0.  1.
         -1   -1    0    0    0  501 -0.00000000000E+00 -0.00000000000E+00 -0.18884141870E+03  0.18884141870E+03  0.00000000000E+00 0.  1.
         21    1    1    2  503  502  0.32558218831E+02 -0.31836070742E+02  0.49458133118E+02  0.67228564950E+02  0.00000000000E+00 0.  1.
         21    1    1    2  504  501  0.14266447115E+03  0.35869404728E+01  0.50289711674E+03  0.52275379243E+03  0.00000000000E+00 0.  1.
         21    1    1    2  505  504 -0.40772977561E+02  0.11688124621E+03  0.27112547935E+03  0.29804812861E+03  0.00000000000E+00 0.  1.
         -1    1    1    2    0  503 -0.13444971242E+03 -0.88632115945E+02 -0.11515862343E+03  0.19797445718E+03  0.00000000000E+00 0.  1.
<scales pt_clust_3="45.53650" pt_clust_4="14000.00000" pt_clust_5="110.16670" pt_clust_6="158.15132"></scales>
<clustering>
<clus scale="   45.537">  1  3  2 -1</clus>
<clus scale="  110.167">  1  5  2 -1</clus>
<clus scale="  158.151">  2  6  1 -1</clus>
<clus scale="   45.537">  1  3  2 -1</clus>
</clustering>
</event>
<event>
 6    0  0.4017242E+002  0.2419654E+03  0.7546771E-02  0.1118490E+00
         21   -1    0    0  503  502  0.00000000000E+00  0.00000000000E+00  0.25075969178E+03  0.25075969178E+03  0.00000000000E+00 0.  1.
          2   -1    0    0  505    0 -0.00000000000E+00 -0.00000000000E+00 -0.30148745179E+04  0.30148745179E+04  0.00000000000E+00 0.  1.
         21    1    1    2  503  501 -0.66967385900E+02  0.11398378939E+03  0.14298445124E+03  0.19473440455E+03  0.00000000000E+00 0.  1.
         21    1    1    2  504  502 -0.10454845927E+03  0.12175173472E+03 -0.10213755263E+03  0.19022603633E+03  0.00000000000E+00 0. -1.
         21    1    1    2  505  504  0.20969745287E+03 -0.23841465427E+03 -0.63106478551E+03  0.70643990023E+03  0.00000000000E+00 0. -1.
          2    1    1    2  501    0 -0.38181607708E+02  0.26791301633E+01 -0.21738969392E+04  0.21742338686E+04  0.00000000000E+00 0.  1.
<scales pt_clust_3="132.87020" pt_clust_4="14000.00000" pt_clust_5="241.96543" pt_clust_6="38.27549"></scales>
<clustering>
<clus scale="   38.275">  2  6  1 -1</clus>
<clus scale="  132.870">  1  3  2 -1</clus>
<clus scale="  241.965">  2  5  1 -1</clus>
<clus scale="  132.870">  1  3  2 -1</clus>
</clustering>
</event>
<event>
 6    0  0.4017242E+002  0.1532923E+03  0.7546771E-02  0.1196485E+00
         21   -1    0    0  503  502  0.00000000000E+00  0.00000000000E+00  0.13785716298E+04  0.13785716298E+04  0.00000000000E+00 0.  1.
          3   -1    0    0  504    0 -0.00000000000E+00 -0.00000000000E+00 -0.13215995020E+03  0.13215995020E+03  0.00000000000E+00 0. -1.
         21    1    1    2  503  501  0.17668964896E+02  0.53345028423E+02  0.12716031528E+03  0.13902384745E+03  0.00000000000E+00 0. -1.
         21    1    1    2  504  505  0.22329388308E+02 -0.15723528638E+03  0.68455136479E+03  0.70273188906E+03  0.00000000000E+00 0.  1.
         21    1    1    2  505  502  0.20453691129E+02 -0.36948332705E+02  0.50043181677E+03  0.50221064903E+03  0.00000000000E+00 0.  1.
          3    1    1    2  501    0 -0.60452044332E+02  0.14083859066E+03 -0.65731817237E+02  0.16676519445E+03  0.00000000000E+00 0. -1.
<scales pt_clust_3="52.06276" pt_clust_4="14000.00000" pt_clust_5="42.23189" pt_clust_6="153.29231"></scales>
<clustering>
<clus scale="   42.232">  1  5  2 -1</clus>
<clus scale="   52.063">  1  3  2 -1</clus>
<clus scale="  153.292">  2  6  1 -1</clus>
<clus scale="   42.232">  1  3  2 -1</clus>
</clustering>
</event>
<event>
 6    0  0.4017242E+002  0.3119711E+03  0.7546771E-02  0.1079405E+00
         21   -1    0    0  501  502  0.00000000000E+00  0.00000000000E+00  0.15262077730E+03  0.15262077730E+03  0.00000000000E+00 0. -1.
          2   -1    0    0  503    0 -0.00000000000E+00 -0.00000000000E+00 -0.12014318765E+04  0.12014318765E+04  0.00000000000E+00 0. -1.
         21    1    1    2  503  505  0.44337876894E+02 -0.20385658952E+03 -0.21011269579E+03  0.29609238651E+03  0.00000000000E+00 0. -1.
         21    1    1    2  504  502  0.24899271481E+02 -0.19892045406E+02  0.63096656158E+02  0.70688437591E+02  0.00000000000E+00 0. -1.
         21    1    1    2  505  504 -0.12544972490E+00 -0.83486903332E+02 -0.14078171247E+03  0.16367519462E+03  0.00000000000E+00 0.  1.
          2    1    1    2  501    0 -0.69111698650E+02  0.30723553826E+03 -0.76101334714E+03  0.82359663512E+03  0.00000000000E+00 0. -1.
<scales pt_clust_3="38.16392" pt_clust_4="31.86953" pt_clust_5="38.16392" pt_clust_6="305.92096"></scales>
<clustering>
<clus scale="   31.870">  1  4  2 -1</clus>
<clus scale="   38.164">  3  5 -1 -1</clus>
<clus scale="  305.921">  2  6  1 -1</clus>
<clus scale="   31.870">  1  3  2 -1</clus>
</clustering>
</event>
<event>
 6    0  0.4017242E+002  0.9669310E+02  0.7546771E-02  0.1287408E+00
          1   -1    0    0  505    0 -0.00000000000E+00  0.00000000000E+00  0.78103845615E+03  0.78103845615E+03  0.00000000000E+00 0.  1.
         21   -1    0    0  501  502  0.00000000000E+00 -0.00000000000E+00 -0.39137856622E+03  0.39137856622E+03  0.00000000000E+00 0. -1.
         21    1    1    2  503  504  0.59153195089E+02  0.11032612656E+03  0.68773991325E+02  0.14283142712E+03  0.00000000000E+00 0. -1.
         21    1    1    2  504  502 -0.13018946251E+02 -0.33991124046E+02 -0.34394119585E+03  0.34586187369E+03  0.00000000000E+00 0. -1.
         21    1    1    2  505  503  0.29050789713E+02 -0.10097529613E+02  0.37755091027E+02  0.48696564414E+02  0.00000000000E+00 0. -1.
          1    1    1    2  501    0 -0.75185038551E+02 -0.66237472901E+02  0.62707200342E+03  0.63502715715E+03  0.00000000000E+00 0.  1.
<scales pt_clust_3="96.69310" pt_clust_4="36.39780" pt_clust_5="30.75563" pt_clust_6="14000.00000"></scales>
<clustering>
<clus scale="   30.756">  1  5  2 -1</clus>
<clus scale="   36.398">  2  4  1 -1</clus>
<clus scale="   96.693">  2  3  1 -1</clus>
<clus scale="   36.398">  2  3  1 -1</clus>
</clustering>
</event>
<event>
 6    0  0.4017242E+002  0.1242939E+03  0.7546771E-02  0.1236177E+00
         21   -1    0    0  504  502  0.00000000000E+00  0.00000000000E+00  0.13786701047E+03  0.13786701047E+03  0.00000000000E+00 0. -1.
          1   -1    0    0  505    0 -0.00000000000E+00 -0.00000000000E+00 -0.59412417170E+03  0.59412417170E+03  0.00000000000E+00 0.  1.
         21    1    1    2  503  502  0.16573102382E+01  0.81048947034E+02  0.36836086126E+02  0.89042550130E+02  0.00000000000E+00 0. -1.
         21    1    1    2  504  501 -0.21611419307E+02 -0.89890205292E+02 -0.46625514673E+02  0.10354342601E+03  0.00000000000E+00 0. -1.
         21    1    1    2  505  503  0.41657066204E+02  0.30543442262E+02  0.31467927420E+02  0.60485068290E+02  0.00000000000E+00 0. -1.
          1    1    1    2  501    0 -0.21702957134E+02 -0.21702184003E+02 -0.47793566010E+03  0.47892013774E+03  0.00000000000E+00 0.  1.
<scales pt_clust_3="45.95732" pt_clust_4="109.93138" pt_clust_5="45.95732" pt_clust_6="30.69207"></scales>
<clustering>
<clus scale="   30.692">  2  6  1 -1</clus>
<clus scale="   45.957">  3  5 -1 -1</clus>
<clus scale="  109.931">  2  4  1 -1</clus>
<clus scale="  124.294">  1  3  2 -1</clus>
</clustering>
</event>
<event>
 6    0  0.4017242E+002  0.1034897E+03  0.7546771E-02  0.1273124E+00
         21   -1    0    0  505  502  0.00000000000E+00  0.00000000000E+00  0.38712987936E+02  0.38712987936E+02  0.00000000000E+00 0. -1.
          1   -1    0    0  503    0 -0.00000000000E+00 -0.00000000000E+00 -0.23931415694E+04  0.23931415694E+04  0.00000000000E+00 0. -1.
         21    1    1    2  503  502  0.37786494516E+02 -0.28677723352E+02 -0.26967811537E+03  0.27381840131E+03  0.00000000000E+00 0. -1.
         21    1    1    2  504  501  0.74069788436E+02 -0.30774819265E+02 -0.94023801354E+02  0.12358761378E+03  0.00000000000E+00 0. -1.
         21    1    1    2  505  504 -0.31727923856E+02 -0.69740752304E+02 -0.58880608969E+02  0.96630014989E+02  0.00000000000E+00 0. -1.
          1    1    1    2  501    0 -0.80128359095E+02  0.12919329492E+03 -0.19318460557E+04  0.19378185272E+04  0.00000000000E+00 0. -1.
<scales pt_clust_3="47.43660" pt_clust_4="14000.00000" pt_clust_5="77.02067" pt_clust_6="103.48965"></scales>
<clustering>
<clus scale="   47.437">  2  3  1 -1</clus>
<clus scale="   77.021">  1  5  2 -1</clus>
<clus scale="  103.490">  2  6  1 -1</clus>
<clus scale="   77.021">  1  3  2 -1</clus>
</clustering>
</event>
<event>
 6    0  0.4017242E+002  0.7761869E+02  0.7546771E-02  0.1335948E+00
         21   -1    0    0  503  502  0.00000000000E+00  0.00000000000E+00  0.88721004240E+02  0.88721004240E+02  0.00000000000E+00 0. -1.
          1   -1    0    0  504    0 -0.00000000000E+00 -0.00000000000E+00 -0.30372904069E+03  0.30372904069E+03  0.00000000000E+00 0.  1.
         21    1    1    2  503  501 -0.51693204524E+02  0.60186506001E+02 -0.34146239741E+02  0.86374582992E+02  0.00000000000E+00 0.  1.
         21    1    1    2  504  505  0.30200688002E+02 -0.76055303945E+02 -0.38002762144E+02  0.90225831914E+02  0.00000000000E+00 0. -1.
         21    1    1    2  505  502 -0.13008368124E+02 -0.30899594000E+02  0.22632230919E+02  0.40450221594E+02  0.00000000000E+00 0. -1.
          1    1    1    2  501    0  0.34500884646E+02  0.46768391944E+02 -0.16549126549E+03  0.17539940843E+03  0.00000000000E+00 0.  1.
<scales pt_clust_3="77.61869" pt_clust_4="14000.00000" pt_clust_5="33.52615" pt_clust_6="55.29784"></scales>
<clustering>
<clus scale="   33.526">  1  5  2 -1</clus>
<clus scale="   55.298">  2  6  1 -1</clus>
<clus scale="   77.619">  1  3  2 -1</clus>
<clus scale="   33.526">  1  3  2 -1</clus>
</clustering>
</event>
<event>
 6    0  0.4017242E+002  0.1305348E+03  0.7546771E-02  0.1226664E+00
          2   -1    0    0  505    0 -0.00000000000E+00  0.00000000000E+00  0.67503887520E+03  0.67503887520E+03  0.00000000000E+00 0. -1.
         21   -1    0    0  503  502  0.00000000000E+00 -0.00000000000E+00 -0.78761418779E+02  0.78761418779E+02  0.00000000000E+00 0.  1.
         21    1    1    2  503  504 -0.36475402290E+02  0.59896409126E+02  0.42298379517E+02  0.81897421865E+02  0.00000000000E+00 0.  1.
         21    1    1    2  504  501 -0.10771414405E+03 -0.42003212170E+02  0.84027715337E+02  0.14292397841E+03  0.00000000000E+00 0.  1.
         21    1    1    2  505  502  0.15136380741E+03 -0.69621632941E+02  0.23360221237E+03  0.28692885458E+03  0.00000000000E+00 0.  1.
          2    1    1    2  501    0 -0.71742610679E+01  0.51728435985E+02  0.23634914921E+03  0.24205003913E+03  0.00000000000E+00 0. -1.
<scales pt_clust_3="77.01212" pt_clust_4="130.53479" pt_clust_5="14000.00000" pt_clust_6="52.22357"></scales>
<clustering>
<clus scale="   52.224">  1  6  2 -1</clus>
<clus scale="   77.012">  2  3  1 -1</clus>
<clus scale="  130.535">  2  4  1 -1</clus>
<clus scale="   77.012">  2  3  1 -1</clus>
</clustering>
</event>
<event>
 6    0  0.4017242E+002  0.2015240E+03  0.7546771E-02  0.1148460E+00
          2   -1    0    0  504    0 -0.00000000000E+00  0.00000000000E+00  0.29166567471E+04  0.29166567471E+04  0.00000000000E+00 0. -1.
         21   -1    0    0  503  502  0.00000000000E+00 -0.00000000000E+00 -0.36246346511E+03  0.36246346511E+03  0.00000000000E+00 0. -1.
         21    1    1    2  503  505 -0.29920216947E+02  0.39187877415E+02 -0.14619874973E+03  0.15428863711E+03  0.00000000000E+00 0.  1.
         21    1    1    2  504  502  0.13463076208E+03  0.79076323694E+02  0.64200913798E+03  0.66072251385E+03  0.00000000000E+00 0.  1.
         21    1    1    2  505  501 -0.15537641764E+03 -0.12945027318E+03 -0.15208042088E+03  0.25303687242E+03  0.00000000000E+00 0. -1.
          2    1    1    2  501    0  0.50665872511E+02  0.11186072076E+02  0.22104633146E+04  0.22110721888E+04  0.00000000000E+00 0. -1.
<scales pt_clust_3="49.30425" pt_clust_4="14000.00000" pt_clust_5="201.52402" pt_clust_6="51.85626"></scales>
<clustering>
<clus scale="   49.304">  2  3  1 -1</clus>
<clus scale="   51.856">  1  6  2 -1</clus>
<clus scale="  201.524">  2  5  1 -1</clus>
<clus scale="   49.304">  2  3  1 -1</clus>
</clustering>
</event>
<event>
 6    0  0.4017242E+002  0.6310692E+02  0.7546771E-02  0.1385237E+00
         -3   -1    0    0    0  501 -0.00000000000E+00  0.00000000000E+00  0.65991219476E+02  0.65991219476E+02  0.00000000000E+00 0. -1.
         21   -1    0    0  503  502  0.00000000000E+00 -0.00000000000E+00 -0.10801754789E+04  0.10801754789E+04  0.00000000000E+00 0.  1.
         21    1    1    2  503  501  0.86526052138E+01 -0.38514537209E+02 -0.11050074067E+03  0.11733989450E+03  0.00000000000E+00 0. -1.
         21    1    1    2  504  505 -0.10497470212E+03  0.15210004342E+02 -0.29606274779E+03  0.31449035430E+03  0.00000000000E+00 0. -1.
         21    1    1    2  505  502  0.42296171303E+02 -0.65580287387E+01 -0.64217074549E+03  0.64359555639E+03  0.00000000000E+00 0.  1.
         -3    1    1    2    0  504  0.54025925607E+02  0.29862561606E+02  0.34549974548E+02  0.70740893157E+02  0.00000000000E+00 0. -1.
<scales pt_clust_3="39.47451" pt_clust_4="14000.00000" pt_clust_5="57.83465" pt_clust_6="63.10692"></scales>
<clustering>
<clus scale="   39.475">  2  3  1 -1</clus>
<clus scale="   57.835">  2  5  1 -1</clus>
<clus scale="   63.107">  1  6  2 -1</clus>
<clus scale="   39.475">  2  3  1 -1</clus>
</clustering>
</event>
<event>
 6    0  0.4017242E+002  0.2280283E+03  0.7546771E-02  0.1128035E+00
         21   -1    0    0  503  502  0.00000000000E+00  0.00000000000E+00  0.19305100418E+03  0.19305100418E+03  0.00000000000E+00 0.  1.
          3   -1    0    0  504    0 -0.00000000000E+00 -0.00000000000E+00 -0.20058824263E+04  0.20058824263E+04  0.00000000000E+00 0.  1.
         21    1    1    2  503  501 -0.16374435821E+03 -0.14025263141E+03 -0.20340811406E+03  0.29640829329E+03  0.00000000000E+00 0.  1.
         21    1    1    2  504  505 -0.10261014114E+03  0.80921827547E+02 -0.39657948339E+03  0.41755534949E+03  0.00000000000E+00 0.  1.
         21    1    1    2  505  502  0.22505926250E+02 -0.43674650111E+02  0.11812338114E+03  0.12793406485E+03  0.00000000000E+00 0.  1.
          3    1    1    2  501    0  0.24384857310E+03  0.10300545397E+03 -0.13309672058E+04  0.13570357228E+04  0.00000000000E+00 0.  1.
<scales pt_clust_3="14000.00000" pt_clust_4="124.01951" pt_clust_5="49.13239" pt_clust_6="228.02830"></scales>
<clustering>
<clus scale="   49.132">  1  5  2 -1</clus>
<clus scale="  124.020">  2  4  1 -1</clus>
<clus scale="  228.028">  2  6  1 -1</clus>
<clus scale="   49.132">  1  3  2 -1</clus>
</clustering>
</event>
<event>
 6    0  0.4017242E+002  0.1835322E+03  0.7546771E-02  0.1164428E+00
          2   -1    0    0  503    0 -0.00000000000E+00  0.00000000000E+00  0.25414853387E+04  0.25414853387E+04  0.00000000000E+00 0.  1.
         21   -1    0    0  505  502  0.00000000000E+00 -0.00000000000E+00 -0.14955052570E+04  0.14955052570E+04  0.00000000000E+00 0. -1.
         21    1    1    2  503  504  0.17621603651E+03  0.16249238545E+03 -0.42379129803E+03  0.48688287209E+03  0.00000000000E+00 0. -1.
         21    1    1    2  504  502 -0.30980960365E+01 -0.16498086924E+03 -0.96838337821E+03  0.98234141346E+03  0.00000000000E+00 0. -1.
         21    1    1    2  505  501 -0.76391384980E+02  0.33214802703E+02 -0.36561123519E+02  0.90970229036E+02  0.00000000000E+00 0. -1.
          2    1    1    2  501    0 -0.96726555492E+02 -0.30726318916E+02  0.24747158815E+04  0.24767960811E+04  0.00000000000E+00 0.  1.
<scales pt_clust_3="14000.00000" pt_clust_4="183.53217" pt_clust_5="83.29986" pt_clust_6="101.53517"></scales>
<clustering>
<clus scale="   83.300">  2  5  1 -1</clus>
<clus scale="  101.535">  1  6  2 -1</clus>
<clus scale="  183.532">  2  4  1 -1</clus>
<clus scale="   83.300">  2  3  1 -1</clus>
</clustering>
</event>
<event>
 6    0  0.4017242E+002  0.1141887E+03  0.7546771E-02  0.1253004E+00
          4   -1    0    0  504    0 -0.00000000000E+00  0.00000000000E+00  0.47270696006E+03  0.47270696006E+03  0.00000000000E+00 0. -1.
         21   -1    0    0  503  502  0.00000000000E+00 -0.00000000000E+00 -0.10350363579E+04  0.10350363579E+04  0.00000000000E+00 0.  1.
         21    1    1    2  503  501 -0.47205102028E+02 -0.38573027701E+02  0.63498056253E+02  0.88023878984E+02  0.00000000000E+00 0.  1.
         21    1    1    2  504  505 -0.21677089530E+00 -0.62761786352E+02  0.32566076375E+01  0.62846593456E+02  0.00000000000E+00 0. -1.
         21    1    1    2  505  502  0.19575126442E+02  0.11830039263E+03 -0.98861797548E+03  0.99586327872E+03  0.00000000000E+00 0.  1.
          4    1    1    2  501    0  0.27846746482E+02 -0.16965578579E+02  0.35953391377E+03  0.36100956677E+03  0.00000000000E+00 0. -1.
<scales pt_clust_3="57.52731" pt_clust_4="114.18867" pt_clust_5="14000.00000" pt_clust_6="32.60785"></scales>
<clustering>
<clus scale="   32.608">  1  6  2 -1</clus>
<clus scale="   57.527">  1  3  2 -1</clus>
<clus scale="  114.189">  1  4  2 -1</clus>
<clus scale="  114.189">  2  3  1 -1</clus>
</clustering>
</event>
<event>
 6    0  0.4017242E+002  0.3197683E+03  0.7546771E-02  0.1075756E+00
          2   -1    0    0  504    0 -0.00000000000E+00  0.00000000000E+00  0.19842341863E+04  0.19842341863E+04  0.00000000000E+00 0.  1.
         21   -1    0    0  503  502  0.00000000000E+00 -0.00000000000E+00 -0.29428828033E+03  0.29428828033E+03  0.00000000000E+00 0.  1.
         21    1    1    2  503  505 -0.58361238847E+02 -0.12328145162E+03 -0.96774152125E+02  0.16724110450E+03  0.00000000000E+00 0.  1.
         21    1    1    2  504  502 -0.40100540771E+02  0.13232123775E+03  0.16382843066E+03  0.21437518052E+03  0.00000000000E+00 0. -1.
         21    1    1    2  505  501  0.55909247466E+02 -0.17784617559E+03 -0.66977512448E+02  0.19809364780E+03  0.00000000000E+00 0.  1.
          2    1    1    2  501    0  0.42552532151E+02  0.16880638946E+03  0.16898691399E+04  0.16988125338E+04  0.00000000000E+00 0.  1.
<scales pt_clust_3="108.09739" pt_clust_4="138.26411" pt_clust_5="108.09739" pt_clust_6="293.73583"></scales>
<clustering>
<clus scale="  108.097">  3  5 -1 -1</clus>
<clus scale="  138.264">  1  4  2 -1</clus>
<clus scale="  293.736">  1  6  2 -1</clus>
<clus scale="  319.768">  2  3  1 -1</clus>
</clustering>
</event>
<event>
 6    0  0.4017242E+002  0.1606235E+03  0.7546771E-02  0.1187995E+00
         -1   -1    0    0    0  501 -0.00000000000E+00  0.00000000000E+00  0.93103749801E+03  0.93103749801E+03  0.00000000000E+00 0. -1.
         21   -1    0    0  501  502  0.00000000000E+00 -0.00000000000E+00 -0.19037288804E+03  0.19037288804E+03  0.00000000000E+00 0.  1.
         21    1    1    2  503  502  0.10389257374E+03  0.54344574044E+02 -0.55457065408E+02  0.12970152547E+03  0.00000000000E+00 0.  1.
         21    1    1    2  504  503  0.19800215679E+02  0.49464453836E+02 -0.47567277255E+02  0.71424271783E+02  0.00000000000E+00 0.  1.
         21    1    1    2  505  504 -0.88711756144E+02 -0.84224650837E+02  0.61220967457E+02  0.13679025675E+03  0.00000000000E+00 0. -1.
         -1    1    1    2    0  505 -0.34981033278E+02 -0.19584377042E+02  0.78246798517E+03  0.78349433204E+03  0.00000000000E+00 0. -1.
<scales pt_clust_3="42.22236" pt_clust_4="42.22236" pt_clust_5="148.45390" pt_clust_6="40.09015"></scales>
<clustering>
<clus scale="   40.090">  1  6  2 -1</clus>
<clus scale="   42.222">  3  4 -1 -1</clus>
<clus scale="  148.454">  1  5  2 -1</clus>
<clus scale="  160.624">  2  3  1 -1</clus>
</clustering>
</event>
<event>
 6    0  0.4017242E+002  0.9875869E+02  0.7546771E-02  0.1282928E+00
         21   -1    0    0  503  502  0.00000000000E+00  0.00000000000E+00  0.31679396287E+03  0.31679396287E+03  0.00000000000E+00 0.  1.
          2   -1    0    0  505    0 -0.00000000000E+00 -0.00000000000E+00 -0.52945585168E+03  0.52945585168E+03  0.00000000000E+00 0.  1.
         21    1    1    2  503  501 -0.35951537236E+01  0.10052851516E+03  0.29257104970E+03  0.30938119952E+03  0.00000000000E+00 0.  1.
         21    1    1    2  504  502  0.50242930406E+02 -0.61158307035E+02 -0.15192488361E+03  0.17130633623E+03  0.00000000000E+00 0.  1.
         21    1    1    2  505  504 -0.39749116325E+02  0.10412373345E+02 -0.11808247604E+03  0.12502752063E+03  0.00000000000E+00 0.  1.
          2    1    1    2  501    0 -0.68986603571E+01 -0.49782581473E+02 -0.23522557887E+03  0.24053475817E+03  0.00000000000E+00 0.  1.
<scales pt_clust_3="14000.00000" pt_clust_4="98.75869" pt_clust_5="41.09026" pt_clust_6="53.06007"></scales>
<clustering>
<clus scale="   41.090">  2  5  1 -1</clus>
<clus scale="   53.060">  2  6  1 -1</clus>
<clus scale="   98.759">  2  4  1 -1</clus>
<clus scale="   98.759">  1  3  2 -1</clus>
</clustering>
</event>
<event>
 6    0  0.4017242E+002  0.1018361E+03  0.7546771E-02  0.1276482E+00
          2   -1    0    0  502    0 -0.00000000000E+00  0.00000000000E+00  0.44361753141E+03  0.44361753141E+03  0.00000000000E+00 0.  1.
         21   -1    0    0  503  502  0.00000000000E+00 -0.00000000000E+00 -0.80809553275E+03  0.80809553275E+03  0.00000000000E+00 0. -1.
         21    1    1    2  503  504  0.39031574864E+02  0.30723830709E+02 -0.35205084377E+02  0.60883623215E+02  0.00000000000E+00 0.  1.
         21    1    1    2  504  505 -0.46353521029E+02 -0.69559429920E+02 -0.17934962601E+03  0.19787231124E+03  0.00000000000E+00 0.  1.
         21    1    1    2  505  501 -0.82418320470E+02  0.86698942558E+02 -0.55888231100E+03  0.57154083296E+03  0.00000000000E+00 0. -1.
          2    1    1    2  501    0  0.89740266635E+02 -0.47863343347E+02  0.40895902005E+03  0.42141629675E+03  0.00000000000E+00 0.  1.
<scales pt_clust_3="49.67311" pt_clust_4="71.97552" pt_clust_5="101.83613" pt_clust_6="14000.00000"></scales>
<clustering>
<clus scale="   49.673">  2  3  1 -1</clus>
<clus scale="   71.976">  2  4  1 -1</clus>
<clus scale="  101.836">  2  5  1 -1</clus>
<clus scale="   49.673">  2  3  1 -1</clus>
</clustering>
</event>
<event>
 6    0  0.4017242E+002  0.1907791E+03  0.7546771E-02  0.1157760E+00
          2   -1    0    0  503    0 -0.00000000000E+00  0.00000000000E+00  0.10142925350E+04  0.10142925350E+04  0.00000000000E+00 0.  1.
         21   -1    0    0  504  502  0.00000000000E+00 -0.00000000000E+00 -0.61993136118E+03  0.61993136118E+03  0.00000000000E+00 0. -1.
         21    1    1    2  503  502  0.11430026970E+03 -0.13615992374E+03 -0.13649477007E+03  0.22413143185E+03  0.00000000000E+00 0. -1.
         21    1    1    2  504  505 -0.74617521765E+02  0.18145366454E+02 -0.22178564907E+03  0.23470386237E+03  0.00000000000E+00 0. -1.
         21    1    1    2  505  501 -0.68102684519E+02  0.86876699999E+02 -0.19646129102E+03  0.22534989574E+03  0.00000000000E+00 0. -1.
          2    1    1    2  501    0  0.28419936587E+02  0.31137857289E+02  0.94910288394E+03  0.95003870618E+03  0.00000000000E+00 0.  1.
<scales pt_clust_3="176.28502" pt_clust_4="59.54585" pt_clust_5="59.54585" pt_clust_6="42.15755"></scales>
<clustering>
<clus scale="   42.158">  1  6  2 -1</clus>
<clus scale="   59.546">  4  5 -1 -1</clus>
<clus scale="  176.285">  1  3  2 -1</clus>
<clus scale="  190.779">  2  3  1 -1</clus>
</clustering>
</event>
<event>
 6    0  0.4017242E+002  0.1451903E+03  0.7546771E-02  0.1206511E+00
         21   -1    0    0  505  502  0.00000000000E+00  0.00000000000E+00  0.14357307528E+03  0.14357307528E+03  0.00000000000E+00 0.  1.
          2   -1    0    0  504    0 -0.00000000000E+00 -0.00000000000E+00 -0.18060805469E+04  0.18060805469E+04  0.00000000000E+00 0. -1.
         21    1    1    2  503  502  0.72325581676E+02 -0.10619879364E+03 -0.25160301701E+02  0.13092827929E+03  0.00000000000E+00 0.  1.
         21    1    1    2  504  503  0.31265697977E+02 -0.27953332172E+02 -0.41569038772E+02  0.59050128145E+02  0.00000000000E+00 0. -1.
         21    1    1    2  505  501  0.22131792448E+02  0.86865477390E+02  0.53860432812E+02  0.10457711806E+03  0.00000000000E+00 0.  1.
          2    1    1    2  501    0 -0.12572307210E+03  0.47286648423E+02 -0.16496385640E+04  0.16550980967E+04  0.00000000000E+00 0. -1.
<scales pt_clust_3="30.82516" pt_clust_4="30.82516" pt_clust_5="89.64055" pt_clust_6="134.79314"></scales>
<clustering>
<clus scale="   30.825">  3  4 -1 -1</clus>
<clus scale="   89.641">  1  5  2 -1</clus>
<clus scale="  134.793">  2  6  1 -1</clus>
<clus scale="   89.641">  1  3  2 -1</clus>
</clustering>
</event>
<event>
 6    0  0.4017242E+002  0.7189639E+02  0.7546771E-02  0.1353760E+00
         21   -1    0    0  505  502  0.00000000000E+00  0.00000000000E+00  0.21646936777E+03  0.21646936777E+03  0.00000000000E+00 0. -1.
          2   -1    0    0  503    0 -0.00000000000E+00 -0.00000000000E+00 -0.46834624222E+03  0.46834624222E+03  0.00000000000E+00 0.  1.
         21    1    1    2  503  504  0.19469184995E+02  0.27788877459E+02 -0.30589867625E+02  0.45683814159E+02  0.00000000000E+00 0.  1.
         21    1    1    2  504  502  0.96278576048E+02  0.21571079351E+02 -0.26183233621E+03  0.27980537513E+03  0.00000000000E+00 0.  1.
         21    1    1    2  505  501 -0.66526498714E+02 -0.25587032639E+02  0.18853807932E+03  0.20156160008E+03  0.00000000000E+00 0. -1.
          2    1    1    2  501    0 -0.49221262330E+02 -0.23772924171E+02 -0.14799274994E+03  0.15776482062E+03  0.00000000000E+00 0.  1.
<scales pt_clust_3="33.93038" pt_clust_4="71.89639" pt_clust_5="14000.00000" pt_clust_6="44.52719"></scales>
<clustering>
<clus scale="   33.930">  2  3  1 -1</clus>
<clus scale="   44.527">  2  6  1 -1</clus>
<clus scale="   71.896">  2  4  1 -1</clus>
<clus scale="   71.896">  1  3  2 -1</clus>
</clustering>
</event>
<event>
 6    0  0.4017242E+002  0.1240368E+03  0.7546771E-02  0.1236582E+00
          2   -1    0    0  505    0 -0.00000000000E+00  0.00000000000E+00  0.21071319822E+04  0.21071319822E+04  0.00000000000E+00 0. -1.
         21   -1    0    0  503  502  0.00000000000E+00 -0.00000000000E+00 -0.69739136129E+02  0.69739136129E+02  0.00000000000E+00 0. -1.
         21    1    1    2  503  504 -0.52552146241E+02 -0.38321975190E+02  0.52504492169E+02  0.83588417588E+02  0.00000000000E+00 0. -1.
         21    1    1    2  504  501 -0.91758270411E+02  0.42991496855E+02  0.16867766795E+02  0.10272473192E+03  0.00000000000E+00 0. -1.
         21    1    1    2  505  502  0.28717745504E+02 -0.57038123335E+02  0.10276505299E+03  0.12099054731E+03  0.00000000000E+00 0.  1.
          2    1    1    2  501    0  0.11559267115E+03  0.52368601670E+02  0.18652555341E+04  0.18695674215E+04  0.00000000000E+00 0. -1.
<scales pt_clust_3="69.60765" pt_clust_4="124.03676" pt_clust_5="63.85966" pt_clust_6="14000.00000"></scales>
<clustering>
<clus scale="   63.860">  2  5  1 -1</clus>
<clus scale="   69.608">  2  3  1 -1</clus>
<clus scale="  124.037">  2  4  1 -1</clus>
<clus scale="   63.860">  2  3  1 -1</clus>
</clustering>
</event>
<event>
 6    0  0.4017242E+002  0.7132949E+02  0.7546771E-02  0.1355630E+00
         21   -1    0    0  505  502  0.00000000000E+00  0.00000000000E+00  0.65968850436E+03  0.65968850436E+03  0.00000000000E+00 0. -1.
          1   -1    0    0  503    0 -0.00000000000E+00 -0.00000000000E+00 -0.21259355155E+03  0.21259355155E+03  0.00000000000E+00 0.  1.
         21    1    1    2  503  504  0.28205634106E+02  0.79087778266E+02 -0.55334773578E+02  0.10056028855E+03  0.00000000000E+00 0.  1.
         21    1    1    2  504  502  0.40481772535E+01 -0.56801454984E+02  0.58756375704E+03  0.59031683156E+03  0.00000000000E+00 0. -1.
         21    1    1    2  505  501 -0.64283818618E+02  0.43131693295E+02 -0.12272742229E+02  0.78379668948E+02  0.00000000000E+00 0.  1.
          1    1    1    2  501    0  0.32030007259E+02 -0.65418016576E+02 -0.72861288435E+02  0.10302526685E+03  0.00000000000E+00 0.  1.
<scales pt_clust_3="14000.00000" pt_clust_4="56.94553" pt_clust_5="64.56153" pt_clust_6="71.32949"></scales>
<clustering>
<clus scale="   56.946">  1  4  2 -1</clus>
<clus scale="   64.562">  1  5  2 -1</clus>
<clus scale="   71.329">  2  6  1 -1</clus>
<clus scale="   56.946">  1  3  2 -1</clus>
</clustering>
</event>
<event>
 6    0  0.4017242E+002  0.1269412E+03  0.7546771E-02  0.1232066E+00
         21   -1    0    0  505  502  0.00000000000E+00  0.00000000000E+00  0.82592837085E+02  0.82592837085E+02  0.00000000000E+00 0. -1.
          1   -1    0    0  503    0 -0.00000000000E+00 -0.00000000000E+00 -0.93293805491E+03  0.93293805491E+03  0.00000000000E+00 0. -1.
         21    1    1    2  503  502 -0.46386559932E+02 -0.32003807075E+02 -0.88723786397E+02  0.10510883351E+03  0.00000000000E+00 0.  1.
         21    1    1    2  504  501  0.10591807553E+03 -0.34248249635E+02 -0.48338742163E+02  0.12135985877E+03  0.00000000000E+00 0. -1.
         21    1    1    2  505  504  0.37654865790E+02  0.69203730005E+02 -0.10379043475E+02  0.79465525278E+02  0.00000000000E+00 0. -1.
          1    1    1    2  501    0 -0.97186381388E+02 -0.29516732951E+01 -0.70290364579E+03  0.70959667443E+03  0.00000000000E+00 0. -1.
<scales pt_clust_3="56.35563" pt_clust_4="126.94117" pt_clust_5="76.09527" pt_clust_6="14000.00000"></scales>
<clustering>
<clus scale="   56.356">  2  3  1 -1</clus>
<clus scale="   76.095">  1  5  2 -1</clus>
<clus scale="  126.941">  1  4  2 -1</clus>
<clus scale="   76.095">  1  3  2 -1</clus>
</clustering>
</event>
<event>
 6    0  0.4017242E+002  0.1060037E+03  0.7546771E-02  0.1268155E+00
          2   -1    0    0  505    0 -0.00000000000E+00  0.00000000000E+00  0.20558807317E+03  0.20558807317E+03  0.00000000000E+00 0.  1.
         21   -1    0    0  503  502  0.00000000000E+00 -0.00000000000E+00 -0.34677385963E+03  0.34677385963E+03  0.00000000000E+00 0. -1.
         21    1    1    2  503  501 -0.90285309331E+02  0.26950176078E+02  0.15058826163E+01  0.94233840812E+02  0.00000000000E+00 0.  1.
         21    1    1    2  504  502  0.27066883799E+02 -0.25691287543E+02 -0.17409863340E+03  0.17805334202E+03  0.00000000000E+00 0. -1.
         21    1    1    2  505  504 -0.15707421175E+02 -0.83159171769E+02 -0.83150128910E+02  0.11864280369E+03  0.00000000000E+00 0.  1.
          2    1    1    2  501    0  0.78925846707E+02  0.81900283234E+02  0.11455709323E+03  0.16143194628E+03  0.00000000000E+00 0.  1.
<scales pt_clust_3="85.30450" pt_clust_4="37.31834" pt_clust_5="106.00368" pt_clust_6="14000.00000"></scales>
<clustering>
<clus scale="   37.318">  2  4  1 -1</clus>
<clus scale="   85.305">  2  3  1 -1</clus>
<clus scale="  106.004">  2  5  1 -1</clus>
<clus scale="   37.318">  2  3  1 -1</clus>
</clustering>
</event>
<event>
 6    0  0.4017242E+002  0.9303784E+02  0.7546771E-02  0.1295658E+00
         -1   -1    0    0    0  501 -0.00000000000E+00  0.00000000000E+00  0.51005749845E+02  0.51005749845E+02  0.00000000000E+00 0.  1.
         21   -1    0    0  503  502  0.00000000000E+00 -0.00000000000E+00 -0.10680454954E+04  0.10680454954E+04  0.00000000000E+00 0. -1.
         21    1    1    2  503  501 -0.75182022863E+02  0.76725844949E+02 -0.65901927096E+03  0.66771669991E+03  0.00000000000E+00 0. -1.
         21    1    1    2  504  505  0.47199856873E+02 -0.55885439115E+02 -0.20937731400E+03  0.22178789058E+03  0.00000000000E+00 0.  1.
         21    1    1    2  505  502 -0.28088040654E+02 -0.21245294007E+02 -0.16690187106E+03  0.17057706501E+03  0.00000000000E+00 0.  1.
         -1    1    1    2    0  504  0.56070206644E+02  0.40488817292E+00  0.18258710449E+02  0.58969589746E+02  0.00000000000E+00 0.  1.
<scales pt_clust_3="93.03784" pt_clust_4="14000.00000" pt_clust_5="35.21790" pt_clust_6="55.43450"></scales>
<clustering>
<clus scale="   35.218">  2  5  1 -1</clus>
<clus scale="   55.434">  1  6  2 -1</clus>
<clus scale="   93.038">  2  3  1 -1</clus>
<clus scale="   35.218">  2  3  1 -1</clus>
</clustering>
</event>
<event>
 6    0  0.4017242E+002  0.1938723E+03  0.7546771E-02  0.1155014E+00
          2   -1    0    0  505    0 -0.00000000000E+00  0.00000000000E+00  0.16309519164E+04  0.16309519164E+04  0.00000000000E+00 0.  1.
         21   -1    0    0  503  502  0.00000000000E+00 -0.00000000000E+00 -0.92734340033E+03  0.92734340033E+03  0.00000000000E+00 0.  1.
         21    1    1    2  503  501 -0.52177008037E+02 -0.37133489451E+02 -0.58061393961E+02  0.86443401571E+02  0.00000000000E+00 0.  1.
         21    1    1    2  504  502  0.18212771782E+03 -0.10087763428E+03 -0.77309377624E+03  0.80063773928E+03  0.00000000000E+00 0.  1.
         21    1    1    2  505  504 -0.17312206539E+03  0.13439862238E+03  0.10897011214E+03  0.24476258816E+03  0.00000000000E+00 0. -1.
          2    1    1    2  501    0  0.43171355606E+02  0.36125013509E+01  0.14257935741E+04  0.14264515877E+04  0.00000000000E+00 0.  1.
<scales pt_clust_3="61.47873" pt_clust_4="14000.00000" pt_clust_5="193.87225" pt_clust_6="43.32224"></scales>
<clustering>
<clus scale="   43.322">  1  6  2 -1</clus>
<clus scale="   61.479">  2  3  1 -1</clus>
<clus scale="  193.872">  1  5  2 -1</clus>
<clus scale="   61.479">  2  3  1 -1</clus>
</clustering>
</event>
<event>
 6    0  0.4017242E+002  0.1027400E+03  0.7546771E-02  0.1274637E+00
          1   -1    0    0  505    0 -0.00000000000E+00  0.00000000000E+00  0.44247990544E+03  0.44247990544E+03  0.00000000000E+00 0.  1.
         21   -1    0    0  501  502  0.00000000000E+00 -0.00000000000E+00 -0.39913691102E+03  0.39913691102E+03  0.00000000000E+00 0.  1.
         21    1    1    2  503  502  0.13293407752E+02  0.43693311585E+02 -0.26217361292E+03  0.26612182075E+03  0.00000000000E+00 0.  1.
         21    1    1    2  504  503  0.66706901351E+02  0.30855084420E+02 -0.10125786633E+03  0.12511995211E+03  0.00000000000E+00 0.  1.
         21    1    1    2  505  504 -0.45637045942E+02  0.39571623156E+02  0.66528071901E+02  0.89858987711E+02  0.00000000000E+00 0.  1.
          1    1    1    2  501    0 -0.34363263161E+02 -0.11412001916E+03  0.34024640177E+03  0.36051605588E+03  0.00000000000E+00 0.  1.
<scales pt_clust_3="45.67078" pt_clust_4="102.73995" pt_clust_5="62.11450" pt_clust_6="14000.00000"></scales>
<clustering>
<clus scale="   45.671">  2  3  1 -1</clus>
<clus scale="   62.114">  1  5  2 -1</clus>
<clus scale="  102.740">  2  4  1 -1</clus>
<clus scale="   45.671">  2  3  1 -1</clus>
</clustering>
</event>
<event>
 6    0  0.4017242E+002  0.9879796E+02  0.7546771E-02  0.1282844E+00
          2   -1    0    0  504    0 -0.00000000000E+00  0.00000000000E+00  0.19451764202E+04  0.19451764202E+04  0.00000000000E+00 0. -1.
         21   -1    0    0  505  502  0.00000000000E+00 -0.00000000000E+00 -0.64853946493E+02  0.64853946493E+02  0.00000000000E+00 0.  1.
         21    1    1    2  503  501 -0.96640290719E+02 -0.39631960957E+01  0.30637997482E+03  0.32128451828E+03  0.00000000000E+00 0.  1.
         21    1    1    2  504  502  0.10943971327E+03 -0.21057307785E+02  0.69943650556E+02  0.13157725984E+03  0.00000000000E+00 0.  1.
         21    1    1    2  505  503 -0.19092742554E+02  0.73434813914E+02  0.28793887201E+02  0.81155977309E+02  0.00000000000E+00 0.  1.
          2    1    1    2  501    0  0.62933199989E+01 -0.48414310034E+02  0.14752049611E+04  0.14760126113E+04  0.00000000000E+00 0. -1.
<scales pt_clust_3="98.79796" pt_clust_4="14000.00000" pt_clust_5="70.20871" pt_clust_6="48.82163"></scales>
<clustering>
<clus scale="   48.822">  1  6  2 -1</clus>
<clus scale="   70.209">  2  5  1 -1</clus>
<clus scale="   98.798">  1  3  2 -1</clus>
<clus scale="   70.209">  2  3  1 -1</clus>
</clustering>
</event>
<event>
 6    0  0.4017242E+002  0.1078148E+03  0.7546771E-02  0.1264671E+00
          2   -1    0    0  505    0 -0.00000000000E+00  0.00000000000E+00  0.20688706998E+04  0.20688706998E+04  0.00000000000E+00 0.  1.
         21   -1    0    0  503  502  0.00000000000E+00 -0.00000000000E+00 -0.79404288447E+03  0.79404288447E+03  0.00000000000E+00 0.  1.
         21    1    1    2  503  504 -0.12535535234E+03  0.66910194647E+02 -0.41054539989E+03  0.43444040314E+03  0.00000000000E+00 0.  1.
         21    1    1    2  504  501  0.85877761966E+02  0.22787771029E+02 -0.31976000894E+02  0.94428476330E+02  0.00000000000E+00 0.  1.
         21    1    1    2  505  502  0.11663193575E+02 -0.60850652829E+02 -0.30503483366E+03  0.31126368528E+03  0.00000000000E+00 0.  1.
          2    1    1    2  501    0  0.27814396801E+02 -0.28847312847E+02  0.20223840497E+04  0.20227810195E+04  0.00000000000E+00 0.  1.
<scales pt_clust_3="14000.00000" pt_clust_4="107.81479" pt_clust_5="64.23372" pt_clust_6="40.07254"></scales>
<clustering>
<clus scale="   40.073">  1  6  2 -1</clus>
<clus scale="   64.234">  2  5  1 -1</clus>
<clus scale="  107.815">  1  4  2 -1</clus>
<clus scale="   64.234">  2  3  1 -1</clus>
</clustering>
</event>
<event>
 6    0  0.4017242E+002  0.1598160E+03  0.7546771E-02  0.1188905E+00
          3   -1    0    0  504    0 -0.00000000000E+00  0.00000000000E+00  0.37653479129E+03  0.37653479129E+03  0.00000000000E+00 0.  1.
         21   -1    0    0  503  502  0.00000000000E+00 -0.00000000000E+00 -0.34185210103E+03  0.34185210103E+03  0.00000000000E+00 0.  1.
         21    1    1    2  503  501 -0.37290547575E+02  0.15912407761E+03 -0.21772005765E+03  0.27223717696E+03  0.00000000000E+00 0.  1.
         21    1    1    2  504  505  0.42437496457E+02 -0.52247555969E+02 -0.30179448344E+02  0.73766844264E+02  0.00000000000E+00 0.  1.
         21    1    1    2  505  502 -0.44708378067E+01 -0.70329691531E+02 -0.15426855559E+02  0.72140430925E+02  0.00000000000E+00 0.  1.
          3    1    1    2  501    0 -0.67611107515E+00 -0.36546830112E+02  0.29800905181E+03  0.30024244017E+03  0.00000000000E+00 0.  1.
<scales pt_clust_3="150.99274" pt_clust_4="49.68154" pt_clust_5="49.68154" pt_clust_6="36.55308"></scales>
<clustering>
<clus scale="   36.553">  1  6  2 -1</clus>
<clus scale="   49.682">  4  5 -1 -1</clus>
<clus scale="  150.993">  2  3  1 -1</clus>
<clus scale="  150.993">  2  3  1 -1</clus>
</clustering>
</event>
<event>
 6    0  0.4017242E+002  0.1609239E+03  0.7546771E-02  0.1187658E+00
          2   -1    0    0  505    0 -0.00000000000E+00  0.00000000000E+00  0.26979934939E+03  0.26979934939E+03  0.00000000000E+00 0.  1.
         21   -1    0    0  504  502  0.00000000000E+00 -0.00000000000E+00 -0.52088753267E+03  0.52088753267E+03  0.00000000000E+00 0.  1.
         21    1    1    2  503  501 -0.11542710647E+03 -0.99385987059E+01 -0.67025406685E+02  0.13384542500E+03  0.00000000000E+00 0. -1.
         21    1    1    2  504  503 -0.61857342358E+02  0.25972417799E+02 -0.27626596525E+02  0.72554297773E+02  0.00000000000E+00 0. -1.
         21    1    1    2  505  502  0.14865089893E+03  0.69506174486E+01 -0.35365001228E+03  0.38368441723E+03  0.00000000000E+00 0.  1.
          2    1    1    2  501    0  0.28633549902E+02 -0.22984436541E+02  0.19721383222E+03  0.20060274206E+03  0.00000000000E+00 0.  1.
<scales pt_clust_3="33.64655" pt_clust_4="33.64655" pt_clust_5="154.73049" pt_clust_6="36.71736"></scales>
<clustering>
<clus scale="   33.647">  3  4 -1 -1</clus>
<clus scale="   36.717">  1  6  2 -1</clus>
<clus scale="  154.730">  2  5  1 -1</clus>
<clus scale="  154.730">  2  3  1 -1</clus>
</clustering>
</event>
<event>
 6    0  0.4017242E+002  0.7360014E+02  0.7546771E-02  0.1348262E+00
          2   -1    0    0  504    0 -0.00000000000E+00  0.00000000000E+00  0.27222421748E+04  0.27222421748E+04  0.00000000000E+00 0.  1.
         21   -1    0    0  505  502  0.00000000000E+00 -0.00000000000E+00 -0.65273728836E+02  0.65273728836E+02  0.00000000000E+00 0. -1.
         21    1    1    2  503  502  0.73002841863E+02 -0.45920597836E+02  0.42169529051E+02  0.96002007302E+02  0.00000000000E+00 0. -1.
         21    1    1    2  504  503 -0.93487771200E+02 -0.63375689638E+02  0.69671213799E+02  0.13270463230E+03  0.00000000000E+00 0. -1.
         21    1    1    2  505  501 -0.35523592343E+02  0.62629030528E+02  0.20029648277E+03  0.21284501894E+03  0.00000000000E+00 0.  1.
          2    1    1    2  501    0  0.56008521681E+02  0.46667256947E+02  0.23448312203E+04  0.23459642451E+04  0.00000000000E+00 0.  1.
<scales pt_clust_3="59.38704" pt_clust_4="73.60014" pt_clust_5="72.00223" pt_clust_6="14000.00000"></scales>
<clustering>
<clus scale="   72.002">  2  5  1 -1</clus>
<clus scale="   59.387">  2  3  1 -1</clus>
<clus scale="   73.600">  2  4  1 -1</clus>
<clus scale="   72.002">  2  3  1 -1</clus>
</clustering>
</event>
<event>
 6    0  0.4017242E+002  0.1037330E+03  0.7546771E-02  0.1272636E+00
          2   -1    0    0  503    0 -0.00000000000E+00  0.00000000000E+00  0.78979455044E+03  0.78979455044E+03  0.00000000000E+00 0. -1.
         21   -1    0    0  505  502  0.00000000000E+00 -0.00000000000E+00 -0.94747471316E+02  0.94747471316E+02  0.00000000000E+00 0. -1.
         21    1    1    2  503  502 -0.32844778877E+02  0.63495877683E+01 -0.34825416868E+02  0.48289816984E+02  0.00000000000E+00 0. -1.
         21    1    1    2  504  501  0.31581809690E+02 -0.70787176344E+02  0.68507334708E+02  0.10344800601E+03  0.00000000000E+00 0. -1.
         21    1    1    2  505  504  0.15912553305E+02 -0.45885817257E+02 -0.12225330999E+02  0.50081696218E+02  0.00000000000E+00 0. -1.
          2    1    1    2  501    0 -0.14649584117E+02  0.11032340583E+03  0.67359049229E+03  0.68272250255E+03  0.00000000000E+00 0. -1.
<scales pt_clust_3="33.45290" pt_clust_4="103.73297" pt_clust_5="42.29771" pt_clust_6="14000.00000"></scales>
<clustering>
<clus scale="   33.453">  2  3  1 -1</clus>
<clus scale="   42.298">  2  5  1 -1</clus>
<clus scale="  103.733">  2  4  1 -1</clus>
<clus scale="   33.453">  2  3  1 -1</clus>
</clustering>
</event>
<event>
 6    0  0.4017242E+002  0.1431983E+03  0.7546771E-02  0.1209089E+00
         21   -1    0    0  504  502  0.00000000000E+00  0.00000000000E+00  0.15947173117E+03  0.15947173117E+03  0.00000000000E+00 0. -1.
          1   -1    0    0  503    0 -0.00000000000E+00 -0.00000000000E+00 -0.58102777016E+03  0.58102777016E+03  0.00000000000E+00 0. -1.
         21    1    1    2  503  505  0.31631293855E+02  0.23856353101E+01 -0.36114624083E+02  0.48067619865E+02  0.00000000000E+00 0. -1.
         21    1    1    2  504  501 -0.13722089521E+02 -0.15758388556E+03  0.40066541221E+02  0.16317568586E+03  0.00000000000E+00 0. -1.
         21    1    1    2  505  502 -0.40899710104E+02  0.12312041910E+03 -0.31801722946E+02  0.13357684480E+03  0.00000000000E+00 0. -1.
          1    1    1    2  501    0  0.22990505770E+02  0.32077831156E+02 -0.39370623318E+03  0.39567935081E+03  0.00000000000E+00 0. -1.
<scales pt_clust_3="31.72113" pt_clust_4="14000.00000" pt_clust_5="143.19825" pt_clust_6="57.22315"></scales>
<clustering>
<clus scale="   31.721">  2  3  1 -1</clus>
<clus scale="   57.223">  2  6  1 -1</clus>
<clus scale="  143.198">  2  5  1 -1</clus>
<clus scale="  143.198">  1  3  2 -1</clus>
</clustering>
</event>
<event>
 6    0  0.4017242E+002  0.2026534E+03  0.7546771E-02  0.1147519E+00
         21   -1    0    0  505  502  0.00000000000E+00  0.00000000000E+00  0.25021243732E+03  0.25021243732E+03  0.00000000000E+00 0.  1.
          1   -1    0    0  504    0 -0.00000000000E+00 -0.00000000000E+00 -0.38619817961E+03  0.38619817961E+03  0.00000000000E+00 0.  1.
         21    1    1    2  503  501 -0.97919884838E+02 -0.13748096173E+02  0.24816317652E+02  0.10194686664E+03  0.00000000000E+00 0.  1.
         21    1    1    2  504  502  0.27727146032E+02 -0.24591199233E+02  0.15028135002E+02  0.39992081072E+02  0.00000000000E+00 0. -1.
         21    1    1    2  505  503 -0.77771271700E+02 -0.63399390692E+02  0.11503307318E+03  0.15264488648E+03  0.00000000000E+00 0.  1.
          1    1    1    2  501    0  0.14796401051E+03  0.10173868610E+03 -0.29086326813E+03  0.34182678274E+03  0.00000000000E+00 0.  1.
<scales pt_clust_3="88.64710" pt_clust_4="37.06105" pt_clust_5="88.64710" pt_clust_6="180.63335"></scales>
<clustering>
<clus scale="   37.061">  1  4  2 -1</clus>
<clus scale="   88.647">  3  5 -1 -1</clus>
<clus scale="  180.633">  2  6  1 -1</clus>
<clus scale="   37.061">  1  3  2 -1</clus>
</clustering>
</event>
<event>
 6    0  0.4017242E+002  0.1321366E+03  0.7546771E-02  0.1224319E+00
          2   -1    0    0  503    0 -0.00000000000E+00  0.00000000000E+00  0.37776975914E+03  0.37776975914E+03  0.00000000000E+00 0. -1.
         21   -1    0    0  504  502  0.00000000000E+00 -0.00000000000E+00 -0.30123187983E+03  0.30123187983E+03  0.00000000000E+00 0. -1.
         21    1    1    2  503  505  0.10224888673E+03 -0.12925257622E+03  0.14396575495E+03  0.21883144632E+03  0.00000000000E+00 0. -1.
         21    1    1    2  504  501  0.27150036743E+02  0.89417835357E+02 -0.18866531240E+03  0.21054043288E+03  0.00000000000E+00 0. -1.
         21    1    1    2  505  502 -0.60865997167E+02  0.46807790156E+02 -0.30787649072E+02  0.82725559325E+02  0.00000000000E+00 0. -1.
          2    1    1    2  501    0 -0.68532926310E+02 -0.69730492926E+01  0.15202508583E+03  0.16690420044E+03  0.00000000000E+00 0. -1.
<scales pt_clust_3="132.13659" pt_clust_4="14000.00000" pt_clust_5="82.93102" pt_clust_6="68.88676"></scales>
<clustering>
<clus scale="   68.887">  1  6  2 -1</clus>
<clus scale="   82.931">  2  5  1 -1</clus>
<clus scale="  132.137">  1  3  2 -1</clus>
<clus scale="   82.931">  2  3  1 -1</clus>
</clustering>
</event>
<event>
 6    0  0.4017242E+002  0.1079801E+03  0.7546771E-02  0.1264357E+00
         21   -1    0    0  503  502  0.00000000000E+00  0.00000000000E+00  0.20471383681E+03  0.20471383681E+03  0.00000000000E+00 0. -1.
         -1   -1    0    0    0  501 -0.00000000000E+00 -0.00000000000E+00 -0.19980500992E+03  0.19980500992E+03  0.00000000000E+00 0. -1.
         21    1    1    2  503  505 -0.59434411149E+02 -0.82947353930E+02  0.49393343985E+02  0.11336849290E+03  0.00000000000E+00 0. -1.
         21    1    1    2  504  501 -0.32253665084E+02 -0.21200463552E+01 -0.34010600800E+02  0.46920299175E+02  0.00000000000E+00 0. -1.
         21    1    1    2  505  504 -0.13779946285E+00  0.13800750238E+03 -0.66325124431E+01  0.13816685537E+03  0.00000000000E+00 0. -1.
         -1    1    1    2    0  502  0.91825875696E+02 -0.52940102098E+02 -0.38414038584E+01  0.10606319928E+03  0.00000000000E+00 0. -1.
<scales pt_clust_3="107.98008" pt_clust_4="32.32327" pt_clust_5="14000.00000" pt_clust_6="96.91995"></scales>
<clustering>
<clus scale="   32.323">  2  4  1 -1</clus>
<clus scale="   96.920">  2  6  1 -1</clus>
<clus scale="  107.980">  1  3  2 -1</clus>
<clus scale="  107.980">  1  3  2 -1</clus>
</clustering>
</event>
<event>
 6    0  0.4017242E+002  0.9111750E+02  0.7546771E-02  0.1300168E+00
         -2   -1    0    0    0  501 -0.00000000000E+00  0.00000000000E+00  0.34090657888E+03  0.34090657888E+03  0.00000000000E+00 0.  1.
         21   -1    0    0  505  502  0.00000000000E+00 -0.00000000000E+00 -0.14284778324E+04  0.14284778324E+04  0.00000000000E+00 0.  1.
         21    1    1    2  503  502  0.36253651061E+02 -0.37978309008E+02 -0.66416306193E+03  0.66623513267E+03  0.00000000000E+00 0.  1.
         21    1    1    2  504  501  0.81014666665E+02  0.60973443620E+02 -0.31703900035E+02  0.10623687834E+03  0.00000000000E+00 0.  1.
         21    1    1    2  505  504 -0.88152247994E+02 -0.36948656279E+02 -0.69014389579E+03  0.69673138218E+03  0.00000000000E+00 0.  1.
         -2    1    1    2    0  503 -0.29116069732E+02  0.13953521667E+02  0.29843960420E+03  0.30018101812E+03  0.00000000000E+00 0.  1.
<scales pt_clust_3="51.75274" pt_clust_4="91.11750" pt_clust_5="14000.00000" pt_clust_6="32.28694"></scales>
<clustering>
<clus scale="   32.287">  1  6  2 -1</clus>
<clus scale="   51.753">  2  3  1 -1</clus>
<clus scale="   91.117">  1  4  2 -1</clus>
<clus scale="   51.753">  2  3  1 -1</clus>
</clustering>
</event>
<event>
 6    0  0.4017242E+002  0.2633669E+03  0.7546771E-02  0.1105137E+00
         21   -1    0    0  501  502  0.00000000000E+00  0.00000000000E+00  0.39258033180E+03  0.39258033180E+03  0.00000000000E+00 0. -1.
          1   -1    0    0  503    0 -0.00000000000E+00 -0.00000000000E+00 -0.17954961235E+04  0.17954961235E+04  0.00000000000E+00 0. -1.
         21    1    1    2  503  505  0.81751244846E+02 -0.13653631830E+02  0.11538922491E+03  0.14207167529E+03  0.00000000000E+00 0. -1.
         21    1    1    2  504  502  0.18031913416E+02  0.52886623572E+02  0.10685006246E+03  0.12057811037E+03  0.00000000000E+00 0. -1.
         21    1    1    2  505  504  0.14503197529E+03 -0.85827277928E+02  0.90827385140E+02  0.19144244405E+03  0.00000000000E+00 0. -1.
          1    1    1    2  501    0 -0.24481513355E+03  0.46594286187E+02 -0.17159824642E+04  0.17339842256E+04  0.00000000000E+00 0. -1.
<scales pt_clust_3="63.67884" pt_clust_4="55.87616" pt_clust_5="63.67884" pt_clust_6="248.96352"></scales>
<clustering>
<clus scale="   55.876">  1  4  2 -1</clus>
<clus scale="   63.679">  3  5 -1 -1</clus>
<clus scale="  248.964">  2  6  1 -1</clus>
<clus scale="   55.876">  1  3  2 -1</clus>
</clustering>
</event>
<event>
 6    0  0.4017242E+002  0.8618616E+02  0.7546771E-02  0.1312359E+00
          1   -1    0    0  505    0 -0.00000000000E+00  0.00000000000E+00  0.14217125650E+03  0.14217125650E+03  0.00000000000E+00 0.  1.
         21   -1    0    0  504  502  0.00000000000E+00 -0.00000000000E+00 -0.31329052341E+03  0.31329052341E+03  0.00000000000E+00 0.  1.
         21    1    1    2  503  502 -0.40752918160E+02  0.95916736954E+01 -0.45253413540E+02  0.61649590265E+02  0.00000000000E+00 0.  1.
         21    1    1    2  504  501  0.87006048314E+02  0.48355178924E+02 -0.15767476975E+03  0.18646610627E+03  0.00000000000E+00 0.  1.
         21    1    1    2  505  503 -0.11620366119E+02  0.64715440071E+02 -0.21518492915E+02  0.69182126519E+02  0.00000000000E+00 0.  1.
          1    1    1    2  501    0 -0.34632764036E+02 -0.12266229269E+03  0.53327409298E+02  0.13816395686E+03  0.00000000000E+00 0.  1.
<scales pt_clust_3="41.86646" pt_clust_4="14000.00000" pt_clust_5="68.98183" pt_clust_6="86.18616"></scales>
<clustering>
<clus scale="   41.866">  2  3  1 -1</clus>
<clus scale="   68.982">  1  5  2 -1</clus>
<clus scale="   86.186">  1  6  2 -1</clus>
<clus scale="   41.866">  2  3  1 -1</clus>
</clustering>
</event>
<event>
 6    0  0.4017242E+002  0.1445729E+03  0.7546771E-02  0.1207305E+00
          1   -1    0    0  505    0 -0.00000000000E+00  0.00000000000E+00  0.19607070800E+04  0.19607070800E+04  0.00000000000E+00 0.  1.
         21   -1    0    0  504  502  0.00000000000E+00 -0.00000000000E+00 -0.76819928478E+03  0.76819928478E+03  0.00000000000E+00 0.  1.
         21    1    1    2  503  501  0.43477243465E+02  0.11638150731E+02 -0.37337040068E+02  0.58478815077E+02  0.00000000000E+00 0.  1.
         21    1    1    2  504  503  0.52736782590E+02 -0.13116560544E+02 -0.11796798107E+03  0.12988324355E+03  0.00000000000E+00 0. -1.
         21    1    1    2  505  502 -0.15502527350E+03  0.78598714052E+02 -0.58245788587E+03  0.60783861516E+03  0.00000000000E+00 0.  1.
          1    1    1    2  501    0  0.58811247446E+02 -0.77120304240E+02  0.19302707022E+04  0.19327056910E+04  0.00000000000E+00 0.  1.
<scales pt_clust_3="41.71710" pt_clust_4="41.71710" pt_clust_5="137.11318" pt_clust_6="96.98610"></scales>
<clustering>
<clus scale="   41.717">  3  4 -1 -1</clus>
<clus scale="   96.986">  1  6  2 -1</clus>
<clus scale="  137.113">  2  5  1 -1</clus>
<clus scale="  137.113">  2  3  1 -1</clus>
</clustering>
</event>
<event>
 6    0  0.4017242E+002  0.2296822E+03  0.7546771E-02  0.1126864E+00
         21   -1    0    0  503  502  0.00000000000E+00  0.00000000000E+00  0.28508161452E+03  0.28508161452E+03  0.00000000000E+00 0.  1.
          2   -1    0    0  502    0 -0.00000000000E+00 -0.00000000000E+00 -0.11356207439E+04  0.11356207439E+04  0.00000000000E+00 0. -1.
         21    1    1    2  503  505 -0.56933475819E+02  0.27579129039E+02  0.89517986131E+02  0.10961523100E+03  0.00000000000E+00 0.  1.
         21    1    1    2  504  501 -0.24360777475E+02 -0.32698821092E+02  0.15585237769E+02  0.43652720606E+02  0.00000000000E+00 0.  1.
         21    1    1    2  505  504 -0.11487530328E+03 -0.26885260444E+02  0.12311524871E+03  0.17051837731E+03  0.00000000000E+00 0.  1.
          2    1    1    2  501    0  0.19616955658E+03  0.32004952497E+02 -0.10787576020E+04  0.10969160295E+04  0.00000000000E+00 0. -1.
<scales pt_clust_3="56.00896" pt_clust_4="35.73343" pt_clust_5="56.00896" pt_clust_6="198.76321"></scales>
<clustering>
<clus scale="   35.733">  4  5 -1 -1</clus>
<clus scale="   56.009">  3  4 -1 -1</clus>
<clus scale="  198.763">  2  6  1 -1</clus>
<clus scale="  229.682">  1  3  2 -1</clus>
</clustering>
</event>
<event>
 6    0  0.4017242E+002  0.1539438E+03  0.7546771E-02  0.1195709E+00
         21   -1    0    0  505  502  0.00000000000E+00  0.00000000000E+00  0.55683267374E+03  0.55683267374E+03  0.00000000000E+00 0. -1.
          1   -1    0    0  503    0 -0.00000000000E+00 -0.00000000000E+00 -0.94110071929E+03  0.94110071929E+03  0.00000000000E+00 0. -1.
         21    1    1    2  503  504 -0.28599583232E+02 -0.29644589332E+02  0.48959326023E+02  0.63982446361E+02  0.00000000000E+00 0. -1.
         21    1    1    2  504  502  0.15209181093E+02 -0.98791197237E+02  0.14101338960E+03  0.17284616249E+03  0.00000000000E+00 0. -1.
         21    1    1    2  505  501 -0.58442472756E+02  0.14986479913E+03  0.32294725408E+03  0.36079067277E+03  0.00000000000E+00 0. -1.
          1    1    1    2  501    0  0.71832874894E+02 -0.21429012560E+02 -0.89718801525E+03  0.90031411141E+03  0.00000000000E+00 0. -1.
<scales pt_clust_3="37.00608" pt_clust_4="37.00608" pt_clust_5="142.74310" pt_clust_6="74.96109"></scales>
<clustering>
<clus scale="   37.006">  3  4 -1 -1</clus>
<clus scale="   74.961">  2  6  1 -1</clus>
<clus scale="  142.743">  1  5  2 -1</clus>
<clus scale="  142.743">  1  3  2 -1</clus>
</clustering>
</event>
<event>
 6    0  0.4017242E+002  0.8758965E+02  0.7546771E-02  0.1308796E+00
         21   -1    0    0  501  502  0.00000000000E+00  0.00000000000E+00  0.10904167318E+03  0.10904167318E+03  0.00000000000E+00 0.  1.
          2   -1    0    0  504    0 -0.00000000000E+00 -0.00000000000E+00 -0.47966513995E+03  0.47966513995E+03  0.00000000000E+00 0.  1.
         21    1    1    2  503  505 -0.35983294580E+01 -0.79976952341E+02 -0.97345127043E+02  0.12603703678E+03  0.00000000000E+00 0.  1.
         21    1    1    2  504  503 -0.46754255999E+02  0.76535670595E+01 -0.11001272274E+03  0.11978036862E+03  0.00000000000E+00 0.  1.
         21    1    1    2  505  502  0.76518599963E+02  0.56523704126E+02  0.63302831598E+02  0.11426842852E+03  0.00000000000E+00 0.  1.
          2    1    1    2  501    0 -0.26166014505E+02  0.15799681155E+02 -0.22656844859E+03  0.22862097921E+03  0.00000000000E+00 0.  1.
<scales pt_clust_3="14000.00000" pt_clust_4="60.53214" pt_clust_5="87.58965" pt_clust_6="30.56616"></scales>
<clustering>
<clus scale="   30.566">  2  6  1 -1</clus>
<clus scale="   60.532">  2  4  1 -1</clus>
<clus scale="   87.590">  1  5  2 -1</clus>
<clus scale="   87.590">  1  3  2 -1</clus>
</clustering>
</event>
<event>
 6    0  0.4017242E+002  0.1462050E+03  0.7546771E-02  0.1205215E+00
          2   -1    0    0  503    0 -0.00000000000E+00  0.00000000000E+00  0.12110683902E+04  0.12110683902E+04  0.00000000000E+00 0.  1.
         21   -1    0    0  504  502  0.00000000000E+00 -0.00000000000E+00 -0.16359002735E+03  0.16359002735E+03  0.00000000000E+00 0.  1.
         21    1    1    2  503  505  0.79289158970E+02 -0.44367583470E+02  0.11407856224E+03  0.14583954044E+03  0.00000000000E+00 0. -1.
         21    1    1    2  504  501 -0.75844186079E+02 -0.93537749296E+02 -0.99906690666E+02  0.15647043793E+03  0.00000000000E+00 0.  1.
         21    1    1    2  505  502 -0.42276289343E+02 -0.45908389082E+01  0.17703574533E+02  0.46062750610E+02  0.00000000000E+00 0.  1.
          2    1    1    2  501    0  0.38831316452E+02  0.14249617167E+03  0.10156029168E+04  0.10262856886E+04  0.00000000000E+00 0.  1.
<scales pt_clust_3="87.21478" pt_clust_4="146.20503" pt_clust_5="42.52482" pt_clust_6="14000.00000"></scales>
<clustering>
<clus scale="   42.525">  2  5  1 -1</clus>
<clus scale="   87.215">  2  3  1 -1</clus>
<clus scale="  146.205">  2  4  1 -1</clus>
<clus scale="   42.525">  2  3  1 -1</clus>
</clustering>
</event>
<event>
 6    0  0.4017242E+002  0.1848500E+03  0.7546771E-02  0.1163190E+00
          3   -1    0    0  502    0 -0.00000000000E+00  0.00000000000E+00  0.59058977824E+03  0.59058977824E+03  0.00000000000E+00 0.  1.
         21   -1    0    0  504  502  0.00000000000E+00 -0.00000000000E+00 -0.11140694121E+03  0.11140694121E+03  0.00000000000E+00 0. -1.
         21    1    1    2  503  505  0.65268138341E+01 -0.37586796957E+02  0.10872715118E+02  0.39668407308E+02  0.00000000000E+00 0. -1.
         21    1    1    2  504  503 -0.45525876849E+02 -0.63464452116E+02  0.43847076348E+01  0.78227666502E+02  0.00000000000E+00 0. -1.
         21    1    1    2  505  501 -0.57424491861E+02 -0.20454335796E+02 -0.28884022075E+02  0.67455458264E+02  0.00000000000E+00 0. -1.
          3    1    1    2  501    0  0.96423554876E+02  0.12150558487E+03  0.49280943634E+03  0.51664518738E+03  0.00000000000E+00 0.  1.
<scales pt_clust_3="30.73825" pt_clust_4="60.79955" pt_clust_5="60.79955" pt_clust_6="155.11644"></scales>
<clustering>
<clus scale="   30.738">  3  4 -1 -1</clus>
<clus scale="   60.800">  3  5 -1 -1</clus>
<clus scale="  155.116">  1  6  2 -1</clus>
<clus scale="  184.850">  2  3  1 -1</clus>
</clustering>
</event>
<event>
 6    0  0.4017242E+002  0.2561129E+03  0.7546771E-02  0.1109501E+00
         21   -1    0    0  504  502  0.00000000000E+00  0.00000000000E+00  0.27604082827E+03  0.27604082827E+03  0.00000000000E+00 0.  1.
          2   -1    0    0  503    0 -0.00000000000E+00 -0.00000000000E+00 -0.72453675396E+03  0.72453675396E+03  0.00000000000E+00 0. -1.
         21    1    1    2  503  505 -0.40921004218E+02  0.14389696842E+02 -0.65042505807E+02  0.78180045555E+02  0.00000000000E+00 0. -1.
         21    1    1    2  504  501  0.26230386947E+03 -0.29421120966E+02  0.13111359400E+03  0.29471969196E+03  0.00000000000E+00 0.  1.
         21    1    1    2  505  502 -0.16027652233E+03  0.78650983573E+01 -0.63728814919E+02  0.17266089666E+03  0.00000000000E+00 0. -1.
          2    1    1    2  501    0 -0.61106342913E+02  0.71663257664E+01 -0.45083819896E+03  0.45501694805E+03  0.00000000000E+00 0. -1.
<scales pt_clust_3="38.07637" pt_clust_4="245.41887" pt_clust_5="38.07637" pt_clust_6="61.52513"></scales>
<clustering>
<clus scale="   38.076">  3  5 -1 -1</clus>
<clus scale="   61.525">  2  6  1 -1</clus>
<clus scale="  245.419">  1  4  2 -1</clus>
<clus scale="  245.419">  1  3  2 -1</clus>
</clustering>
</event>
<event>
 6    0  0.4017242E+002  0.8282062E+02  0.7546771E-02  0.1321232E+00
         -3   -1    0    0    0  501 -0.00000000000E+00  0.00000000000E+00  0.75884868104E+03  0.75884868104E+03  0.00000000000E+00 0. -1.
         21   -1    0    0  505  502  0.00000000000E+00 -0.00000000000E+00 -0.90324216283E+02  0.90324216283E+02  0.00000000000E+00 0.  1.
         21    1    1    2  503  504  0.33562304576E+02  0.85219058821E+02 -0.36718053689E+02  0.98675892403E+02  0.00000000000E+00 0.  1.
         21    1    1    2  504  501 -0.31840931376E+02  0.43982561350E+02  0.85071553175E+02  0.10092313795E+03  0.00000000000E+00 0. -1.
         21    1    1    2  505  503 -0.40170145649E+02 -0.88700880556E+01  0.46177831449E+02  0.61844249376E+02  0.00000000000E+00 0.  1.
         -3    1    1    2    0  502  0.38448772449E+02 -0.12033153211E+03  0.57399313382E+03  0.58772961759E+03  0.00000000000E+00 0. -1.
<scales pt_clust_3="82.82062" pt_clust_4="55.98884" pt_clust_5="41.13781" pt_clust_6="14000.00000"></scales>
<clustering>
<clus scale="   41.138">  2  5  1 -1</clus>
<clus scale="   55.989">  1  4  2 -1</clus>
<clus scale="   82.821">  2  3  1 -1</clus>
<clus scale="   41.138">  2  3  1 -1</clus>
</clustering>
</event>
<event>
 6    0  0.4017242E+002  0.9496724E+02  0.7546771E-02  0.1291250E+00
         21   -1    0    0  505  502  0.00000000000E+00  0.00000000000E+00  0.14094976361E+03  0.14094976361E+03  0.00000000000E+00 0.  1.
          1   -1    0    0  503    0 -0.00000000000E+00 -0.00000000000E+00 -0.10547568497E+04  0.10547568497E+04  0.00000000000E+00 0.  1.
         21    1    1    2  503  504  0.21408237423E+02 -0.65222851239E+02 -0.31537360218E+03  0.32275817868E+03  0.00000000000E+00 0.  1.
         21    1    1    2  504  502 -0.10574818745E+02 -0.79150873489E+02 -0.33411557106E+03  0.34352569393E+03  0.00000000000E+00 0.  1.
         21    1    1    2  505  501  0.30993695789E+02  0.82151716098E+02  0.11391721423E+03  0.14382852754E+03  0.00000000000E+00 0.  1.
          1    1    1    2  501    0 -0.41827114468E+02  0.62222008629E+02 -0.37823512704E+03  0.38559421312E+03  0.00000000000E+00 0.  1.
<scales pt_clust_3="31.26202" pt_clust_4="31.26202" pt_clust_5="88.78006" pt_clust_6="74.97390"></scales>
<clustering>
<clus scale="   31.262">  3  4 -1 -1</clus>
<clus scale="   74.974">  2  6  1 -1</clus>
<clus scale="   88.780">  1  5  2 -1</clus>
<clus scale="   88.780">  1  3  2 -1</clus>
</clustering>
</event>
<event>
 6    0  0.4017242E+002  0.2818238E+03  0.7546771E-02  0.1094697E+00
         21   -1    0    0  504  502  0.00000000000E+00  0.00000000000E+00  0.70765430722E+03  0.70765430722E+03  0.00000000000E+00 0.  1.
          1   -1    0    0  503    0 -0.00000000000E+00 -0.00000000000E+00 -0.54454685188E+03  0.54454685188E+03  0.00000000000E+00 0. -1.
         21    1    1    2  503  502  0.12427234055E+02  0.30169147796E+03 -0.16229819408E+03  0.34280152832E+03  0.00000000000E+00 0. -1.
         21    1    1    2  504  505  0.64847384430E+02 -0.29464445015E+02  0.13127759055E+03  0.14935575840E+03  0.00000000000E+00 0. -1.
         21    1    1    2  505  501 -0.12311626796E+03 -0.24601928278E+03  0.43431914252E+03  0.51411693271E+03  0.00000000000E+00 0.  1.
          1    1    1    2  501    0  0.45841649477E+02 -0.26207750161E+02 -0.24019108365E+03  0.24592693968E+03  0.00000000000E+00 0. -1.
<scales pt_clust_3="14000.00000" pt_clust_4="72.80384" pt_clust_5="281.82383" pt_clust_6="52.80438"></scales>
<clustering>
<clus scale="   52.804">  2  6  1 -1</clus>
<clus scale="   72.804">  1  4  2 -1</clus>
<clus scale="  281.824">  1  5  2 -1</clus>
<clus scale="   72.804">  1  3  2 -1</clus>
</clustering>
</event>
<event>
 6    0  0.4017242E+002  0.1410910E+03  0.7546771E-02  0.1211869E+00
         21   -1    0    0  505  502  0.00000000000E+00  0.00000000000E+00  0.35837003500E+02  0.35837003500E+02  0.00000000000E+00 0.  1.
         -3   -1    0    0    0  501 -0.00000000000E+00 -0.00000000000E+00 -0.61267815994E+03  0.61267815994E+03  0.00000000000E+00 0.  1.
         21    1    1    2  503  502  0.54804959218E+02 -0.62548317970E+02 -0.72429525677E+02  0.11028105833E+03  0.00000000000E+00 0.  1.
         21    1    1    2  504  501 -0.45381535226E+02  0.81303748315E+02 -0.32240694891E+03  0.33558311033E+03  0.00000000000E+00 0.  1.
         21    1    1    2  505  504 -0.42981372138E+02  0.10889464322E+02 -0.90793863073E+02  0.10104209200E+03  0.00000000000E+00 0.  1.
         -3    1    1    2    0  503  0.33557948146E+02 -0.29644894667E+02 -0.91210818777E+02  0.10160890279E+03  0.00000000000E+00 0.  1.
<scales pt_clust_3="31.23171" pt_clust_4="41.39877" pt_clust_5="41.39877" pt_clust_6="134.60755"></scales>
<clustering>
<clus scale="   31.232">  3  6 -1 -1</clus>
<clus scale="   41.399">  4  5 -1 -1</clus>
<clus scale="  134.608">  1  3  2 -1</clus>
<clus scale="  134.608">  1  3  2 -1</clus>
</clustering>
</event>
<event>
 6    0  0.4017242E+002  0.1017073E+03  0.7546771E-02  0.1276746E+00
          2   -1    0    0  502    0 -0.00000000000E+00  0.00000000000E+00  0.11612862855E+04  0.11612862855E+04  0.00000000000E+00 0. -1.
         21   -1    0    0  505  502  0.00000000000E+00 -0.00000000000E+00 -0.11358245020E+03  0.11358245020E+03  0.00000000000E+00 0. -1.
         21    1    1    2  503  504 -0.53449292470E+02 -0.38898502125E+02  0.55519620818E+02  0.86326986678E+02  0.00000000000E+00 0. -1.
         21    1    1    2  504  501  0.12716911109E+03  0.22243478083E+01  0.49548438394E+03  0.51154834108E+03  0.00000000000E+00 0. -1.
         21    1    1    2  505  503 -0.58440282350E+02 -0.28198713874E+02 -0.76282938647E+02  0.10014749520E+03  0.00000000000E+00 0. -1.
          2    1    1    2  501    0 -0.15279536267E+02  0.64872868191E+02  0.57298276917E+03  0.57684591272E+03  0.00000000000E+00 0. -1.
<scales pt_clust_3="14000.00000" pt_clust_4="101.70734" pt_clust_5="64.88786" pt_clust_6="65.75533"></scales>
<clustering>
<clus scale="   64.888">  2  5  1 -1</clus>
<clus scale="   65.755">  1  6  2 -1</clus>
<clus scale="  101.707">  1  4  2 -1</clus>
<clus scale="   64.888">  2  3  1 -1</clus>
</clustering>
</event>
<event>
 6    0  0.4017242E+002  0.9349846E+02  0.7546771E-02  0.1294594E+00
          1   -1    0    0  504    0 -0.00000000000E+00  0.00000000000E+00  0.12730934045E+04  0.12730934045E+04  0.00000000000E+00 0. -1.
         21   -1    0    0  501  502  0.00000000000E+00 -0.00000000000E+00 -0.10929541244E+04  0.10929541244E+04  0.00000000000E+00 0. -1.
         21    1    1    2  503  505 -0.67640034088E+02 -0.81058122476E+02 -0.43334616093E+03  0.44602072667E+03  0.00000000000E+00 0. -1.
         21    1    1    2  504  503 -0.27366829087E+02  0.93500265757E+02 -0.22354749156E+03  0.24385389891E+03  0.00000000000E+00 0. -1.
         21    1    1    2  505  502  0.70998446127E+02 -0.42033077166E+02 -0.41522109452E+03  0.42333924489E+03  0.00000000000E+00 0. -1.
          1    1    1    2  501    0  0.24008417048E+02  0.29590933885E+02  0.12522540271E+04  0.12528336584E+04  0.00000000000E+00 0. -1.
<scales pt_clust_3="14000.00000" pt_clust_4="93.49846" pt_clust_5="83.94187" pt_clust_6="38.10548"></scales>
<clustering>
<clus scale="   38.105">  1  6  2 -1</clus>
<clus scale="   83.942">  2  5  1 -1</clus>
<clus scale="   93.498">  1  4  2 -1</clus>
<clus scale="   83.942">  2  3  1 -1</clus>
</clustering>
</event>
<event>
 6    0  0.4017242E+002  0.9047886E+02  0.7546771E-02  0.1301696E+00
         21   -1    0    0  505  502  0.00000000000E+00  0.00000000000E+00  0.13834224634E+03  0.13834224634E+03  0.00000000000E+00 0.  1.
          2   -1    0    0  504    0 -0.00000000000E+00 -0.00000000000E+00 -0.20870923013E+04  0.20870923013E+04  0.00000000000E+00 0. -1.
         21    1    1    2  503  502 -0.10205525130E+03  0.37518329898E+02 -0.93820186419E+02  0.14361450754E+03  0.00000000000E+00 0. -1.
         21    1    1    2  504  503  0.42982973684E+02  0.48927748035E+01 -0.87479495363E+03  0.87586396556E+03  0.00000000000E+00 0.  1.
         21    1    1    2  505  501  0.38676926926E+02  0.30030739296E+02  0.10623788615E+03  0.11697964965E+03  0.00000000000E+00 0.  1.
          2    1    1    2  501    0  0.20395350690E+02 -0.72441843997E+02 -0.10863728010E+04  0.10889764248E+04  0.00000000000E+00 0. -1.
<scales pt_clust_3="14000.00000" pt_clust_4="43.26055" pt_clust_5="49.13070" pt_clust_6="90.47886"></scales>
<clustering>
<clus scale="   43.261">  2  4  1 -1</clus>
<clus scale="   49.131">  1  5  2 -1</clus>
<clus scale="   90.479">  2  6  1 -1</clus>
<clus scale="   49.131">  1  3  2 -1</clus>
</clustering>
</event>
<event>
 6    0  0.4017242E+002  0.9958931E+02  0.7546771E-02  0.1281162E+00
         21   -1    0    0  503  502  0.00000000000E+00  0.00000000000E+00  0.34653277681E+03  0.34653277681E+03  0.00000000000E+00 0.  1.
          2   -1    0    0  505    0 -0.00000000000E+00 -0.00000000000E+00 -0.15008313101E+04  0.15008313101E+04  0.00000000000E+00 0. -1.
         21    1    1    2  503  504  0.59480470899E+02 -0.52802777820E+02  0.31801129133E+03  0.32780671314E+03  0.00000000000E+00 0.  1.
         21    1    1    2  504  501 -0.72199934665E+02 -0.78000059894E+02 -0.16970580636E+03  0.20024210502E+03  0.00000000000E+00 0. -1.
         21    1    1    2  505  502 -0.44141594732E+02  0.10080280768E+03 -0.41358080481E+03  0.42797052296E+03  0.00000000000E+00 0. -1.
          2    1    1    2  501    0  0.56861058498E+02  0.30000030034E+02 -0.88902321348E+03  0.89134474581E+03  0.00000000000E+00 0. -1.
<scales pt_clust_3="79.71931" pt_clust_4="99.58931" pt_clust_5="14000.00000" pt_clust_6="64.28983"></scales>
<clustering>
<clus scale="   64.290">  2  6  1 -1</clus>
<clus scale="   79.719">  1  3  2 -1</clus>
<clus scale="   99.589">  1  4  2 -1</clus>
<clus scale="   79.719">  1  3  2 -1</clus>
</clustering>
</event>
<event>
 6    0  0.4017242E+002  0.1884231E+03  0.7546771E-02  0.1159891E+00
         21   -1    0    0  504  502  0.00000000000E+00  0.00000000000E+00  0.92695469248E+03  0.92695469248E+03  0.00000000000E+00 0.  1.
          2   -1    0    0  503    0 -0.00000000000E+00 -0.00000000000E+00 -0.14165360391E+04  0.14165360391E+04  0.00000000000E+00 0.  1.
         21    1    1    2  503  502  0.74094874621E+02 -0.13314891479E+03  0.31817155134E+02  0.15566314694E+03  0.00000000000E+00 0. -1.
         21    1    1    2  504  505 -0.48190062412E+02  0.81903772969E+02  0.56135342883E+03  0.56934012875E+03  0.00000000000E+00 0.  1.
         21    1    1    2  505  501 -0.28515160895E+02  0.82698643117E+02  0.26053569964E+03  0.27482909373E+03  0.00000000000E+00 0.  1.
          2    1    1    2  501    0  0.26103486861E+01 -0.31453501296E+02 -0.13432876303E+04  0.13436583622E+04  0.00000000000E+00 0.  1.
<scales pt_clust_3="177.09025" pt_clust_4="61.18769" pt_clust_5="61.18769" pt_clust_6="31.56163"></scales>
<clustering>
<clus scale="   31.562">  2  6  1 -1</clus>
<clus scale="   61.188">  4  5 -1 -1</clus>
<clus scale="  177.090">  2  3  1 -1</clus>
<clus scale="  188.423">  1  3  2 -1</clus>
</clustering>
</event>
<event>
 6    0  0.4017242E+002  0.1229526E+03  0.7546771E-02  0.1238304E+00
         21   -1    0    0  504  502  0.00000000000E+00  0.00000000000E+00  0.53284147455E+02  0.53284147455E+02  0.00000000000E+00 0. -1.
          2   -1    0    0  503    0 -0.00000000000E+00 -0.00000000000E+00 -0.15433519706E+04  0.15433519706E+04  0.00000000000E+00 0. -1.
         21    1    1    2  503  505 -0.82519394375E+02  0.71826177741E+02 -0.10849898939E+03  0.15407946312E+03  0.00000000000E+00 0. -1.
         21    1    1    2  504  501  0.37971660365E+02  0.95254393875E+00 -0.93338970981E+02  0.10077161225E+03  0.00000000000E+00 0.  1.
         21    1    1    2  505  502 -0.24186803013E+02  0.31905585004E+02  0.68890694799E+01  0.40625448585E+02  0.00000000000E+00 0. -1.
          2    1    1    2  501    0  0.68734537023E+02 -0.10468430668E+03 -0.12951189322E+04  0.13011595941E+04  0.00000000000E+00 0. -1.
<scales pt_clust_3="14000.00000" pt_clust_4="37.98361" pt_clust_5="32.91135" pt_clust_6="122.95263"></scales>
<clustering>
<clus scale="   37.984">  1  4  2 -1</clus>
<clus scale="   32.911">  1  5  2 -1</clus>
<clus scale="  122.953">  2  6  1 -1</clus>
<clus scale="   37.984">  1  3  2 -1</clus>
</clustering>
</event>
<event>
 6    0  0.4017242E+002  0.9414829E+02  0.7546771E-02  0.1293106E+00
          2   -1    0    0  504    0 -0.00000000000E+00  0.00000000000E+00  0.11282304301E+04  0.11282304301E+04  0.00000000000E+00 0. -1.
         21   -1    0    0  503  502  0.00000000000E+00 -0.00000000000E+00 -0.81924769823E+02  0.81924769823E+02  0.00000000000E+00 0.  1.
         21    1    1    2  503  501 -0.51078349269E+02 -0.88597593177E+02  0.53882664550E+02  0.11559356738E+03  0.00000000000E+00 0.  1.
         21    1    1    2  504  505  0.11669886567E+03 -0.48627056907E+01  0.32477805772E+02  0.12123151002E+03  0.00000000000E+00 0.  1.
         21    1    1    2  505  502 -0.97196743013E+01  0.31459457917E+02  0.51952924511E+02  0.61508340298E+02  0.00000000000E+00 0.  1.
          2    1    1    2  501    0 -0.55900842098E+02  0.62000840951E+02  0.90799226543E+03  0.91182178221E+03  0.00000000000E+00 0. -1.
<scales pt_clust_3="14000.00000" pt_clust_4="94.14829" pt_clust_5="32.92673" pt_clust_6="84.22273"></scales>
<clustering>
<clus scale="   32.927">  2  5  1 -1</clus>
<clus scale="   84.223">  1  6  2 -1</clus>
<clus scale="   94.148">  2  4  1 -1</clus>
<clus scale="   32.927">  2  3  1 -1</clus>
</clustering>
</event>
<event>
 6    0  0.4017242E+002  0.6146918E+02  0.7546771E-02  0.1391768E+00
         21   -1    0    0  505  502  0.00000000000E+00  0.00000000000E+00  0.10594300415E+03  0.10594300415E+03  0.00000000000E+00 0.  1.
          2   -1    0    0  503    0 -0.00000000000E+00 -0.00000000000E+00 -0.24856521082E+04  0.24856521082E+04  0.00000000000E+00 0. -1.
         21    1    1    2  503  504 -0.27255524038E+02  0.27801779752E+02 -0.11556525530E+03  0.12194724589E+03  0.00000000000E+00 0.  1.
         21    1    1    2  504  502  0.91947842721E+01  0.40406002566E+02 -0.34678884612E+03  0.34925591318E+03  0.00000000000E+00 0.  1.
         21    1    1    2  505  501 -0.28781988518E+02  0.53951988092E+02  0.89983373494E+02  0.10879442719E+03  0.00000000000E+00 0.  1.
          2    1    1    2  501    0  0.46842728284E+02 -0.12215977041E+03 -0.20073383762E+04  0.20115975261E+04  0.00000000000E+00 0. -1.
<scales pt_clust_3="38.93331" pt_clust_4="44.79525" pt_clust_5="14000.00000" pt_clust_6="61.46918"></scales>
<clustering>
<clus scale="   38.933">  2  3  1 -1</clus>
<clus scale="   44.795">  2  4  1 -1</clus>
<clus scale="   61.469">  2  6  1 -1</clus>
<clus scale="   61.469">  1  3  2 -1</clus>
</clustering>
</event>
<event>
 6    0  0.4017242E+002  0.7779904E+02  0.7546771E-02  0.1335416E+00
          2   -1    0    0  503    0 -0.00000000000E+00  0.00000000000E+00  0.18701139076E+04  0.18701139076E+04  0.00000000000E+00 0.  1.
         21   -1    0    0  501  502  0.00000000000E+00 -0.00000000000E+00 -0.15035967851E+03  0.15035967851E+03  0.00000000000E+00 0. -1.
         21    1    1    2  503  505 -0.27869560582E+02 -0.22322889168E+02  0.69318079562E+02  0.77974482633E+02  0.00000000000E+00 0. -1.
         21    1    1    2  504  502  0.30739457656E+02 -0.40481637661E+02 -0.13140772441E+03  0.14089594487E+03  0.00000000000E+00 0. -1.
         21    1    1    2  505  504 -0.93646112183E+02  0.30371770336E+02  0.28247991919E+03  0.29914368371E+03  0.00000000000E+00 0. -1.
          2    1    1    2  501    0  0.90776215108E+02  0.32432756493E+02  0.14993639548E+04  0.15024594749E+04  0.00000000000E+00 0.  1.
<scales pt_clust_3="35.70748" pt_clust_4="50.83241" pt_clust_5="77.79904" pt_clust_6="14000.00000"></scales>
<clustering>
<clus scale="   35.707">  1  3  2 -1</clus>
<clus scale="   50.832">  2  4  1 -1</clus>
<clus scale="   77.799">  2  5  1 -1</clus>
<clus scale="   50.832">  2  3  1 -1</clus>
</clustering>
</event>
<event>
 6    0  0.4017242E+002  0.1197732E+03  0.7546771E-02  0.1243472E+00
         21   -1    0    0  503  502  0.00000000000E+00  0.00000000000E+00  0.17119577508E+03  0.17119577508E+03  0.00000000000E+00 0.  1.
          2   -1    0    0  504    0 -0.00000000000E+00 -0.00000000000E+00 -0.14583291939E+04  0.14583291939E+04  0.00000000000E+00 0.  1.
         21    1    1    2  503  501  0.35397658401E+02 -0.13141345944E+03  0.11885349618E+03  0.18068936078E+03  0.00000000000E+00 0.  1.
         21    1    1    2  504  505  0.27809028429E+01  0.83374108758E+02 -0.29269299987E+03  0.30434875982E+03  0.00000000000E+00 0.  1.
         21    1    1    2  505  502  0.46678867776E+02  0.37492279629E+02 -0.50689919903E+02  0.78447789697E+02  0.00000000000E+00 0.  1.
          2    1    1    2  501    0 -0.84857429020E+02  0.10547071053E+02 -0.10626039952E+04  0.10660390587E+04  0.00000000000E+00 0.  1.
<scales pt_clust_3="119.77319" pt_clust_4="84.88293" pt_clust_5="59.87143" pt_clust_6="14000.00000"></scales>
<clustering>
<clus scale="   59.871">  1  5  2 -1</clus>
<clus scale="   84.883">  2  4  1 -1</clus>
<clus scale="  119.773">  1  3  2 -1</clus>
<clus scale="   59.871">  1  3  2 -1</clus>
</clustering>
</event>
<event>
 6    0  0.4017242E+002  0.3640563E+03  0.7546771E-02  0.1056989E+00
          2   -1    0    0  504    0 -0.00000000000E+00  0.00000000000E+00  0.12920852050E+04  0.12920852050E+04  0.00000000000E+00 0. -1.
         21   -1    0    0  503  502  0.00000000000E+00 -0.00000000000E+00 -0.18613931651E+03  0.18613931651E+03  0.00000000000E+00 0. -1.
         21    1    1    2  503  505  0.76221400037E+02  0.15181672706E+03  0.63144250631E+02  0.18123249384E+03  0.00000000000E+00 0. -1.
         21    1    1    2  504  502  0.92465518035E+02 -0.46856657106E+02  0.11637986109E+02  0.10431136593E+03  0.00000000000E+00 0.  1.
         21    1    1    2  505  501  0.84700986192E+02  0.15920567704E+03  0.13693385457E+03  0.22643229715E+03  0.00000000000E+00 0. -1.
          2    1    1    2  501    0 -0.25338790426E+03 -0.26416574699E+03  0.89422979717E+03  0.96624836458E+03  0.00000000000E+00 0. -1.
<scales pt_clust_3="57.65202" pt_clust_4="103.66011" pt_clust_5="57.65202" pt_clust_6="359.17771"></scales>
<clustering>
<clus scale="   57.652">  3  5 -1 -1</clus>
<clus scale="  103.660">  2  4  1 -1</clus>
<clus scale="  359.178">  1  6  2 -1</clus>
<clus scale="  103.660">  2  3  1 -1</clus>
</clustering>
</event>
<event>
 6    0  0.4017242E+002  0.1163316E+03  0.7546771E-02  0.1249274E+00
         21   -1    0    0  504  502  0.00000000000E+00  0.00000000000E+00  0.17468797321E+04  0.17468797321E+04  0.00000000000E+00 0. -1.
          2   -1    0    0  503    0 -0.00000000000E+00 -0.00000000000E+00 -0.50315064932E+03  0.50315064932E+03  0.00000000000E+00 0. -1.
         21    1    1    2  503  502 -0.47423031129E+02 -0.27682306336E+02  0.81929560371E+03  0.82113369205E+03  0.00000000000E+00 0. -1.
         21    1    1    2  504  505  0.52633072785E+02 -0.35488530580E+02  0.66134507098E+03  0.66438466197E+03  0.00000000000E+00 0. -1.
         21    1    1    2  505  501  0.80668542556E+02 -0.17127270901E+02  0.25018558934E+03  0.26342662409E+03  0.00000000000E+00 0. -1.
          2    1    1    2  501    0 -0.85878584212E+02  0.80298107816E+02 -0.48709718129E+03  0.50108540327E+03  0.00000000000E+00 0. -1.
<scales pt_clust_3="54.91133" pt_clust_4="58.37032" pt_clust_5="14000.00000" pt_clust_6="116.33161"></scales>
<clustering>
<clus scale="   54.911">  1  3  2 -1</clus>
<clus scale="   58.370">  1  4  2 -1</clus>
<clus scale="  116.332">  2  6  1 -1</clus>
<clus scale="   54.911">  1  3  2 -1</clus>
</clustering>
</event>
<event>
 6    0  0.4017242E+002  0.8679826E+02  0.7546771E-02  0.1310796E+00
          2   -1    0    0  505    0 -0.00000000000E+00  0.00000000000E+00  0.20051584653E+04  0.20051584653E+04  0.00000000000E+00 0. -1.
         21   -1    0    0  503  502  0.00000000000E+00 -0.00000000000E+00 -0.11674864490E+02  0.11674864490E+02  0.00000000000E+00 0. -1.
         21    1    1    2  503  504 -0.31354619768E+02 -0.19609941475E+02  0.64178011142E+02  0.74070770886E+02  0.00000000000E+00 0. -1.
         21    1    1    2  504  501 -0.60827718664E+02 -0.71692538170E+01  0.32555919217E+03  0.33127057998E+03  0.00000000000E+00 0. -1.
         21    1    1    2  505  502 -0.19122948292E+02 -0.27431350528E+02  0.40023174056E+03  0.40162620967E+03  0.00000000000E+00 0. -1.
          2    1    1    2  501    0  0.11130528672E+03  0.54210545820E+02  0.12035146569E+04  0.12098657692E+04  0.00000000000E+00 0. -1.
<scales pt_clust_3="38.31145" pt_clust_4="86.79826" pt_clust_5="33.43899" pt_clust_6="14000.00000"></scales>
<clustering>
<clus scale="   33.439">  1  5  2 -1</clus>
<clus scale="   38.311">  2  3  1 -1</clus>
<clus scale="   86.798">  2  4  1 -1</clus>
<clus scale="   38.311">  2  3  1 -1</clus>
</clustering>
</event>
<event>
 6    0  0.4017242E+002  0.1625388E+03  0.7546771E-02  0.1185860E+00
         21   -1    0    0  503  502  0.00000000000E+00  0.00000000000E+00  0.11003898639E+03  0.11003898639E+03  0.00000000000E+00 0. -1.
          2   -1    0    0  504    0 -0.00000000000E+00 -0.00000000000E+00 -0.17438293433E+04  0.17438293433E+04  0.00000000000E+00 0.  1.
         21    1    1    2  503  505 -0.59295092235E+02 -0.33129434098E+01 -0.38692584230E+02  0.70880177988E+02  0.00000000000E+00 0. -1.
         21    1    1    2  504  502  0.17101237317E+03  0.28765282009E+02 -0.16434455729E+02  0.17419174654E+03  0.00000000000E+00 0. -1.
         21    1    1    2  505  501 -0.64231533203E+02  0.44536941807E+02 -0.96325607981E+02  0.12404778029E+03  0.00000000000E+00 0. -1.
          2    1    1    2  501    0 -0.47485747731E+02 -0.69989280406E+02 -0.14823377090E+04  0.14847486249E+04  0.00000000000E+00 0.  1.
<scales pt_clust_3="46.19637" pt_clust_4="153.65578" pt_clust_5="46.19637" pt_clust_6="84.57775"></scales>
<clustering>
<clus scale="   46.196">  3  5 -1 -1</clus>
<clus scale="   84.578">  2  6  1 -1</clus>
<clus scale="  153.656">  1  4  2 -1</clus>
<clus scale="  153.656">  1  3  2 -1</clus>
</clustering>
</event>
<event>
 6    0  0.4017242E+002  0.9330003E+02  0.7546771E-02  0.1295051E+00
          2   -1    0    0  504    0 -0.00000000000E+00  0.00000000000E+00  0.14250756643E+04  0.14250756643E+04  0.00000000000E+00 0. -1.
         21   -1    0    0  505  502  0.00000000000E+00 -0.00000000000E+00 -0.21803398204E+03  0.21803398204E+03  0.00000000000E+00 0.  1.
         21    1    1    2  503  502  0.79851383569E+02  0.56932098429E+02 -0.14867112946E+03  0.17810281307E+03  0.00000000000E+00 0.  1.
         21    1    1    2  504  503 -0.84933849596E+02  0.26553074778E+01  0.46646004482E+02  0.96936366752E+02  0.00000000000E+00 0.  1.
         21    1    1    2  505  501 -0.24210264458E+02 -0.33400262311E+02 -0.14645997247E+02  0.43774646348E+02  0.00000000000E+00 0. -1.
          2    1    1    2  501    0  0.29292730484E+02 -0.26187143596E+02  0.13237128045E+04  0.13242958202E+04  0.00000000000E+00 0. -1.
<scales pt_clust_3="14000.00000" pt_clust_4="93.30003" pt_clust_5="42.20735" pt_clust_6="39.29161"></scales>
<clustering>
<clus scale="   39.292">  1  6  2 -1</clus>
<clus scale="   42.207">  1  5  2 -1</clus>
<clus scale="   93.300">  1  4  2 -1</clus>
<clus scale="   93.300">  2  3  1 -1</clus>
</clustering>
</event>
<event>
 6    0  0.4017242E+002  0.8604793E+02  0.7546771E-02  0.1312715E+00
         21   -1    0    0  503  502  0.00000000000E+00  0.00000000000E+00  0.88325690380E+02  0.88325690380E+02  0.00000000000E+00 0.  1.
          2   -1    0    0  505    0 -0.00000000000E+00 -0.00000000000E+00 -0.27859264846E+04  0.27859264846E+04  0.00000000000E+00 0.  1.
         21    1    1    2  503  501 -0.21092132822E+02  0.27943959983E+02 -0.59641337294E+02  0.69158022533E+02  0.00000000000E+00 0. -1.
         21    1    1    2  504  502  0.44966570673E+02  0.38599781450E+02  0.69302267100E+02  0.91185195242E+02  0.00000000000E+00 0.  1.
         21    1    1    2  505  504  0.70724726565E+02 -0.52327490471E+02 -0.95717961741E+03  0.96121432219E+03  0.00000000000E+00 0. -1.
          2    1    1    2  501    0 -0.94599164416E+02 -0.14216250962E+02 -0.17500821066E+04  0.17526946350E+04  0.00000000000E+00 0.  1.
<scales pt_clust_3="35.01061" pt_clust_4="69.94385" pt_clust_5="86.04793" pt_clust_6="14000.00000"></scales>
<clustering>
<clus scale="   35.011">  1  3  2 -1</clus>
<clus scale="   69.944">  1  4  2 -1</clus>
<clus scale="   86.048">  1  5  2 -1</clus>
<clus scale="   35.011">  1  3  2 -1</clus>
</clustering>
</event>
<event>
 6    0  0.4017242E+002  0.7466776E+02  0.7546771E-02  0.1344903E+00
         21   -1    0    0  503  502  0.00000000000E+00  0.00000000000E+00  0.93608389461E+02  0.93608389461E+02  0.00000000000E+00 0. -1.
          2   -1    0    0  504    0 -0.00000000000E+00 -0.00000000000E+00 -0.18039665001E+04  0.18039665001E+04  0.00000000000E+00 0. -1.
         21    1    1    2  503  505  0.68867894545E+02 -0.62323372468E+02  0.44661912017E+02  0.10306151580E+03  0.00000000000E+00 0. -1.
         21    1    1    2  504  502 -0.42465453760E+02  0.34851231659E+02 -0.62859948256E+02  0.83482310736E+02  0.00000000000E+00 0. -1.
         21    1    1    2  505  501 -0.23861278692E+02 -0.49902394946E+02 -0.81421068719E+02  0.98432718512E+02  0.00000000000E+00 0.  1.
          2    1    1    2  501    0 -0.25411620938E+01  0.77374535756E+02 -0.16107390057E+04  0.16125983446E+04  0.00000000000E+00 0. -1.
<scales pt_clust_3="44.28820" pt_clust_4="54.93563" pt_clust_5="74.66776" pt_clust_6="14000.00000"></scales>
<clustering>
<clus scale="   54.936">  1  4  2 -1</clus>
<clus scale="   44.288">  1  3  2 -1</clus>
<clus scale="   74.668">  1  5  2 -1</clus>
<clus scale="   54.936">  1  3  2 -1</clus>
</clustering>
</event>
<event>
 6    0  0.4017242E+002  0.2555143E+03  0.7546771E-02  0.1109869E+00
         21   -1    0    0  505  502  0.00000000000E+00  0.00000000000E+00  0.12478415740E+04  0.12478415740E+04  0.00000000000E+00 0.  1.
          2   -1    0    0  503    0 -0.00000000000E+00 -0.00000000000E+00 -0.67826886427E+03  0.67826886427E+03  0.00000000000E+00 0.  1.
         21    1    1    2  503  504  0.20024209292E+02  0.89319303759E+02  0.57378270931E+02  0.10803320303E+03  0.00000000000E+00 0.  1.
         21    1    1    2  504  502 -0.45817671447E+02  0.24703999963E+03  0.95774579967E+03  0.99015404721E+03  0.00000000000E+00 0.  1.
         21    1    1    2  505  501  0.64849074245E+02 -0.27633631029E+03  0.82065392420E+02  0.29546892806E+03  0.00000000000E+00 0.  1.
          2    1    1    2  501    0 -0.39055612090E+02 -0.60022993102E+02 -0.52761675332E+03  0.53245425994E+03  0.00000000000E+00 0.  1.
<scales pt_clust_3="80.18299" pt_clust_4="255.51425" pt_clust_5="14000.00000" pt_clust_6="71.61076"></scales>
<clustering>
<clus scale="   71.611">  2  6  1 -1</clus>
<clus scale="   80.183">  2  3  1 -1</clus>
<clus scale="  255.514">  1  4  2 -1</clus>
<clus scale="  255.514">  1  3  2 -1</clus>
</clustering>
</event>
<event>
 6    0  0.4017242E+002  0.9150756E+02  0.7546771E-02  0.1299241E+00
          1   -1    0    0  504    0 -0.00000000000E+00  0.00000000000E+00  0.19644552162E+03  0.19644552162E+03  0.00000000000E+00 0. -1.
         21   -1    0    0  505  502  0.00000000000E+00 -0.00000000000E+00 -0.27256351577E+03  0.27256351577E+03  0.00000000000E+00 0.  1.
         21    1    1    2  503  502  0.13034998723E+03  0.37836767931E+02 -0.34287945507E+02  0.13999429769E+03  0.00000000000E+00 0.  1.
         21    1    1    2  504  503 -0.31786132611E+02  0.57498820954E+02  0.85248403058E+01  0.66250626711E+02  0.00000000000E+00 0.  1.
         21    1    1    2  505  501 -0.44040546883E+02 -0.50702766292E+02 -0.13610813673E+03  0.15177537733E+03  0.00000000000E+00 0.  1.
          1    1    1    2  501    0 -0.54523307736E+02 -0.44632822593E+02  0.85753247777E+02  0.11098873566E+03  0.00000000000E+00 0. -1.
<scales pt_clust_3="14000.00000" pt_clust_4="65.69987" pt_clust_5="66.11759" pt_clust_6="91.50756"></scales>
<clustering>
<clus scale="   65.700">  1  4  2 -1</clus>
<clus scale="   66.118">  2  5  1 -1</clus>
<clus scale="   91.508">  1  6  2 -1</clus>
<clus scale="   66.118">  2  3  1 -1</clus>
</clustering>
</event>
<event>
 6    0  0.4017242E+002  0.1111380E+03  0.7546771E-02  0.1258477E+00
          2   -1    0    0  505    0 -0.00000000000E+00  0.00000000000E+00  0.34152511500E+04  0.34152511500E+04  0.00000000000E+00 0.  1.
         21   -1    0    0  503  502  0.00000000000E+00 -0.00000000000E+00 -0.60268180548E+02  0.60268180548E+02  0.00000000000E+00 0. -1.
         21    1    1    2  503  501 -0.76528199468E+02 -0.65531672045E+02  0.10837098278E+03  0.14797038644E+03  0.00000000000E+00 0. -1.
         21    1    1    2  504  502  0.37019773776E+02  0.62502002205E+01 -0.23341230220E+02  0.44207936860E+02  0.00000000000E+00 0. -1.
         21    1    1    2  505  504 -0.64269696164E+02  0.17350944949E+02  0.18946323936E+03  0.20081824669E+03  0.00000000000E+00 0. -1.
          2    1    1    2  501    0  0.10377812186E+03  0.41930526876E+02  0.30804899775E+04  0.30825227605E+04  0.00000000000E+00 0.  1.
<scales pt_clust_3="14000.00000" pt_clust_4="37.54369" pt_clust_5="59.35593" pt_clust_6="111.13795"></scales>
<clustering>
<clus scale="   37.544">  2  4  1 -1</clus>
<clus scale="   59.356">  2  5  1 -1</clus>
<clus scale="  111.138">  1  6  2 -1</clus>
<clus scale="   37.544">  2  3  1 -1</clus>
</clustering>
</event>
<event>
 6    0  0.4017242E+002  0.9484393E+02  0.7546771E-02  0.1291528E+00
         21   -1    0    0  504  502  0.00000000000E+00  0.00000000000E+00  0.45437127838E+02  0.45437127838E+02  0.00000000000E+00 0. -1.
          2   -1    0    0  505    0 -0.00000000000E+00 -0.00000000000E+00 -0.99290292159E+03  0.99290292159E+03  0.00000000000E+00 0. -1.
         21    1    1    2  503  502  0.25040295501E+02 -0.33842612988E+02 -0.60577718785E+02  0.73769904879E+02  0.00000000000E+00 0. -1.
         21    1    1    2  504  501 -0.64421448604E+02  0.50218171712E+02 -0.40599593527E+02  0.91215759630E+02  0.00000000000E+00 0. -1.
         21    1    1    2  505  503 -0.19598003263E+02 -0.72254208740E+02 -0.11282001128E+03  0.13539980561E+03  0.00000000000E+00 0. -1.
          2    1    1    2  501    0  0.58979156365E+02  0.55878650016E+02 -0.73346847016E+03  0.73795457932E+03  0.00000000000E+00 0. -1.
<scales pt_clust_3="36.72962" pt_clust_4="81.21779" pt_clust_5="36.72962" pt_clust_6="81.24632"></scales>
<clustering>
<clus scale="   36.730">  3  5 -1 -1</clus>
<clus scale="   81.246">  2  6  1 -1</clus>
<clus scale="   81.218">  1  4  2 -1</clus>
<clus scale="   81.218">  1  3  2 -1</clus>
</clustering>
</event>
<event>
 6    0  0.4017242E+002  0.7398332E+02  0.7546771E-02  0.1347049E+00
         -4   -1    0    0    0  501 -0.00000000000E+00  0.00000000000E+00  0.20786966535E+04  0.20786966535E+04  0.00000000000E+00 0. -1.
         21   -1    0    0  505  502  0.00000000000E+00 -0.00000000000E+00 -0.10803380321E+03  0.10803380321E+03  0.00000000000E+00 0. -1.
         21    1    1    2  503  502  0.36987616870E+01 -0.30976766490E+02 -0.33012513525E+02  0.45420996791E+02  0.00000000000E+00 0.  1.
         21    1    1    2  504  503 -0.27289204171E+02 -0.32231266885E+02 -0.10036670548E+02  0.43408409151E+02  0.00000000000E+00 0. -1.
         21    1    1    2  505  501  0.33337461402E+02  0.13546481573E+03  0.76090798227E+02  0.15890850263E+03  0.00000000000E+00 0. -1.
         -4    1    1    2    0  504 -0.97470189172E+01 -0.72256782354E+02  0.19376212361E+04  0.19389925481E+04  0.00000000000E+00 0. -1.
<scales pt_clust_3="31.19681" pt_clust_4="51.25735" pt_clust_5="73.98332" pt_clust_6="14000.00000"></scales>
<clustering>
<clus scale="   31.197">  2  3  1 -1</clus>
<clus scale="   51.257">  2  4  1 -1</clus>
<clus scale="   73.983">  2  5  1 -1</clus>
<clus scale="   31.197">  2  3  1 -1</clus>
</clustering>
</event>
<event>
 6    0  0.4017242E+002  0.1289747E+03  0.7546771E-02  0.1228985E+00
         21   -1    0    0  504  502  0.00000000000E+00  0.00000000000E+00  0.12387618010E+04  0.12387618010E+04  0.00000000000E+00 0. -1.
         -1   -1    0    0    0  501 -0.00000000000E+00 -0.00000000000E+00 -0.93455594420E+02  0.93455594420E+02  0.00000000000E+00 0.  1.
         21    1    1    2  503  502 -0.51958138476E+02  0.18353048134E+01  0.17376512701E+03  0.18137622739E+03  0.00000000000E+00 0. -1.
         21    1    1    2  504  505  0.11755385637E+03  0.34702643310E+01  0.81280224598E+03  0.82126636541E+03  0.00000000000E+00 0. -1.
         21    1    1    2  505  501  0.52335321225E+02 -0.31846660176E+00  0.19829605132E+03  0.20508635069E+03  0.00000000000E+00 0.  1.
         -1    1    1    2    0  503 -0.11793103912E+03 -0.49871025427E+01 -0.39557217764E+02  0.12448845190E+03  0.00000000000E+00 0.  1.
<scales pt_clust_3="51.99054" pt_clust_4="31.34546" pt_clust_5="31.34546" pt_clust_6="120.11079"></scales>
<clustering>
<clus scale="   31.345">  4  5 -1 -1</clus>
<clus scale="   51.991">  1  3  2 -1</clus>
<clus scale="  120.111">  2  6  1 -1</clus>
<clus scale="   51.991">  1  3  2 -1</clus>
</clustering>
</event>
<event>
 6    0  0.4017242E+002  0.1286015E+03  0.7546771E-02  0.1229546E+00
          1   -1    0    0  502    0 -0.00000000000E+00  0.00000000000E+00  0.16260354732E+04  0.16260354732E+04  0.00000000000E+00 0.  1.
         21   -1    0    0  504  502  0.00000000000E+00 -0.00000000000E+00 -0.17791304483E+03  0.17791304483E+03  0.00000000000E+00 0.  1.
         21    1    1    2  503  505 -0.14759582467E+02 -0.84662180910E+02  0.70910034709E+02  0.11141706859E+03  0.00000000000E+00 0.  1.
         21    1    1    2  504  503 -0.36603214908E+02  0.14628799924E+03 -0.94790353341E+02  0.17811565105E+03  0.00000000000E+00 0.  1.
         21    1    1    2  505  501  0.50926293613E+02 -0.13173255715E+02  0.12445817354E+02  0.54054790878E+02  0.00000000000E+00 0.  1.
          1    1    1    2  501    0  0.43650376173E+00 -0.48452562619E+02  0.14595569296E+04  0.14603610075E+04  0.00000000000E+00 0.  1.
<scales pt_clust_3="128.60151" pt_clust_4="14000.00000" pt_clust_5="55.90720" pt_clust_6="48.45453"></scales>
<clustering>
<clus scale="   48.455">  1  6  2 -1</clus>
<clus scale="   55.907">  1  5  2 -1</clus>
<clus scale="  128.602">  1  3  2 -1</clus>
<clus scale="  128.602">  2  3  1 -1</clus>
</clustering>
</event>
<event>
 6    0  0.4017242E+002  0.9601298E+02  0.7546771E-02  0.1288911E+00
         21   -1    0    0  505  502  0.00000000000E+00  0.00000000000E+00  0.88544959442E+02  0.88544959442E+02  0.00000000000E+00 0. -1.
          2   -1    0    0  504    0 -0.00000000000E+00 -0.00000000000E+00 -0.15665135125E+04  0.15665135125E+04  0.00000000000E+00 0. -1.
         21    1    1    2  503  502 -0.55888499119E+02 -0.75169953449E+02 -0.28839517186E+03  0.30322569381E+03  0.00000000000E+00 0. -1.
         21    1    1    2  504  503 -0.78886701495E+01 -0.31520099059E+02 -0.24061365320E+03  0.24279760680E+03  0.00000000000E+00 0.  1.
         21    1    1    2  505  501  0.30779316264E+02  0.41499624347E+02  0.70252858727E+02  0.87206933726E+02  0.00000000000E+00 0. -1.
          2    1    1    2  501    0  0.32997853005E+02  0.65190428161E+02 -0.10192125867E+04  0.10218282376E+04  0.00000000000E+00 0. -1.
<scales pt_clust_3="31.39145" pt_clust_4="31.39145" pt_clust_5="51.66803" pt_clust_6="79.86037"></scales>
<clustering>
<clus scale="   31.391">  3  4 -1 -1</clus>
<clus scale="   51.668">  1  5  2 -1</clus>
<clus scale="   79.860">  2  6  1 -1</clus>
<clus scale="   51.668">  1  3  2 -1</clus>
</clustering>
</event>
<event>
 6    0  0.4017242E+002  0.7496344E+02  0.7546771E-02  0.1343984E+00
         21   -1    0    0  505  502  0.00000000000E+00  0.00000000000E+00  0.72065394696E+02  0.72065394696E+02  0.00000000000E+00 0. -1.
          1   -1    0    0  504    0 -0.00000000000E+00 -0.00000000000E+00 -0.62239032608E+03  0.62239032608E+03  0.00000000000E+00 0. -1.
         21    1    1    2  503  502  0.94465359550E+02  0.18536108832E+02 -0.11821417549E+03  0.15245288706E+03  0.00000000000E+00 0. -1.
         21    1    1    2  504  503  0.22330820696E+02 -0.47363581928E+02 -0.23779487546E+03  0.24349204759E+03  0.00000000000E+00 0. -1.
         21    1    1    2  505  501 -0.38690426054E+02  0.50460694214E+01  0.36654376406E+02  0.53534616787E+02  0.00000000000E+00 0. -1.
          1    1    1    2  501    0 -0.78105754192E+02  0.23781403675E+02 -0.23097025684E+03  0.24497616934E+03  0.00000000000E+00 0. -1.
<scales pt_clust_3="74.96344" pt_clust_4="50.25901" pt_clust_5="39.01810" pt_clust_6="14000.00000"></scales>
<clustering>
<clus scale="   39.018">  1  5  2 -1</clus>
<clus scale="   50.259">  2  4  1 -1</clus>
<clus scale="   74.963">  1  3  2 -1</clus>
<clus scale="   39.018">  1  3  2 -1</clus>
</clustering>
</event>
<event>
 6    0  0.4017242E+002  0.1188717E+03  0.7546771E-02  0.1244970E+00
         21   -1    0    0  503  502  0.00000000000E+00  0.00000000000E+00  0.67124242302E+02  0.67124242302E+02  0.00000000000E+00 0. -1.
          1   -1    0    0  504    0 -0.00000000000E+00 -0.00000000000E+00 -0.30652053356E+04  0.30652053356E+04  0.00000000000E+00 0.  1.
         21    1    1    2  503  501  0.10038766061E+03 -0.47770087689E+02 -0.15514919436E+02  0.11225139823E+03  0.00000000000E+00 0. -1.
         21    1    1    2  504  505 -0.12948746536E+03  0.24739198616E+02 -0.30742038847E+03  0.33449413579E+03  0.00000000000E+00 0. -1.
         21    1    1    2  505  502 -0.77377399507E+01 -0.30711531484E+02 -0.47261675317E+02  0.56892325839E+02  0.00000000000E+00 0. -1.
          1    1    1    2  501    0  0.36837544704E+02  0.53742420557E+02 -0.26278841101E+04  0.26286917180E+04  0.00000000000E+00 0.  1.
<scales pt_clust_3="14000.00000" pt_clust_4="118.87166" pt_clust_5="31.67129" pt_clust_6="64.96312"></scales>
<clustering>
<clus scale="   31.671">  1  5  2 -1</clus>
<clus scale="   64.963">  2  6  1 -1</clus>
<clus scale="  118.872">  2  4  1 -1</clus>
<clus scale="   31.671">  1  3  2 -1</clus>
</clustering>
</event>
<event>
 6    0  0.4017242E+002  0.1353482E+03  0.7546771E-02  0.1219729E+00
         21   -1    0    0  501  502  0.00000000000E+00  0.00000000000E+00  0.88547024425E+02  0.88547024425E+02  0.00000000000E+00 0. -1.
          1   -1    0    0  504    0 -0.00000000000E+00 -0.00000000000E+00 -0.24586565249E+04  0.24586565249E+04  0.00000000000E+00 0.  1.
         21    1    1    2  503  502  0.92988628147E+02 -0.75280769645E+02  0.32909236986E+02  0.12408503988E+03  0.00000000000E+00 0. -1.
         21    1    1    2  504  505 -0.44752158164E+02  0.28447971282E+02 -0.31737194611E+03  0.32177165026E+03  0.00000000000E+00 0.  1.
         21    1    1    2  505  503 -0.43549259073E+02  0.84933152385E+02 -0.29027346409E+03  0.30556318871E+03  0.00000000000E+00 0.  1.
          1    1    1    2  501    0 -0.46872109101E+01 -0.38100354022E+02 -0.17953733273E+04  0.17957836705E+04  0.00000000000E+00 0.  1.
<scales pt_clust_3="121.05992" pt_clust_4="46.41894" pt_clust_5="46.41894" pt_clust_6="38.38759"></scales>
<clustering>
<clus scale="   38.388">  2  6  1 -1</clus>
<clus scale="   46.419">  4  5 -1 -1</clus>
<clus scale="  121.060">  1  3  2 -1</clus>
<clus scale="  121.060">  1  3  2 -1</clus>
</clustering>
</event>
<event>
 6    0  0.4017242E+002  0.1582094E+03  0.7546771E-02  0.1190733E+00
         21   -1    0    0  503  502  0.00000000000E+00  0.00000000000E+00  0.15622914742E+02  0.15622914742E+02  0.00000000000E+00 0.  1.
          3   -1    0    0  505    0 -0.00000000000E+00 -0.00000000000E+00 -0.18813726647E+04  0.18813726647E+04  0.00000000000E+00 0.  1.
         21    1    1    2  503  501  0.13058616907E+02  0.29304027044E+02 -0.52483112787E+02  0.61512036256E+02  0.00000000000E+00 0.  1.
         21    1    1    2  504  502 -0.40807761011E+02 -0.26506459402E+02 -0.23780222452E+03  0.24272981633E+03  0.00000000000E+00 0.  1.
         21    1    1    2  505  504 -0.48124258584E+02 -0.86548184029E+02 -0.10816375455E+04  0.10861612736E+04  0.00000000000E+00 0.  1.
          3    1    1    2  501    0  0.75873402688E+02  0.83750616387E+02 -0.49382686714E+03  0.50659245325E+03  0.00000000000E+00 0.  1.
<scales pt_clust_3="31.95928" pt_clust_4="46.17996" pt_clust_5="46.17996" pt_clust_6="155.84645"></scales>
<clustering>
<clus scale="   31.959">  3  6 -1 -1</clus>
<clus scale="   46.180">  4  5 -1 -1</clus>
<clus scale="  155.846">  1  3  2 -1</clus>
<clus scale="  155.846">  1  3  2 -1</clus>
</clustering>
</event>
<event>
 6    0  0.4017242E+002  0.8538616E+02  0.7546771E-02  0.1314426E+00
          2   -1    0    0  504    0 -0.00000000000E+00  0.00000000000E+00  0.32011455928E+04  0.32011455928E+04  0.00000000000E+00 0.  1.
         21   -1    0    0  505  502  0.00000000000E+00 -0.00000000000E+00 -0.66803279514E+02  0.66803279514E+02  0.00000000000E+00 0.  1.
         21    1    1    2  503  501 -0.12650541264E+02 -0.81875788086E+02  0.18667973776E+03  0.20423761985E+03  0.00000000000E+00 0.  1.
         21    1    1    2  504  502 -0.56822329590E+02  0.91682505178E+02  0.31827937939E+03  0.33605984920E+03  0.00000000000E+00 0.  1.
         21    1    1    2  505  503  0.25438347338E+02 -0.56057650038E+02 -0.29317265024E+02  0.68184101311E+02  0.00000000000E+00 0.  1.
          2    1    1    2  501    0  0.44034523516E+02  0.46250932946E+02  0.26587004611E+04  0.26594673020E+04  0.00000000000E+00 0.  1.
<scales pt_clust_3="85.38616" pt_clust_4="14000.00000" pt_clust_5="61.55948" pt_clust_6="63.38254"></scales>
<clustering>
<clus scale="   61.559">  2  5  1 -1</clus>
<clus scale="   63.383">  1  6  2 -1</clus>
<clus scale="   85.386">  1  3  2 -1</clus>
<clus scale="   61.559">  2  3  1 -1</clus>
</clustering>
</event>
<event>
 6    0  0.4017242E+002  0.2264446E+03  0.7546771E-02  0.1129167E+00
          2   -1    0    0  503    0 -0.00000000000E+00  0.00000000000E+00  0.89955882137E+03  0.89955882137E+03  0.00000000000E+00 0. -1.
         21   -1    0    0  504  502  0.00000000000E+00 -0.00000000000E+00 -0.19649252076E+04  0.19649252076E+04  0.00000000000E+00 0. -1.
         21    1    1    2  503  505  0.31048486864E+02 -0.62851081350E+02 -0.11676511441E+02  0.71067628938E+02  0.00000000000E+00 0.  1.
         21    1    1    2  504  501 -0.19122257698E+03  0.21544940578E+03 -0.89255367766E+03  0.93788943267E+03  0.00000000000E+00 0. -1.
         21    1    1    2  505  502  0.27299991106E+02  0.29540563707E+02 -0.99291764627E+03  0.99373204974E+03  0.00000000000E+00 0.  1.
          2    1    1    2  501    0  0.13287409901E+03 -0.18213888814E+03  0.83178144918E+03  0.86179491758E+03  0.00000000000E+00 0. -1.
<scales pt_clust_3="69.50733" pt_clust_4="226.44465" pt_clust_5="40.22356" pt_clust_6="14000.00000"></scales>
<clustering>
<clus scale="   40.224">  2  5  1 -1</clus>
<clus scale="   69.507">  2  3  1 -1</clus>
<clus scale="  226.445">  2  4  1 -1</clus>
<clus scale="   40.224">  2  3  1 -1</clus>
</clustering>
</event>
<event>
 6    0  0.4017242E+002  0.1054710E+03  0.7546771E-02  0.1269194E+00
         21   -1    0    0  505  502  0.00000000000E+00  0.00000000000E+00  0.14698900209E+03  0.14698900209E+03  0.00000000000E+00 0. -1.
          2   -1    0    0  503    0 -0.00000000000E+00 -0.00000000000E+00 -0.24863169813E+04  0.24863169813E+04  0.00000000000E+00 0.  1.
         21    1    1    2  503  502  0.30165233295E+02  0.16658667995E+02  0.38607510344E+02  0.51749322450E+02  0.00000000000E+00 0. -1.
         21    1    1    2  504  501 -0.11132320382E+03  0.11520953544E+03 -0.12905355138E+03  0.20572047027E+03  0.00000000000E+00 0. -1.
         21    1    1    2  505  504  0.94476858061E+01 -0.10010830430E+03  0.22550011829E+02  0.10305063994E+03  0.00000000000E+00 0. -1.
          2    1    1    2  501    0  0.71710284717E+02 -0.31759899127E+02 -0.22714319500E+04  0.22727855507E+04  0.00000000000E+00 0.  1.
<scales pt_clust_3="34.45943" pt_clust_4="14000.00000" pt_clust_5="105.47100" pt_clust_6="78.56739"></scales>
<clustering>
<clus scale="   34.459">  1  3  2 -1</clus>
<clus scale="   78.567">  2  6  1 -1</clus>
<clus scale="  105.471">  1  5  2 -1</clus>
<clus scale="   34.459">  1  3  2 -1</clus>
</clustering>
</event>
<event>
 6    0  0.4017242E+002  0.1254737E+03  0.7546771E-02  0.1234331E+00
          2   -1    0    0  504    0 -0.00000000000E+00  0.00000000000E+00  0.66474605182E+03  0.66474605182E+03  0.00000000000E+00 0. -1.
         21   -1    0    0  503  502  0.00000000000E+00 -0.00000000000E+00 -0.33630041635E+03  0.33630041635E+03  0.00000000000E+00 0. -1.
         21    1    1    2  503  501  0.74599665978E+02 -0.41661271237E+02 -0.46166268225E+02  0.97118978613E+02  0.00000000000E+00 0.  1.
         21    1    1    2  504  505 -0.34237325801E+02  0.29961262365E+02  0.49953746824E+02  0.67566622989E+02  0.00000000000E+00 0. -1.
         21    1    1    2  505  502  0.43917143680E+02 -0.28099429827E+02 -0.24939705222E+03  0.25478850665E+03  0.00000000000E+00 0. -1.
          2    1    1    2  501    0 -0.84279483858E+02  0.39799438699E+02  0.57405520909E+03  0.58157235991E+03  0.00000000000E+00 0. -1.
<scales pt_clust_3="14000.00000" pt_clust_4="45.49584" pt_clust_5="51.93714" pt_clust_6="125.47371"></scales>
<clustering>
<clus scale="   45.496">  1  4  2 -1</clus>
<clus scale="   51.937">  2  5  1 -1</clus>
<clus scale="  125.474">  1  6  2 -1</clus>
<clus scale="   51.937">  2  3  1 -1</clus>
</clustering>
</event>
<event>
 6    0  0.4017242E+002  0.1327176E+03  0.7546771E-02  0.1223478E+00
          2   -1    0    0  502    0 -0.00000000000E+00  0.00000000000E+00  0.17227752327E+04  0.17227752327E+04  0.00000000000E+00 0. -1.
         21   -1    0    0  504  502  0.00000000000E+00 -0.00000000000E+00 -0.10847873572E+04  0.10847873572E+04  0.00000000000E+00 0. -1.
         21    1    1    2  503  505  0.64867058956E+02  0.15422423740E+02 -0.21285312216E+03  0.22305164896E+03  0.00000000000E+00 0. -1.
         21    1    1    2  504  503 -0.35788037684E+02  0.11719176104E+02 -0.37501628021E+03  0.37690228595E+03  0.00000000000E+00 0. -1.
         21    1    1    2  505  501  0.94407865040E+02 -0.67808584359E+01 -0.48400453374E+03  0.49317260032E+03  0.00000000000E+00 0. -1.
          2    1    1    2  501    0 -0.12348688631E+03 -0.20360741408E+02  0.17098618116E+04  0.17144360547E+04  0.00000000000E+00 0. -1.
<scales pt_clust_3="36.80907" pt_clust_4="37.65797" pt_clust_5="36.80907" pt_clust_6="125.26199"></scales>
<clustering>
<clus scale="   36.809">  3  5 -1 -1</clus>
<clus scale="   37.658">  2  4  1 -1</clus>
<clus scale="  125.262">  1  6  2 -1</clus>
<clus scale="   37.658">  2  3  1 -1</clus>
</clustering>
</event>
<event>
 6    0  0.4017242E+002  0.1817226E+03  0.7546771E-02  0.1166146E+00
         21   -1    0    0  504  502  0.00000000000E+00  0.00000000000E+00  0.14571029598E+03  0.14571029598E+03  0.00000000000E+00 0.  1.
          1   -1    0    0  503    0 -0.00000000000E+00 -0.00000000000E+00 -0.30711703265E+04  0.30711703265E+04  0.00000000000E+00 0. -1.
         21    1    1    2  503  502  0.20874532721E+02 -0.60085009179E+02 -0.35915598322E+02  0.73047139897E+02  0.00000000000E+00 0.  1.
         21    1    1    2  504  505  0.18433105543E+02  0.10385152343E+03  0.22722571647E+01  0.10549920118E+03  0.00000000000E+00 0.  1.
         21    1    1    2  505  501 -0.21909619548E+03 -0.30404872207E+02 -0.10353026192E+03  0.24422553974E+03  0.00000000000E+00 0.  1.
          1    1    1    2  501    0  0.17978855722E+03 -0.13361642041E+02 -0.27882864275E+04  0.27941087417E+04  0.00000000000E+00 0. -1.
<scales pt_clust_3="63.60782" pt_clust_4="82.99796" pt_clust_5="181.72261" pt_clust_6="14000.00000"></scales>
<clustering>
<clus scale="   63.608">  1  3  2 -1</clus>
<clus scale="   82.998">  1  4  2 -1</clus>
<clus scale="  181.723">  1  5  2 -1</clus>
<clus scale="   63.608">  1  3  2 -1</clus>
</clustering>
</event>
<event>
 6    0  0.4017242E+002  0.1007762E+03  0.7546771E-02  0.1278672E+00
         21   -1    0    0  503  502  0.00000000000E+00  0.00000000000E+00  0.94682714446E+02  0.94682714446E+02  0.00000000000E+00 0. -1.
          2   -1    0    0  502    0 -0.00000000000E+00 -0.00000000000E+00 -0.93822617978E+03  0.93822617978E+03  0.00000000000E+00 0. -1.
         21    1    1    2  503  504 -0.86501370838E+02 -0.71046455968E+02  0.45513705865E+02  0.12083701206E+03  0.00000000000E+00 0. -1.
         21    1    1    2  504  505  0.59271811153E+02  0.17134692585E+02 -0.14027785002E+03  0.15324692654E+03  0.00000000000E+00 0. -1.
         21    1    1    2  505  501 -0.88671413658E+01  0.57629292607E+02 -0.18710607944E+03  0.19598072999E+03  0.00000000000E+00 0. -1.
          2    1    1    2  501    0  0.36096701051E+02 -0.37175292231E+01 -0.56167324174E+03  0.56284422565E+03  0.00000000000E+00 0. -1.
<scales pt_clust_3="100.77623" pt_clust_4="14000.00000" pt_clust_5="56.54303" pt_clust_6="36.28763"></scales>
<clustering>
<clus scale="   36.288">  2  6  1 -1</clus>
<clus scale="   56.543">  2  5  1 -1</clus>
<clus scale="  100.776">  1  3  2 -1</clus>
<clus scale="  100.776">  1  3  2 -1</clus>
</clustering>
</event>
<event>
 6    0  0.4017242E+002  0.1240659E+03  0.7546771E-02  0.1236536E+00
          2   -1    0    0  504    0 -0.00000000000E+00  0.00000000000E+00  0.85962040421E+03  0.85962040421E+03  0.00000000000E+00 0. -1.
         21   -1    0    0  505  502  0.00000000000E+00 -0.00000000000E+00 -0.81687875856E+03  0.81687875856E+03  0.00000000000E+00 0. -1.
         21    1    1    2  503  502  0.72710302474E+00 -0.83697734605E+02 -0.31418469447E+03  0.32514283276E+03  0.00000000000E+00 0. -1.
         21    1    1    2  504  503  0.14585748421E+02  0.14650170107E+03 -0.39932342853E+03  0.42559921646E+03  0.00000000000E+00 0. -1.
         21    1    1    2  505  501 -0.45161308834E+02  0.57446670372E+02 -0.63432052417E+02  0.96764089549E+02  0.00000000000E+00 0.  1.
          2    1    1    2  501    0  0.29848457389E+02 -0.12025063684E+03  0.81968182106E+03  0.82899302400E+03  0.00000000000E+00 0. -1.
<scales pt_clust_3="61.72758" pt_clust_4="14000.00000" pt_clust_5="73.07300" pt_clust_6="124.06586"></scales>
<clustering>
<clus scale="   73.073">  2  5  1 -1</clus>
<clus scale="   61.728">  2  3  1 -1</clus>
<clus scale="  124.066">  1  6  2 -1</clus>
<clus scale="   73.073">  2  3  1 -1</clus>
</clustering>
</event>
<event>
 6    0  0.4017242E+002  0.1984868E+03  0.7546771E-02  0.1151022E+00
         21   -1    0    0  504  502  0.00000000000E+00  0.00000000000E+00  0.18873190941E+04  0.18873190941E+04  0.00000000000E+00 0. -1.
          2   -1    0    0  505    0 -0.00000000000E+00 -0.00000000000E+00 -0.98116279885E+03  0.98116279885E+03  0.00000000000E+00 0.  1.
         21    1    1    2  503  501  0.14245841793E+02 -0.67770563430E+02 -0.51375517290E+02  0.86227820643E+02  0.00000000000E+00 0.  1.
         21    1    1    2  504  503 -0.51677023914E+02 -0.63401191308E+02 -0.10497742486E+03  0.13308074838E+03  0.00000000000E+00 0.  1.
         21    1    1    2  505  502 -0.21181926185E+02  0.18562480149E+03  0.18491050081E+04  0.18585194570E+04  0.00000000000E+00 0. -1.
          2    1    1    2  501    0  0.58613108307E+02 -0.54453046754E+02 -0.78659577073E+03  0.79065386693E+03  0.00000000000E+00 0.  1.
<scales pt_clust_3="65.34229" pt_clust_4="65.34229" pt_clust_5="185.34865" pt_clust_6="80.00394"></scales>
<clustering>
<clus scale="   65.342">  3  4 -1 -1</clus>
<clus scale="   80.004">  2  6  1 -1</clus>
<clus scale="  185.349">  1  5  2 -1</clus>
<clus scale="  185.349">  1  3  2 -1</clus>
</clustering>
</event>
<event>
 6    0  0.4017242E+002  0.9388973E+02  0.7546771E-02  0.1293696E+00
         21   -1    0    0  503  502  0.00000000000E+00  0.00000000000E+00  0.39488933339E+03  0.39488933339E+03  0.00000000000E+00 0. -1.
          4   -1    0    0  502    0 -0.00000000000E+00 -0.00000000000E+00 -0.17683556510E+03  0.17683556510E+03  0.00000000000E+00 0.  1.
         21    1    1    2  503  505 -0.51599738909E+02  0.26346099933E+02  0.16561828913E+03  0.17545959002E+03  0.00000000000E+00 0. -1.
         21    1    1    2  504  501  0.14290829552E+03  0.89451828810E+01 -0.22301883414E+02  0.14491435826E+03  0.00000000000E+00 0. -1.
         21    1    1    2  505  504 -0.39509098424E+02 -0.61184364861E+02  0.14381776359E+03  0.16120807823E+03  0.00000000000E+00 0. -1.
          4    1    1    2  501    0 -0.51799458185E+02  0.25893082047E+02 -0.69080401015E+02  0.90142871990E+02  0.00000000000E+00 0.  1.
<scales pt_clust_3="60.86744" pt_clust_4="14000.00000" pt_clust_5="93.88973" pt_clust_6="57.91058"></scales>
<clustering>
<clus scale="   57.911">  2  6  1 -1</clus>
<clus scale="   60.867">  1  3  2 -1</clus>
<clus scale="   93.890">  1  5  2 -1</clus>
<clus scale="   60.867">  1  3  2 -1</clus>
</clustering>
</event>
<event>
 6    0  0.4017242E+002  0.3603240E+03  0.7546771E-02  0.1058456E+00
          2   -1    0    0  504    0 -0.00000000000E+00  0.00000000000E+00  0.38686562734E+03  0.38686562734E+03  0.00000000000E+00 0. -1.
         21   -1    0    0  505  502  0.00000000000E+00 -0.00000000000E+00 -0.13462893656E+04  0.13462893656E+04  0.00000000000E+00 0. -1.
         21    1    1    2  503  501 -0.70628023720E+02  0.25720303333E+02 -0.38381402342E+03  0.39110491727E+03  0.00000000000E+00 0.  1.
         21    1    1    2  504  502  0.31739465413E+03 -0.93939060603E+02 -0.54812080982E+02  0.33551196372E+03  0.00000000000E+00 0. -1.
         21    1    1    2  505  503 -0.24432012485E+03  0.13106615119E+03 -0.73380649739E+03  0.78443778275E+03  0.00000000000E+00 0. -1.
          2    1    1    2  501    0 -0.24465055623E+01 -0.62847393923E+02  0.21300886350E+03  0.22210032923E+03  0.00000000000E+00 0. -1.
<scales pt_clust_3="49.53473" pt_clust_4="347.53805" pt_clust_5="49.53473" pt_clust_6="62.89499"></scales>
<clustering>
<clus scale="   49.535">  3  5 -1 -1</clus>
<clus scale="   62.895">  1  6  2 -1</clus>
<clus scale="  347.538">  1  4  2 -1</clus>
<clus scale="  360.324">  2  3  1 -1</clus>
</clustering>
</event>
<event>
 6    0  0.4017242E+002  0.1746320E+03  0.7546771E-02  0.1173102E+00
         21   -1    0    0  503  502  0.00000000000E+00  0.00000000000E+00  0.96771899767E+03  0.96771899767E+03  0.00000000000E+00 0. -1.
          1   -1    0    0  505    0 -0.00000000000E+00 -0.00000000000E+00 -0.12885710292E+04  0.12885710292E+04  0.00000000000E+00 0.  1.
         21    1    1    2  503  501  0.52915198817E+02  0.23084187188E+03 -0.27512586204E+03  0.36301821999E+03  0.00000000000E+00 0.  1.
         21    1    1    2  504  502 -0.38230196021E+02 -0.16876084920E+03  0.90659323571E+03  0.92295886536E+03  0.00000000000E+00 0. -1.
         21    1    1    2  505  504  0.26150975821E+02 -0.22422916082E+02 -0.28410743284E+02  0.44652335169E+02  0.00000000000E+00 0.  1.
          1    1    1    2  501    0 -0.40835978618E+02 -0.39658106598E+02 -0.92390866195E+03  0.92566060637E+03  0.00000000000E+00 0.  1.
<scales pt_clust_3="174.63198" pt_clust_4="14000.00000" pt_clust_5="34.44794" pt_clust_6="60.19826"></scales>
<clustering>
<clus scale="   34.448">  2  5  1 -1</clus>
<clus scale="   60.198">  2  6  1 -1</clus>
<clus scale="  174.632">  2  3  1 -1</clus>
<clus scale="  174.632">  1  3  2 -1</clus>
</clustering>
</event>
<event>
 6    0  0.4017242E+002  0.9198895E+02  0.7546771E-02  0.1298105E+00
          1   -1    0    0  504    0 -0.00000000000E+00  0.00000000000E+00  0.18691046862E+03  0.18691046862E+03  0.00000000000E+00 0.  1.
         21   -1    0    0  503  502  0.00000000000E+00 -0.00000000000E+00 -0.40043043701E+03  0.40043043701E+03  0.00000000000E+00 0. -1.
         21    1    1    2  503  501 -0.96167896060E+01  0.42073932311E+02 -0.11033297749E+03  0.11847389731E+03  0.00000000000E+00 0. -1.
         21    1    1    2  504  505 -0.75495390619E+01  0.53236573580E+02  0.61318604509E+01  0.54117723707E+02  0.00000000000E+00 0. -1.
         21    1    1    2  505  502  0.35391301897E+02 -0.14145476809E+03 -0.23672166471E+03  0.27802723286E+03  0.00000000000E+00 0. -1.
          1    1    1    2  501    0 -0.18224973229E+02  0.46144262203E+02  0.12740281337E+03  0.13672205176E+03  0.00000000000E+00 0.  1.
<scales pt_clust_3="43.15899" pt_clust_4="91.98895" pt_clust_5="14000.00000" pt_clust_6="50.30809"></scales>
<clustering>
<clus scale="   43.159">  2  3  1 -1</clus>
<clus scale="   50.308">  1  6  2 -1</clus>
<clus scale="   91.989">  1  4  2 -1</clus>
<clus scale="   43.159">  2  3  1 -1</clus>
</clustering>
</event>
<event>
 6    0  0.4017242E+002  0.1047708E+03  0.7546771E-02  0.1270572E+00
          2   -1    0    0  504    0 -0.00000000000E+00  0.00000000000E+00  0.17680537790E+04  0.17680537790E+04  0.00000000000E+00 0.  1.
         21   -1    0    0  503  502  0.00000000000E+00 -0.00000000000E+00 -0.17228357959E+03  0.17228357959E+03  0.00000000000E+00 0.  1.
         21    1    1    2  503  505  0.66191036709E+02 -0.10616811142E+03 -0.31072776682E+02  0.12891252334E+03  0.00000000000E+00 0.  1.
         21    1    1    2  504  502  0.92235534221E+01  0.29582719941E+02 -0.85662936813E+02  0.91095279791E+02  0.00000000000E+00 0.  1.
         21    1    1    2  505  501 -0.16807304766E+02  0.74658806586E+02  0.44985987867E+03  0.45632261979E+03  0.00000000000E+00 0.  1.
          2    1    1    2  501    0 -0.58607285365E+02  0.19265848946E+01  0.12626460343E+04  0.12640069357E+04  0.00000000000E+00 0.  1.
<scales pt_clust_3="104.77084" pt_clust_4="30.98728" pt_clust_5="14000.00000" pt_clust_6="58.57257"></scales>
<clustering>
<clus scale="   30.987">  2  4  1 -1</clus>
<clus scale="   58.573">  1  6  2 -1</clus>
<clus scale="  104.771">  2  3  1 -1</clus>
<clus scale="   30.987">  2  3  1 -1</clus>
</clustering>
</event>
<event>
 6    0  0.4017242E+002  0.1239575E+03  0.7546771E-02  0.1236708E+00
          2   -1    0    0  504    0 -0.00000000000E+00  0.00000000000E+00  0.18581512079E+04  0.18581512079E+04  0.00000000000E+00 0. -1.
         21   -1    0    0  503  502  0.00000000000E+00 -0.00000000000E+00 -0.13034018441E+04  0.13034018441E+04  0.00000000000E+00 0. -1.
         21    1    1    2  503  505  0.29788308746E+02  0.30344206332E+02 -0.31629969217E+03  0.31914512288E+03  0.00000000000E+00 0. -1.
         21    1    1    2  504  502 -0.97008744753E+02  0.74648093870E+02  0.45769913971E+02  0.13068251414E+03  0.00000000000E+00 0. -1.
         21    1    1    2  505  501  0.95101352299E+02 -0.48302566508E+02 -0.93964061066E+03  0.94567535779E+03  0.00000000000E+00 0. -1.
          2    1    1    2  501    0 -0.27880916293E+02 -0.56689733694E+02  0.17649197526E+04  0.17660500572E+04  0.00000000000E+00 0. -1.
<scales pt_clust_3="42.52193" pt_clust_4="123.95747" pt_clust_5="14000.00000" pt_clust_6="63.15178"></scales>
<clustering>
<clus scale="   42.522">  2  3  1 -1</clus>
<clus scale="   63.152">  1  6  2 -1</clus>
<clus scale="  123.957">  1  4  2 -1</clus>
<clus scale="   42.522">  2  3  1 -1</clus>
</clustering>
</event>
<event>
 6    0  0.4017242E+002  0.9703129E+02  0.7546771E-02  0.1286666E+00
         21   -1    0    0  505  502  0.00000000000E+00  0.00000000000E+00  0.15553933694E+03  0.15553933694E+03  0.00000000000E+00 0. -1.
          2   -1    0    0  503    0 -0.00000000000E+00 -0.00000000000E+00 -0.27955308700E+04  0.27955308700E+04  0.00000000000E+00 0.  1.
         21    1    1    2  503  504 -0.11218605375E+03 -0.29966883965E+02  0.57073851866E+02  0.12938759352E+03  0.00000000000E+00 0. -1.
         21    1    1    2  504  502 -0.11320799464E+02 -0.29027145643E+02  0.48378236258E+02  0.57542935518E+02  0.00000000000E+00 0.  1.
         21    1    1    2  505  501  0.32551263610E+02  0.25699040910E+02 -0.42223508310E+02  0.59184880842E+02  0.00000000000E+00 0.  1.
          2    1    1    2  501    0  0.90955589600E+02  0.33294988699E+02 -0.27032201129E+04  0.27049547971E+04  0.00000000000E+00 0.  1.
<scales pt_clust_3="97.03129" pt_clust_4="31.15663" pt_clust_5="39.27317" pt_clust_6="14000.00000"></scales>
<clustering>
<clus scale="   31.157">  1  4  2 -1</clus>
<clus scale="   39.273">  1  5  2 -1</clus>
<clus scale="   97.031">  1  3  2 -1</clus>
<clus scale="   31.157">  1  3  2 -1</clus>
</clustering>
</event>
<event>
 6    0  0.4017242E+002  0.7676008E+02  0.7546771E-02  0.1338506E+00
          1   -1    0    0  504    0 -0.00000000000E+00  0.00000000000E+00  0.17159197182E+04  0.17159197182E+04  0.00000000000E+00 0. -1.
         21   -1    0    0  505  502  0.00000000000E+00 -0.00000000000E+00 -0.25378444887E+03  0.25378444887E+03  0.00000000000E+00 0.  1.
         21    1    1    2  503  501 -0.27091480024E+01 -0.81318349487E+02  0.12394964001E+03  0.14826842788E+03  0.00000000000E+00 0.  1.
         21    1    1    2  504  502  0.71642543228E+02  0.16120380121E+02  0.40992651041E+02  0.84100642654E+02  0.00000000000E+00 0.  1.
         21    1    1    2  505  503 -0.27677750523E+02  0.71679301945E+02 -0.21306670592E+03  0.22649812664E+03  0.00000000000E+00 0.  1.
          1    1    1    2  501    0 -0.41255644703E+02 -0.64813325791E+01  0.15102596842E+04  0.15108369699E+04  0.00000000000E+00 0. -1.
<scales pt_clust_3="14000.00000" pt_clust_4="60.74809" pt_clust_5="76.76008" pt_clust_6="41.76166"></scales>
<clustering>
<clus scale="   41.762">  1  6  2 -1</clus>
<clus scale="   60.748">  1  4  2 -1</clus>
<clus scale="   76.760">  2  5  1 -1</clus>
<clus scale="   76.760">  2  3  1 -1</clus>
</clustering>
</event>
<event>
 6    0  0.4017242E+002  0.8014952E+02  0.7546771E-02  0.1328628E+00
          2   -1    0    0  505    0 -0.00000000000E+00  0.00000000000E+00  0.10639144878E+04  0.10639144878E+04  0.00000000000E+00 0.  1.
         21   -1    0    0  504  502  0.00000000000E+00 -0.00000000000E+00 -0.47704372215E+03  0.47704372215E+03  0.00000000000E+00 0.  1.
         21    1    1    2  503  501 -0.59517882691E+02  0.53076143943E+01  0.34423550954E+02  0.68960350861E+02  0.00000000000E+00 0.  1.
         21    1    1    2  504  503  0.55484858966E+01  0.34474356405E+02 -0.44807955494E+03  0.44943804300E+03  0.00000000000E+00 0.  1.
         21    1    1    2  505  502 -0.18120624007E+02 -0.83477294539E+02  0.19829793536E+03  0.21591407292E+03  0.00000000000E+00 0.  1.
          2    1    1    2  501    0  0.72090020801E+02  0.43695323739E+02  0.80222883427E+03  0.80664574316E+03  0.00000000000E+00 0.  1.
<scales pt_clust_3="62.00968" pt_clust_4="34.91800" pt_clust_5="80.14952" pt_clust_6="14000.00000"></scales>
<clustering>
<clus scale="   34.918">  2  4  1 -1</clus>
<clus scale="   62.010">  2  3  1 -1</clus>
<clus scale="   80.150">  2  5  1 -1</clus>
<clus scale="   34.918">  2  3  1 -1</clus>
</clustering>
</event>
<event>
 6    0  0.4017242E+002  0.2347095E+03  0.7546771E-02  0.1123368E+00
         21   -1    0    0  504  502  0.00000000000E+00  0.00000000000E+00  0.20935997855E+04  0.20935997855E+04  0.00000000000E+00 0.  1.
          2   -1    0    0  503    0 -0.00000000000E+00 -0.00000000000E+00 -0.71522727467E+03  0.71522727467E+03  0.00000000000E+00 0.  1.
         21    1    1    2  503  505 -0.18105865096E+02  0.18321638054E+03 -0.10431015558E+03  0.21160499287E+03  0.00000000000E+00 0.  1.
         21    1    1    2  504  501  0.66769223626E+01 -0.52287911246E+02  0.11623603670E+04  0.11635549964E+04  0.00000000000E+00 0.  1.
         21    1    1    2  505  502  0.16638394433E+03 -0.12630842768E+03  0.85335378057E+03  0.87855000464E+03  0.00000000000E+00 0.  1.
          2    1    1    2  501    0 -0.15495500160E+03 -0.46200416112E+01 -0.53303148117E+03  0.55511706623E+03  0.00000000000E+00 0.  1.
<scales pt_clust_3="234.70949" pt_clust_4="52.71249" pt_clust_5="14000.00000" pt_clust_6="154.96441"></scales>
<clustering>
<clus scale="   52.712">  1  4  2 -1</clus>
<clus scale="  154.964">  2  6  1 -1</clus>
<clus scale="  234.709">  2  3  1 -1</clus>
<clus scale="   52.712">  1  3  2 -1</clus>
</clustering>
</event>
<event>
 6    0  0.4017242E+002  0.1090974E+03  0.7546771E-02  0.1262251E+00
          2   -1    0    0  504    0 -0.00000000000E+00  0.00000000000E+00  0.43784693523E+03  0.43784693523E+03  0.00000000000E+00 0. -1.
         21   -1    0    0  505  502  0.00000000000E+00 -0.00000000000E+00 -0.17854314432E+04  0.17854314432E+04  0.00000000000E+00 0.  1.
         21    1    1    2  503  502  0.48750277488E+02  0.98861042180E+02 -0.16958534434E+04  0.16994319629E+04  0.00000000000E+00 0.  1.
         21    1    1    2  504  503  0.43948957400E+02 -0.53112636901E+02 -0.45349057264E+02  0.82516665286E+02  0.00000000000E+00 0.  1.
         21    1    1    2  505  501 -0.57626421496E+02 -0.49151295789E+02  0.39423169452E+02  0.85386419423E+02  0.00000000000E+00 0.  1.
          2    1    1    2  501    0 -0.35072813392E+02  0.34028905108E+01  0.35419482325E+03  0.35594333077E+03  0.00000000000E+00 0. -1.
<scales pt_clust_3="14000.00000" pt_clust_4="63.57509" pt_clust_5="109.09741" pt_clust_6="35.23751"></scales>
<clustering>
<clus scale="   35.238">  1  6  2 -1</clus>
<clus scale="   63.575">  1  4  2 -1</clus>
<clus scale="  109.097">  1  5  2 -1</clus>
<clus scale="  109.097">  2  3  1 -1</clus>
</clustering>
</event>
<event>
 6    0  0.4017242E+002  0.6537019E+02  0.7546771E-02  0.1376584E+00
         -1   -1    0    0    0  501 -0.00000000000E+00  0.00000000000E+00  0.10735113770E+04  0.10735113770E+04  0.00000000000E+00 0. -1.
         21   -1    0    0  505  502  0.00000000000E+00 -0.00000000000E+00 -0.23050061130E+02  0.23050061130E+02  0.00000000000E+00 0. -1.
         21    1    1    2  503  502  0.66180748007E+02  0.33751489101E+02  0.10479624985E+03  0.12845741865E+03  0.00000000000E+00 0. -1.
         21    1    1    2  504  501  0.21895672739E+02 -0.69473035232E+02  0.23675791210E+03  0.24770997568E+03  0.00000000000E+00 0. -1.
         21    1    1    2  505  504 -0.42142472473E+02  0.45374057200E+02  0.20100918349E+03  0.21033184471E+03  0.00000000000E+00 0. -1.
         -1    1    1    2    0  503 -0.45933948273E+02 -0.96525110684E+01  0.50789797042E+03  0.51006219908E+03  0.00000000000E+00 0. -1.
<scales pt_clust_3="64.98020" pt_clust_4="65.37019" pt_clust_5="14000.00000" pt_clust_6="46.93718"></scales>
<clustering>
<clus scale="   46.937">  1  6  2 -1</clus>
<clus scale="   64.980">  2  3  1 -1</clus>
<clus scale="   65.370">  1  4  2 -1</clus>
<clus scale="   64.980">  2  3  1 -1</clus>
</clustering>
</event>
<event>
 6    0  0.4017242E+002  0.1443224E+03  0.7546771E-02  0.1207628E+00
          1   -1    0    0  503    0 -0.00000000000E+00  0.00000000000E+00  0.56123453617E+03  0.56123453617E+03  0.00000000000E+00 0. -1.
         21   -1    0    0  501  502  0.00000000000E+00 -0.00000000000E+00 -0.82751856575E+02  0.82751856575E+02  0.00000000000E+00 0.  1.
         21    1    1    2  503  504  0.23594489442E+01 -0.63521997399E+02  0.45001442838E+02  0.77882867245E+02  0.00000000000E+00 0.  1.
         21    1    1    2  504  505 -0.33655516346E+02 -0.66702819432E+02  0.48984586744E+02  0.89338959246E+02  0.00000000000E+00 0.  1.
         21    1    1    2  505  502  0.29721897959E+02 -0.12798852454E+02 -0.26350354297E+02  0.41731798595E+02  0.00000000000E+00 0. -1.
          1    1    1    2  501    0  0.15741694422E+01  0.14302366928E+03  0.41084700431E+03  0.43503276766E+03  0.00000000000E+00 0. -1.
<scales pt_clust_3="31.84346" pt_clust_4="31.84346" pt_clust_5="32.36050" pt_clust_6="140.13253"></scales>
<clustering>
<clus scale="   31.843">  3  4 -1 -1</clus>
<clus scale="   32.360">  2  5  1 -1</clus>
<clus scale="  140.133">  1  6  2 -1</clus>
<clus scale="   32.360">  2  3  1 -1</clus>
</clustering>
</event>
<event>
 6    0  0.4017242E+002  0.2499664E+03  0.7546771E-02  0.1113326E+00
         21   -1    0    0  504  502  0.00000000000E+00  0.00000000000E+00  0.15612527702E+04  0.15612527702E+04  0.00000000000E+00 0. -1.
          2   -1    0    0  503    0 -0.00000000000E+00 -0.00000000000E+00 -0.11172497900E+04  0.11172497900E+04  0.00000000000E+00 0. -1.
         21    1    1    2  503  505  0.24060614594E+03  0.17633478529E+03 -0.14949224893E+03  0.33366631004E+03  0.00000000000E+00 0.  1.
         21    1    1    2  504  501 -0.11919628487E+03 -0.22029032151E+03  0.11720435784E+04  0.11985081267E+04  0.00000000000E+00 0. -1.
         21    1    1    2  505  502 -0.47025395146E+02  0.37085255060E+02  0.27908962553E+03  0.28544302936E+03  0.00000000000E+00 0. -1.
          2    1    1    2  501    0 -0.74384465917E+02  0.68702811644E+01 -0.85763797482E+03  0.86088509418E+03  0.00000000000E+00 0. -1.
<scales pt_clust_3="14000.00000" pt_clust_4="249.96639" pt_clust_5="59.88910" pt_clust_6="74.76485"></scales>
<clustering>
<clus scale="   59.889">  1  5  2 -1</clus>
<clus scale="   74.765">  2  6  1 -1</clus>
<clus scale="  249.966">  1  4  2 -1</clus>
<clus scale="   59.889">  1  3  2 -1</clus>
</clustering>
</event>
<event>
 6    0  0.4017242E+002  0.2060378E+03  0.7546771E-02  0.1144743E+00
         21   -1    0    0  503  502  0.00000000000E+00  0.00000000000E+00  0.10371636184E+04  0.10371636184E+04  0.00000000000E+00 0. -1.
          3   -1    0    0  502    0 -0.00000000000E+00 -0.00000000000E+00 -0.41177143731E+03  0.41177143731E+03  0.00000000000E+00 0.  1.
         21    1    1    2  503  504  0.90230354836E+02 -0.53345808815E+01  0.37631149705E+03  0.38701462182E+03  0.00000000000E+00 0. -1.
         21    1    1    2  504  505  0.10421680313E+03 -0.44883804183E+02  0.49711717460E+03  0.50990311160E+03  0.00000000000E+00 0. -1.
         21    1    1    2  505  501 -0.22383390762E+03  0.29054727976E+01  0.65763496942E+02  0.23331287470E+03  0.00000000000E+00 0. -1.
          3    1    1    2  501    0  0.29386749646E+02  0.47312912267E+02 -0.31379998754E+03  0.31870444757E+03  0.00000000000E+00 0.  1.
<scales pt_clust_3="31.58261" pt_clust_4="31.58261" pt_clust_5="202.97629" pt_clust_6="55.69643"></scales>
<clustering>
<clus scale="   31.583">  3  4 -1 -1</clus>
<clus scale="   55.696">  2  6  1 -1</clus>
<clus scale="  202.976">  2  5  1 -1</clus>
<clus scale="  206.038">  1  3  2 -1</clus>
</clustering>
</event>
<event>
 6    0  0.4017242E+002  0.1073484E+03  0.7546771E-02  0.1265561E+00
          2   -1    0    0  504    0 -0.00000000000E+00  0.00000000000E+00  0.23360484719E+03  0.23360484719E+03  0.00000000000E+00 0.  1.
         21   -1    0    0  503  502  0.00000000000E+00 -0.00000000000E+00 -0.48145565908E+03  0.48145565908E+03  0.00000000000E+00 0. -1.
         21    1    1    2  503  505  0.48135642333E+02  0.29298443032E+02  0.36464508492E+00  0.56352211962E+02  0.00000000000E+00 0. -1.
         21    1    1    2  504  502 -0.27812453732E+02 -0.47797493402E+02 -0.36560769421E+03  0.36976630326E+03  0.00000000000E+00 0. -1.
         21    1    1    2  505  501 -0.93593237956E+02 -0.59619706550E+02 -0.22025690602E+02  0.11313414448E+03  0.00000000000E+00 0. -1.
          2    1    1    2  501    0  0.73270049355E+02  0.78118756920E+02  0.13941792784E+03  0.17580784658E+03  0.00000000000E+00 0.  1.
<scales pt_clust_3="44.86205" pt_clust_4="55.30039" pt_clust_5="107.34837" pt_clust_6="14000.00000"></scales>
<clustering>
<clus scale="   55.300">  2  4  1 -1</clus>
<clus scale="   44.862">  2  3  1 -1</clus>
<clus scale="  107.348">  2  5  1 -1</clus>
<clus scale="   55.300">  2  3  1 -1</clus>
</clustering>
</event>
<event>
 6    0  0.4017242E+002  0.7705242E+02  0.7546771E-02  0.1337631E+00
         21   -1    0    0  503  502  0.00000000000E+00  0.00000000000E+00  0.11115628914E+03  0.11115628914E+03  0.00000000000E+00 0.  1.
         -1   -1    0    0    0  501 -0.00000000000E+00 -0.00000000000E+00 -0.51105128857E+03  0.51105128857E+03  0.00000000000E+00 0.  1.
         21    1    1    2  503  505  0.18005538068E+02 -0.33128165619E+02  0.16733674104E+02  0.41251552788E+02  0.00000000000E+00 0.  1.
         21    1    1    2  504  502 -0.42972880426E+02  0.57734953676E+02 -0.37582721616E+02  0.81193930144E+02  0.00000000000E+00 0. -1.
         21    1    1    2  505  501  0.74167649000E+02  0.34894047832E+02  0.27109943804E+02  0.86332982025E+02  0.00000000000E+00 0.  1.
         -1    1    1    2    0  504 -0.49200306642E+02 -0.59500835890E+02 -0.40615589572E+03  0.41342911275E+03  0.00000000000E+00 0.  1.
<scales pt_clust_3="37.70510" pt_clust_4="62.08241" pt_clust_5="77.05242" pt_clust_6="14000.00000"></scales>
<clustering>
<clus scale="   37.705">  1  3  2 -1</clus>
<clus scale="   62.082">  1  4  2 -1</clus>
<clus scale="   77.052">  1  5  2 -1</clus>
<clus scale="   37.705">  1  3  2 -1</clus>
</clustering>
</event>
<event>
 6    0  0.4017242E+002  0.1489667E+03  0.7546771E-02  0.1201748E+00
         -3   -1    0    0    0  501 -0.00000000000E+00  0.00000000000E+00  0.23452453265E+02  0.23452453265E+02  0.00000000000E+00 0.  1.
         21   -1    0    0  505  502  0.00000000000E+00 -0.00000000000E+00 -0.25330766495E+04  0.25330766495E+04  0.00000000000E+00 0. -1.
         21    1    1    2  503  502  0.83530298220E+01  0.18348349789E+03 -0.16579210647E+04  0.16680642145E+04  0.00000000000E+00 0. -1.
         21    1    1    2  504  503 -0.57415476382E+02 -0.99400897205E+02 -0.48802958529E+03  0.50134813395E+03  0.00000000000E+00 0.  1.
         21    1    1    2  505  501  0.39668269986E+02 -0.66916869381E+01 -0.22007000016E+03  0.22371668532E+03  0.00000000000E+00 0. -1.
         -3    1    1    2    0  504  0.93941765736E+01 -0.77390913750E+02 -0.14360354610E+03  0.16340006897E+03  0.00000000000E+00 0.  1.
<scales pt_clust_3="148.96670" pt_clust_4="14000.00000" pt_clust_5="40.22873" pt_clust_6="78.75935"></scales>
<clustering>
<clus scale="   40.229">  2  5  1 -1</clus>
<clus scale="   78.759">  1  6  2 -1</clus>
<clus scale="  148.967">  2  3  1 -1</clus>
<clus scale="   40.229">  2  3  1 -1</clus>
</clustering>
</event>
<event>
 6    0  0.4017242E+002  0.8182095E+02  0.7546771E-02  0.1323962E+00
          2   -1    0    0  504    0 -0.00000000000E+00  0.00000000000E+00  0.11460902756E+04  0.11460902756E+04  0.00000000000E+00 0.  1.
         21   -1    0    0  505  502  0.00000000000E+00 -0.00000000000E+00 -0.59415226517E+02  0.59415226517E+02  0.00000000000E+00 0.  1.
         21    1    1    2  503  501 -0.59384846303E+02  0.14875358083E+02  0.21155859594E+03  0.22023822503E+03  0.00000000000E+00 0.  1.
         21    1    1    2  504  502  0.75491159802E+02 -0.16629749312E+02  0.25443354118E+02  0.81380759638E+02  0.00000000000E+00 0.  1.
         21    1    1    2  505  503  0.23097312642E+02  0.49336792424E+02  0.25631275743E+01  0.54535993261E+02  0.00000000000E+00 0.  1.
          2    1    1    2  501    0 -0.39203626142E+02 -0.47582401195E+02  0.84710997141E+03  0.84935052414E+03  0.00000000000E+00 0.  1.
<scales pt_clust_3="14000.00000" pt_clust_4="81.82095" pt_clust_5="54.47573" pt_clust_6="59.88578"></scales>
<clustering>
<clus scale="   54.476">  2  5  1 -1</clus>
<clus scale="   59.886">  1  6  2 -1</clus>
<clus scale="   81.821">  2  4  1 -1</clus>
<clus scale="   54.476">  2  3  1 -1</clus>
</clustering>
</event>
<event>
 6    0  0.4017242E+002  0.1508924E+03  0.7546771E-02  0.1199381E+00
          2   -1    0    0  503    0 -0.00000000000E+00  0.00000000000E+00  0.10799611955E+04  0.10799611955E+04  0.00000000000E+00 0.  1.
         21   -1    0    0  504  502  0.00000000000E+00 -0.00000000000E+00 -0.46663677164E+03  0.46663677164E+03  0.00000000000E+00 0. -1.
         21    1    1    2  503  502 -0.60673499312E+02  0.39610673196E+02 -0.19990954137E+03  0.21263608273E+03  0.00000000000E+00 0. -1.
         21    1    1    2  504  505  0.77698241086E+02  0.55857367557E+02 -0.17870331271E+03  0.20271146034E+03  0.00000000000E+00 0. -1.
         21    1    1    2  505  501  0.61164906121E+02  0.19094967656E+02 -0.49280308656E+02  0.80835093566E+02  0.00000000000E+00 0.  1.
          2    1    1    2  501    0 -0.78189647895E+02 -0.11456300841E+03  0.10412175866E+04  0.10504153305E+04  0.00000000000E+00 0.  1.
<scales pt_clust_3="72.45881" pt_clust_4="48.55795" pt_clust_5="48.55795" pt_clust_6="138.73436"></scales>
<clustering>
<clus scale="   48.558">  4  5 -1 -1</clus>
<clus scale="   72.459">  2  3  1 -1</clus>
<clus scale="  138.734">  1  6  2 -1</clus>
<clus scale="   72.459">  2  3  1 -1</clus>
</clustering>
</event>
<event>
 6    0  0.4017242E+002  0.6761893E+02  0.7546771E-02  0.1368382E+00
          1   -1    0    0  505    0 -0.00000000000E+00  0.00000000000E+00  0.20526105297E+04  0.20526105297E+04  0.00000000000E+00 0.  1.
         21   -1    0    0  504  502  0.00000000000E+00 -0.00000000000E+00 -0.52081209191E+02  0.52081209191E+02  0.00000000000E+00 0. -1.
         21    1    1    2  503  501 -0.63364834210E+02  0.67833158462E+02  0.45944793518E+02  0.10357298708E+03  0.00000000000E+00 0. -1.
         21    1    1    2  504  503  0.49176837625E+02  0.34404321547E+02  0.53127427883E+02  0.80153242563E+02  0.00000000000E+00 0. -1.
         21    1    1    2  505  502  0.37954085553E+01 -0.35625867000E+02  0.25928221129E+02  0.44225334103E+02  0.00000000000E+00 0. -1.
          1    1    1    2  501    0  0.10392588030E+02 -0.66611613009E+02  0.18755288780E+04  0.18767401752E+04  0.00000000000E+00 0.  1.
<scales pt_clust_3="14000.00000" pt_clust_4="55.45370" pt_clust_5="35.82747" pt_clust_6="67.61893"></scales>
<clustering>
<clus scale="   35.827">  2  5  1 -1</clus>
<clus scale="   55.454">  2  4  1 -1</clus>
<clus scale="   67.619">  1  6  2 -1</clus>
<clus scale="   35.827">  2  3  1 -1</clus>
</clustering>
</event>
<event>
 6    0  0.4017242E+002  0.9244587E+02  0.7546771E-02  0.1297034E+00
          4   -1    0    0  503    0 -0.00000000000E+00  0.00000000000E+00  0.67340138381E+03  0.67340138381E+03  0.00000000000E+00 0.  1.
         21   -1    0    0  504  502  0.00000000000E+00 -0.00000000000E+00 -0.67101381961E+02  0.67101381961E+02  0.00000000000E+00 0.  1.
         21    1    1    2  503  502 -0.98319426788E+02 -0.62350788916E+02  0.29600717128E+03  0.31807951209E+03  0.00000000000E+00 0.  1.
         21    1    1    2  504  505 -0.34492814165E+02  0.22322066996E+02  0.72357440515E+01  0.41717920562E+02  0.00000000000E+00 0.  1.
         21    1    1    2  505  501  0.10540033961E+03  0.16493618850E+02  0.38078566194E+02  0.11327509989E+03  0.00000000000E+00 0.  1.
          4    1    1    2  501    0  0.27411901346E+02  0.23535103070E+02  0.26497852033E+03  0.26743023324E+03  0.00000000000E+00 0.  1.
<scales pt_clust_3="92.44587" pt_clust_4="40.52448" pt_clust_5="14000.00000" pt_clust_6="36.12912"></scales>
<clustering>
<clus scale="   36.129">  1  6  2 -1</clus>
<clus scale="   40.524">  2  4  1 -1</clus>
<clus scale="   92.446">  1  3  2 -1</clus>
<clus scale="   40.524">  2  3  1 -1</clus>
</clustering>
</event>
<event>
 6    0  0.4017242E+002  0.1090007E+03  0.7546771E-02  0.1262432E+00
          2   -1    0    0  505    0 -0.00000000000E+00  0.00000000000E+00  0.31095142668E+03  0.31095142668E+03  0.00000000000E+00 0. -1.
         21   -1    0    0  503  502  0.00000000000E+00 -0.00000000000E+00 -0.81334532521E+02  0.81334532521E+02  0.00000000000E+00 0. -1.
         21    1    1    2  503  501 -0.28311999686E+02  0.75717019299E+02  0.52456886220E+02  0.96365768038E+02  0.00000000000E+00 0. -1.
         21    1    1    2  504  502  0.86492400323E+01 -0.71447075286E+02 -0.90904238913E+01  0.72540538505E+02  0.00000000000E+00 0. -1.
         21    1    1    2  505  504  0.45214398878E+00 -0.50725435187E+02  0.29314017655E+02  0.58588273914E+02  0.00000000000E+00 0. -1.
          2    1    1    2  501    0  0.19210615665E+02  0.46455491174E+02  0.15693641418E+03  0.16479137874E+03  0.00000000000E+00 0. -1.
<scales pt_clust_3="100.52036" pt_clust_4="35.38920" pt_clust_5="35.38920" pt_clust_6="50.27087"></scales>
<clustering>
<clus scale="   35.389">  4  5 -1 -1</clus>
<clus scale="   50.271">  1  6  2 -1</clus>
<clus scale="  100.520">  1  3  2 -1</clus>
<clus scale="  109.001">  2  3  1 -1</clus>
</clustering>
</event>
<event>
 6    0  0.4017242E+002  0.7293296E+02  0.7546771E-02  0.1350394E+00
         21   -1    0    0  505  502  0.00000000000E+00  0.00000000000E+00  0.24690140631E+03  0.24690140631E+03  0.00000000000E+00 0. -1.
          2   -1    0    0  503    0 -0.00000000000E+00 -0.00000000000E+00 -0.87921083645E+03  0.87921083645E+03  0.00000000000E+00 0. -1.
         21    1    1    2  503  504 -0.17184709644E+02  0.91836712947E+02 -0.15077223600E+03  0.17737407713E+03  0.00000000000E+00 0. -1.
         21    1    1    2  504  502  0.27852601907E+02 -0.66704254685E+02  0.22211028910E+03  0.23357697993E+03  0.00000000000E+00 0. -1.
         21    1    1    2  505  501 -0.55766547704E+01 -0.66219596004E+02 -0.22187750363E+03  0.23161554479E+03  0.00000000000E+00 0. -1.
          2    1    1    2  501    0 -0.50912374924E+01  0.41087137741E+02 -0.48176997962E+03  0.48354564091E+03  0.00000000000E+00 0. -1.
<scales pt_clust_3="72.93296" pt_clust_4="14000.00000" pt_clust_5="43.56114" pt_clust_6="41.40137"></scales>
<clustering>
<clus scale="   41.401">  2  6  1 -1</clus>
<clus scale="   43.561">  2  5  1 -1</clus>
<clus scale="   72.933">  2  3  1 -1</clus>
<clus scale="   72.933">  1  3  2 -1</clus>
</clustering>
</event>
<event>
 6    0  0.4017242E+002  0.8807424E+02  0.7546771E-02  0.1307583E+00
         21   -1    0    0  503  502  0.00000000000E+00  0.00000000000E+00  0.45168707039E+02  0.45168707039E+02  0.00000000000E+00 0.  1.
          2   -1    0    0  505    0 -0.00000000000E+00 -0.00000000000E+00 -0.93621500693E+03  0.93621500693E+03  0.00000000000E+00 0.  1.
         21    1    1    2  503  504 -0.55792240152E+02 -0.44695540026E+02 -0.33691720872E+02  0.79029092205E+02  0.00000000000E+00 0.  1.
         21    1    1    2  504  501 -0.36211323636E+02 -0.66291528384E+02 -0.12607789145E+03  0.14697435630E+03  0.00000000000E+00 0.  1.
         21    1    1    2  505  502  0.36765698123E+02  0.37312046414E+02 -0.68478288744E+02  0.86215899899E+02  0.00000000000E+00 0.  1.
          2    1    1    2  501    0  0.55237865665E+02  0.73675021995E+02 -0.66279839882E+03  0.66916436557E+03  0.00000000000E+00 0.  1.
<scales pt_clust_3="39.18828" pt_clust_4="88.07424" pt_clust_5="52.38230" pt_clust_6="14000.00000"></scales>
<clustering>
<clus scale="   52.382">  1  5  2 -1</clus>
<clus scale="   39.188">  1  3  2 -1</clus>
<clus scale="   88.074">  1  4  2 -1</clus>
<clus scale="   52.382">  1  3  2 -1</clus>
</clustering>
</event>
<event>
 6    0  0.4017242E+002  0.8820813E+02  0.7546771E-02  0.1307250E+00
          2   -1    0    0  504    0 -0.00000000000E+00  0.00000000000E+00  0.42817201303E+04  0.42817201303E+04  0.00000000000E+00 0. -1.
         21   -1    0    0  505  502  0.00000000000E+00 -0.00000000000E+00 -0.76008218429E+02  0.76008218429E+02  0.00000000000E+00 0. -1.
         21    1    1    2  503  502 -0.23156725226E+02 -0.43802068850E+02 -0.48223449883E+02  0.69140120606E+02  0.00000000000E+00 0. -1.
         21    1    1    2  504  503  0.54022005816E+02  0.14021750799E+03  0.18046771603E+04  0.18109221351E+04  0.00000000000E+00 0. -1.
         21    1    1    2  505  501 -0.43380686485E+02 -0.15066804303E+02  0.25532530838E+02  0.52543340993E+02  0.00000000000E+00 0. -1.
          2    1    1    2  501    0  0.12515405895E+02 -0.81348634841E+02  0.24237256707E+04  0.24251227520E+04  0.00000000000E+00 0. -1.
<scales pt_clust_3="88.20813" pt_clust_4="14000.00000" pt_clust_5="45.92268" pt_clust_6="82.40000"></scales>
<clustering>
<clus scale="   45.923">  2  5  1 -1</clus>
<clus scale="   82.400">  1  6  2 -1</clus>
<clus scale="   88.208">  2  3  1 -1</clus>
<clus scale="   45.923">  2  3  1 -1</clus>
</clustering>
</event>
<event>
 6    0  0.4017242E+002  0.1647850E+03  0.7546771E-02  0.1183398E+00
          2   -1    0    0  505    0 -0.00000000000E+00  0.00000000000E+00  0.22735806939E+03  0.22735806939E+03  0.00000000000E+00 0. -1.
         21   -1    0    0  501  502  0.00000000000E+00 -0.00000000000E+00 -0.14516873145E+03  0.14516873145E+03  0.00000000000E+00 0. -1.
         21    1    1    2  503  504  0.34131936931E+02 -0.85471849641E+02 -0.52757101520E+00  0.92036430455E+02  0.00000000000E+00 0. -1.
         21    1    1    2  504  502 -0.36407646501E+02  0.24322766026E+00 -0.11471015081E+02  0.38172766083E+02  0.00000000000E+00 0. -1.
         21    1    1    2  505  503  0.24997495631E+02 -0.63435656671E+02  0.53083779814E+02  0.86410907902E+02  0.00000000000E+00 0. -1.
          2    1    1    2  501    0 -0.22721786061E+02  0.14866427865E+03  0.41104144221E+02  0.15590669640E+03  0.00000000000E+00 0. -1.
<scales pt_clust_3="50.84367" pt_clust_4="36.40846" pt_clust_5="50.84367" pt_clust_6="154.08614"></scales>
<clustering>
<clus scale="   36.408">  2  4  1 -1</clus>
<clus scale="   50.844">  3  5 -1 -1</clus>
<clus scale="  154.086">  1  6  2 -1</clus>
<clus scale="   36.408">  2  3  1 -1</clus>
</clustering>
</event>
<event>
 6    0  0.4017242E+002  0.1139117E+03  0.7546771E-02  0.1253493E+00
          1   -1    0    0  505    0 -0.00000000000E+00  0.00000000000E+00  0.15432539303E+03  0.15432539303E+03  0.00000000000E+00 0.  1.
         21   -1    0    0  504  502  0.00000000000E+00 -0.00000000000E+00 -0.66198187506E+03  0.66198187506E+03  0.00000000000E+00 0. -1.
         21    1    1    2  503  502  0.45851814782E+02 -0.96496503723E+02 -0.41550361488E+03  0.42901890183E+03  0.00000000000E+00 0. -1.
         21    1    1    2  504  501 -0.39354425887E+02 -0.20897320797E+02 -0.18987492075E+03  0.19503321354E+03  0.00000000000E+00 0. -1.
         21    1    1    2  505  503 -0.26364935488E+02  0.22891277308E+02 -0.19806127967E+02  0.40142285748E+02  0.00000000000E+00 0. -1.
          1    1    1    2  501    0  0.19867546592E+02  0.94502547212E+02  0.11752818157E+03  0.15211286698E+03  0.00000000000E+00 0.  1.
<scales pt_clust_3="14000.00000" pt_clust_4="44.78693" pt_clust_5="34.91590" pt_clust_6="113.91171"></scales>
<clustering>
<clus scale="   34.916">  1  5  2 -1</clus>
<clus scale="   44.787">  2  4  1 -1</clus>
<clus scale="  113.912">  1  6  2 -1</clus>
<clus scale="   44.787">  2  3  1 -1</clus>
</clustering>
</event>
<event>
 6    0  0.5103403E+002  0.1133052E+03  0.7546771E-02  0.1254569E+00
         21   -1    0    0  503  502  0.00000000000E+00  0.00000000000E+00  0.15317873473E+04  0.15317873473E+04  0.00000000000E+00 0. -1.
          2   -1    0    0  504    0 -0.00000000000E+00 -0.00000000000E+00 -0.36736529548E+04  0.36736529548E+04  0.00000000000E+00 0.  1.
         21    1    1    2  503  505 -0.38073984850E+02 -0.33519044532E+02  0.79102185889E+03  0.79264666523E+03  0.00000000000E+00 0. -1.
         21    1    1    2  504  502  0.39674071630E+02 -0.54905779382E+01 -0.12643842643E+02  0.42000537646E+02  0.00000000000E+00 0.  1.
         21    1    1    2  505  501 -0.78437378963E+02 -0.30661375263E+02  0.72208921689E+03  0.72698375463E+03  0.00000000000E+00 0. -1.
          2    1    1    2  501    0  0.76837292183E+02  0.69670997733E+02 -0.36423328406E+04  0.36438093445E+04  0.00000000000E+00 0.  1.
<scales pt_clust_3="35.37386" pt_clust_4="40.05220" pt_clust_5="35.37386" pt_clust_6="103.73337"></scales>
<clustering>
<clus scale="   35.374">  3  5 -1 -1</clus>
<clus scale="   40.052">  1  4  2 -1</clus>
<clus scale="  103.733">  2  6  1 -1</clus>
<clus scale="   40.052">  1  3  2 -1</clus>
</clustering>
</event>
<event>
 6    0  0.4017242E+002  0.1226977E+03  0.7546771E-02  0.1238712E+00
          1   -1    0    0  505    0 -0.00000000000E+00  0.00000000000E+00  0.15112066466E+04  0.15112066466E+04  0.00000000000E+00 0.  1.
         21   -1    0    0  503  502  0.00000000000E+00 -0.00000000000E+00 -0.82532255540E+03  0.82532255540E+03  0.00000000000E+00 0. -1.
         21    1    1    2  503  504 -0.54142956413E+02  0.13233321794E+01 -0.66442669980E+03  0.66663037010E+03  0.00000000000E+00 0. -1.
         21    1    1    2  504  501  0.15517539197E+03  0.90058616287E+02  0.26208767700E+02  0.18131976214E+03  0.00000000000E+00 0. -1.
         21    1    1    2  505  502 -0.44473604711E+02  0.16333025479E+02 -0.72543706685E+02  0.86644437888E+02  0.00000000000E+00 0. -1.
          1    1    1    2  501    0 -0.56558830841E+02 -0.10771497395E+03  0.13966457300E+04  0.14019346319E+04  0.00000000000E+00 0.  1.
<scales pt_clust_3="95.17117" pt_clust_4="122.69774" pt_clust_5="47.37794" pt_clust_6="14000.00000"></scales>
<clustering>
<clus scale="   47.378">  2  5  1 -1</clus>
<clus scale="   95.171">  2  3  1 -1</clus>
<clus scale="  122.698">  2  4  1 -1</clus>
<clus scale="   47.378">  2  3  1 -1</clus>
</clustering>
</event>
<event>
 6    0  0.4017242E+002  0.1235211E+03  0.7546771E-02  0.1237399E+00
         21   -1    0    0  505  502  0.00000000000E+00  0.00000000000E+00  0.10175468337E+03  0.10175468337E+03  0.00000000000E+00 0. -1.
          1   -1    0    0  503    0 -0.00000000000E+00 -0.00000000000E+00 -0.54276030692E+03  0.54276030692E+03  0.00000000000E+00 0. -1.
         21    1    1    2  503  502 -0.17140470981E+02 -0.32750802796E+02 -0.54821871670E+02  0.66119954951E+02  0.00000000000E+00 0.  1.
         21    1    1    2  504  501 -0.10582409726E+02  0.14976292503E+03 -0.18705502221E+03  0.23985516973E+03  0.00000000000E+00 0. -1.
         21    1    1    2  505  504 -0.35563306951E+02 -0.11332459255E+03  0.10785170690E+02  0.11926245002E+03  0.00000000000E+00 0. -1.
          1    1    1    2  501    0  0.63286187657E+02 -0.36875296921E+01 -0.20991390036E+03  0.21927741559E+03  0.00000000000E+00 0. -1.
<scales pt_clust_3="36.96499" pt_clust_4="123.52107" pt_clust_5="14000.00000" pt_clust_6="58.57824"></scales>
<clustering>
<clus scale="   36.965">  2  3  1 -1</clus>
<clus scale="   58.578">  2  6  1 -1</clus>
<clus scale="  123.521">  2  4  1 -1</clus>
<clus scale="  123.521">  1  3  2 -1</clus>
</clustering>
</event>
<event>
 6    0  0.4017242E+002  0.1032199E+03  0.7546771E-02  0.1273667E+00
         21   -1    0    0  505  502  0.00000000000E+00  0.00000000000E+00  0.44594702996E+03  0.44594702996E+03  0.00000000000E+00 0.  1.
          1   -1    0    0  503    0 -0.00000000000E+00 -0.00000000000E+00 -0.12743283493E+04  0.12743283493E+04  0.00000000000E+00 0. -1.
         21    1    1    2  503  504  0.78996484898E+01  0.74542952539E+02 -0.35533304613E+02  0.82955843412E+02  0.00000000000E+00 0. -1.
         21    1    1    2  504  502  0.75275629885E+02  0.27171013661E+02  0.24611434677E+02  0.83728174199E+02  0.00000000000E+00 0. -1.
         21    1    1    2  505  501 -0.99830609923E+02 -0.45492193772E+02  0.35914465284E+03  0.37552705899E+03  0.00000000000E+00 0.  1.
          1    1    1    2  501    0  0.16655331548E+02 -0.56221772427E+02 -0.11766041023E+04  0.11780643027E+04  0.00000000000E+00 0. -1.
<scales pt_clust_3="44.07786" pt_clust_4="103.21994" pt_clust_5="14000.00000" pt_clust_6="58.63691"></scales>
<clustering>
<clus scale="   58.637">  2  6  1 -1</clus>
<clus scale="   44.078">  2  3  1 -1</clus>
<clus scale="  103.220">  2  4  1 -1</clus>
<clus scale="  103.220">  1  3  2 -1</clus>
</clustering>
</event>
<event>
 6    0  0.4017242E+002  0.5846351E+02  0.7546771E-02  0.1404395E+00
          2   -1    0    0  504    0 -0.00000000000E+00  0.00000000000E+00  0.22760266486E+04  0.22760266486E+04  0.00000000000E+00 0. -1.
         21   -1    0    0  505  502  0.00000000000E+00 -0.00000000000E+00 -0.12206564246E+03  0.12206564246E+03  0.00000000000E+00 0.  1.
         21    1    1    2  503  501  0.48597723645E+02  0.19546278652E+02  0.78465028277E+02  0.94342760269E+02  0.00000000000E+00 0.  1.
         21    1    1    2  504  502 -0.10470832360E+03 -0.73409545084E+02  0.48298150048E+03  0.49962378261E+03  0.00000000000E+00 0. -1.
         21    1    1    2  505  503  0.53710944238E+02  0.20308182803E+02 -0.97835024239E+02  0.11344152585E+03  0.00000000000E+00 0.  1.
          2    1    1    2  501    0  0.23996557140E+01  0.33555083629E+02  0.16903495016E+04  0.16906842223E+04  0.00000000000E+00 0. -1.
<scales pt_clust_3="54.73971" pt_clust_4="58.46351" pt_clust_5="14000.00000" pt_clust_6="33.64078"></scales>
<clustering>
<clus scale="   33.641">  1  6  2 -1</clus>
<clus scale="   54.740">  1  3  2 -1</clus>
<clus scale="   58.464">  1  4  2 -1</clus>
<clus scale="   58.464">  2  3  1 -1</clus>
</clustering>
</event>
<event>
 6    0  0.4017242E+002  0.1005140E+03  0.7546771E-02  0.1279219E+00
         21   -1    0    0  501  502  0.00000000000E+00  0.00000000000E+00  0.11620509508E+03  0.11620509508E+03  0.00000000000E+00 0. -1.
          2   -1    0    0  503    0 -0.00000000000E+00 -0.00000000000E+00 -0.37463980897E+03  0.37463980897E+03  0.00000000000E+00 0.  1.
         21    1    1    2  503  504  0.14708604377E+02  0.33116415808E+02 -0.46033274311E+02  0.58584147877E+02  0.00000000000E+00 0. -1.
         21    1    1    2  504  505  0.83472371425E+02 -0.79245177976E+01  0.14593992217E+02  0.85108280340E+02  0.00000000000E+00 0. -1.
         21    1    1    2  505  502  0.15588874939E+02  0.37408120786E+02  0.35768351616E+02  0.54053265396E+02  0.00000000000E+00 0. -1.
          2    1    1    2  501    0 -0.11376985074E+03 -0.62600018796E+02 -0.26276378341E+03  0.29309921044E+03  0.00000000000E+00 0.  1.
<scales pt_clust_3="36.23589" pt_clust_4="14000.00000" pt_clust_5="41.55380" pt_clust_6="100.51399"></scales>
<clustering>
<clus scale="   36.236">  2  3  1 -1</clus>
<clus scale="   41.554">  1  5  2 -1</clus>
<clus scale="  100.514">  2  6  1 -1</clus>
<clus scale="   41.554">  1  3  2 -1</clus>
</clustering>
</event>
<event>
 6    0  0.4017242E+002  0.1576681E+03  0.7546771E-02  0.1191355E+00
          2   -1    0    0  503    0 -0.00000000000E+00  0.00000000000E+00  0.65545169309E+03  0.65545169309E+03  0.00000000000E+00 0.  1.
         21   -1    0    0  505  502  0.00000000000E+00 -0.00000000000E+00 -0.66148705249E+02  0.66148705249E+02  0.00000000000E+00 0.  1.
         21    1    1    2  503  504  0.30211428451E+02  0.26181158854E+02  0.15338381950E+03  0.15850797952E+03  0.00000000000E+00 0.  1.
         21    1    1    2  504  502  0.39791245573E+02  0.12838894810E+03  0.27016513853E+03  0.30175531030E+03  0.00000000000E+00 0.  1.
         21    1    1    2  505  501 -0.85269472337E+00 -0.55203354150E+02 -0.10653390949E+01  0.55220216815E+02  0.00000000000E+00 0. -1.
          2    1    1    2  501    0 -0.69149979301E+02 -0.99366752806E+02  0.16681936891E+03  0.20611689170E+03  0.00000000000E+00 0.  1.
<scales pt_clust_3="32.97651" pt_clust_4="32.97651" pt_clust_5="55.20994" pt_clust_6="145.61230"></scales>
<clustering>
<clus scale="   32.977">  3  4 -1 -1</clus>
<clus scale="   55.210">  2  5  1 -1</clus>
<clus scale="  145.612">  2  6  1 -1</clus>
<clus scale="   55.210">  2  3  1 -1</clus>
</clustering>
</event>
<event>
 6    0  0.4017242E+002  0.1038336E+03  0.7546771E-02  0.1272435E+00
          1   -1    0    0  504    0 -0.00000000000E+00  0.00000000000E+00  0.94959555246E+03  0.94959555246E+03  0.00000000000E+00 0. -1.
         21   -1    0    0  503  502  0.00000000000E+00 -0.00000000000E+00 -0.66021535360E+02  0.66021535360E+02  0.00000000000E+00 0. -1.
         21    1    1    2  503  505 -0.35403150758E+02  0.68297326741E+02 -0.30246186831E+01  0.76987377159E+02  0.00000000000E+00 0. -1.
         21    1    1    2  504  502 -0.96053743032E+01 -0.11549367357E+03  0.28927094347E+03  0.31162273760E+03  0.00000000000E+00 0. -1.
         21    1    1    2  505  501  0.56854279931E+01  0.99697027821E+02  0.19209868436E+03  0.21650340871E+03  0.00000000000E+00 0. -1.
          1    1    1    2  501    0  0.39323097068E+02 -0.52500680991E+02  0.40522900795E+03  0.41050356436E+03  0.00000000000E+00 0. -1.
<scales pt_clust_3="72.51437" pt_clust_4="103.83360" pt_clust_5="14000.00000" pt_clust_6="65.59442"></scales>
<clustering>
<clus scale="   65.594">  1  6  2 -1</clus>
<clus scale="   72.514">  2  3  1 -1</clus>
<clus scale="  103.834">  2  4  1 -1</clus>
<clus scale="   72.514">  2  3  1 -1</clus>
</clustering>
</event>
<event>
 6    0  0.4017242E+002  0.1438634E+03  0.7546771E-02  0.1208223E+00
          3   -1    0    0  505    0 -0.00000000000E+00  0.00000000000E+00  0.51646947384E+03  0.51646947384E+03  0.00000000000E+00 0. -1.
         21   -1    0    0  504  502  0.00000000000E+00 -0.00000000000E+00 -0.12134856756E+03  0.12134856756E+03  0.00000000000E+00 0. -1.
         21    1    1    2  503  501 -0.56194761373E+02 -0.40128266457E+02 -0.52393593712E+01  0.69250125352E+02  0.00000000000E+00 0. -1.
         21    1    1    2  504  503 -0.29066415660E+02 -0.95289931159E+02  0.13636131036E+02  0.10055332699E+03  0.00000000000E+00 0. -1.
         21    1    1    2  505  502  0.97687921759E+01  0.30715935312E+02 -0.22242162296E+02  0.39161355521E+02  0.00000000000E+00 0. -1.
          3    1    1    2  501    0  0.75492384857E+02  0.10470226230E+03  0.40896629692E+03  0.42885323354E+03  0.00000000000E+00 0. -1.
<scales pt_clust_3="47.02234" pt_clust_4="47.02234" pt_clust_5="32.23194" pt_clust_6="132.44440"></scales>
<clustering>
<clus scale="   32.232">  2  5  1 -1</clus>
<clus scale="   47.022">  3  4 -1 -1</clus>
<clus scale="  132.444">  1  6  2 -1</clus>
<clus scale="   32.232">  2  3  1 -1</clus>
</clustering>
</event>
<event>
 6    0  0.4017242E+002  0.1644674E+03  0.7546771E-02  0.1183743E+00
          2   -1    0    0  504    0 -0.00000000000E+00  0.00000000000E+00  0.21786567118E+04  0.21786567118E+04  0.00000000000E+00 0.  1.
         21   -1    0    0  505  502  0.00000000000E+00 -0.00000000000E+00 -0.63690198556E+02  0.63690198556E+02  0.00000000000E+00 0.  1.
         21    1    1    2  503  502 -0.88852934134E+02  0.39045692810E+02  0.14723240201E+03  0.17634282019E+03  0.00000000000E+00 0.  1.
         21    1    1    2  504  503  0.12189838102E+03  0.15271855590E+03  0.58973545982E+03  0.62126490742E+03  0.00000000000E+00 0. -1.
         21    1    1    2  505  501 -0.43572504389E+02 -0.13877203643E+03  0.12853179044E+03  0.19410477167E+03  0.00000000000E+00 0.  1.
          2    1    1    2  501    0  0.10527057503E+02 -0.52992212288E+02  0.12494668609E+04  0.12506344110E+04  0.00000000000E+00 0.  1.
<scales pt_clust_3="91.98422" pt_clust_4="164.46735" pt_clust_5="14000.00000" pt_clust_6="54.02771"></scales>
<clustering>
<clus scale="   54.028">  1  6  2 -1</clus>
<clus scale="   91.984">  2  3  1 -1</clus>
<clus scale="  164.467">  1  4  2 -1</clus>
<clus scale="   91.984">  2  3  1 -1</clus>
</clustering>
</event>
<event>
 6    0  0.4017242E+002  0.1668963E+03  0.7546771E-02  0.1181124E+00
          2   -1    0    0  502    0 -0.00000000000E+00  0.00000000000E+00  0.19203914696E+04  0.19203914696E+04  0.00000000000E+00 0.  1.
         21   -1    0    0  503  502  0.00000000000E+00 -0.00000000000E+00 -0.16628123409E+03  0.16628123409E+03  0.00000000000E+00 0.  1.
         21    1    1    2  503  504 -0.26117132093E+02  0.15771305185E+03 -0.89532134991E+02  0.18322531078E+03  0.00000000000E+00 0.  1.
         21    1    1    2  504  505 -0.33991735154E+02 -0.85807209293E+02  0.84034242374E+02  0.12482014708E+03  0.00000000000E+00 0.  1.
         21    1    1    2  505  501  0.26964408926E+02 -0.47630952369E+02  0.71623482463E+02  0.90142721350E+02  0.00000000000E+00 0.  1.
          2    1    1    2  501    0  0.33144458322E+02 -0.24274890190E+02  0.16879846457E+04  0.16884845245E+04  0.00000000000E+00 0.  1.
<scales pt_clust_3="154.04481" pt_clust_4="53.35129" pt_clust_5="53.35129" pt_clust_6="41.08315"></scales>
<clustering>
<clus scale="   41.083">  1  6  2 -1</clus>
<clus scale="   53.351">  4  5 -1 -1</clus>
<clus scale="  154.045">  2  3  1 -1</clus>
<clus scale="  154.045">  2  3  1 -1</clus>
</clustering>
</event>
<event>
 6    0  0.4017242E+002  0.1881539E+03  0.7546771E-02  0.1160137E+00
         21   -1    0    0  503  502  0.00000000000E+00  0.00000000000E+00  0.15490165639E+04  0.15490165639E+04  0.00000000000E+00 0. -1.
          1   -1    0    0  505    0 -0.00000000000E+00 -0.00000000000E+00 -0.33727860543E+03  0.33727860543E+03  0.00000000000E+00 0. -1.
         21    1    1    2  503  501  0.55261099371E+02 -0.46607771675E+02  0.10294286336E+03  0.12579072542E+03  0.00000000000E+00 0. -1.
         21    1    1    2  504  502  0.11073577297E+03 -0.12635781915E+03  0.83521660588E+03  0.85194805512E+03  0.00000000000E+00 0. -1.
         21    1    1    2  505  504 -0.19857897214E+03  0.16544128806E+03  0.56179862791E+03  0.61840288348E+03  0.00000000000E+00 0. -1.
          1    1    1    2  501    0  0.32582099799E+02  0.75243027601E+01 -0.28822013864E+03  0.29015350537E+03  0.00000000000E+00 0. -1.
<scales pt_clust_3="77.31733" pt_clust_4="14000.00000" pt_clust_5="188.15388" pt_clust_6="33.43962"></scales>
<clustering>
<clus scale="   33.440">  2  6  1 -1</clus>
<clus scale="   77.317">  2  3  1 -1</clus>
<clus scale="  188.154">  2  5  1 -1</clus>
<clus scale="  188.154">  1  3  2 -1</clus>
</clustering>
</event>
<event>
 6    0  0.4017242E+002  0.1633941E+03  0.7546771E-02  0.1184917E+00
         21   -1    0    0  504  502  0.00000000000E+00  0.00000000000E+00  0.15634593953E+03  0.15634593953E+03  0.00000000000E+00 0.  1.
         -1   -1    0    0    0  501 -0.00000000000E+00 -0.00000000000E+00 -0.41392488012E+03  0.41392488012E+03  0.00000000000E+00 0. -1.
         21    1    1    2  503  502 -0.11073721073E+03 -0.44614847084E+02  0.66162767231E+02  0.13649441815E+03  0.00000000000E+00 0.  1.
         21    1    1    2  504  501  0.96940941746E+02  0.61837127565E+02 -0.13765648674E+03  0.17936188244E+03  0.00000000000E+00 0. -1.
         21    1    1    2  505  503 -0.14877563482E+02 -0.49912795811E+02  0.10454581002E+02  0.53121816091E+02  0.00000000000E+00 0.  1.
         -1    1    1    2    0  505  0.28673832462E+02  0.32690515329E+02 -0.19653980208E+03  0.20129270296E+03  0.00000000000E+00 0. -1.
<scales pt_clust_3="47.83773" pt_clust_4="146.04141" pt_clust_5="47.83773" pt_clust_6="43.48400"></scales>
<clustering>
<clus scale="   43.484">  2  6  1 -1</clus>
<clus scale="   47.838">  3  5 -1 -1</clus>
<clus scale="  146.041">  2  4  1 -1</clus>
<clus scale="  163.394">  1  3  2 -1</clus>
</clustering>
</event>
<event>
 6    0  0.4017242E+002  0.9316281E+02  0.7546771E-02  0.1295368E+00
         -1   -1    0    0    0  501 -0.00000000000E+00  0.00000000000E+00  0.13847368300E+03  0.13847368300E+03  0.00000000000E+00 0. -1.
         21   -1    0    0  504  502  0.00000000000E+00 -0.00000000000E+00 -0.13108501902E+03  0.13108501902E+03  0.00000000000E+00 0. -1.
         21    1    1    2  503  502 -0.19667331650E+02 -0.33782747094E+02 -0.13458686537E+02  0.41342643586E+02  0.00000000000E+00 0. -1.
         21    1    1    2  504  501 -0.60444969994E+02  0.33563793568E+02 -0.28035855222E+02  0.74606513216E+02  0.00000000000E+00 0. -1.
         21    1    1    2  505  503 -0.42973889302E+01 -0.48069314014E+02  0.19126036114E+02  0.51912732145E+02  0.00000000000E+00 0. -1.
         -1    1    1    2    0  505  0.84409690574E+02  0.48288267540E+02  0.29757169631E+02  0.10169681307E+03  0.00000000000E+00 0. -1.
<scales pt_clust_3="33.55866" pt_clust_4="69.13843" pt_clust_5="33.55866" pt_clust_6="85.37523"></scales>
<clustering>
<clus scale="   33.559">  3  5 -1 -1</clus>
<clus scale="   69.138">  2  4  1 -1</clus>
<clus scale="   85.375">  1  6  2 -1</clus>
<clus scale="   69.138">  2  3  1 -1</clus>
</clustering>
</event>
<event>
 6    0  0.4017242E+002  0.7231218E+02  0.7546771E-02  0.1352402E+00
          1   -1    0    0  504    0 -0.00000000000E+00  0.00000000000E+00  0.57321530703E+03  0.57321530703E+03  0.00000000000E+00 0.  1.
         21   -1    0    0  503  502  0.00000000000E+00 -0.00000000000E+00 -0.99304440216E+03  0.99304440216E+03  0.00000000000E+00 0. -1.
         21    1    1    2  503  501  0.10141239153E+03 -0.62480367917E+02 -0.16017000114E+03  0.19960635961E+03  0.00000000000E+00 0.  1.
         21    1    1    2  504  505 -0.52429619564E+02 -0.20805762004E+02 -0.79169665273E+02  0.97208953495E+02  0.00000000000E+00 0.  1.
         21    1    1    2  505  502 -0.11457890286E+02  0.41353031736E+02 -0.72287503688E+03  0.72414755087E+03  0.00000000000E+00 0. -1.
          1    1    1    2  501    0 -0.37524881681E+02  0.41933098186E+02  0.54238560816E+03  0.54529684522E+03  0.00000000000E+00 0.  1.
<scales pt_clust_3="14000.00000" pt_clust_4="72.31218" pt_clust_5="42.91103" pt_clust_6="56.47945"></scales>
<clustering>
<clus scale="   42.911">  2  5  1 -1</clus>
<clus scale="   56.479">  1  6  2 -1</clus>
<clus scale="   72.312">  2  4  1 -1</clus>
<clus scale="   42.911">  2  3  1 -1</clus>
</clustering>
</event>
<event>
 6    0  0.4017242E+002  0.1049845E+03  0.7546771E-02  0.1270150E+00
         21   -1    0    0  503  502  0.00000000000E+00  0.00000000000E+00  0.13571375021E+03  0.13571375021E+03  0.00000000000E+00 0. -1.
          2   -1    0    0  505    0 -0.00000000000E+00 -0.00000000000E+00 -0.14667207532E+04  0.14667207532E+04  0.00000000000E+00 0. -1.
         21    1    1    2  503  501  0.43829300885E+02  0.15883201574E+02  0.16089750810E+02  0.49316972631E+02  0.00000000000E+00 0. -1.
         21    1    1    2  504  502  0.37824769583E+02 -0.84637104550E+02  0.72767975514E+02  0.11785300557E+03  0.00000000000E+00 0. -1.
         21    1    1    2  505  504 -0.37619623090E+02 -0.37264138105E+02 -0.13099597366E+03  0.14129330184E+03  0.00000000000E+00 0. -1.
          2    1    1    2  501    0 -0.44034447378E+02  0.10601804108E+03 -0.12888687557E+04  0.12939712234E+04  0.00000000000E+00 0. -1.
<scales pt_clust_3="46.61849" pt_clust_4="14000.00000" pt_clust_5="50.84575" pt_clust_6="104.98450"></scales>
<clustering>
<clus scale="   46.618">  1  3  2 -1</clus>
<clus scale="   50.846">  2  5  1 -1</clus>
<clus scale="  104.984">  2  6  1 -1</clus>
<clus scale="   46.618">  1  3  2 -1</clus>
</clustering>
</event>
<event>
 6    0  0.4017242E+002  0.1864394E+03  0.7546771E-02  0.1161712E+00
         21   -1    0    0  505  502  0.00000000000E+00  0.00000000000E+00  0.79779034465E+03  0.79779034465E+03  0.00000000000E+00 0. -1.
          2   -1    0    0  504    0 -0.00000000000E+00 -0.00000000000E+00 -0.13279687485E+04  0.13279687485E+04  0.00000000000E+00 0.  1.
         21    1    1    2  503  502 -0.89708709299E+02 -0.13060135709E+02 -0.24339238653E+02  0.93864893368E+02  0.00000000000E+00 0. -1.
         21    1    1    2  504  503 -0.55097770056E+02 -0.13730737271E+02 -0.67830555770E+02  0.88460622353E+02  0.00000000000E+00 0. -1.
         21    1    1    2  505  501 -0.34838842908E+02 -0.72186028269E+01  0.74526692818E+03  0.74611570647E+03  0.00000000000E+00 0. -1.
          2    1    1    2  501    0  0.17964532226E+03  0.34009475807E+02 -0.11832755376E+04  0.11973178710E+04  0.00000000000E+00 0.  1.
<scales pt_clust_3="41.32897" pt_clust_4="41.32897" pt_clust_5="35.57883" pt_clust_6="178.04215"></scales>
<clustering>
<clus scale="   35.579">  1  5  2 -1</clus>
<clus scale="   41.329">  3  4 -1 -1</clus>
<clus scale="  178.042">  2  6  1 -1</clus>
<clus scale="   35.579">  1  3  2 -1</clus>
</clustering>
</event>
<event>
 6    0  0.4017242E+002  0.1163017E+03  0.7546771E-02  0.1249326E+00
          1   -1    0    0  504    0 -0.00000000000E+00  0.00000000000E+00  0.33780012515E+03  0.33780012515E+03  0.00000000000E+00 0.  1.
         21   -1    0    0  505  502  0.00000000000E+00 -0.00000000000E+00 -0.12427505225E+03  0.12427505225E+03  0.00000000000E+00 0. -1.
         21    1    1    2  503  502  0.88120490848E+02  0.31161296747E+02 -0.48324881598E+02  0.10522139280E+03  0.00000000000E+00 0. -1.
         21    1    1    2  504  503 -0.82020616494E+01 -0.31087965373E+02  0.51121511054E+02  0.60391591293E+02  0.00000000000E+00 0. -1.
         21    1    1    2  505  501  0.38021988488E+02 -0.44833695598E+02  0.10361663498E+02  0.59691673958E+02  0.00000000000E+00 0.  1.
          1    1    1    2  501    0 -0.11794041769E+03  0.44760364224E+02  0.20036677994E+03  0.23677051935E+03  0.00000000000E+00 0.  1.
<scales pt_clust_3="14000.00000" pt_clust_4="32.15176" pt_clust_5="61.15883" pt_clust_6="116.30171"></scales>
<clustering>
<clus scale="   32.152">  1  4  2 -1</clus>
<clus scale="   61.159">  2  5  1 -1</clus>
<clus scale="  116.302">  1  6  2 -1</clus>
<clus scale="   61.159">  2  3  1 -1</clus>
</clustering>
</event>
<event>
 6    0  0.4017242E+002  0.7838991E+02  0.7546771E-02  0.1333684E+00
         21   -1    0    0  505  502  0.00000000000E+00  0.00000000000E+00  0.22653512486E+03  0.22653512486E+03  0.00000000000E+00 0. -1.
          1   -1    0    0  504    0 -0.00000000000E+00 -0.00000000000E+00 -0.47478993828E+03  0.47478993828E+03  0.00000000000E+00 0.  1.
         21    1    1    2  503  501 -0.80647357826E+02  0.37057316087E+02  0.42633775930E+02  0.98462580963E+02  0.00000000000E+00 0. -1.
         21    1    1    2  504  502  0.78314954735E+00  0.65712590877E+02  0.40330317177E+02  0.77105722269E+02  0.00000000000E+00 0. -1.
         21    1    1    2  505  503  0.34201096009E+02 -0.92162687627E+02  0.70716315233E+02  0.12109695784E+03  0.00000000000E+00 0. -1.
          1    1    1    2  501    0  0.45663112270E+02 -0.10607219337E+02 -0.40193522175E+03  0.40465980207E+03  0.00000000000E+00 0.  1.
<scales pt_clust_3="78.38991" pt_clust_4="64.21822" pt_clust_5="14000.00000" pt_clust_6="46.87892"></scales>
<clustering>
<clus scale="   46.879">  2  6  1 -1</clus>
<clus scale="   64.218">  1  4  2 -1</clus>
<clus scale="   78.390">  2  3  1 -1</clus>
<clus scale="   64.218">  1  3  2 -1</clus>
</clustering>
</event>
<event>
 6    0  0.4017242E+002  0.3052247E+03  0.7546771E-02  0.1082658E+00
         21   -1    0    0  505  502  0.00000000000E+00  0.00000000000E+00  0.45884945045E+03  0.45884945045E+03  0.00000000000E+00 0. -1.
          1   -1    0    0  504    0 -0.00000000000E+00 -0.00000000000E+00 -0.15160026019E+04  0.15160026019E+04  0.00000000000E+00 0.  1.
         21    1    1    2  503  502 -0.61965880787E+02 -0.11314642055E+03  0.17016962196E+03  0.21354058889E+03  0.00000000000E+00 0. -1.
         21    1    1    2  504  503 -0.18402955207E+02 -0.13959294524E+03  0.99032314672E+02  0.17214022909E+03  0.00000000000E+00 0. -1.
         21    1    1    2  505  501 -0.13177760817E+01 -0.32518734994E+02  0.11400796582E+03  0.11856230822E+03  0.00000000000E+00 0. -1.
          1    1    1    2  501    0  0.81686612076E+02  0.28525810079E+03 -0.14403630539E+04  0.14706089262E+04  0.00000000000E+00 0.  1.
<scales pt_clust_3="75.04140" pt_clust_4="75.04140" pt_clust_5="32.54542" pt_clust_6="295.32766"></scales>
<clustering>
<clus scale="   32.545">  1  5  2 -1</clus>
<clus scale="   75.041">  3  4 -1 -1</clus>
<clus scale="  295.328">  2  6  1 -1</clus>
<clus scale="   32.545">  1  3  2 -1</clus>
</clustering>
</event>
<event>
 6    0  0.4017242E+002  0.1468188E+03  0.7546771E-02  0.1204437E+00
         21   -1    0    0  503  502  0.00000000000E+00  0.00000000000E+00  0.10156538467E+04  0.10156538467E+04  0.00000000000E+00 0. -1.
          1   -1    0    0  502    0 -0.00000000000E+00 -0.00000000000E+00 -0.75628894994E+02  0.75628894994E+02  0.00000000000E+00 0. -1.
         21    1    1    2  503  504 -0.82416904703E+02 -0.38514452581E+02  0.25098868609E+03  0.26696672036E+03  0.00000000000E+00 0. -1.
         21    1    1    2  504  505  0.12641975491E+02  0.85101914806E+02  0.44365161369E+03  0.45191692796E+03  0.00000000000E+00 0. -1.
         21    1    1    2  505  501  0.31916931506E+02  0.79643496680E+02  0.22272411545E+03  0.23867930091E+03  0.00000000000E+00 0. -1.
          1    1    1    2  501    0  0.37857997706E+02 -0.12623095890E+03  0.22660536456E+02  0.13371979243E+03  0.00000000000E+00 0. -1.
<scales pt_clust_3="90.97202" pt_clust_4="61.07190" pt_clust_5="61.07190" pt_clust_6="133.47576"></scales>
<clustering>
<clus scale="   61.072">  4  5 -1 -1</clus>
<clus scale="   90.972">  1  3  2 -1</clus>
<clus scale="  133.476">  2  6  1 -1</clus>
<clus scale="   90.972">  1  3  2 -1</clus>
</clustering>
</event>
<event>
 6    0  0.4017242E+002  0.2790846E+03  0.7546771E-02  0.1096190E+00
          1   -1    0    0  503    0 -0.00000000000E+00  0.00000000000E+00  0.17515404901E+04  0.17515404901E+04  0.00000000000E+00 0.  1.
         21   -1    0    0  504  502  0.00000000000E+00 -0.00000000000E+00 -0.17206172583E+03  0.17206172583E+03  0.00000000000E+00 0. -1.
         21    1    1    2  503  505  0.96085231895E+02  0.49075195631E+01  0.21932859792E+03  0.23950258746E+03  0.00000000000E+00 0. -1.
         21    1    1    2  504  501 -0.21901869096E+03 -0.22804580635E+03  0.20281370045E+03  0.37564274767E+03  0.00000000000E+00 0. -1.
         21    1    1    2  505  502 -0.24324412415E+01  0.45371179128E+02 -0.58072725041E+02  0.73735351492E+02  0.00000000000E+00 0. -1.
          1    1    1    2  501    0  0.12536590031E+03  0.17776710766E+03  0.12154091910E+04  0.12347215293E+04  0.00000000000E+00 0.  1.
<scales pt_clust_3="96.29638" pt_clust_4="279.08460" pt_clust_5="45.43634" pt_clust_6="14000.00000"></scales>
<clustering>
<clus scale="   45.436">  2  5  1 -1</clus>
<clus scale="   96.296">  1  3  2 -1</clus>
<clus scale="  279.085">  2  4  1 -1</clus>
<clus scale="   45.436">  2  3  1 -1</clus>
</clustering>
</event>
<event>
 6    0  0.4017242E+002  0.1309866E+03  0.7546771E-02  0.1225999E+00
         21   -1    0    0  503  502  0.00000000000E+00  0.00000000000E+00  0.45775416730E+02  0.45775416730E+02  0.00000000000E+00 0. -1.
          1   -1    0    0  502    0 -0.00000000000E+00 -0.00000000000E+00 -0.32186690115E+04  0.32186690115E+04  0.00000000000E+00 0. -1.
         21    1    1    2  503  504  0.88473484544E+02 -0.29270311465E+02 -0.99598835001E+02  0.13639734797E+03  0.00000000000E+00 0. -1.
         21    1    1    2  504  505  0.54800502727E+02  0.20446086767E+02 -0.23648891464E+02  0.63090471790E+02  0.00000000000E+00 0. -1.
         21    1    1    2  505  501 -0.77677550758E+02 -0.53486117077E+01 -0.20149764630E+03  0.21601784881E+03  0.00000000000E+00 0. -1.
          1    1    1    2  501    0 -0.65596436514E+02  0.14172836405E+02 -0.28481482220E+04  0.28489387597E+04  0.00000000000E+00 0. -1.
<scales pt_clust_3="50.10643" pt_clust_4="50.10643" pt_clust_5="114.70568" pt_clust_6="67.11007"></scales>
<clustering>
<clus scale="   50.106">  3  4 -1 -1</clus>
<clus scale="   67.110">  2  6  1 -1</clus>
<clus scale="  114.706">  2  5  1 -1</clus>
<clus scale="  130.987">  1  3  2 -1</clus>
</clustering>
</event>
<event>
 6    0  0.4017242E+002  0.2236072E+03  0.7546771E-02  0.1131222E+00
         21   -1    0    0  504  502  0.00000000000E+00  0.00000000000E+00  0.65630517179E+03  0.65630517179E+03  0.00000000000E+00 0. -1.
          2   -1    0    0  505    0 -0.00000000000E+00 -0.00000000000E+00 -0.52462429792E+03  0.52462429792E+03  0.00000000000E+00 0. -1.
         21    1    1    2  503  502 -0.10148651357E+02  0.40812077800E+02  0.47269159752E+02  0.63269220656E+02  0.00000000000E+00 0. -1.
         21    1    1    2  504  501  0.23238211300E+02  0.33218242198E+02  0.40577056290E+03  0.40779065192E+03  0.00000000000E+00 0. -1.
         21    1    1    2  505  503  0.99832117766E+02  0.10820453498E+03  0.13872743332E+03  0.20228686039E+03  0.00000000000E+00 0. -1.
          2    1    1    2  501    0 -0.11292167771E+03 -0.18223485498E+03 -0.46008628211E+03  0.50758273675E+03  0.00000000000E+00 0. -1.
<scales pt_clust_3="40.26710" pt_clust_4="40.53969" pt_clust_5="40.26710" pt_clust_6="210.53258"></scales>
<clustering>
<clus scale="   40.267">  3  5 -1 -1</clus>
<clus scale="   40.540">  1  4  2 -1</clus>
<clus scale="  210.533">  2  6  1 -1</clus>
<clus scale="   40.540">  1  3  2 -1</clus>
</clustering>
</event>
<event>
 6    0  0.4017242E+002  0.1492605E+03  0.7546771E-02  0.1201385E+00
         21   -1    0    0  505  502  0.00000000000E+00  0.00000000000E+00  0.26429259208E+03  0.26429259208E+03  0.00000000000E+00 0. -1.
          2   -1    0    0  504    0 -0.00000000000E+00 -0.00000000000E+00 -0.10994328609E+04  0.10994328609E+04  0.00000000000E+00 0. -1.
         21    1    1    2  503  502  0.17091469416E+02 -0.40998894794E+02  0.95042254813E+02  0.10490976075E+03  0.00000000000E+00 0. -1.
         21    1    1    2  504  503  0.13524164404E+03  0.36041997801E+02  0.46481217979E+02  0.14747824081E+03  0.00000000000E+00 0. -1.
         21    1    1    2  505  501 -0.15563707911E+03 -0.37430344792E+02 -0.28951245681E+02  0.16267177300E+03  0.00000000000E+00 0. -1.
          2    1    1    2  501    0  0.33039656502E+01  0.42387241785E+02 -0.94771249594E+03  0.94866567843E+03  0.00000000000E+00 0. -1.
<scales pt_clust_3="43.18860" pt_clust_4="149.26054" pt_clust_5="14000.00000" pt_clust_6="42.51581"></scales>
<clustering>
<clus scale="   42.516">  2  6  1 -1</clus>
<clus scale="   43.189">  1  3  2 -1</clus>
<clus scale="  149.261">  1  4  2 -1</clus>
<clus scale="   43.189">  1  3  2 -1</clus>
</clustering>
</event>
<event>
 6    0  0.4017242E+002  0.2765155E+03  0.7546771E-02  0.1097607E+00
         -1   -1    0    0    0  501 -0.00000000000E+00  0.00000000000E+00  0.40859920891E+03  0.40859920891E+03  0.00000000000E+00 0. -1.
         21   -1    0    0  505  502  0.00000000000E+00 -0.00000000000E+00 -0.21275646443E+04  0.21275646443E+04  0.00000000000E+00 0. -1.
         21    1    1    2  503  501 -0.12425786492E+03  0.20699407725E+03 -0.74652547762E+02  0.25270450708E+03  0.00000000000E+00 0. -1.
         21    1    1    2  504  502  0.98265551159E+02  0.15427235568E+03 -0.98491146720E+03  0.10017518038E+04  0.00000000000E+00 0. -1.
         21    1    1    2  505  503 -0.19671000617E+01 -0.40437883361E+03 -0.92587125529E+03  0.10103285069E+04  0.00000000000E+00 0. -1.
         -1    1    1    2    0  504  0.27959413822E+02  0.43112400676E+02  0.26646983488E+03  0.27137903533E+03  0.00000000000E+00 0. -1.
<scales pt_clust_3="14000.00000" pt_clust_4="186.00762" pt_clust_5="276.51547" pt_clust_6="51.38490"></scales>
<clustering>
<clus scale="   51.385">  1  6  2 -1</clus>
<clus scale="  186.008">  2  4  1 -1</clus>
<clus scale="  276.515">  2  5  1 -1</clus>
<clus scale="  186.008">  2  3  1 -1</clus>
</clustering>
</event>
<event>
 6    0  0.4017242E+002  0.2233283E+03  0.7546771E-02  0.1131426E+00
          2   -1    0    0  505    0 -0.00000000000E+00  0.00000000000E+00  0.20436088892E+04  0.20436088892E+04  0.00000000000E+00 0. -1.
         21   -1    0    0  503  502  0.00000000000E+00 -0.00000000000E+00 -0.32819515385E+03  0.32819515385E+03  0.00000000000E+00 0. -1.
         21    1    1    2  503  504 -0.21019033939E+02  0.25279816716E+03 -0.84541231194E+02  0.26738723395E+03  0.00000000000E+00 0. -1.
         21    1    1    2  504  501  0.15146389070E+02 -0.19930781150E+03  0.55874919973E+02  0.20754523245E+03  0.00000000000E+00 0. -1.
         21    1    1    2  505  502 -0.26159783218E+02 -0.35649699567E+02 -0.69796564264E+02  0.82624425688E+02  0.00000000000E+00 0. -1.
          2    1    1    2  501    0  0.32032428087E+02 -0.17840656086E+02  0.18138766108E+04  0.18142471510E+04  0.00000000000E+00 0. -1.
<scales pt_clust_3="223.32829" pt_clust_4="14000.00000" pt_clust_5="44.10215" pt_clust_6="36.66559"></scales>
<clustering>
<clus scale="   36.666">  1  6  2 -1</clus>
<clus scale="   44.102">  2  5  1 -1</clus>
<clus scale="  223.328">  2  3  1 -1</clus>
<clus scale="   44.102">  2  3  1 -1</clus>
</clustering>
</event>
<event>
 6    0  0.4017242E+002  0.1843634E+03  0.7546771E-02  0.1163646E+00
         21   -1    0    0  504  502  0.00000000000E+00  0.00000000000E+00  0.49187157952E+02  0.49187157952E+02  0.00000000000E+00 0. -1.
         -1   -1    0    0    0  501 -0.00000000000E+00 -0.00000000000E+00 -0.22248038993E+04  0.22248038993E+04  0.00000000000E+00 0.  1.
         21    1    1    2  503  502 -0.11979253671E+03  0.12652206537E+03 -0.17463217595E+03  0.24668701173E+03  0.00000000000E+00 0. -1.
         21    1    1    2  504  505  0.69114785859E+02 -0.84144777285E+02 -0.37567039830E+03  0.39113353900E+03  0.00000000000E+00 0.  1.
         21    1    1    2  505  501  0.62922191206E+02 -0.78477771738E+02 -0.49006958405E+03  0.50028607817E+03  0.00000000000E+00 0.  1.
         -1    1    1    2    0  503 -0.12244440355E+02  0.36100483649E+02 -0.11352445831E+04  0.11358844284E+04  0.00000000000E+00 0.  1.
<scales pt_clust_3="180.95998" pt_clust_4="33.89036" pt_clust_5="33.89036" pt_clust_6="38.12048"></scales>
<clustering>
<clus scale="   33.890">  4  5 -1 -1</clus>
<clus scale="   38.120">  2  6  1 -1</clus>
<clus scale="  180.960">  1  3  2 -1</clus>
<clus scale="  180.960">  1  3  2 -1</clus>
</clustering>
</event>
<event>
 6    0  0.4017242E+002  0.1140701E+03  0.7546771E-02  0.1253213E+00
         21   -1    0    0  503  502  0.00000000000E+00  0.00000000000E+00  0.20661406921E+03  0.20661406921E+03  0.00000000000E+00 0. -1.
          2   -1    0    0  505    0 -0.00000000000E+00 -0.00000000000E+00 -0.12378715958E+04  0.12378715958E+04  0.00000000000E+00 0. -1.
         21    1    1    2  503  504 -0.57004495518E+02 -0.11551067091E+02  0.53680105097E+02  0.79148552377E+02  0.00000000000E+00 0.  1.
         21    1    1    2  504  501 -0.57071710690E+02 -0.22871809750E+02 -0.36044576681E+00  0.61485199548E+02  0.00000000000E+00 0. -1.
         21    1    1    2  505  502  0.43812032238E+02  0.96420573269E+02  0.81736035860E+02  0.13378041963E+03  0.00000000000E+00 0. -1.
          2    1    1    2  501    0  0.70264173970E+02 -0.61997696428E+02 -0.11663132218E+04  0.11700714935E+04  0.00000000000E+00 0. -1.
<scales pt_clust_3="50.87961" pt_clust_4="50.87961" pt_clust_5="101.36787" pt_clust_6="93.70575"></scales>
<clustering>
<clus scale="   50.880">  3  4 -1 -1</clus>
<clus scale="   93.706">  2  6  1 -1</clus>
<clus scale="  101.368">  1  5  2 -1</clus>
<clus scale="  101.368">  1  3  2 -1</clus>
</clustering>
</event>
<event>
 6    0  0.4017242E+002  0.2381134E+03  0.7546771E-02  0.1121056E+00
          2   -1    0    0  505    0 -0.00000000000E+00  0.00000000000E+00  0.16521571757E+04  0.16521571757E+04  0.00000000000E+00 0. -1.
         21   -1    0    0  504  502  0.00000000000E+00 -0.00000000000E+00 -0.16722104985E+03  0.16722104985E+03  0.00000000000E+00 0. -1.
         21    1    1    2  503  501 -0.66013668425E+02 -0.12390925250E+02  0.56819228051E+02  0.87975929229E+02  0.00000000000E+00 0.  1.
         21    1    1    2  504  503 -0.83359211775E+02  0.33971079239E+02  0.70399185021E+02  0.11427527145E+03  0.00000000000E+00 0.  1.
         21    1    1    2  505  502  0.37480747549E+03 -0.32767836334E+02  0.17837567976E+03  0.41637994417E+03  0.00000000000E+00 0. -1.
          2    1    1    2  501    0 -0.22543459529E+03  0.11187682345E+02  0.11793420330E+04  0.12007470807E+04  0.00000000000E+00 0. -1.
<scales pt_clust_3="38.07686" pt_clust_4="157.22921" pt_clust_5="238.11344" pt_clust_6="14000.00000"></scales>
<clustering>
<clus scale="   38.077">  3  4 -1 -1</clus>
<clus scale="  157.229">  2  3  1 -1</clus>
<clus scale="  238.113">  2  5  1 -1</clus>
<clus scale="  157.229">  2  3  1 -1</clus>
</clustering>
</event>
<event>
 6    0  0.4017242E+002  0.6966947E+02  0.7546771E-02  0.1361221E+00
          2   -1    0    0  505    0 -0.00000000000E+00  0.00000000000E+00  0.13332181315E+04  0.13332181315E+04  0.00000000000E+00 0.  1.
         21   -1    0    0  504  502  0.00000000000E+00 -0.00000000000E+00 -0.74494450292E+02  0.74494450292E+02  0.00000000000E+00 0. -1.
         21    1    1    2  503  502 -0.13024520970E+02  0.42415049677E+02 -0.39780285345E+02  0.59591490061E+02  0.00000000000E+00 0. -1.
         21    1    1    2  504  501 -0.47465241367E+02  0.13937284703E+01  0.72403251204E+02  0.86585924965E+02  0.00000000000E+00 0. -1.
         21    1    1    2  505  503  0.10202143090E+03  0.11848533523E+02  0.14220312055E+03  0.17541518635E+03  0.00000000000E+00 0. -1.
          2    1    1    2  501    0 -0.41531668564E+02 -0.55657311670E+02  0.10838975948E+04  0.10861199804E+04  0.00000000000E+00 0.  1.
<scales pt_clust_3="44.36975" pt_clust_4="52.94300" pt_clust_5="14000.00000" pt_clust_6="69.66947"></scales>
<clustering>
<clus scale="   44.370">  2  3  1 -1</clus>
<clus scale="   52.943">  2  4  1 -1</clus>
<clus scale="   69.669">  1  6  2 -1</clus>
<clus scale="   44.370">  2  3  1 -1</clus>
</clustering>
</event>
<event>
 6    0  0.4017242E+002  0.1091056E+03  0.7546771E-02  0.1262235E+00
          2   -1    0    0  503    0 -0.00000000000E+00  0.00000000000E+00  0.16673570563E+04  0.16673570563E+04  0.00000000000E+00 0.  1.
         21   -1    0    0  505  502  0.00000000000E+00 -0.00000000000E+00 -0.45616889285E+03  0.45616889285E+03  0.00000000000E+00 0.  1.
         21    1    1    2  503  504 -0.30324913990E+02  0.33837141320E+02  0.11072108779E+03  0.11968171048E+03  0.00000000000E+00 0.  1.
         21    1    1    2  504  502  0.80611278012E+02  0.16853181443E+02  0.15428989507E+03  0.17489305186E+03  0.00000000000E+00 0.  1.
         21    1    1    2  505  501 -0.10919596229E+03 -0.15094651986E+02 -0.43363316713E+03  0.44742522317E+03  0.00000000000E+00 0.  1.
          2    1    1    2  501    0  0.58909598264E+02 -0.35595670777E+02  0.13798103477E+04  0.13815259636E+04  0.00000000000E+00 0.  1.
<scales pt_clust_3="45.43735" pt_clust_4="109.10560" pt_clust_5="14000.00000" pt_clust_6="32.40473"></scales>
<clustering>
<clus scale="   45.437">  1  3  2 -1</clus>
<clus scale="   32.405">  1  6  2 -1</clus>
<clus scale="  109.106">  1  4  2 -1</clus>
<clus scale="  109.106">  2  3  1 -1</clus>
</clustering>
</event>
<event>
 6    0  0.4017242E+002  0.9556301E+02  0.7546771E-02  0.1289913E+00
         21   -1    0    0  504  502  0.00000000000E+00  0.00000000000E+00  0.24684089108E+03  0.24684089108E+03  0.00000000000E+00 0.  1.
          1   -1    0    0  503    0 -0.00000000000E+00 -0.00000000000E+00 -0.23882297058E+04  0.23882297058E+04  0.00000000000E+00 0. -1.
         21    1    1    2  503  505  0.90909189303E+02 -0.64353033199E+01 -0.47740633803E+03  0.48602747393E+03  0.00000000000E+00 0. -1.
         21    1    1    2  504  501 -0.80137344366E+01 -0.54082931832E+02  0.21635219498E+03  0.22315343539E+03  0.00000000000E+00 0.  1.
         21    1    1    2  505  502 -0.12113216158E+02 -0.40747796038E+02 -0.10244099162E+01  0.42522491735E+02  0.00000000000E+00 0. -1.
          1    1    1    2  501    0 -0.70782238708E+02  0.10126603119E+03 -0.18793102617E+04  0.18833671958E+04  0.00000000000E+00 0. -1.
<scales pt_clust_3="90.96461" pt_clust_4="95.56301" pt_clust_5="42.51015" pt_clust_6="14000.00000"></scales>
<clustering>
<clus scale="   42.510">  1  5  2 -1</clus>
<clus scale="   90.965">  2  3  1 -1</clus>
<clus scale="   95.563">  1  4  2 -1</clus>
<clus scale="   42.510">  1  3  2 -1</clus>
</clustering>
</event>
<event>
 6    0  0.4017242E+002  0.1169230E+03  0.7546771E-02  0.1248261E+00
         21   -1    0    0  505  502  0.00000000000E+00  0.00000000000E+00  0.25605951458E+03  0.25605951458E+03  0.00000000000E+00 0.  1.
          1   -1    0    0  504    0 -0.00000000000E+00 -0.00000000000E+00 -0.67306799482E+03  0.67306799482E+03  0.00000000000E+00 0. -1.
         21    1    1    2  503  502  0.96451411236E+02 -0.10579341076E+03  0.17158101315E+03  0.22346177428E+03  0.00000000000E+00 0.  1.
         21    1    1    2  504  503 -0.11555926817E+02 -0.28692337260E+02 -0.22896251879E+02  0.38484126756E+02  0.00000000000E+00 0. -1.
         21    1    1    2  505  501  0.18206047802E-01  0.43086916246E+02  0.33851670247E+02  0.54794326911E+02  0.00000000000E+00 0.  1.
          1    1    1    2  501    0 -0.84913690467E+02  0.91398831778E+02 -0.59954491176E+03  0.61238728146E+03  0.00000000000E+00 0. -1.
<scales pt_clust_3="116.92303" pt_clust_4="30.93202" pt_clust_5="42.61955" pt_clust_6="14000.00000"></scales>
<clustering>
<clus scale="   30.932">  2  4  1 -1</clus>
<clus scale="   42.620">  1  5  2 -1</clus>
<clus scale="  116.923">  1  3  2 -1</clus>
<clus scale="   42.620">  1  3  2 -1</clus>
</clustering>
</event>
<event>
 6    0  0.4017242E+002  0.1281765E+03  0.7546771E-02  0.1230187E+00
         21   -1    0    0  503  502  0.00000000000E+00  0.00000000000E+00  0.25840865852E+03  0.25840865852E+03  0.00000000000E+00 0.  1.
          1   -1    0    0  505    0 -0.00000000000E+00 -0.00000000000E+00 -0.11899508337E+04  0.11899508337E+04  0.00000000000E+00 0. -1.
         21    1    1    2  503  504 -0.82540321861E+01  0.86342468308E+02 -0.28608976519E+02  0.91332493771E+02  0.00000000000E+00 0.  1.
         21    1    1    2  504  501  0.28912452298E+02  0.27666617330E+02 -0.16546321378E+02  0.43303029495E+02  0.00000000000E+00 0.  1.
         21    1    1    2  505  502  0.40615429149E+02 -0.11303454930E+03  0.19585352910E+03  0.22974992335E+03  0.00000000000E+00 0.  1.
          1    1    1    2  501    0 -0.61273849261E+02 -0.97453633729E+00 -0.10822404064E+04  0.10839740456E+04  0.00000000000E+00 0. -1.
<scales pt_clust_3="35.05089" pt_clust_4="35.05089" pt_clust_5="117.33001" pt_clust_6="61.28160"></scales>
<clustering>
<clus scale="   35.051">  3  4 -1 -1</clus>
<clus scale="   61.282">  2  6  1 -1</clus>
<clus scale="  117.330">  1  5  2 -1</clus>
<clus scale="  117.330">  1  3  2 -1</clus>
</clustering>
</event>
<event>
 6    0  0.4017242E+002  0.2343633E+03  0.7546771E-02  0.1123606E+00
         21   -1    0    0  503  502  0.00000000000E+00  0.00000000000E+00  0.15928976511E+03  0.15928976511E+03  0.00000000000E+00 0. -1.
          2   -1    0    0  504    0 -0.00000000000E+00 -0.00000000000E+00 -0.17550667379E+04  0.17550667379E+04  0.00000000000E+00 0.  1.
         21    1    1    2  503  501 -0.24660339276E+03 -0.93677086627E+01  0.39032999894E+02  0.24984907918E+03  0.00000000000E+00 0. -1.
         21    1    1    2  504  505  0.36973928086E+02 -0.32498511002E+02 -0.41905705126E+03  0.42193842772E+03  0.00000000000E+00 0.  1.
         21    1    1    2  505  502  0.77955891870E+02 -0.52406464792E+02 -0.39791490482E+03  0.40885184371E+03  0.00000000000E+00 0.  1.
          2    1    1    2  501    0  0.13167357280E+03  0.94272684457E+02 -0.81783801664E+03  0.83371715244E+03  0.00000000000E+00 0.  1.
<scales pt_clust_3="234.36332" pt_clust_4="35.10487" pt_clust_5="150.89499" pt_clust_6="14000.00000"></scales>
<clustering>
<clus scale="   35.105">  4  5 -1 -1</clus>
<clus scale="  150.895">  2  4  1 -1</clus>
<clus scale="  234.363">  1  3  2 -1</clus>
<clus scale="  234.363">  1  3  2 -1</clus>
</clustering>
</event>
<event>
 6    0  0.4017242E+002  0.2081582E+03  0.7546771E-02  0.1143033E+00
          2   -1    0    0  504    0 -0.00000000000E+00  0.00000000000E+00  0.76006814839E+03  0.76006814839E+03  0.00000000000E+00 0. -1.
         21   -1    0    0  503  502  0.00000000000E+00 -0.00000000000E+00 -0.94246308639E+02  0.94246308639E+02  0.00000000000E+00 0. -1.
         21    1    1    2  503  501 -0.15615568506E+02 -0.30796940902E+02 -0.31711508310E+02  0.46881950770E+02  0.00000000000E+00 0. -1.
         21    1    1    2  504  505  0.26275105051E+01  0.47851390712E+02  0.15780185185E+03  0.16491841574E+03  0.00000000000E+00 0.  1.
         21    1    1    2  505  502 -0.69013207240E+02  0.14819969676E+03  0.27286891710E+03  0.31809341209E+03  0.00000000000E+00 0. -1.
          2    1    1    2  501    0  0.82001265241E+02 -0.16525414657E+03  0.26686257911E+03  0.32442067843E+03  0.00000000000E+00 0. -1.
<scales pt_clust_3="34.52966" pt_clust_4="38.38282" pt_clust_5="38.38282" pt_clust_6="195.83110"></scales>
<clustering>
<clus scale="   34.530">  2  3  1 -1</clus>
<clus scale="   38.383">  4  5 -1 -1</clus>
<clus scale="  195.831">  2  6  1 -1</clus>
<clus scale="   34.530">  2  3  1 -1</clus>
</clustering>
</event>
<event>
 6    0  0.4017242E+002  0.1000908E+03  0.7546771E-02  0.1280105E+00
         21   -1    0    0  504  502  0.00000000000E+00  0.00000000000E+00  0.10152321460E+03  0.10152321460E+03  0.00000000000E+00 0.  1.
          1   -1    0    0  503    0 -0.00000000000E+00 -0.00000000000E+00 -0.25356048303E+04  0.25356048303E+04  0.00000000000E+00 0.  1.
         21    1    1    2  503  502  0.36328972809E+02 -0.33776290799E+02 -0.42613888829E+03  0.42901629830E+03  0.00000000000E+00 0.  1.
         21    1    1    2  504  505  0.17803993306E+02  0.96951226120E+02  0.62855608214E+02  0.11690744163E+03  0.00000000000E+00 0.  1.
         21    1    1    2  505  501 -0.51235434405E+02 -0.11527695157E+03 -0.39631235449E+03  0.41590543111E+03  0.00000000000E+00 0.  1.
          1    1    1    2  501    0 -0.28975317100E+01  0.52102016249E+02 -0.16744859811E+04  0.16752988739E+04  0.00000000000E+00 0.  1.
<scales pt_clust_3="49.60476" pt_clust_4="14000.00000" pt_clust_5="100.09085" pt_clust_6="36.23036"></scales>
<clustering>
<clus scale="   49.605">  2  3  1 -1</clus>
<clus scale="   36.230">  2  6  1 -1</clus>
<clus scale="  100.091">  2  5  1 -1</clus>
<clus scale="  100.091">  1  3  2 -1</clus>
</clustering>
</event>
<event>
 6    0  0.4017242E+002  0.1803520E+03  0.7546771E-02  0.1167463E+00
         21   -1    0    0  505  502  0.00000000000E+00  0.00000000000E+00  0.81960804486E+01  0.81960804486E+01  0.00000000000E+00 0.  1.
          1   -1    0    0  504    0 -0.00000000000E+00 -0.00000000000E+00 -0.47995667738E+04  0.47995667738E+04  0.00000000000E+00 0.  1.
         21    1    1    2  503  502 -0.10191862417E+03  0.66843537822E+02 -0.72580580178E+03  0.73596842758E+03  0.00000000000E+00 0.  1.
         21    1    1    2  504  503 -0.36705927740E+02  0.20739434129E+02 -0.55443634479E+03  0.55603696791E+03  0.00000000000E+00 0.  1.
         21    1    1    2  505  501  0.86320433549E+02 -0.72645238717E+02 -0.16597871530E+04  0.16636171258E+04  0.00000000000E+00 0.  1.
          1    1    1    2  501    0  0.52304118356E+02 -0.14937733234E+02 -0.18513413938E+04  0.18521403330E+04  0.00000000000E+00 0.  1.
<scales pt_clust_3="173.94823" pt_clust_4="34.14455" pt_clust_5="52.14331" pt_clust_6="52.14331"></scales>
<clustering>
<clus scale="   34.145">  3  4 -1 -1</clus>
<clus scale="   52.143">  5  6 -1 -1</clus>
<clus scale="  173.948">  1  3  2 -1</clus>
<clus scale="  173.948">  1  3  2 -1</clus>
</clustering>
</event>
<event>
 6    0  0.4017242E+002  0.3421620E+03  0.7546771E-02  0.1065879E+00
         21   -1    0    0  501  502  0.00000000000E+00  0.00000000000E+00  0.14948963753E+04  0.14948963753E+04  0.00000000000E+00 0.  1.
          2   -1    0    0  503    0 -0.00000000000E+00 -0.00000000000E+00 -0.60416634255E+03  0.60416634255E+03  0.00000000000E+00 0.  1.
         21    1    1    2  503  504  0.42682258690E+03 -0.20039892691E+00  0.26655388155E+03  0.50321817596E+03  0.00000000000E+00 0.  1.
         21    1    1    2  504  505 -0.40346926611E+02  0.12808766618E+03  0.38995967129E+03  0.41243529183E+03  0.00000000000E+00 0.  1.
         21    1    1    2  505  502 -0.66121696406E+02 -0.43983914833E+02  0.64832532651E+03  0.65317102852E+03  0.00000000000E+00 0. -1.
          2    1    1    2  501    0 -0.32035396388E+03 -0.83903352417E+02 -0.41410884662E+03  0.53023822153E+03  0.00000000000E+00 0.  1.
<scales pt_clust_3="342.16196" pt_clust_4="128.99454" pt_clust_5="79.41450" pt_clust_6="14000.00000"></scales>
<clustering>
<clus scale="   79.415">  1  5  2 -1</clus>
<clus scale="  128.995">  1  4  2 -1</clus>
<clus scale="  342.162">  1  3  2 -1</clus>
<clus scale="   79.415">  1  3  2 -1</clus>
</clustering>
</event>
<event>
 6    0  0.4017242E+002  0.8289103E+02  0.7546771E-02  0.1321042E+00
         21   -1    0    0  504  502  0.00000000000E+00  0.00000000000E+00  0.29586962535E+04  0.29586962535E+04  0.00000000000E+00 0. -1.
         -2   -1    0    0    0  501 -0.00000000000E+00 -0.00000000000E+00 -0.94053630271E+03  0.94053630271E+03  0.00000000000E+00 0.  1.
         21    1    1    2  503  502  0.77031238968E+01 -0.60987226630E+02  0.23330096148E+04  0.23338193252E+04  0.00000000000E+00 0. -1.
         21    1    1    2  504  501 -0.26199520261E+02 -0.17539540135E+02  0.27186505133E+03  0.27368715071E+03  0.00000000000E+00 0. -1.
         21    1    1    2  505  503 -0.60403046437E+02  0.52403528798E+02  0.34609903511E+03  0.35521711664E+03  0.00000000000E+00 0. -1.
         -2    1    1    2    0  505  0.78899442801E+02  0.26123237967E+02 -0.93281375055E+03  0.93650896357E+03  0.00000000000E+00 0.  1.
<scales pt_clust_3="77.69792" pt_clust_4="31.52856" pt_clust_5="82.89103" pt_clust_6="14000.00000"></scales>
<clustering>
<clus scale="   31.529">  1  4  2 -1</clus>
<clus scale="   77.698">  1  3  2 -1</clus>
<clus scale="   82.891">  1  5  2 -1</clus>
<clus scale="   31.529">  1  3  2 -1</clus>
</clustering>
</event>
<event>
 6    0  0.4017242E+002  0.1739874E+03  0.7546771E-02  0.1173752E+00
          2   -1    0    0  505    0 -0.00000000000E+00  0.00000000000E+00  0.17395237710E+03  0.17395237710E+03  0.00000000000E+00 0. -1.
         21   -1    0    0  503  502  0.00000000000E+00 -0.00000000000E+00 -0.50618773202E+03  0.50618773202E+03  0.00000000000E+00 0. -1.
         21    1    1    2  503  501  0.17990936035E+03  0.37715864778E+02 -0.13944047108E+03  0.23072388124E+03  0.00000000000E+00 0. -1.
         21    1    1    2  504  502 -0.65680254559E+02 -0.13522977950E+02 -0.76824698116E+02  0.10197451158E+03  0.00000000000E+00 0. -1.
         21    1    1    2  505  504 -0.84100270694E+02 -0.35569054346E+02 -0.22018284918E+03  0.23836631522E+03  0.00000000000E+00 0. -1.
          2    1    1    2  501    0 -0.30128835100E+02  0.11376167518E+02  0.10421266346E+03  0.10907540107E+03  0.00000000000E+00 0. -1.
<scales pt_clust_3="165.82355" pt_clust_4="46.04031" pt_clust_5="46.04031" pt_clust_6="32.20503"></scales>
<clustering>
<clus scale="   32.205">  1  6  2 -1</clus>
<clus scale="   46.040">  4  5 -1 -1</clus>
<clus scale="  165.824">  1  3  2 -1</clus>
<clus scale="  173.987">  2  3  1 -1</clus>
</clustering>
</event>
<event>
 6    0  0.4017242E+002  0.2054515E+03  0.7546771E-02  0.1145219E+00
         21   -1    0    0  504  502  0.00000000000E+00  0.00000000000E+00  0.20348926888E+03  0.20348926888E+03  0.00000000000E+00 0. -1.
          2   -1    0    0  503    0 -0.00000000000E+00 -0.00000000000E+00 -0.17589186009E+04  0.17589186009E+04  0.00000000000E+00 0. -1.
         21    1    1    2  503  505 -0.94700695180E+02  0.11954872284E+03 -0.36312852466E+02  0.15677608891E+03  0.00000000000E+00 0.  1.
         21    1    1    2  504  501 -0.28867506110E+02  0.14563289494E+02  0.36551635219E+02  0.48800044539E+02  0.00000000000E+00 0. -1.
         21    1    1    2  505  502  0.24873047702E+02  0.53176954667E+02  0.84591410061E+02  0.10296680856E+03  0.00000000000E+00 0. -1.
          2    1    1    2  501    0  0.98695153588E+02 -0.18728896700E+03 -0.16402595248E+04  0.16538649278E+04  0.00000000000E+00 0. -1.
<scales pt_clust_3="205.45151" pt_clust_4="32.33299" pt_clust_5="62.19134" pt_clust_6="14000.00000"></scales>
<clustering>
<clus scale="   32.333">  1  4  2 -1</clus>
<clus scale="   62.191">  1  5  2 -1</clus>
<clus scale="  205.452">  1  3  2 -1</clus>
<clus scale="   32.333">  1  3  2 -1</clus>
</clustering>
</event>
<event>
 6    0  0.4017242E+002  0.1299067E+03  0.7546771E-02  0.1227594E+00
         21   -1    0    0  503  502  0.00000000000E+00  0.00000000000E+00  0.16701181909E+04  0.16701181909E+04  0.00000000000E+00 0. -1.
          1   -1    0    0  504    0 -0.00000000000E+00 -0.00000000000E+00 -0.53867433602E+03  0.53867433602E+03  0.00000000000E+00 0.  1.
         21    1    1    2  503  505  0.52653852748E+02 -0.77785416325E+02  0.45380225562E+03  0.46342149972E+03  0.00000000000E+00 0. -1.
         21    1    1    2  504  502  0.56272470008E+02  0.56119528518E+02  0.31116270441E+03  0.32115139884E+03  0.00000000000E+00 0. -1.
         21    1    1    2  505  501 -0.42470454275E+00  0.94381450452E+02  0.88473635037E+03  0.88975639825E+03  0.00000000000E+00 0. -1.
          1    1    1    2  501    0 -0.10850161821E+03 -0.72715562644E+02 -0.51825745549E+03  0.53446323014E+03  0.00000000000E+00 0.  1.
<scales pt_clust_3="92.72353" pt_clust_4="79.47322" pt_clust_5="14000.00000" pt_clust_6="129.90675"></scales>
<clustering>
<clus scale="   79.473">  1  4  2 -1</clus>
<clus scale="   92.724">  1  3  2 -1</clus>
<clus scale="  129.907">  2  6  1 -1</clus>
<clus scale="   79.473">  1  3  2 -1</clus>
</clustering>
</event>
<event>
 6    0  0.4017242E+002  0.1272166E+03  0.7546771E-02  0.1231645E+00
          2   -1    0    0  505    0 -0.00000000000E+00  0.00000000000E+00  0.30724849094E+04  0.30724849094E+04  0.00000000000E+00 0.  1.
         21   -1    0    0  504  502  0.00000000000E+00 -0.00000000000E+00 -0.14100281718E+02  0.14100281718E+02  0.00000000000E+00 0.  1.
         21    1    1    2  503  502  0.55545878572E+02 -0.92279262039E+00  0.25737620168E+03  0.26330344730E+03  0.00000000000E+00 0. -1.
         21    1    1    2  504  501 -0.97268026853E+02  0.14415342096E+02  0.55040660815E+03  0.55912101144E+03  0.00000000000E+00 0.  1.
         21    1    1    2  505  503  0.80317224623E+02 -0.49931226692E+02  0.34239617249E+03  0.35521700819E+03  0.00000000000E+00 0.  1.
          2    1    1    2  501    0 -0.38595076341E+02  0.36438677216E+02  0.19082056454E+04  0.19089437242E+04  0.00000000000E+00 0.  1.
<scales pt_clust_3="32.47841" pt_clust_4="119.95134" pt_clust_5="32.47841" pt_clust_6="53.07878"></scales>
<clustering>
<clus scale="   32.478">  3  5 -1 -1</clus>
<clus scale="   53.079">  1  6  2 -1</clus>
<clus scale="  119.951">  2  4  1 -1</clus>
<clus scale="  119.951">  2  3  1 -1</clus>
</clustering>
</event>
<event>
 6    0  0.4017242E+002  0.1211227E+03  0.7546771E-02  0.1241256E+00
         21   -1    0    0  504  502  0.00000000000E+00  0.00000000000E+00  0.11535795136E+04  0.11535795136E+04  0.00000000000E+00 0.  1.
          1   -1    0    0  503    0 -0.00000000000E+00 -0.00000000000E+00 -0.18432400494E+03  0.18432400494E+03  0.00000000000E+00 0. -1.
         21    1    1    2  503  502  0.17564984313E+02  0.30169435244E+02  0.45692577068E+03  0.45825744228E+03  0.00000000000E+00 0.  1.
         21    1    1    2  504  505 -0.28494012535E+02  0.25506321469E+02  0.40433160509E+03  0.40613609549E+03  0.00000000000E+00 0.  1.
         21    1    1    2  505  501 -0.10498075088E+03 -0.13676712842E+02  0.25827673354E+03  0.27913237293E+03  0.00000000000E+00 0.  1.
          1    1    1    2  501    0  0.11590977910E+03 -0.41999043871E+02 -0.15027860071E+03  0.19437760779E+03  0.00000000000E+00 0. -1.
<scales pt_clust_3="34.91022" pt_clust_4="46.78568" pt_clust_5="14000.00000" pt_clust_6="121.12274"></scales>
<clustering>
<clus scale="   34.910">  1  3  2 -1</clus>
<clus scale="   46.786">  1  4  2 -1</clus>
<clus scale="  121.123">  2  6  1 -1</clus>
<clus scale="   34.910">  1  3  2 -1</clus>
</clustering>
</event>
<event>
 6    0  0.4017242E+002  0.1429111E+03  0.7546771E-02  0.1209465E+00
          2   -1    0    0  503    0 -0.00000000000E+00  0.00000000000E+00  0.10491589638E+04  0.10491589638E+04  0.00000000000E+00 0.  1.
         21   -1    0    0  501  502  0.00000000000E+00 -0.00000000000E+00 -0.46520371429E+03  0.46520371429E+03  0.00000000000E+00 0.  1.
         21    1    1    2  503  504 -0.78487805993E+02  0.62152900646E+02  0.49884155625E+02  0.11185592399E+03  0.00000000000E+00 0.  1.
         21    1    1    2  504  505 -0.68605674034E+02 -0.27648029159E+02 -0.75840866817E+02  0.10593861008E+03  0.00000000000E+00 0.  1.
         21    1    1    2  505  502 -0.84734723997E+01 -0.33455118399E+02 -0.33609122589E+03  0.33785848635E+03  0.00000000000E+00 0.  1.
          2    1    1    2  501    0  0.15556695243E+03 -0.10497530876E+01  0.94600318654E+03  0.95870965762E+03  0.00000000000E+00 0.  1.
<scales pt_clust_3="142.91110" pt_clust_4="90.58089" pt_clust_5="34.51152" pt_clust_6="14000.00000"></scales>
<clustering>
<clus scale="   34.512">  2  5  1 -1</clus>
<clus scale="   90.581">  2  4  1 -1</clus>
<clus scale="  142.911">  2  3  1 -1</clus>
<clus scale="   34.512">  2  3  1 -1</clus>
</clustering>
</event>
<event>
 6    0  0.4017242E+002  0.1020488E+03  0.7546771E-02  0.1276046E+00
         21   -1    0    0  503  502  0.00000000000E+00  0.00000000000E+00  0.42946581288E+03  0.42946581288E+03  0.00000000000E+00 0. -1.
          1   -1    0    0  504    0 -0.00000000000E+00 -0.00000000000E+00 -0.64478029343E+03  0.64478029343E+03  0.00000000000E+00 0.  1.
         21    1    1    2  503  505 -0.52464966842E+02 -0.23644806888E+02  0.28615914242E+03  0.29188817110E+03  0.00000000000E+00 0. -1.
         21    1    1    2  504  502  0.10114940265E+03 -0.38347421561E+02 -0.50402803204E+00  0.10817569246E+03  0.00000000000E+00 0.  1.
         21    1    1    2  505  501 -0.30483212388E+02 -0.23600970064E+02  0.78864095911E+02  0.87782558913E+02  0.00000000000E+00 0. -1.
          1    1    1    2  501    0 -0.18201223415E+02  0.85593198513E+02 -0.57983369084E+03  0.58639968384E+03  0.00000000000E+00 0.  1.
<scales pt_clust_3="34.68034" pt_clust_4="92.83653" pt_clust_5="34.68034" pt_clust_6="87.50703"></scales>
<clustering>
<clus scale="   34.680">  3  5 -1 -1</clus>
<clus scale="   87.507">  2  6  1 -1</clus>
<clus scale="   92.837">  2  4  1 -1</clus>
<clus scale="  102.049">  1  3  2 -1</clus>
</clustering>
</event>
<event>
 6    0  0.4017242E+002  0.2182530E+03  0.7546771E-02  0.1135192E+00
          1   -1    0    0  504    0 -0.00000000000E+00  0.00000000000E+00  0.72402059445E+03  0.72402059445E+03  0.00000000000E+00 0.  1.
         21   -1    0    0  503  502  0.00000000000E+00 -0.00000000000E+00 -0.12672017837E+04  0.12672017837E+04  0.00000000000E+00 0. -1.
         21    1    1    2  503  505 -0.23921246126E+03  0.18872013555E+03  0.22140460407E+03  0.37664026589E+03  0.00000000000E+00 0.  1.
         21    1    1    2  504  502  0.14504197058E+03 -0.15942845093E+03 -0.11683218212E+04  0.11880363977E+04  0.00000000000E+00 0. -1.
         21    1    1    2  505  501  0.70377750094E+02  0.28798647571E+01  0.11360962416E+03  0.13367298916E+03  0.00000000000E+00 0. -1.
          1    1    1    2  501    0  0.23792740586E+02 -0.32171549376E+02  0.29012640380E+03  0.29287272539E+03  0.00000000000E+00 0.  1.
<scales pt_clust_3="14000.00000" pt_clust_4="218.25295" pt_clust_5="77.43726" pt_clust_6="40.01379"></scales>
<clustering>
<clus scale="   40.014">  1  6  2 -1</clus>
<clus scale="   77.437">  1  5  2 -1</clus>
<clus scale="  218.253">  2  4  1 -1</clus>
<clus scale="  218.253">  2  3  1 -1</clus>
</clustering>
</event>
<event>
 6    0  0.4017242E+002  0.1604107E+03  0.7546771E-02  0.1188234E+00
         21   -1    0    0  505  502  0.00000000000E+00  0.00000000000E+00  0.25728313437E+03  0.25728313437E+03  0.00000000000E+00 0.  1.
          2   -1    0    0  504    0 -0.00000000000E+00 -0.00000000000E+00 -0.23337956210E+04  0.23337956210E+04  0.00000000000E+00 0.  1.
         21    1    1    2  503  502 -0.37592802742E+02 -0.38510205188E+02 -0.81056621232E+03  0.81235081047E+03  0.00000000000E+00 0.  1.
         21    1    1    2  504  503 -0.10849658744E+03 -0.15127044276E+02 -0.12196221064E+04  0.12245319185E+04  0.00000000000E+00 0.  1.
         21    1    1    2  505  501  0.10246990843E+03 -0.11959400280E+03  0.19707812557E+03  0.25227484064E+03  0.00000000000E+00 0.  1.
          2    1    1    2  501    0  0.43619481751E+02  0.17323125226E+03 -0.24340229346E+03  0.30192118576E+03  0.00000000000E+00 0.  1.
<scales pt_clust_3="38.43875" pt_clust_4="38.43875" pt_clust_5="157.48907" pt_clust_6="150.74484"></scales>
<clustering>
<clus scale="   38.439">  3  4 -1 -1</clus>
<clus scale="  157.489">  1  5  2 -1</clus>
<clus scale="  150.745">  1  6  2 -1</clus>
<clus scale="  157.489">  1  3  2 -1</clus>
</clustering>
</event>
<event>
 6    0  0.4017242E+002  0.1140757E+03  0.7546771E-02  0.1253203E+00
         21   -1    0    0  505  502  0.00000000000E+00  0.00000000000E+00  0.10527268800E+03  0.10527268800E+03  0.00000000000E+00 0.  1.
          2   -1    0    0  502    0 -0.00000000000E+00 -0.00000000000E+00 -0.32674934666E+03  0.32674934666E+03  0.00000000000E+00 0. -1.
         21    1    1    2  503  501  0.33416892690E+02  0.34485770432E+02 -0.10417598224E+03  0.11471090774E+03  0.00000000000E+00 0.  1.
         21    1    1    2  504  503 -0.75343199806E+02  0.26635163482E+02 -0.27544492131E+02  0.84526497251E+02  0.00000000000E+00 0.  1.
         21    1    1    2  505  504 -0.33076902669E+02 -0.44449755087E+02  0.49137035993E+02  0.74056130899E+02  0.00000000000E+00 0.  1.
          2    1    1    2  501    0  0.75003209785E+02 -0.16671178827E+02 -0.13889322029E+03  0.15872849877E+03  0.00000000000E+00 0. -1.
<scales pt_clust_3="47.52726" pt_clust_4="96.94882" pt_clust_5="55.40634" pt_clust_6="47.52726"></scales>
<clustering>
<clus scale="   47.527">  3  6 -1 -1</clus>
<clus scale="   55.406">  1  5  2 -1</clus>
<clus scale="   96.949">  1  4  2 -1</clus>
<clus scale="   55.406">  1  3  2 -1</clus>
</clustering>
</event>
<event>
 6    0  0.4017242E+002  0.1330860E+03  0.7546771E-02  0.1222947E+00
         21   -1    0    0  504  502  0.00000000000E+00  0.00000000000E+00  0.18694806871E+03  0.18694806871E+03  0.00000000000E+00 0.  1.
          1   -1    0    0  503    0 -0.00000000000E+00 -0.00000000000E+00 -0.18036277506E+04  0.18036277506E+04  0.00000000000E+00 0. -1.
         21    1    1    2  503  505  0.43193282311E+02  0.23434250752E+02  0.55680966871E+01  0.49455307560E+02  0.00000000000E+00 0.  1.
         21    1    1    2  504  501 -0.12506251787E+03  0.28747692566E+02  0.56228820320E+02  0.14010261753E+03  0.00000000000E+00 0.  1.
         21    1    1    2  505  502  0.81613410193E+02 -0.12816513600E+02  0.33093269464E+02  0.88995371947E+02  0.00000000000E+00 0.  1.
          1    1    1    2  501    0  0.25582537065E+00 -0.39365429718E+02 -0.17115698684E+04  0.17120225223E+04  0.00000000000E+00 0. -1.
<scales pt_clust_3="34.35696" pt_clust_4="125.40906" pt_clust_5="34.35696" pt_clust_6="39.36626"></scales>
<clustering>
<clus scale="   34.357">  3  5 -1 -1</clus>
<clus scale="   39.366">  2  6  1 -1</clus>
<clus scale="  125.409">  1  4  2 -1</clus>
<clus scale="  125.409">  1  3  2 -1</clus>
</clustering>
</event>
<event>
 6    0  0.4017242E+002  0.9523483E+02  0.7546771E-02  0.1290648E+00
         21   -1    0    0  504  502  0.00000000000E+00  0.00000000000E+00  0.74492903895E+02  0.74492903895E+02  0.00000000000E+00 0. -1.
          1   -1    0    0  505    0 -0.00000000000E+00 -0.00000000000E+00 -0.32125740787E+04  0.32125740787E+04  0.00000000000E+00 0.  1.
         21    1    1    2  503  502  0.61251344993E+02 -0.15350686585E+02 -0.23070659190E+01  0.63187763018E+02  0.00000000000E+00 0. -1.
         21    1    1    2  504  501 -0.20510325044E+02 -0.28481312587E+02 -0.17773592183E+02  0.39341570624E+02  0.00000000000E+00 0. -1.
         21    1    1    2  505  503  0.54641440224E+02  0.54872317328E+02 -0.13564586217E+02  0.78617149516E+02  0.00000000000E+00 0. -1.
          1    1    1    2  501    0 -0.95382460173E+02 -0.11040318156E+02 -0.31044359305E+04  0.31059204994E+04  0.00000000000E+00 0.  1.
<scales pt_clust_3="59.04137" pt_clust_4="35.09784" pt_clust_5="95.23483" pt_clust_6="14000.00000"></scales>
<clustering>
<clus scale="   35.098">  1  4  2 -1</clus>
<clus scale="   59.041">  1  3  2 -1</clus>
<clus scale="   95.235">  1  5  2 -1</clus>
<clus scale="   35.098">  1  3  2 -1</clus>
</clustering>
</event>
<event>
 6    0  0.4017242E+002  0.8678155E+02  0.7546771E-02  0.1310838E+00
          1   -1    0    0  503    0 -0.00000000000E+00  0.00000000000E+00  0.15861275458E+04  0.15861275458E+04  0.00000000000E+00 0.  1.
         21   -1    0    0  501  502  0.00000000000E+00 -0.00000000000E+00 -0.14382512607E+03  0.14382512607E+03  0.00000000000E+00 0. -1.
         21    1    1    2  503  505 -0.72365787867E+02 -0.11001614871E+03 -0.28017413673E+02  0.13463036693E+03  0.00000000000E+00 0. -1.
         21    1    1    2  504  502 -0.17721339960E+02  0.37776578556E+02  0.49063355345E+02  0.64407519864E+02  0.00000000000E+00 0.  1.
         21    1    1    2  505  504  0.31422601265E+01  0.70554299040E+02 -0.30232538963E+02  0.76823104102E+02  0.00000000000E+00 0. -1.
          1    1    1    2  501    0  0.86944867701E+02  0.16852711182E+01  0.14514890170E+04  0.14540916809E+04  0.00000000000E+00 0.  1.
<scales pt_clust_3="86.78155" pt_clust_4="41.72668" pt_clust_5="85.49155" pt_clust_6="14000.00000"></scales>
<clustering>
<clus scale="   41.727">  2  4  1 -1</clus>
<clus scale="   85.492">  2  5  1 -1</clus>
<clus scale="   86.782">  2  3  1 -1</clus>
<clus scale="   41.727">  2  3  1 -1</clus>
</clustering>
</event>
<event>
 6    0  0.4017242E+002  0.1652743E+03  0.7546771E-02  0.1182868E+00
         21   -1    0    0  504  502  0.00000000000E+00  0.00000000000E+00  0.14333477556E+03  0.14333477556E+03  0.00000000000E+00 0.  1.
         -2   -1    0    0    0  501 -0.00000000000E+00 -0.00000000000E+00 -0.70826929102E+03  0.70826929102E+03  0.00000000000E+00 0.  1.
         21    1    1    2  503  502 -0.70690076331E+02  0.38809058412E+02 -0.18051631517E+01  0.80662807542E+02  0.00000000000E+00 0.  1.
         21    1    1    2  504  501 -0.58223842581E+02 -0.48822921376E+02  0.27298877166E+02  0.80739842650E+02  0.00000000000E+00 0.  1.
         21    1    1    2  505  503 -0.37258381176E+02  0.79759894203E+01  0.29624925974E+02  0.48264268503E+02  0.00000000000E+00 0.  1.
         -2    1    1    2    0  505  0.16617230009E+03  0.20378735439E+01 -0.62005315545E+03  0.64193714788E+03  0.00000000000E+00 0.  1.
<scales pt_clust_3="30.79064" pt_clust_4="75.98482" pt_clust_5="30.79064" pt_clust_6="159.08820"></scales>
<clustering>
<clus scale="   30.791">  3  5 -1 -1</clus>
<clus scale="   75.985">  1  4  2 -1</clus>
<clus scale="  159.088">  2  6  1 -1</clus>
<clus scale="   75.985">  1  3  2 -1</clus>
</clustering>
</event>
<event>
 6    0  0.4017242E+002  0.1086843E+03  0.7546771E-02  0.1263026E+00
         21   -1    0    0  505  502  0.00000000000E+00  0.00000000000E+00  0.51556563258E+03  0.51556563258E+03  0.00000000000E+00 0.  1.
          2   -1    0    0  504    0 -0.00000000000E+00 -0.00000000000E+00 -0.23139289937E+03  0.23139289937E+03  0.00000000000E+00 0.  1.
         21    1    1    2  503  501 -0.61705165229E+01  0.47575705837E+02  0.69501798848E+02  0.84451306107E+02  0.00000000000E+00 0. -1.
         21    1    1    2  504  502  0.81412207490E+02 -0.50584962199E+02  0.36285698384E+03  0.37530251352E+03  0.00000000000E+00 0.  1.
         21    1    1    2  505  503  0.32802004454E+02  0.24556086075E+02  0.47441947938E+02  0.62687409291E+02  0.00000000000E+00 0. -1.
          2    1    1    2  501    0 -0.10804369542E+03 -0.21546829713E+02 -0.19562799741E+03  0.22451730304E+03  0.00000000000E+00 0.  1.
<scales pt_clust_3="51.68503" pt_clust_4="108.68431" pt_clust_5="40.97527" pt_clust_6="14000.00000"></scales>
<clustering>
<clus scale="   40.975">  1  5  2 -1</clus>
<clus scale="   51.685">  1  3  2 -1</clus>
<clus scale="  108.684">  1  4  2 -1</clus>
<clus scale="   40.975">  1  3  2 -1</clus>
</clustering>
</event>
<event>
 6    0  0.4017242E+002  0.8654099E+02  0.7546771E-02  0.1311451E+00
         21   -1    0    0  503  502  0.00000000000E+00  0.00000000000E+00  0.34782726611E+02  0.34782726611E+02  0.00000000000E+00 0. -1.
          2   -1    0    0  504    0 -0.00000000000E+00 -0.00000000000E+00 -0.19373182025E+04  0.19373182025E+04  0.00000000000E+00 0. -1.
         21    1    1    2  503  501 -0.66269355314E+02 -0.87841095587E+01 -0.19475249990E+02  0.69628107806E+02  0.00000000000E+00 0.  1.
         21    1    1    2  504  505  0.78192290805E+02 -0.83995859939E+01 -0.27400681807E+03  0.28506898066E+03  0.00000000000E+00 0. -1.
         21    1    1    2  505  502  0.55708165820E+02  0.27621541160E+02 -0.29070553204E+03  0.29728110541E+03  0.00000000000E+00 0. -1.
          2    1    1    2  501    0 -0.67631101311E+02 -0.10437845607E+02 -0.13183478758E+04  0.13201227353E+04  0.00000000000E+00 0. -1.
<scales pt_clust_3="66.84899" pt_clust_4="39.09197" pt_clust_5="39.09197" pt_clust_6="74.54243"></scales>
<clustering>
<clus scale="   39.092">  4  5 -1 -1</clus>
<clus scale="   66.849">  1  3  2 -1</clus>
<clus scale="   74.542">  2  6  1 -1</clus>
<clus scale="   66.849">  1  3  2 -1</clus>
</clustering>
</event>
<event>
 6    0  0.4017242E+002  0.3255370E+03  0.7546771E-02  0.1073129E+00
          2   -1    0    0  503    0 -0.00000000000E+00  0.00000000000E+00  0.42959350869E+04  0.42959350869E+04  0.00000000000E+00 0. -1.
         21   -1    0    0  504  502  0.00000000000E+00 -0.00000000000E+00 -0.99048611039E+02  0.99048611039E+02  0.00000000000E+00 0. -1.
         21    1    1    2  503  502  0.79564419729E+01  0.24720900908E+03  0.93391367863E+03  0.96611094511E+03  0.00000000000E+00 0.  1.
         21    1    1    2  504  505 -0.10667277716E+02 -0.98232564964E+02  0.46615051257E+02  0.10925379003E+03  0.00000000000E+00 0.  1.
         21    1    1    2  505  501  0.98929503080E+02 -0.22528918022E+03  0.25018727354E+03  0.35090729993E+03  0.00000000000E+00 0. -1.
          2    1    1    2  501    0 -0.96218667337E+02  0.76312736107E+02  0.29661704724E+04  0.29687116628E+04  0.00000000000E+00 0. -1.
<scales pt_clust_3="307.85427" pt_clust_4="67.06505" pt_clust_5="67.06505" pt_clust_6="122.80743"></scales>
<clustering>
<clus scale="   67.065">  4  5 -1 -1</clus>
<clus scale="  122.807">  1  6  2 -1</clus>
<clus scale="  307.854">  1  3  2 -1</clus>
<clus scale="  325.537">  2  3  1 -1</clus>
</clustering>
</event>
<event>
 6    0  0.4017242E+002  0.8993454E+02  0.7546771E-02  0.1303010E+00
         -2   -1    0    0    0  501 -0.00000000000E+00  0.00000000000E+00  0.21737704729E+04  0.21737704729E+04  0.00000000000E+00 0.  1.
         21   -1    0    0  504  502  0.00000000000E+00 -0.00000000000E+00 -0.22017201472E+03  0.22017201472E+03  0.00000000000E+00 0.  1.
         21    1    1    2  503  505 -0.58575393720E+02  0.82377200353E+01  0.65213464645E+02  0.88043925128E+02  0.00000000000E+00 0. -1.
         21    1    1    2  504  501  0.17451209861E+03 -0.62137870872E+02 -0.82722328767E+01  0.18542927869E+03  0.00000000000E+00 0.  1.
         21    1    1    2  505  502 -0.37169104365E+02  0.12507041782E+02 -0.10745240123E+03  0.11438525667E+03  0.00000000000E+00 0.  1.
         -2    1    1    2    0  503 -0.78767600522E+02  0.41393109055E+02  0.20041096276E+04  0.20060840271E+04  0.00000000000E+00 0.  1.
<scales pt_clust_3="63.18403" pt_clust_4="14000.00000" pt_clust_5="39.21694" pt_clust_6="89.93454"></scales>
<clustering>
<clus scale="   39.217">  2  5  1 -1</clus>
<clus scale="   63.184">  2  3  1 -1</clus>
<clus scale="   89.935">  1  6  2 -1</clus>
<clus scale="   39.217">  2  3  1 -1</clus>
</clustering>
</event>
<event>
 6    0  0.4017242E+002  0.4171815E+03  0.7546771E-02  0.1037988E+00
          1   -1    0    0  505    0 -0.00000000000E+00  0.00000000000E+00  0.40799339922E+04  0.40799339922E+04  0.00000000000E+00 0. -1.
         21   -1    0    0  501  502  0.00000000000E+00 -0.00000000000E+00 -0.10143830983E+03  0.10143830983E+03  0.00000000000E+00 0. -1.
         21    1    1    2  503  504 -0.16247243220E+03 -0.32606600514E+03  0.24758034685E+04  0.25024626162E+04  0.00000000000E+00 0. -1.
         21    1    1    2  504  502 -0.57212552109E+02  0.96861326161E+02 -0.26547352275E+01  0.11252750883E+03  0.00000000000E+00 0. -1.
         21    1    1    2  505  503 -0.40593114958E+02 -0.40697193403E+02  0.17450582012E+03  0.18372899551E+03  0.00000000000E+00 0. -1.
          1    1    1    2  501    0  0.26027809927E+03  0.26990187239E+03  0.13308411289E+04  0.13826531815E+04  0.00000000000E+00 0. -1.
<scales pt_clust_3="49.82725" pt_clust_4="112.49619" pt_clust_5="49.82725" pt_clust_6="397.87583"></scales>
<clustering>
<clus scale="   49.827">  3  5 -1 -1</clus>
<clus scale="  112.496">  2  4  1 -1</clus>
<clus scale="  397.876">  2  6  1 -1</clus>
<clus scale="  112.496">  2  3  1 -1</clus>
</clustering>
</event>
<event>
 6    0  0.4017242E+002  0.1599883E+03  0.7546771E-02  0.1188710E+00
          4   -1    0    0  503    0 -0.00000000000E+00  0.00000000000E+00  0.22662926696E+03  0.22662926696E+03  0.00000000000E+00 0. -1.
         21   -1    0    0  505  502  0.00000000000E+00 -0.00000000000E+00 -0.10120274180E+04  0.10120274180E+04  0.00000000000E+00 0. -1.
         21    1    1    2  503  502  0.12832800321E+02  0.38975143992E+02 -0.58540444653E+02  0.71489343776E+02  0.00000000000E+00 0. -1.
         21    1    1    2  504  501 -0.12676115723E+03 -0.10100647701E+03 -0.31130414135E+03  0.35097146295E+03  0.00000000000E+00 0. -1.
         21    1    1    2  505  504 -0.37077586505E+02  0.75165510057E+01 -0.58299620150E+03  0.58422240365E+03  0.00000000000E+00 0. -1.
          4    1    1    2  501    0  0.15100594341E+03  0.54514782008E+02  0.16744263647E+03  0.23197347459E+03  0.00000000000E+00 0. -1.
<scales pt_clust_3="40.75790" pt_clust_4="159.98835" pt_clust_5="37.83181" pt_clust_6="14000.00000"></scales>
<clustering>
<clus scale="   37.832">  2  5  1 -1</clus>
<clus scale="   40.758">  2  3  1 -1</clus>
<clus scale="  159.988">  2  4  1 -1</clus>
<clus scale="   37.832">  2  3  1 -1</clus>
</clustering>
</event>
