<event>
 5    0  0.5829567E-005  0.4240203E+03  0.7546771E-02  0.1035766E+00
         21   -1    0    0  502  501  0.00000000000E+00  0.00000000000E+00  0.12860437215E+03  0.12860437215E+03  0.00000000000E+00 0.  1.
         21   -1    0    0  501  502 -0.00000000000E+00 -0.00000000000E+00 -0.13980332286E+04  0.13980332286E+04  0.00000000000E+00 0.  1.
         25    1    1    2    0    0  0.85157910266E+02 -0.29074799257E+03 -0.70402685637E+03  0.77657264911E+03  0.12500000000E+03 0.  0.
         25    1    1    2    0    0  0.98698715989E+00  0.31268081778E+03 -0.42394213500E+03  0.54140761149E+03  0.12500000000E+03 0.  0.
         25    1    1    2    0    0 -0.86144897426E+02 -0.21932825210E+02 -0.14145986512E+03  0.20865734019E+03  0.12500000000E+03 0.  0.
</event>
<event>
 5    0  0.5829567E-005  0.3081269E+03  0.7546771E-02  0.1081247E+00
         21   -1    0    0  502  501  0.00000000000E+00  0.00000000000E+00  0.44731341918E+02  0.44731341918E+02  0.00000000000E+00 0. -1.
         21   -1    0    0  501  502 -0.00000000000E+00 -0.00000000000E+00 -0.21224976965E+04  0.21224976965E+04  0.00000000000E+00 0. -1.
         25    1    1    2    0    0  0.15918161697E+03  0.15724650136E+02 -0.81496509175E+03  0.83986853291E+03  0.12500000000E+03 0.  0.
         25    1    1    2    0    0 -0.85659187213E+02 -0.84083864020E+02 -0.10313317771E+04  0.10457905274E+04  0.12500000000E+03 0.  0.
         25    1    1    2    0    0 -0.73522429754E+02  0.68359213885E+02 -0.23146948573E+03  0.28156997820E+03  0.12500000000E+03 0.  0.
</event>
<event>
 5    0  0.5829567E-005  0.3902763E+03  0.7546771E-02  0.1047200E+00
         21   -1    0    0  502  501  0.00000000000E+00  0.00000000000E+00  0.32183822481E+03  0.32183822481E+03  0.00000000000E+00 0. -1.
         21   -1    0    0  501  502 -0.00000000000E+00 -0.00000000000E+00 -0.47326747704E+03  0.47326747704E+03  0.00000000000E+00 0. -1.
         25    1    1    2    0    0 -0.22968787618E+03  0.85970884692E+02 -0.11457673558E+03  0.29816160352E+03  0.12500000000E+03 0.  0.
         25    1    1    2    0    0  0.14997755302E+03 -0.20431215068E+02 -0.19054231603E+03  0.27357279681E+03  0.12500000000E+03 0.  0.
         25    1    1    2    0    0  0.79710323153E+02 -0.65539669624E+02  0.15368979937E+03  0.22337130152E+03  0.12500000000E+03 0.  0.
</event>
<event>
 5    0  0.5829567E-005  0.3501208E+03  0.7546771E-02  0.1062565E+00
         21   -1    0    0  502  501  0.00000000000E+00  0.00000000000E+00  0.42880033259E+03  0.42880033259E+03  0.00000000000E+00 0. -1.
         21   -1    0    0  501  502 -0.00000000000E+00 -0.00000000000E+00 -0.28587806291E+03  0.28587806291E+03  0.00000000000E+00 0. -1.
         25    1    1    2    0    0 -0.23145716067E+03 -0.13923930300E+03  0.13106806689E+03  0.32521352814E+03  0.12500000000E+03 0.  0.
         25    1    1    2    0    0  0.14817072061E+03  0.81606081319E+02 -0.51522025732E+02  0.21654938026E+03  0.12500000000E+03 0.  0.
         25    1    1    2    0    0  0.83286440057E+02  0.57633221677E+02  0.63376228523E+02  0.17291548710E+03  0.12500000000E+03 0.  0.
</event>
<event>
 5    0  0.5829567E-005  0.2380401E+03  0.7546771E-02  0.1121105E+00
         21   -1    0    0  502  501  0.00000000000E+00  0.00000000000E+00  0.49961538034E+03  0.49961538034E+03  0.00000000000E+00 0.  1.
         21   -1    0    0  501  502 -0.00000000000E+00 -0.00000000000E+00 -0.11341340631E+03  0.11341340631E+03  0.00000000000E+00 0.  1.
         25    1    1    2    0    0 -0.53586243817E+02  0.90645902732E+02  0.14122563555E+03  0.21600427159E+03  0.12500000000E+03 0.  0.
         25    1    1    2    0    0 -0.12677930920E+02 -0.61163432628E+02  0.20316248699E+03  0.24657999016E+03  0.12500000000E+03 0.  0.
         25    1    1    2    0    0  0.66264174738E+02 -0.29482470104E+02  0.41813851492E+02  0.15044452490E+03  0.12500000000E+03 0.  0.
</event>
<event>
 5    0  0.5829567E-005  0.2662782E+03  0.7546771E-02  0.1103429E+00
         21   -1    0    0  502  501  0.00000000000E+00  0.00000000000E+00  0.69147189909E+02  0.69147189909E+02  0.00000000000E+00 0. -1.
         21   -1    0    0  501  502 -0.00000000000E+00 -0.00000000000E+00 -0.10254077217E+04  0.10254077217E+04  0.00000000000E+00 0. -1.
         25    1    1    2    0    0  0.28842790988E+02 -0.62306426352E+02 -0.35921722418E+03  0.38649192941E+03  0.12500000000E+03 0.  0.
         25    1    1    2    0    0  0.51732803086E+02  0.43914285997E+02 -0.52091206197E+03  0.53998066978E+03  0.12500000000E+03 0.  0.
         25    1    1    2    0    0 -0.80575594074E+02  0.18392140355E+02 -0.76131245662E+02  0.16808231243E+03  0.12500000000E+03 0.  0.
</event>
<event>
 5    0  0.5829567E-005  0.2534751E+03  0.7546771E-02  0.1111128E+00
         21   -1    0    0  502  501  0.00000000000E+00  0.00000000000E+00  0.12306134877E+04  0.12306134877E+04  0.00000000000E+00 0. -1.
         21   -1    0    0  501  502 -0.00000000000E+00 -0.00000000000E+00 -0.52209415342E+02  0.52209415342E+02  0.00000000000E+00 0. -1.
         25    1    1    2    0    0  0.45865087636E+02 -0.13203063581E+03  0.60829520194E+03  0.63654045257E+03  0.12500000000E+03 0.  0.
         25    1    1    2    0    0 -0.16712554108E+02  0.92503488780E+02  0.20924365808E+03  0.26123574286E+03  0.12500000000E+03 0.  0.
         25    1    1    2    0    0 -0.29152533529E+02  0.39527147034E+02  0.36086521232E+03  0.38504670759E+03  0.12500000000E+03 0.  0.
</event>
<event>
 5    0  0.5829567E-005  0.2525879E+03  0.7546771E-02  0.1111680E+00
         21   -1    0    0  502  501  0.00000000000E+00  0.00000000000E+00  0.58410174424E+03  0.58410174424E+03  0.00000000000E+00 0.  1.
         21   -1    0    0  501  502 -0.00000000000E+00 -0.00000000000E+00 -0.10922861688E+03  0.10922861688E+03  0.00000000000E+00 0.  1.
         25    1    1    2    0    0 -0.48507548358E+02  0.48750795019E+02  0.28368783193E+03  0.31754276601E+03  0.12500000000E+03 0.  0.
         25    1    1    2    0    0  0.11880370854E+03 -0.22105872113E+01  0.94188875740E+02  0.19650891117E+03  0.12500000000E+03 0.  0.
         25    1    1    2    0    0 -0.70296160178E+02 -0.46540207807E+02  0.96996419698E+02  0.17927868393E+03  0.12500000000E+03 0.  0.
</event>
<event>
 5    0  0.5829567E-005  0.3396851E+03  0.7546771E-02  0.1066930E+00
         21   -1    0    0  502  501  0.00000000000E+00  0.00000000000E+00  0.11085587882E+03  0.11085587882E+03  0.00000000000E+00 0. -1.
         21   -1    0    0  501  502 -0.00000000000E+00 -0.00000000000E+00 -0.10408646810E+04  0.10408646810E+04  0.00000000000E+00 0. -1.
         25    1    1    2    0    0  0.16436191685E+02 -0.13004677419E+03 -0.55119307646E+03  0.58019058887E+03  0.12500000000E+03 0.  0.
         25    1    1    2    0    0 -0.14735262370E+03  0.35932438969E+02 -0.85722401492E+02  0.21442310043E+03  0.12500000000E+03 0.  0.
         25    1    1    2    0    0  0.13091643202E+03  0.94114335224E+02 -0.29309332423E+03  0.35710687053E+03  0.12500000000E+03 0.  0.
</event>
<event>
 5    0  0.5829567E-005  0.2568094E+03  0.7546771E-02  0.1109076E+00
         21   -1    0    0  502  501  0.00000000000E+00  0.00000000000E+00  0.34367975744E+03  0.34367975744E+03  0.00000000000E+00 0. -1.
         21   -1    0    0  501  502 -0.00000000000E+00 -0.00000000000E+00 -0.19189683545E+03  0.19189683545E+03  0.00000000000E+00 0. -1.
         25    1    1    2    0    0 -0.14037057276E+02  0.19561620451E+02 -0.82395521288E+02  0.15163679600E+03  0.12500000000E+03 0.  0.
         25    1    1    2    0    0 -0.62216788364E+02  0.29023451215E+02  0.15467140781E+03  0.21038425290E+03  0.12500000000E+03 0.  0.
         25    1    1    2    0    0  0.76253845640E+02 -0.48585071666E+02  0.79507035471E+02  0.17355554400E+03  0.12500000000E+03 0.  0.
</event>
<event>
 5    0  0.5829567E-005  0.3549089E+03  0.7546771E-02  0.1060618E+00
         21   -1    0    0  502  501  0.00000000000E+00  0.00000000000E+00  0.32580904234E+03  0.32580904234E+03  0.00000000000E+00 0. -1.
         21   -1    0    0  501  502 -0.00000000000E+00 -0.00000000000E+00 -0.38660787825E+03  0.38660787825E+03  0.00000000000E+00 0. -1.
         25    1    1    2    0    0 -0.17599858248E+02  0.13409610753E+02  0.11017939413E+03  0.16808947487E+03  0.12500000000E+03 0.  0.
         25    1    1    2    0    0 -0.55475322767E+02 -0.13006684798E+03 -0.27326849867E+03  0.33210776676E+03  0.12500000000E+03 0.  0.
         25    1    1    2    0    0  0.73075181015E+02  0.11665723722E+03  0.10229026863E+03  0.21221967895E+03  0.12500000000E+03 0.  0.
</event>
<event>
 5    0  0.5829567E-005  0.2687026E+03  0.7546771E-02  0.1102024E+00
         21   -1    0    0  502  501  0.00000000000E+00  0.00000000000E+00  0.82013838279E+03  0.82013838279E+03  0.00000000000E+00 0. -1.
         21   -1    0    0  501  502 -0.00000000000E+00 -0.00000000000E+00 -0.88035237879E+02  0.88035237879E+02  0.00000000000E+00 0. -1.
         25    1    1    2    0    0 -0.68446227436E+02 -0.49609092290E+02  0.80098259032E+02  0.17084109338E+03  0.12500000000E+03 0.  0.
         25    1    1    2    0    0 -0.12277216821E+02 -0.77737334680E+02  0.25652899421E+03  0.29601680379E+03  0.12500000000E+03 0.  0.
         25    1    1    2    0    0  0.80723444257E+02  0.12734642697E+03  0.39547589168E+03  0.44131572350E+03  0.12500000000E+03 0.  0.
</event>
<event>
 5    0  0.5829567E-005  0.2705080E+03  0.7546771E-02  0.1100989E+00
         21   -1    0    0  502  501  0.00000000000E+00  0.00000000000E+00  0.61099625220E+02  0.61099625220E+02  0.00000000000E+00 0. -1.
         21   -1    0    0  501  502 -0.00000000000E+00 -0.00000000000E+00 -0.11976271491E+04  0.11976271491E+04  0.00000000000E+00 0. -1.
         25    1    1    2    0    0 -0.90070197514E+01 -0.71029841141E+02 -0.71839368049E+03  0.73269423698E+03  0.12500000000E+03 0.  0.
         25    1    1    2    0    0  0.67140509366E+01  0.12513521313E+03 -0.18513620200E+03  0.25613338973E+03  0.12500000000E+03 0.  0.
         25    1    1    2    0    0  0.22929688147E+01 -0.54105371987E+02 -0.23299764137E+03  0.26989914759E+03  0.12500000000E+03 0.  0.
</event>
<event>
 5    0  0.5829567E-005  0.5886201E+03  0.7546771E-02  0.9929301E-01
         21   -1    0    0  502  501  0.00000000000E+00  0.00000000000E+00  0.26200815838E+03  0.26200815838E+03  0.00000000000E+00 0. -1.
         21   -1    0    0  501  502 -0.00000000000E+00 -0.00000000000E+00 -0.13223774315E+04  0.13223774315E+04  0.00000000000E+00 0. -1.
         25    1    1    2    0    0  0.57268833289E+02 -0.38170485574E+01  0.23988386355E+02  0.13962353600E+03  0.12500000000E+03 0.  0.
         25    1    1    2    0    0  0.19293543361E+03 -0.33139046259E+03 -0.18228661969E+03  0.44260267956E+03  0.12500000000E+03 0.  0.
         25    1    1    2    0    0 -0.25020426690E+03  0.33520751115E+03 -0.90207103974E+03  0.10021593743E+04  0.12500000000E+03 0.  0.
</event>
<event>
 5    0  0.5829567E-005  0.2500094E+03  0.7546771E-02  0.1113299E+00
         21   -1    0    0  502  501  0.00000000000E+00  0.00000000000E+00  0.96706212670E+02  0.96706212670E+02  0.00000000000E+00 0. -1.
         21   -1    0    0  501  502 -0.00000000000E+00 -0.00000000000E+00 -0.64633595435E+03  0.64633595435E+03  0.00000000000E+00 0. -1.
         25    1    1    2    0    0 -0.22488309747E+02  0.68020227689E+01 -0.18196051239E+03  0.22200590005E+03  0.12500000000E+03 0.  0.
         25    1    1    2    0    0  0.13759700460E+03 -0.32871466545E+02 -0.24752971253E+03  0.31130279082E+03  0.12500000000E+03 0.  0.
         25    1    1    2    0    0 -0.11510869485E+03  0.26069443776E+02 -0.12013951676E+03  0.20973347615E+03  0.12500000000E+03 0.  0.
</event>
<event>
 5    0  0.5829567E-005  0.5264695E+03  0.7546771E-02  0.1007092E+00
         21   -1    0    0  502  501  0.00000000000E+00  0.00000000000E+00  0.36064239539E+03  0.36064239539E+03  0.00000000000E+00 0. -1.
         21   -1    0    0  501  502 -0.00000000000E+00 -0.00000000000E+00 -0.76854556063E+03  0.76854556063E+03  0.00000000000E+00 0. -1.
         25    1    1    2    0    0  0.55953352716E+02  0.12535296469E+03 -0.11001243574E+03  0.21580518866E+03  0.12500000000E+03 0.  0.
         25    1    1    2    0    0  0.37245172128E+03  0.21909608704E+02 -0.13910266161E+03  0.41734262436E+03  0.12500000000E+03 0.  0.
         25    1    1    2    0    0 -0.42840507400E+03 -0.14726257340E+03 -0.15878806790E+03  0.49604014299E+03  0.12500000000E+03 0.  0.
</event>
<event>
 5    0  0.5829567E-005  0.3024871E+03  0.7546771E-02  0.1084004E+00
         21   -1    0    0  502  501  0.00000000000E+00  0.00000000000E+00  0.29299790067E+03  0.29299790067E+03  0.00000000000E+00 0. -1.
         21   -1    0    0  501  502 -0.00000000000E+00 -0.00000000000E+00 -0.31228364191E+03  0.31228364191E+03  0.00000000000E+00 0. -1.
         25    1    1    2    0    0 -0.11235186724E+03 -0.10255801140E+03 -0.89137065441E+02  0.21612844378E+03  0.12500000000E+03 0.  0.
         25    1    1    2    0    0  0.17978739298E+03  0.42707161514E+02  0.84806068071E+01  0.22325843548E+03  0.12500000000E+03 0.  0.
         25    1    1    2    0    0 -0.67435525739E+02  0.59850849888E+02  0.61370717395E+02  0.16589466332E+03  0.12500000000E+03 0.  0.
</event>
<event>
 5    0  0.5829567E-005  0.4571983E+03  0.7546771E-02  0.1025597E+00
         21   -1    0    0  502  501  0.00000000000E+00  0.00000000000E+00  0.20583750494E+03  0.20583750494E+03  0.00000000000E+00 0.  1.
         21   -1    0    0  501  502 -0.00000000000E+00 -0.00000000000E+00 -0.10155111277E+04  0.10155111277E+04  0.00000000000E+00 0.  1.
         25    1    1    2    0    0 -0.15471219161E+03 -0.35440362098E+03 -0.40223691586E+03  0.57180182343E+03  0.12500000000E+03 0.  0.
         25    1    1    2    0    0 -0.18865818100E+01  0.91601213424E+02 -0.22156027340E+03  0.27038545863E+03  0.12500000000E+03 0.  0.
         25    1    1    2    0    0  0.15659877342E+03  0.26280240755E+03 -0.18587643353E+03  0.37916135060E+03  0.12500000000E+03 0.  0.
</event>
<event>
 5    0  0.5829567E-005  0.2325495E+03  0.7546771E-02  0.1124858E+00
         21   -1    0    0  502  501  0.00000000000E+00  0.00000000000E+00  0.99375220744E+03  0.99375220744E+03  0.00000000000E+00 0. -1.
         21   -1    0    0  501  502 -0.00000000000E+00 -0.00000000000E+00 -0.54419265411E+02  0.54419265411E+02  0.00000000000E+00 0. -1.
         25    1    1    2    0    0  0.42911723059E+02  0.79836034352E+02  0.26655496942E+03  0.30804506176E+03  0.12500000000E+03 0.  0.
         25    1    1    2    0    0 -0.29184594161E+02 -0.41196627829E+02  0.15281737509E+03  0.20378187557E+03  0.12500000000E+03 0.  0.
         25    1    1    2    0    0 -0.13727128898E+02 -0.38639406523E+02  0.51996059752E+03  0.53634453552E+03  0.12500000000E+03 0.  0.
</event>
<event>
 5    0  0.5829567E-005  0.3373893E+03  0.7546771E-02  0.1067913E+00
         21   -1    0    0  502  501  0.00000000000E+00  0.00000000000E+00  0.10496553941E+03  0.10496553941E+03  0.00000000000E+00 0.  1.
         21   -1    0    0  501  502 -0.00000000000E+00 -0.00000000000E+00 -0.10844655749E+04  0.10844655749E+04  0.00000000000E+00 0.  1.
         25    1    1    2    0    0 -0.15607747229E+03 -0.19793701420E+03 -0.40663700652E+03  0.49448750643E+03  0.12500000000E+03 0.  0.
         25    1    1    2    0    0  0.50114289042E+02  0.72520242928E+02 -0.11072544187E+03  0.18882730491E+03  0.12500000000E+03 0.  0.
         25    1    1    2    0    0  0.10596318325E+03  0.12541677127E+03 -0.46213758707E+03  0.50611630294E+03  0.12500000000E+03 0.  0.
</event>
<event>
 5    0  0.5829567E-005  0.3794765E+03  0.7546771E-02  0.1051127E+00
         21   -1    0    0  502  501  0.00000000000E+00  0.00000000000E+00  0.29392042743E+03  0.29392042743E+03  0.00000000000E+00 0.  1.
         21   -1    0    0  501  502 -0.00000000000E+00 -0.00000000000E+00 -0.48993677850E+03  0.48993677850E+03  0.00000000000E+00 0.  1.
         25    1    1    2    0    0  0.60572438331E+01 -0.81300970959E+02  0.15736453788E+03  0.21687585358E+03  0.12500000000E+03 0.  0.
         25    1    1    2    0    0  0.10459614680E+03  0.97257023594E+02 -0.16314002469E+02  0.19050047045E+03  0.12500000000E+03 0.  0.
         25    1    1    2    0    0 -0.11065339063E+03 -0.15956052635E+02 -0.33706688649E+03  0.37648088191E+03  0.12500000000E+03 0.  0.
</event>
<event>
 5    0  0.5829567E-005  0.3288071E+03  0.7546771E-02  0.1071666E+00
         21   -1    0    0  502  501  0.00000000000E+00  0.00000000000E+00  0.40253832031E+03  0.40253832031E+03  0.00000000000E+00 0.  1.
         21   -1    0    0  501  502 -0.00000000000E+00 -0.00000000000E+00 -0.26858088755E+03  0.26858088755E+03  0.00000000000E+00 0.  1.
         25    1    1    2    0    0  0.33161745328E+02  0.79794108760E+02 -0.62161831606E+02  0.16418250350E+03  0.12500000000E+03 0.  0.
         25    1    1    2    0    0  0.62437054314E+02  0.40053665858E+02  0.26101333597E+03  0.29875682997E+03  0.12500000000E+03 0.  0.
         25    1    1    2    0    0 -0.95598799642E+02 -0.11984777462E+03 -0.64894071604E+02  0.20817987440E+03  0.12500000000E+03 0.  0.
</event>
<event>
 5    0  0.5829567E-005  0.2439515E+03  0.7546771E-02  0.1117188E+00
         21   -1    0    0  502  501  0.00000000000E+00  0.00000000000E+00  0.95542645108E+03  0.95542645108E+03  0.00000000000E+00 0.  1.
         21   -1    0    0  501  502 -0.00000000000E+00 -0.00000000000E+00 -0.62288746583E+02  0.62288746583E+02  0.00000000000E+00 0.  1.
         25    1    1    2    0    0  0.22990628307E+02 -0.13736206420E+03  0.35197824389E+03  0.39863591138E+03  0.12500000000E+03 0.  0.
         25    1    1    2    0    0 -0.26423884640E+02  0.93842854588E+02  0.21543890392E+03  0.26747639963E+03  0.12500000000E+03 0.  0.
         25    1    1    2    0    0  0.34332563326E+01  0.43519209608E+02  0.32572055669E+03  0.35160288665E+03  0.12500000000E+03 0.  0.
</event>
<event>
 5    0  0.5829567E-005  0.2221351E+03  0.7546771E-02  0.1132301E+00
         21   -1    0    0  502  501  0.00000000000E+00  0.00000000000E+00  0.13637800630E+03  0.13637800630E+03  0.00000000000E+00 0.  1.
         21   -1    0    0  501  502 -0.00000000000E+00 -0.00000000000E+00 -0.36181780219E+03  0.36181780219E+03  0.00000000000E+00 0.  1.
         25    1    1    2    0    0 -0.31784452829E+02 -0.64619525129E+02 -0.14078526345E+02  0.14494529787E+03  0.12500000000E+03 0.  0.
         25    1    1    2    0    0  0.40580293835E+01  0.83684900241E+02 -0.13948657261E+03  0.20518560883E+03  0.12500000000E+03 0.  0.
         25    1    1    2    0    0  0.27726423445E+02 -0.19065375112E+02 -0.71874696935E+02  0.14806490180E+03  0.12500000000E+03 0.  0.
</event>
<event>
 5    0  0.5829567E-005  0.2379031E+03  0.7546771E-02  0.1121198E+00
         21   -1    0    0  502  501  0.00000000000E+00  0.00000000000E+00  0.21026819669E+03  0.21026819669E+03  0.00000000000E+00 0. -1.
         21   -1    0    0  501  502 -0.00000000000E+00 -0.00000000000E+00 -0.26916990179E+03  0.26916990179E+03  0.00000000000E+00 0. -1.
         25    1    1    2    0    0 -0.94572433564E+02 -0.56721800970E+02 -0.11370278247E+02  0.16707959517E+03  0.12500000000E+03 0.  0.
         25    1    1    2    0    0  0.47239907803E+02  0.85930177288E+02 -0.70176177284E+02  0.17368160558E+03  0.12500000000E+03 0.  0.
         25    1    1    2    0    0  0.47332525762E+02 -0.29208376318E+02  0.22644750437E+02  0.13867689773E+03  0.12500000000E+03 0.  0.
</event>
<event>
 5    0  0.5829567E-005  0.2552983E+03  0.7546771E-02  0.1110001E+00
         21   -1    0    0  502  501  0.00000000000E+00  0.00000000000E+00  0.11501376221E+03  0.11501376221E+03  0.00000000000E+00 0.  1.
         21   -1    0    0  501  502 -0.00000000000E+00 -0.00000000000E+00 -0.56669069779E+03  0.56669069779E+03  0.00000000000E+00 0.  1.
         25    1    1    2    0    0  0.59744659031E+02  0.61415787662E+02 -0.14474102642E+03  0.20956213395E+03  0.12500000000E+03 0.  0.
         25    1    1    2    0    0 -0.10181157712E+03  0.14073041207E+02 -0.42770324111E+02  0.16738562767E+03  0.12500000000E+03 0.  0.
         25    1    1    2    0    0  0.42066918093E+02 -0.75488828869E+02 -0.26416558505E+03  0.30475669838E+03  0.12500000000E+03 0.  0.
</event>
<event>
 5    0  0.5829567E-005  0.2778423E+03  0.7546771E-02  0.1096873E+00
         21   -1    0    0  502  501  0.00000000000E+00  0.00000000000E+00  0.25544196531E+04  0.25544196531E+04  0.00000000000E+00 0.  1.
         21   -1    0    0  501  502 -0.00000000000E+00 -0.00000000000E+00 -0.30220687105E+02  0.30220687105E+02  0.00000000000E+00 0.  1.
         25    1    1    2    0    0 -0.88034064499E+02 -0.36124849866E+02  0.94311031142E+03  0.95610515154E+03  0.12500000000E+03 0.  0.
         25    1    1    2    0    0 -0.92320424746E+02 -0.55868108148E+01  0.84924841597E+03  0.86336675017E+03  0.12500000000E+03 0.  0.
         25    1    1    2    0    0  0.18035448924E+03  0.41711660681E+02  0.73184023865E+03  0.76516843854E+03  0.12500000000E+03 0.  0.
</event>
<event>
 5    0  0.5829567E-005  0.2700152E+03  0.7546771E-02  0.1101271E+00
         21   -1    0    0  502  501  0.00000000000E+00  0.00000000000E+00  0.17822626245E+03  0.17822626245E+03  0.00000000000E+00 0. -1.
         21   -1    0    0  501  502 -0.00000000000E+00 -0.00000000000E+00 -0.40907668050E+03  0.40907668050E+03  0.00000000000E+00 0. -1.
         25    1    1    2    0    0 -0.50559630113E+02 -0.66063266225E+01  0.20040960554E+02  0.13647915536E+03  0.12500000000E+03 0.  0.
         25    1    1    2    0    0  0.11341883040E+03 -0.10106953175E+03 -0.15074655790E+03  0.24784754600E+03  0.12500000000E+03 0.  0.
         25    1    1    2    0    0 -0.62859200284E+02  0.10767585837E+03 -0.10014482070E+03  0.20297624159E+03  0.12500000000E+03 0.  0.
</event>
<event>
 5    0  0.5829567E-005  0.2729420E+03  0.7546771E-02  0.1099608E+00
         21   -1    0    0  502  501  0.00000000000E+00  0.00000000000E+00  0.44682885840E+02  0.44682885840E+02  0.00000000000E+00 0.  1.
         21   -1    0    0  501  502 -0.00000000000E+00 -0.00000000000E+00 -0.16672456208E+04  0.16672456208E+04  0.00000000000E+00 0.  1.
         25    1    1    2    0    0 -0.10064307782E+03 -0.11388383070E+03 -0.37968632964E+03  0.42765086802E+03  0.12500000000E+03 0.  0.
         25    1    1    2    0    0  0.62700357182E+02  0.13093462589E+03 -0.75546505147E+03  0.77937645271E+03  0.12500000000E+03 0.  0.
         25    1    1    2    0    0  0.37942720639E+02 -0.17050795193E+02 -0.48741135387E+03  0.50490118592E+03  0.12500000000E+03 0.  0.
</event>
<event>
 5    0  0.5829567E-005  0.4293045E+03  0.7546771E-02  0.1034080E+00
         21   -1    0    0  502  501  0.00000000000E+00  0.00000000000E+00  0.37119248812E+03  0.37119248812E+03  0.00000000000E+00 0.  1.
         21   -1    0    0  501  502 -0.00000000000E+00 -0.00000000000E+00 -0.49651428615E+03  0.49651428615E+03  0.00000000000E+00 0.  1.
         25    1    1    2    0    0  0.26338620880E+03 -0.15271636467E+03  0.10002720493E+03  0.34398404723E+03  0.12500000000E+03 0.  0.
         25    1    1    2    0    0 -0.60898886026E+02  0.16397612402E+03 -0.32949111682E+02  0.21750284487E+03  0.12500000000E+03 0.  0.
         25    1    1    2    0    0 -0.20248732277E+03 -0.11259759344E+02 -0.19239989128E+03  0.30621988216E+03  0.12500000000E+03 0.  0.
</event>
<event>
 5    0  0.5893308E-005  0.2763960E+03  0.7546771E-02  0.1097674E+00
         21   -1    0    0  502  501  0.00000000000E+00  0.00000000000E+00  0.17421168766E+03  0.17421168766E+03  0.00000000000E+00 0.  1.
         21   -1    0    0  501  502 -0.00000000000E+00 -0.00000000000E+00 -0.43851677183E+03  0.43851677183E+03  0.00000000000E+00 0.  1.
         25    1    1    2    0    0 -0.15791396556E+02  0.12978741035E+03 -0.50004232480E+02  0.18766875967E+03  0.12500000000E+03 0.  0.
         25    1    1    2    0    0  0.39997153815E+02  0.38161554517E+01  0.13374385064E+02  0.13197806458E+03  0.12500000000E+03 0.  0.
         25    1    1    2    0    0 -0.24205757259E+02 -0.13360356580E+03 -0.22767523675E+03  0.29308163523E+03  0.12500000000E+03 0.  0.
</event>
<event>
 5    0  0.5829567E-005  0.3966896E+03  0.7546771E-02  0.1044932E+00
         21   -1    0    0  502  501  0.00000000000E+00  0.00000000000E+00  0.29554128435E+03  0.29554128435E+03  0.00000000000E+00 0.  1.
         21   -1    0    0  501  502 -0.00000000000E+00 -0.00000000000E+00 -0.53245560251E+03  0.53245560251E+03  0.00000000000E+00 0.  1.
         25    1    1    2    0    0  0.61413175907E+02 -0.16020664337E+03 -0.81995694691E+02  0.22756546465E+03  0.12500000000E+03 0.  0.
         25    1    1    2    0    0 -0.68318761604E+02  0.32900668119E+03 -0.39568435373E+02  0.36069864227E+03  0.12500000000E+03 0.  0.
         25    1    1    2    0    0  0.69055856978E+01 -0.16880003782E+03 -0.11535018810E+03  0.23973277994E+03  0.12500000000E+03 0.  0.
</event>
<event>
 5    0  0.5829567E-005  0.4168689E+03  0.7546771E-02  0.1038090E+00
         21   -1    0    0  502  501  0.00000000000E+00  0.00000000000E+00  0.10140611434E+03  0.10140611434E+03  0.00000000000E+00 0. -1.
         21   -1    0    0  501  502 -0.00000000000E+00 -0.00000000000E+00 -0.17137005296E+04  0.17137005296E+04  0.00000000000E+00 0. -1.
         25    1    1    2    0    0 -0.12635654399E+03 -0.15842764908E+02 -0.10283771580E+04  0.10437440052E+04  0.12500000000E+03 0.  0.
         25    1    1    2    0    0 -0.55429338475E+01 -0.77967640703E+02  0.54447605414E+01  0.14752736197E+03  0.12500000000E+03 0.  0.
         25    1    1    2    0    0  0.13189947784E+03  0.93810405610E+02 -0.58936201777E+03  0.62383527669E+03  0.12500000000E+03 0.  0.
</event>
<event>
 5    0  0.5829567E-005  0.3859261E+03  0.7546771E-02  0.1048765E+00
         21   -1    0    0  502  501  0.00000000000E+00  0.00000000000E+00  0.15597887961E+03  0.15597887961E+03  0.00000000000E+00 0. -1.
         21   -1    0    0  501  502 -0.00000000000E+00 -0.00000000000E+00 -0.95486604105E+03  0.95486604105E+03  0.00000000000E+00 0. -1.
         25    1    1    2    0    0  0.14451101524E+03  0.15197884929E+03 -0.43121233155E+03  0.49553009903E+03  0.12500000000E+03 0.  0.
         25    1    1    2    0    0 -0.90353873669E+02 -0.21996246830E+02  0.44619060958E+02  0.16206022943E+03  0.12500000000E+03 0.  0.
         25    1    1    2    0    0 -0.54157141569E+02 -0.12998260246E+03 -0.41229389084E+03  0.45325459220E+03  0.12500000000E+03 0.  0.
</event>
<event>
 5    0  0.5829567E-005  0.3515664E+03  0.7546771E-02  0.1061974E+00
         21   -1    0    0  502  501  0.00000000000E+00  0.00000000000E+00  0.87931033719E+03  0.87931033719E+03  0.00000000000E+00 0. -1.
         21   -1    0    0  501  502 -0.00000000000E+00 -0.00000000000E+00 -0.14056347106E+03  0.14056347106E+03  0.00000000000E+00 0. -1.
         25    1    1    2    0    0  0.14648923708E+03  0.87263099039E+02  0.38363647934E+03  0.43803640638E+03  0.12500000000E+03 0.  0.
         25    1    1    2    0    0 -0.11716025136E+03  0.87450773986E+02  0.35463333997E+02  0.19559348258E+03  0.12500000000E+03 0.  0.
         25    1    1    2    0    0 -0.29328985717E+02 -0.17471387302E+03  0.31964705279E+03  0.38624391929E+03  0.12500000000E+03 0.  0.
</event>
<event>
 5    0  0.5829567E-005  0.4256227E+03  0.7546771E-02  0.1035252E+00
         21   -1    0    0  502  501  0.00000000000E+00  0.00000000000E+00  0.25847053788E+03  0.25847053788E+03  0.00000000000E+00 0.  1.
         21   -1    0    0  501  502 -0.00000000000E+00 -0.00000000000E+00 -0.70087155925E+03  0.70087155925E+03  0.00000000000E+00 0.  1.
         25    1    1    2    0    0 -0.13082962948E+03 -0.29100925810E+02 -0.32934179773E+03  0.37690088294E+03  0.12500000000E+03 0.  0.
         25    1    1    2    0    0 -0.44131533265E+02 -0.77615621512E+02 -0.25927561580E+03  0.30136459958E+03  0.12500000000E+03 0.  0.
         25    1    1    2    0    0  0.17496116274E+03  0.10671654732E+03  0.14621639216E+03  0.28107661461E+03  0.12500000000E+03 0.  0.
</event>
<event>
 5    0  0.5829567E-005  0.4118339E+03  0.7546771E-02  0.1039757E+00
         21   -1    0    0  502  501  0.00000000000E+00  0.00000000000E+00  0.85195320303E+03  0.85195320303E+03  0.00000000000E+00 0.  1.
         21   -1    0    0  501  502 -0.00000000000E+00 -0.00000000000E+00 -0.19908036736E+03  0.19908036736E+03  0.00000000000E+00 0.  1.
         25    1    1    2    0    0  0.42584422561E+02 -0.17765312406E+03  0.30921318603E+02  0.22350658487E+03  0.12500000000E+03 0.  0.
         25    1    1    2    0    0  0.90464706769E+00  0.32451374047E+03  0.38082726877E+03  0.51571735940E+03  0.12500000000E+03 0.  0.
         25    1    1    2    0    0 -0.43489069628E+02 -0.14686061641E+03  0.24112424829E+03  0.31180962612E+03  0.12500000000E+03 0.  0.
</event>
<event>
 5    0  0.5829567E-005  0.2879219E+03  0.7546771E-02  0.1091439E+00
         21   -1    0    0  502  501  0.00000000000E+00  0.00000000000E+00  0.27085701525E+03  0.27085701525E+03  0.00000000000E+00 0. -1.
         21   -1    0    0  501  502 -0.00000000000E+00 -0.00000000000E+00 -0.30606200741E+03  0.30606200741E+03  0.00000000000E+00 0. -1.
         25    1    1    2    0    0  0.18829939860E+00 -0.17303767714E+02 -0.40884832852E+02  0.13265001090E+03  0.12500000000E+03 0.  0.
         25    1    1    2    0    0 -0.18930746067E+02 -0.14130386821E+03  0.10683291333E+03  0.21763140327E+03  0.12500000000E+03 0.  0.
         25    1    1    2    0    0  0.18742446669E+02  0.15860763592E+03 -0.10115307264E+03  0.22663760849E+03  0.12500000000E+03 0.  0.
</event>
<event>
 5    0  0.5829567E-005  0.3398653E+03  0.7546771E-02  0.1066853E+00
         21   -1    0    0  502  501  0.00000000000E+00  0.00000000000E+00  0.95835536634E+03  0.95835536634E+03  0.00000000000E+00 0.  1.
         21   -1    0    0  501  502 -0.00000000000E+00 -0.00000000000E+00 -0.12052778627E+03  0.12052778627E+03  0.00000000000E+00 0.  1.
         25    1    1    2    0    0 -0.14204849441E+03 -0.18755326848E+02  0.52163228990E+03  0.55520697304E+03  0.12500000000E+03 0.  0.
         25    1    1    2    0    0  0.37586439363E+02 -0.94264760773E+02  0.27873959869E+03  0.32189959526E+03  0.12500000000E+03 0.  0.
         25    1    1    2    0    0  0.10446205505E+03  0.11302008762E+03  0.37455691478E+02  0.20177658431E+03  0.12500000000E+03 0.  0.
</event>
<event>
 5    0  0.5829567E-005  0.2637201E+03  0.7546771E-02  0.1104929E+00
         21   -1    0    0  502  501  0.00000000000E+00  0.00000000000E+00  0.17349932869E+04  0.17349932869E+04  0.00000000000E+00 0. -1.
         21   -1    0    0  501  502 -0.00000000000E+00 -0.00000000000E+00 -0.40085620140E+02  0.40085620140E+02  0.00000000000E+00 0. -1.
         25    1    1    2    0    0 -0.50999139937E+01 -0.12890510198E+02  0.47762648925E+03  0.49390711435E+03  0.12500000000E+03 0.  0.
         25    1    1    2    0    0 -0.12602709532E+03  0.83129038212E+02  0.74805844258E+03  0.77331086845E+03  0.12500000000E+03 0.  0.
         25    1    1    2    0    0  0.13112700932E+03 -0.70238528014E+02  0.46922273495E+03  0.50786092425E+03  0.12500000000E+03 0.  0.
</event>
<event>
 5    0  0.5829567E-005  0.2518826E+03  0.7546771E-02  0.1112121E+00
         21   -1    0    0  502  501  0.00000000000E+00  0.00000000000E+00  0.17428669901E+03  0.17428669901E+03  0.00000000000E+00 0. -1.
         21   -1    0    0  501  502 -0.00000000000E+00 -0.00000000000E+00 -0.36402563806E+03  0.36402563806E+03  0.00000000000E+00 0. -1.
         25    1    1    2    0    0 -0.74481624316E+02  0.58999236026E+02 -0.21478960977E+03  0.26606014109E+03  0.12500000000E+03 0.  0.
         25    1    1    2    0    0  0.46967688128E+02 -0.23953418219E+02  0.31928403632E+02  0.13937055977E+03  0.12500000000E+03 0.  0.
         25    1    1    2    0    0  0.27513936188E+02 -0.35045817807E+02 -0.68777329107E+01  0.13288163620E+03  0.12500000000E+03 0.  0.
</event>
<event>
 5    0  0.5829567E-005  0.2594453E+03  0.7546771E-02  0.1107477E+00
         21   -1    0    0  502  501  0.00000000000E+00  0.00000000000E+00  0.50399136949E+03  0.50399136949E+03  0.00000000000E+00 0.  1.
         21   -1    0    0  501  502 -0.00000000000E+00 -0.00000000000E+00 -0.13355758349E+03  0.13355758349E+03  0.00000000000E+00 0.  1.
         25    1    1    2    0    0 -0.12171192840E+03 -0.45489073662E+02  0.20617623645E+03  0.27389174835E+03  0.12500000000E+03 0.  0.
         25    1    1    2    0    0  0.54508384091E+02  0.10317729556E+03  0.93735379864E+02  0.19500779393E+03  0.12500000000E+03 0.  0.
         25    1    1    2    0    0  0.67203544312E+02 -0.57688221896E+02  0.70522169690E+02  0.16864941071E+03  0.12500000000E+03 0.  0.
</event>
<event>
 5    0  0.5829567E-005  0.2503765E+03  0.7546771E-02  0.1113067E+00
         21   -1    0    0  502  501  0.00000000000E+00  0.00000000000E+00  0.49693916986E+03  0.49693916986E+03  0.00000000000E+00 0.  1.
         21   -1    0    0  501  502 -0.00000000000E+00 -0.00000000000E+00 -0.12614902258E+03  0.12614902258E+03  0.00000000000E+00 0.  1.
         25    1    1    2    0    0 -0.10753215101E+00 -0.41573903253E+02  0.44736004498E+02  0.13912121008E+03  0.12500000000E+03 0.  0.
         25    1    1    2    0    0 -0.89018785458E+02  0.10756143597E+03  0.20417951974E+03  0.27714271225E+03  0.12500000000E+03 0.  0.
         25    1    1    2    0    0  0.89126317609E+02 -0.65987532715E+02  0.12187462304E+03  0.20682427011E+03  0.12500000000E+03 0.  0.
</event>
<event>
 5    0  0.5829567E-005  0.3161627E+03  0.7546771E-02  0.1077429E+00
         21   -1    0    0  502  501  0.00000000000E+00  0.00000000000E+00  0.11721731929E+04  0.11721731929E+04  0.00000000000E+00 0.  1.
         21   -1    0    0  501  502 -0.00000000000E+00 -0.00000000000E+00 -0.85276503381E+02  0.85276503381E+02  0.00000000000E+00 0. -1.
         25    1    1    2    0    0 -0.15291311865E+03 -0.10826617705E+03  0.27493882224E+03  0.35541573252E+03  0.12500000000E+03 0.  0.
         25    1    1    2    0    0  0.13187865790E+03 -0.60627511277E+01  0.61543264291E+03  0.64172507768E+03  0.12500000000E+03 0.  0.
         25    1    1    2    0    0  0.21034460746E+02  0.11432892818E+03  0.19652522435E+03  0.26030888606E+03  0.12500000000E+03 0.  0.
</event>
<event>
 5    0  0.5829567E-005  0.2522207E+03  0.7546771E-02  0.1111909E+00
         21   -1    0    0  502  501  0.00000000000E+00  0.00000000000E+00  0.31601462718E+02  0.31601462718E+02  0.00000000000E+00 0.  1.
         21   -1    0    0  501  502 -0.00000000000E+00 -0.00000000000E+00 -0.20130492107E+04  0.20130492107E+04  0.00000000000E+00 0.  1.
         25    1    1    2    0    0 -0.13123324790E+03 -0.69838006426E+02 -0.63287272781E+03  0.66200634596E+03  0.12500000000E+03 0.  0.
         25    1    1    2    0    0  0.43342365706E+02 -0.67495699231E+01 -0.51864659556E+03  0.53529749528E+03  0.12500000000E+03 0.  0.
         25    1    1    2    0    0  0.87890882190E+02  0.76587576349E+02 -0.82992842463E+03  0.84734683219E+03  0.12500000000E+03 0.  0.
</event>
<event>
 5    0  0.5829567E-005  0.4852520E+03  0.7546771E-02  0.1017702E+00
         21   -1    0    0  502  501  0.00000000000E+00  0.00000000000E+00  0.17692308218E+03  0.17692308218E+03  0.00000000000E+00 0. -1.
         21   -1    0    0  501  502 -0.00000000000E+00 -0.00000000000E+00 -0.13309148170E+04  0.13309148170E+04  0.00000000000E+00 0. -1.
         25    1    1    2    0    0  0.41703801799E+02  0.52865709461E+02  0.13231826184E+02  0.14259758604E+03  0.12500000000E+03 0.  0.
         25    1    1    2    0    0 -0.14675725646E+03  0.26513806006E+03 -0.38806540038E+03  0.50799176980E+03  0.12500000000E+03 0.  0.
         25    1    1    2    0    0  0.10505345466E+03 -0.31800376952E+03 -0.77915816066E+03  0.85724854336E+03  0.12500000000E+03 0.  0.
</event>
<event>
 5    0  0.5829567E-005  0.3257599E+03  0.7546771E-02  0.1073029E+00
         21   -1    0    0  502  501  0.00000000000E+00  0.00000000000E+00  0.13308984729E+04  0.13308984729E+04  0.00000000000E+00 0.  1.
         21   -1    0    0  501  502 -0.00000000000E+00 -0.00000000000E+00 -0.79735230583E+02  0.79735230583E+02  0.00000000000E+00 0.  1.
         25    1    1    2    0    0  0.14254190861E+03  0.28801763797E+02  0.18083721354E+03  0.26358079427E+03  0.12500000000E+03 0.  0.
         25    1    1    2    0    0 -0.22480670464E+03  0.94915176067E+01  0.63829229533E+03  0.68823702140E+03  0.12500000000E+03 0.  0.
         25    1    1    2    0    0  0.82264796031E+02 -0.38293281404E+02  0.43203373343E+03  0.45881588779E+03  0.12500000000E+03 0.  0.
</event>
<event>
 5    0  0.5829567E-005  0.2459458E+03  0.7546771E-02  0.1115894E+00
         21   -1    0    0  502  501  0.00000000000E+00  0.00000000000E+00  0.39952846751E+03  0.39952846751E+03  0.00000000000E+00 0. -1.
         21   -1    0    0  501  502 -0.00000000000E+00 -0.00000000000E+00 -0.15140180640E+03  0.15140180640E+03  0.00000000000E+00 0. -1.
         25    1    1    2    0    0  0.76274497104E+02 -0.14127802589E+02  0.21041470362E+02  0.14861069002E+03  0.12500000000E+03 0.  0.
         25    1    1    2    0    0 -0.44491696581E+02  0.94617294355E+02  0.18078668640E+03  0.24339426747E+03  0.12500000000E+03 0.  0.
         25    1    1    2    0    0 -0.31782800523E+02 -0.80489491766E+02  0.46298504351E+02  0.15892531642E+03  0.12500000000E+03 0.  0.
</event>
<event>
 5    0  0.5829567E-005  0.3381527E+03  0.7546771E-02  0.1067585E+00
         21   -1    0    0  502  501  0.00000000000E+00  0.00000000000E+00  0.16603783467E+03  0.16603783467E+03  0.00000000000E+00 0.  1.
         21   -1    0    0  501  502 -0.00000000000E+00 -0.00000000000E+00 -0.68868179108E+03  0.68868179108E+03  0.00000000000E+00 0.  1.
         25    1    1    2    0    0  0.16542543960E+03  0.14752185984E+03 -0.19107521052E+03  0.31821849612E+03  0.12500000000E+03 0.  0.
         25    1    1    2    0    0 -0.58176717224E+02 -0.11311784694E+02  0.42887230357E+01  0.13840476887E+03  0.12500000000E+03 0.  0.
         25    1    1    2    0    0 -0.10724872238E+03 -0.13621007515E+03 -0.33585746893E+03  0.39809636077E+03  0.12500000000E+03 0.  0.
</event>
<event>
 5    0  0.5829567E-005  0.2409441E+03  0.7546771E-02  0.1119165E+00
         21   -1    0    0  502  501  0.00000000000E+00  0.00000000000E+00  0.16000800540E+03  0.16000800540E+03  0.00000000000E+00 0. -1.
         21   -1    0    0  501  502 -0.00000000000E+00 -0.00000000000E+00 -0.36281976087E+03  0.36281976087E+03  0.00000000000E+00 0. -1.
         25    1    1    2    0    0  0.67873026514E+02  0.28199982186E+02 -0.14366720083E+03  0.20412557733E+03  0.12500000000E+03 0.  0.
         25    1    1    2    0    0 -0.35731954698E+02 -0.13789541682E+02 -0.11800613530E+03  0.17611749492E+03  0.12500000000E+03 0.  0.
         25    1    1    2    0    0 -0.32141071816E+02 -0.14410440504E+02  0.58861580668E+02  0.14258469403E+03  0.12500000000E+03 0.  0.
</event>
<event>
 5    0  0.5829567E-005  0.2538551E+03  0.7546771E-02  0.1110892E+00
         21   -1    0    0  502  501  0.00000000000E+00  0.00000000000E+00  0.64124930721E+03  0.64124930721E+03  0.00000000000E+00 0.  1.
         21   -1    0    0  501  502 -0.00000000000E+00 -0.00000000000E+00 -0.10049507892E+03  0.10049507892E+03  0.00000000000E+00 0.  1.
         25    1    1    2    0    0 -0.13073069716E+02  0.16626818012E+02 -0.68535614622E+01  0.12696191371E+03  0.12500000000E+03 0.  0.
         25    1    1    2    0    0 -0.14119654467E+02  0.26178229528E+02  0.16524164346E+03  0.20931905092E+03  0.12500000000E+03 0.  0.
         25    1    1    2    0    0  0.27192724183E+02 -0.42805047539E+02  0.38236614629E+03  0.40546342150E+03  0.12500000000E+03 0.  0.
</event>
<event>
 5    0  0.5829567E-005  0.4436711E+03  0.7546771E-02  0.1029626E+00
         21   -1    0    0  502  501  0.00000000000E+00  0.00000000000E+00  0.17821854184E+03  0.17821854184E+03  0.00000000000E+00 0. -1.
         21   -1    0    0  501  502 -0.00000000000E+00 -0.00000000000E+00 -0.11045091253E+04  0.11045091253E+04  0.00000000000E+00 0. -1.
         25    1    1    2    0    0  0.28507633403E+03  0.87849407735E+02 -0.17342617479E+03  0.36699819177E+03  0.12500000000E+03 0.  0.
         25    1    1    2    0    0 -0.10115057709E+03 -0.40210408441E+02 -0.64137230692E+03  0.66244377292E+03  0.12500000000E+03 0.  0.
         25    1    1    2    0    0 -0.18392575694E+03 -0.47638999294E+02 -0.11149210175E+03  0.25328570246E+03  0.12500000000E+03 0.  0.
</event>
<event>
 5    0  0.5829567E-005  0.2944133E+03  0.7546771E-02  0.1088067E+00
         21   -1    0    0  502  501  0.00000000000E+00  0.00000000000E+00  0.63471513236E+03  0.63471513236E+03  0.00000000000E+00 0.  1.
         21   -1    0    0  501  502 -0.00000000000E+00 -0.00000000000E+00 -0.13656391396E+03  0.13656391396E+03  0.00000000000E+00 0.  1.
         25    1    1    2    0    0 -0.70023456600E+02 -0.79839024557E+02  0.35572459409E+03  0.39171742513E+03  0.12500000000E+03 0.  0.
         25    1    1    2    0    0 -0.41921180982E+02 -0.38553435249E+01  0.13955921519E+03  0.19202610144E+03  0.12500000000E+03 0.  0.
         25    1    1    2    0    0  0.11194463758E+03  0.83694368082E+02  0.28674091287E+01  0.18753551975E+03  0.12500000000E+03 0.  0.
</event>
<event>
 5    0  0.5829567E-005  0.3041726E+03  0.7546771E-02  0.1083173E+00
         21   -1    0    0  502  501  0.00000000000E+00  0.00000000000E+00  0.10912953624E+03  0.10912953624E+03  0.00000000000E+00 0.  1.
         21   -1    0    0  501  502 -0.00000000000E+00 -0.00000000000E+00 -0.84780886918E+03  0.84780886918E+03  0.00000000000E+00 0.  1.
         25    1    1    2    0    0 -0.12966393982E+03  0.47978238020E+02 -0.42679680218E+03  0.46572004355E+03  0.12500000000E+03 0.  0.
         25    1    1    2    0    0  0.65102183766E+02 -0.81858730369E+02 -0.30563061274E+03  0.34637294570E+03  0.12500000000E+03 0.  0.
         25    1    1    2    0    0  0.64561756052E+02  0.33880492349E+02 -0.62519180088E+01  0.14484541617E+03  0.12500000000E+03 0.  0.
</event>
<event>
 5    0  0.5829567E-005  0.2285954E+03  0.7546771E-02  0.1127632E+00
         21   -1    0    0  502  501  0.00000000000E+00  0.00000000000E+00  0.10841254254E+04  0.10841254254E+04  0.00000000000E+00 0. -1.
         21   -1    0    0  501  502 -0.00000000000E+00 -0.00000000000E+00 -0.48200919169E+02  0.48200919169E+02  0.00000000000E+00 0. -1.
         25    1    1    2    0    0  0.65054090619E+02 -0.26462456613E+02  0.16974300763E+03  0.22219357541E+03  0.12500000000E+03 0.  0.
         25    1    1    2    0    0 -0.17285855191E+02 -0.34312188324E+02  0.45773448168E+03  0.47604829878E+03  0.12500000000E+03 0.  0.
         25    1    1    2    0    0 -0.47768235429E+02  0.60774644937E+02  0.40844701693E+03  0.43408447037E+03  0.12500000000E+03 0.  0.
</event>
<event>
 5    0  0.6617562E-005  0.2864894E+03  0.7546771E-02  0.1092196E+00
         21   -1    0    0  502  501  0.00000000000E+00  0.00000000000E+00  0.55068870812E+03  0.55068870812E+03  0.00000000000E+00 0.  1.
         21   -1    0    0  501  502 -0.00000000000E+00 -0.00000000000E+00 -0.14904282364E+03  0.14904282364E+03  0.00000000000E+00 0.  1.
         25    1    1    2    0    0 -0.10750581675E+03 -0.43073657863E+02  0.24189846199E+03  0.29589306607E+03  0.12500000000E+03 0.  0.
         25    1    1    2    0    0 -0.37148770417E+01 -0.22113541238E+02 -0.41992666477E+02  0.13375796446E+03  0.12500000000E+03 0.  0.
         25    1    1    2    0    0  0.11122069379E+03  0.65187199101E+02  0.20174008896E+03  0.27008050123E+03  0.12500000000E+03 0.  0.
</event>
<event>
 5    0  0.5829567E-005  0.6489864E+03  0.7546771E-02  0.9808683E-01
         21   -1    0    0  502  501  0.00000000000E+00  0.00000000000E+00  0.76734764662E+03  0.76734764662E+03  0.00000000000E+00 0. -1.
         21   -1    0    0  501  502 -0.00000000000E+00 -0.00000000000E+00 -0.54888200991E+03  0.54888200991E+03  0.00000000000E+00 0. -1.
         25    1    1    2    0    0  0.95231772589E+02 -0.31856751522E+03  0.60919747329E+03  0.70519565634E+03  0.12500000000E+03 0.  0.
         25    1    1    2    0    0 -0.13197155209E+02  0.42580909059E+02 -0.21119600462E+03  0.24943145569E+03  0.12500000000E+03 0.  0.
         25    1    1    2    0    0 -0.82034617381E+02  0.27598660616E+03 -0.17953583197E+03  0.36160254450E+03  0.12500000000E+03 0.  0.
</event>
<event>
 5    0  0.5829567E-005  0.3619507E+03  0.7546771E-02  0.1057814E+00
         21   -1    0    0  502  501  0.00000000000E+00  0.00000000000E+00  0.94611812643E+03  0.94611812643E+03  0.00000000000E+00 0. -1.
         21   -1    0    0  501  502 -0.00000000000E+00 -0.00000000000E+00 -0.13846932756E+03  0.13846932756E+03  0.00000000000E+00 0. -1.
         25    1    1    2    0    0  0.51258975925E+01  0.16926722311E+02 -0.57473754905E+02  0.13871200834E+03  0.12500000000E+03 0.  0.
         25    1    1    2    0    0  0.11826291933E+03 -0.42131417900E+02  0.25519576585E+03  0.31066228186E+03  0.12500000000E+03 0.  0.
         25    1    1    2    0    0 -0.12338881692E+03  0.25204695589E+02  0.60992678793E+03  0.63521316379E+03  0.12500000000E+03 0.  0.
</event>
<event>
 5    0  0.5829567E-005  0.3291033E+03  0.7546771E-02  0.1071534E+00
         21   -1    0    0  502  501  0.00000000000E+00  0.00000000000E+00  0.52164475890E+03  0.52164475890E+03  0.00000000000E+00 0.  1.
         21   -1    0    0  501  502 -0.00000000000E+00 -0.00000000000E+00 -0.20762973097E+03  0.20762973097E+03  0.00000000000E+00 0.  1.
         25    1    1    2    0    0 -0.10253327109E+03 -0.20189353664E+03  0.17432036171E+03  0.31190809596E+03  0.12500000000E+03 0.  0.
         25    1    1    2    0    0  0.41600740550E+01 -0.64074042890E+01  0.11952593769E+02  0.12580232726E+03  0.12500000000E+03 0.  0.
         25    1    1    2    0    0  0.98373197039E+02  0.20830094093E+03  0.12774207246E+03  0.29156406665E+03  0.12500000000E+03 0.  0.
</event>
<event>
 5    0  0.5829567E-005  0.3163750E+03  0.7546771E-02  0.1077330E+00
         21   -1    0    0  502  501  0.00000000000E+00  0.00000000000E+00  0.12386679177E+03  0.12386679177E+03  0.00000000000E+00 0. -1.
         21   -1    0    0  501  502 -0.00000000000E+00 -0.00000000000E+00 -0.80807087179E+03  0.80807087179E+03  0.00000000000E+00 0. -1.
         25    1    1    2    0    0 -0.14544151830E+03  0.10742931521E+03 -0.34761069783E+03  0.41128152191E+03  0.12500000000E+03 0.  0.
         25    1    1    2    0    0  0.11408024084E+03  0.63712901105E+02 -0.18122565695E+03  0.25601049559E+03  0.12500000000E+03 0.  0.
         25    1    1    2    0    0  0.31361277466E+02 -0.17114221632E+03 -0.15536772523E+03  0.26464564605E+03  0.12500000000E+03 0.  0.
</event>
<event>
 5    0  0.5829567E-005  0.2956541E+03  0.7546771E-02  0.1087433E+00
         21   -1    0    0  502  501  0.00000000000E+00  0.00000000000E+00  0.40586997561E+03  0.40586997561E+03  0.00000000000E+00 0. -1.
         21   -1    0    0  501  502 -0.00000000000E+00 -0.00000000000E+00 -0.21536788090E+03  0.21536788090E+03  0.00000000000E+00 0. -1.
         25    1    1    2    0    0  0.13679403329E+02 -0.72199323407E+02  0.21117202996E+03  0.25616107162E+03  0.12500000000E+03 0.  0.
         25    1    1    2    0    0  0.72544206489E+02 -0.66059586461E+02 -0.27540487061E+01  0.15893116637E+03  0.12500000000E+03 0.  0.
         25    1    1    2    0    0 -0.86223609818E+02  0.13825890987E+03 -0.17915886538E+02  0.20614561853E+03  0.12500000000E+03 0.  0.
</event>
<event>
 5    0  0.5829567E-005  0.4258670E+03  0.7546771E-02  0.1035174E+00
         21   -1    0    0  502  501  0.00000000000E+00  0.00000000000E+00  0.49141841220E+03  0.49141841220E+03  0.00000000000E+00 0. -1.
         21   -1    0    0  501  502 -0.00000000000E+00 -0.00000000000E+00 -0.36905971752E+03  0.36905971752E+03  0.00000000000E+00 0. -1.
         25    1    1    2    0    0  0.60766608612E+02 -0.18080335993E+03  0.31912100100E+03  0.39223162667E+03  0.12500000000E+03 0.  0.
         25    1    1    2    0    0  0.80039225863E+02  0.18338969795E+03 -0.96368845116E+02  0.25485292484E+03  0.12500000000E+03 0.  0.
         25    1    1    2    0    0 -0.14080583447E+03 -0.25863380200E+01 -0.10039346121E+03  0.21339357821E+03  0.12500000000E+03 0.  0.
</event>
<event>
 5    0  0.5829567E-005  0.4556340E+03  0.7546771E-02  0.1026055E+00
         21   -1    0    0  502  501  0.00000000000E+00  0.00000000000E+00  0.15453805277E+03  0.15453805277E+03  0.00000000000E+00 0.  1.
         21   -1    0    0  501  502 -0.00000000000E+00 -0.00000000000E+00 -0.13433737693E+04  0.13433737693E+04  0.00000000000E+00 0.  1.
         25    1    1    2    0    0 -0.16067374188E+03 -0.26093152716E+03 -0.62321812587E+03  0.70563952951E+03  0.12500000000E+03 0.  0.
         25    1    1    2    0    0  0.26669083594E+03  0.95707958456E+02 -0.23885249011E+03  0.39110040568E+03  0.12500000000E+03 0.  0.
         25    1    1    2    0    0 -0.10601709406E+03  0.16522356870E+03 -0.32676510052E+03  0.40117188686E+03  0.12500000000E+03 0.  0.
</event>
<event>
 5    0  0.5829567E-005  0.2543853E+03  0.7546771E-02  0.1110564E+00
         21   -1    0    0  502  501  0.00000000000E+00  0.00000000000E+00  0.79393288639E+02  0.79393288639E+02  0.00000000000E+00 0.  1.
         21   -1    0    0  501  502 -0.00000000000E+00 -0.00000000000E+00 -0.81507986292E+03  0.81507986292E+03  0.00000000000E+00 0.  1.
         25    1    1    2    0    0 -0.37756100969E+02 -0.10535461727E+03 -0.17695760206E+03  0.24385264294E+03  0.12500000000E+03 0.  0.
         25    1    1    2    0    0  0.39618688708E+02  0.12797459626E+03 -0.44044661952E+03  0.47703811423E+03  0.12500000000E+03 0.  0.
         25    1    1    2    0    0 -0.18625877388E+01 -0.22619978981E+02 -0.11828235271E+03  0.17358239439E+03  0.12500000000E+03 0.  0.
</event>
<event>
 5    0  0.5829567E-005  0.2508672E+03  0.7546771E-02  0.1112758E+00
         21   -1    0    0  502  501  0.00000000000E+00  0.00000000000E+00  0.39430337742E+03  0.39430337742E+03  0.00000000000E+00 0.  1.
         21   -1    0    0  501  502 -0.00000000000E+00 -0.00000000000E+00 -0.15960896622E+03  0.15960896622E+03  0.00000000000E+00 0.  1.
         25    1    1    2    0    0  0.38116217636E+02  0.36215179208E+02  0.67281265157E+02  0.15138082406E+03  0.12500000000E+03 0.  0.
         25    1    1    2    0    0  0.35014288370E+02 -0.42155576528E+02 -0.46456065171E+02  0.14417440485E+03  0.12500000000E+03 0.  0.
         25    1    1    2    0    0 -0.73130506005E+02  0.59403973200E+01  0.21386921122E+03  0.25835711474E+03  0.12500000000E+03 0.  0.
</event>
<event>
 5    0  0.5829567E-005  0.4813720E+03  0.7546771E-02  0.1018759E+00
         21   -1    0    0  502  501  0.00000000000E+00  0.00000000000E+00  0.30387036587E+03  0.30387036587E+03  0.00000000000E+00 0. -1.
         21   -1    0    0  501  502 -0.00000000000E+00 -0.00000000000E+00 -0.76255876204E+03  0.76255876204E+03  0.00000000000E+00 0. -1.
         25    1    1    2    0    0 -0.65165293866E+02  0.70397518803E+02  0.11959162912E+03  0.19781173861E+03  0.12500000000E+03 0.  0.
         25    1    1    2    0    0 -0.93725071034E+02  0.90783766103E+02 -0.58264938920E+03  0.61002573049E+03  0.12500000000E+03 0.  0.
         25    1    1    2    0    0  0.15889036490E+03 -0.16118128491E+03  0.43693639082E+01  0.25859165880E+03  0.12500000000E+03 0.  0.
</event>
<event>
 5    0  0.5829567E-005  0.3735802E+03  0.7546771E-02  0.1053332E+00
         21   -1    0    0  502  501  0.00000000000E+00  0.00000000000E+00  0.27695691614E+03  0.27695691614E+03  0.00000000000E+00 0.  1.
         21   -1    0    0  501  502 -0.00000000000E+00 -0.00000000000E+00 -0.50391301241E+03  0.50391301241E+03  0.00000000000E+00 0.  1.
         25    1    1    2    0    0  0.15897272692E+03 -0.43629275901E+02  0.13527804002E+03  0.24718614389E+03  0.12500000000E+03 0.  0.
         25    1    1    2    0    0  0.15340590330E+02 -0.30053157169E+02 -0.24794100415E+03  0.27971104287E+03  0.12500000000E+03 0.  0.
         25    1    1    2    0    0 -0.17431331725E+03  0.73682433071E+02 -0.11429313215E+03  0.25397274178E+03  0.12500000000E+03 0.  0.
</event>
<event>
 5    0  0.5829567E-005  0.2828227E+03  0.7546771E-02  0.1094157E+00
         21   -1    0    0  502  501  0.00000000000E+00  0.00000000000E+00  0.20575827063E+03  0.20575827063E+03  0.00000000000E+00 0.  1.
         21   -1    0    0  501  502 -0.00000000000E+00 -0.00000000000E+00 -0.38875085363E+03  0.38875085363E+03  0.00000000000E+00 0.  1.
         25    1    1    2    0    0 -0.11462462578E+03  0.10597565586E+03 -0.18043544425E+03  0.26935403099E+03  0.12500000000E+03 0.  0.
         25    1    1    2    0    0  0.27744123330E+02 -0.15186033024E+02  0.52998919865E+02  0.13940673400E+03  0.12500000000E+03 0.  0.
         25    1    1    2    0    0  0.86880502453E+02 -0.90789622840E+02 -0.55556058614E+02  0.18574835927E+03  0.12500000000E+03 0.  0.
</event>
<event>
 5    0  0.5829567E-005  0.2786672E+03  0.7546771E-02  0.1096419E+00
         21   -1    0    0  502  501  0.00000000000E+00  0.00000000000E+00  0.78171925915E+02  0.78171925915E+02  0.00000000000E+00 0. -1.
         21   -1    0    0  501  502 -0.00000000000E+00 -0.00000000000E+00 -0.99339250716E+03  0.99339250716E+03  0.00000000000E+00 0. -1.
         25    1    1    2    0    0  0.65161901002E+01  0.17484840662E+00 -0.66688692609E+01  0.12534737781E+03  0.12500000000E+03 0.  0.
         25    1    1    2    0    0  0.27654828202E+02 -0.22679740585E+02 -0.38340305733E+03  0.40484819936E+03  0.12500000000E+03 0.  0.
         25    1    1    2    0    0 -0.34171018302E+02  0.22504892179E+02 -0.52514865465E+03  0.54136885591E+03  0.12500000000E+03 0.  0.
</event>
<event>
 5    0  0.5829567E-005  0.2939058E+03  0.7546771E-02  0.1088327E+00
         21   -1    0    0  502  501  0.00000000000E+00  0.00000000000E+00  0.15233404205E+03  0.15233404205E+03  0.00000000000E+00 0.  1.
         21   -1    0    0  501  502 -0.00000000000E+00 -0.00000000000E+00 -0.56704742265E+03  0.56704742265E+03  0.00000000000E+00 0.  1.
         25    1    1    2    0    0  0.88695766349E+02 -0.56082709113E+02 -0.64871430657E+02  0.17562890350E+03  0.12500000000E+03 0.  0.
         25    1    1    2    0    0  0.34264046487E+02 -0.88562552468E+02 -0.25065046333E+03  0.29574990338E+03  0.12500000000E+03 0.  0.
         25    1    1    2    0    0 -0.12295981284E+03  0.14464526158E+03 -0.99191486610E+02  0.24800265782E+03  0.12500000000E+03 0.  0.
</event>
<event>
 5    0  0.5829567E-005  0.2921179E+03  0.7546771E-02  0.1089249E+00
         21   -1    0    0  502  501  0.00000000000E+00  0.00000000000E+00  0.42119114026E+03  0.42119114026E+03  0.00000000000E+00 0.  1.
         21   -1    0    0  501  502 -0.00000000000E+00 -0.00000000000E+00 -0.20259890683E+03  0.20259890683E+03  0.00000000000E+00 0.  1.
         25    1    1    2    0    0 -0.21408575114E+02 -0.81665074994E+02  0.65864407585E+02  0.16459231984E+03  0.12500000000E+03 0.  0.
         25    1    1    2    0    0 -0.15091005254E+03  0.40005146149E+02  0.11445733232E+02  0.20032538652E+03  0.12500000000E+03 0.  0.
         25    1    1    2    0    0  0.17231862765E+03  0.41659928845E+02  0.14128209262E+03  0.25887234074E+03  0.12500000000E+03 0.  0.
</event>
<event>
 5    0  0.5829567E-005  0.2597940E+03  0.7546771E-02  0.1107267E+00
         21   -1    0    0  502  501  0.00000000000E+00  0.00000000000E+00  0.46999012594E+03  0.46999012594E+03  0.00000000000E+00 0. -1.
         21   -1    0    0  501  502 -0.00000000000E+00 -0.00000000000E+00 -0.14360495883E+03  0.14360495883E+03  0.00000000000E+00 0. -1.
         25    1    1    2    0    0  0.91581096560E+01 -0.41766923513E+02  0.17811320788E+03  0.22176036998E+03  0.12500000000E+03 0.  0.
         25    1    1    2    0    0 -0.12513383381E+03 -0.26806992458E+02  0.71103077841E+02  0.19250386720E+03  0.12500000000E+03 0.  0.
         25    1    1    2    0    0  0.11597572415E+03  0.68573915971E+02  0.77168881387E+02  0.19933084758E+03  0.12500000000E+03 0.  0.
</event>
<event>
 5    0  0.5829567E-005  0.5475463E+03  0.7546771E-02  0.1002063E+00
         21   -1    0    0  502  501  0.00000000000E+00  0.00000000000E+00  0.12292911399E+04  0.12292911399E+04  0.00000000000E+00 0.  1.
         21   -1    0    0  501  502 -0.00000000000E+00 -0.00000000000E+00 -0.24388601993E+03  0.24388601993E+03  0.00000000000E+00 0.  1.
         25    1    1    2    0    0  0.35988686308E+03 -0.19805728610E+03  0.11321942427E+03  0.44405954649E+03  0.12500000000E+03 0.  0.
         25    1    1    2    0    0 -0.16481767855E+03  0.23205615579E+03  0.53099467529E+03  0.61530096034E+03  0.12500000000E+03 0.  0.
         25    1    1    2    0    0 -0.19506918453E+03 -0.33998869696E+02  0.34119102042E+03  0.41381665301E+03  0.12500000000E+03 0.  0.
</event>
<event>
 5    0  0.5829567E-005  0.2976704E+03  0.7546771E-02  0.1086411E+00
         21   -1    0    0  502  501  0.00000000000E+00  0.00000000000E+00  0.14738867444E+03  0.14738867444E+03  0.00000000000E+00 0. -1.
         21   -1    0    0  501  502 -0.00000000000E+00 -0.00000000000E+00 -0.60118362521E+03  0.60118362521E+03  0.00000000000E+00 0. -1.
         25    1    1    2    0    0 -0.14766550117E+02 -0.16758849143E+03 -0.53890692998E+02  0.21640970462E+03  0.12500000000E+03 0.  0.
         25    1    1    2    0    0 -0.10571778773E+02  0.18144892962E+03 -0.22336578451E+03  0.31393112342E+03  0.12500000000E+03 0.  0.
         25    1    1    2    0    0  0.25338328890E+02 -0.13860438191E+02 -0.17653847327E+03  0.21823147161E+03  0.12500000000E+03 0.  0.
</event>
<event>
 5    0  0.6897177E-005  0.5954669E+03  0.7546771E-02  0.9914856E-01
         21   -1    0    0  502  501  0.00000000000E+00  0.00000000000E+00  0.63552153816E+03  0.63552153816E+03  0.00000000000E+00 0. -1.
         21   -1    0    0  501  502 -0.00000000000E+00 -0.00000000000E+00 -0.55793677475E+03  0.55793677475E+03  0.00000000000E+00 0. -1.
         25    1    1    2    0    0  0.20908573184E+03 -0.33646931658E+03 -0.87901298186E+02  0.42459402078E+03  0.12500000000E+03 0.  0.
         25    1    1    2    0    0  0.89178413643E+02  0.22447773071E+03  0.29655512314E+03  0.40238412258E+03  0.12500000000E+03 0.  0.
         25    1    1    2    0    0 -0.29826414548E+03  0.11199158587E+03 -0.13106906154E+03  0.36648016956E+03  0.12500000000E+03 0.  0.
</event>
<event>
 5    0  0.5829567E-005  0.4101750E+03  0.7546771E-02  0.1040312E+00
         21   -1    0    0  502  501  0.00000000000E+00  0.00000000000E+00  0.24257589182E+03  0.24257589182E+03  0.00000000000E+00 0. -1.
         21   -1    0    0  501  502 -0.00000000000E+00 -0.00000000000E+00 -0.69357055037E+03  0.69357055037E+03  0.00000000000E+00 0. -1.
         25    1    1    2    0    0 -0.10625240901E+03 -0.34046582169E+02  0.10486580717E+03  0.19766279794E+03  0.12500000000E+03 0.  0.
         25    1    1    2    0    0  0.11223115459E+03 -0.17249854817E+03 -0.23082323042E+03  0.33355051324E+03  0.12500000000E+03 0.  0.
         25    1    1    2    0    0 -0.59787455819E+01  0.20654513034E+03 -0.32503723530E+03  0.40493313102E+03  0.12500000000E+03 0.  0.
</event>
<event>
 5    0  0.5829567E-005  0.3121496E+03  0.7546771E-02  0.1079320E+00
         21   -1    0    0  502  501  0.00000000000E+00  0.00000000000E+00  0.16796146970E+03  0.16796146970E+03  0.00000000000E+00 0.  1.
         21   -1    0    0  501  502 -0.00000000000E+00 -0.00000000000E+00 -0.58011728580E+03  0.58011728580E+03  0.00000000000E+00 0.  1.
         25    1    1    2    0    0 -0.84281245445E+02 -0.46935728345E+02 -0.89080727227E+02  0.18129166250E+03  0.12500000000E+03 0.  0.
         25    1    1    2    0    0 -0.13341624676E+03 -0.55874742329E+02 -0.16687792199E+03  0.25376194076E+03  0.12500000000E+03 0.  0.
         25    1    1    2    0    0  0.21769749221E+03  0.10281047067E+03 -0.15619716688E+03  0.31302515224E+03  0.12500000000E+03 0.  0.
</event>
<event>
 5    0  0.5829567E-005  0.6743866E+03  0.7546771E-02  0.9762066E-01
         21   -1    0    0  502  501  0.00000000000E+00  0.00000000000E+00  0.22604121454E+04  0.22604121454E+04  0.00000000000E+00 0.  1.
         21   -1    0    0  501  502 -0.00000000000E+00 -0.00000000000E+00 -0.20120106871E+03  0.20120106871E+03  0.00000000000E+00 0.  1.
         25    1    1    2    0    0  0.28201070340E+03 -0.13072026949E+03  0.17029239378E+04  0.17355669862E+04  0.12500000000E+03 0.  0.
         25    1    1    2    0    0 -0.31339268237E+03  0.24794306690E+03  0.35940332040E+03  0.55180293992E+03  0.12500000000E+03 0.  0.
         25    1    1    2    0    0  0.31381978974E+02 -0.11722279740E+03 -0.31161814732E+01  0.17424328803E+03  0.12500000000E+03 0.  0.
</event>
<event>
 5    0  0.5829567E-005  0.2985234E+03  0.7546771E-02  0.1085981E+00
         21   -1    0    0  502  501  0.00000000000E+00  0.00000000000E+00  0.20128548578E+03  0.20128548578E+03  0.00000000000E+00 0. -1.
         21   -1    0    0  501  502 -0.00000000000E+00 -0.00000000000E+00 -0.44273531035E+03  0.44273531035E+03  0.00000000000E+00 0. -1.
         25    1    1    2    0    0  0.14196994141E+03  0.10527671586E+03  0.19528065409E+02  0.21735914176E+03  0.12500000000E+03 0.  0.
         25    1    1    2    0    0 -0.13758082170E+03 -0.22597497551E+02 -0.15453185807E+03  0.24278431694E+03  0.12500000000E+03 0.  0.
         25    1    1    2    0    0 -0.43891197128E+01 -0.82679218310E+02 -0.10644603191E+03  0.18387733743E+03  0.12500000000E+03 0.  0.
</event>
<event>
 5    0  0.5829567E-005  0.2952128E+03  0.7546771E-02  0.1087658E+00
         21   -1    0    0  502  501  0.00000000000E+00  0.00000000000E+00  0.98156429185E+02  0.98156429185E+02  0.00000000000E+00 0.  1.
         21   -1    0    0  501  502 -0.00000000000E+00 -0.00000000000E+00 -0.88787455284E+03  0.88787455284E+03  0.00000000000E+00 0.  1.
         25    1    1    2    0    0 -0.32111940170E+02 -0.11889973826E+03 -0.33131043913E+03  0.37491323200E+03  0.12500000000E+03 0.  0.
         25    1    1    2    0    0 -0.45336260227E+02  0.73104574613E+02 -0.28417100077E+02  0.15437676929E+03  0.12500000000E+03 0.  0.
         25    1    1    2    0    0  0.77448200396E+02  0.45795163643E+02 -0.42999058446E+03  0.45674098073E+03  0.12500000000E+03 0.  0.
</event>
<event>
 5    0  0.6478725E-005  0.4342368E+03  0.7546771E-02  0.1032530E+00
         21   -1    0    0  502  501  0.00000000000E+00  0.00000000000E+00  0.37615660589E+03  0.37615660589E+03  0.00000000000E+00 0. -1.
         21   -1    0    0  501  502 -0.00000000000E+00 -0.00000000000E+00 -0.50128479480E+03  0.50128479480E+03  0.00000000000E+00 0. -1.
         25    1    1    2    0    0 -0.24571003142E+03  0.97649623744E+02 -0.13902210526E+03  0.32382250433E+03  0.12500000000E+03 0.  0.
         25    1    1    2    0    0  0.15461096409E+03 -0.14295541634E+03 -0.17820867805E+03  0.30285992506E+03  0.12500000000E+03 0.  0.
         25    1    1    2    0    0  0.91099067333E+02  0.45305792593E+02  0.19210259441E+03  0.25075897130E+03  0.12500000000E+03 0.  0.
</event>
<event>
 5    0  0.5829567E-005  0.2967517E+03  0.7546771E-02  0.1086876E+00
         21   -1    0    0  502  501  0.00000000000E+00  0.00000000000E+00  0.13268008454E+03  0.13268008454E+03  0.00000000000E+00 0. -1.
         21   -1    0    0  501  502 -0.00000000000E+00 -0.00000000000E+00 -0.66371364236E+03  0.66371364236E+03  0.00000000000E+00 0. -1.
         25    1    1    2    0    0  0.13228605171E+03  0.44518963298E+02 -0.13318330057E+03  0.22987894449E+03  0.12500000000E+03 0.  0.
         25    1    1    2    0    0  0.83938469732E+02 -0.81234001531E+01 -0.14204398741E+03  0.20715489540E+03  0.12500000000E+03 0.  0.
         25    1    1    2    0    0 -0.21622452144E+03 -0.36395563145E+02 -0.25580626985E+03  0.35935988700E+03  0.12500000000E+03 0.  0.
</event>
<event>
 5    0  0.5829567E-005  0.3826606E+03  0.7546771E-02  0.1049955E+00
         21   -1    0    0  502  501  0.00000000000E+00  0.00000000000E+00  0.22995948381E+03  0.22995948381E+03  0.00000000000E+00 0. -1.
         21   -1    0    0  501  502 -0.00000000000E+00 -0.00000000000E+00 -0.63676060973E+03  0.63676060973E+03  0.00000000000E+00 0. -1.
         25    1    1    2    0    0  0.17896619633E+03  0.79425877875E+02 -0.13908161387E+03  0.27075092765E+03  0.12500000000E+03 0.  0.
         25    1    1    2    0    0  0.90772248992E+02 -0.11033313123E+03  0.70497733403E+01  0.18996762971E+03  0.12500000000E+03 0.  0.
         25    1    1    2    0    0 -0.26973844532E+03  0.30907253357E+02 -0.27476928538E+03  0.40600153618E+03  0.12500000000E+03 0.  0.
</event>
<event>
 5    0  0.5829567E-005  0.3623393E+03  0.7546771E-02  0.1057661E+00
         21   -1    0    0  502  501  0.00000000000E+00  0.00000000000E+00  0.14240070118E+03  0.14240070118E+03  0.00000000000E+00 0. -1.
         21   -1    0    0  501  502 -0.00000000000E+00 -0.00000000000E+00 -0.92197435462E+03  0.92197435462E+03  0.00000000000E+00 0. -1.
         25    1    1    2    0    0 -0.60572638827E+02 -0.20111372206E+03 -0.32453479016E+03  0.40628020356E+03  0.12500000000E+03 0.  0.
         25    1    1    2    0    0  0.14195402788E+03  0.23641609391E+03 -0.38441346271E+03  0.48932834151E+03  0.12500000000E+03 0.  0.
         25    1    1    2    0    0 -0.81381389051E+02 -0.35302371850E+02 -0.70625400562E+02  0.16876651074E+03  0.12500000000E+03 0.  0.
</event>
<event>
 5    0  0.5829567E-005  0.2392187E+03  0.7546771E-02  0.1120314E+00
         21   -1    0    0  502  501  0.00000000000E+00  0.00000000000E+00  0.80122056414E+02  0.80122056414E+02  0.00000000000E+00 0. -1.
         21   -1    0    0  501  502 -0.00000000000E+00 -0.00000000000E+00 -0.71422993795E+03  0.71422993795E+03  0.00000000000E+00 0. -1.
         25    1    1    2    0    0 -0.26053858617E+01  0.10423581936E+03 -0.19642580529E+03  0.25510780281E+03  0.12500000000E+03 0.  0.
         25    1    1    2    0    0 -0.13066441212E+02 -0.13132015022E+03 -0.21101536965E+03  0.27851068196E+03  0.12500000000E+03 0.  0.
         25    1    1    2    0    0  0.15671827074E+02  0.27084330864E+02 -0.22666670660E+03  0.26073350959E+03  0.12500000000E+03 0.  0.
</event>
<event>
 5    0  0.5829567E-005  0.3997595E+03  0.7546771E-02  0.1043863E+00
         21   -1    0    0  502  501  0.00000000000E+00  0.00000000000E+00  0.25384714713E+04  0.25384714713E+04  0.00000000000E+00 0. -1.
         21   -1    0    0  501  502 -0.00000000000E+00 -0.00000000000E+00 -0.62954292900E+02  0.62954292900E+02  0.00000000000E+00 0. -1.
         25    1    1    2    0    0  0.29568171865E+03  0.60203849949E+02  0.13816776767E+04  0.14197571569E+04  0.12500000000E+03 0.  0.
         25    1    1    2    0    0 -0.15033620996E+03 -0.11178618414E+03  0.38989774706E+03  0.45026923074E+03  0.12500000000E+03 0.  0.
         25    1    1    2    0    0 -0.14534550869E+03  0.51582334194E+02  0.70394175462E+03  0.73139937653E+03  0.12500000000E+03 0.  0.
</event>
<event>
 5    0  0.7109635E-005  0.4579634E+03  0.7546771E-02  0.1025374E+00
         21   -1    0    0  502  501  0.00000000000E+00  0.00000000000E+00  0.87906366373E+03  0.87906366373E+03  0.00000000000E+00 0. -1.
         21   -1    0    0  501  502 -0.00000000000E+00 -0.00000000000E+00 -0.23858394693E+03  0.23858394693E+03  0.00000000000E+00 0. -1.
         25    1    1    2    0    0 -0.28953246724E+03 -0.87903103838E+01  0.37754924650E+03  0.49201092739E+03  0.12500000000E+03 0.  0.
         25    1    1    2    0    0  0.21670701594E+03 -0.17165195937E+03  0.25148980986E+03  0.39407924378E+03  0.12500000000E+03 0.  0.
         25    1    1    2    0    0  0.72825451300E+02  0.18044226975E+03  0.11440660438E+02  0.23155743949E+03  0.12500000000E+03 0.  0.
</event>
<event>
 5    0  0.5829567E-005  0.3306635E+03  0.7546771E-02  0.1070844E+00
         21   -1    0    0  502  501  0.00000000000E+00  0.00000000000E+00  0.12749037090E+03  0.12749037090E+03  0.00000000000E+00 0.  1.
         21   -1    0    0  501  502 -0.00000000000E+00 -0.00000000000E+00 -0.85762046794E+03  0.85762046794E+03  0.00000000000E+00 0.  1.
         25    1    1    2    0    0 -0.13860939323E+03  0.54052185845E+02 -0.59760316369E+02  0.20329903615E+03  0.12500000000E+03 0.  0.
         25    1    1    2    0    0 -0.20633358936E+02 -0.86814866238E+02 -0.12134167337E+03  0.19573287460E+03  0.12500000000E+03 0.  0.
         25    1    1    2    0    0  0.15924275217E+03  0.32762680393E+02 -0.54902810730E+03  0.58607892809E+03  0.12500000000E+03 0.  0.
</event>
<event>
 5    0  0.5829567E-005  0.2831578E+03  0.7546771E-02  0.1093977E+00
         21   -1    0    0  502  501  0.00000000000E+00  0.00000000000E+00  0.24068749632E+04  0.24068749632E+04  0.00000000000E+00 0. -1.
         21   -1    0    0  501  502 -0.00000000000E+00 -0.00000000000E+00 -0.33312205434E+02  0.33312205434E+02  0.00000000000E+00 0. -1.
         25    1    1    2    0    0  0.51033068258E+02  0.95127817842E+01  0.66139329144E+03  0.67510069844E+03  0.12500000000E+03 0.  0.
         25    1    1    2    0    0  0.12797609955E+03 -0.30076602705E+02  0.47166011454E+03  0.50534220854E+03  0.12500000000E+03 0.  0.
         25    1    1    2    0    0 -0.17900916781E+03  0.20563820921E+02  0.12405093518E+04  0.12597442616E+04  0.12500000000E+03 0.  0.
</event>
<event>
 5    0  0.5829567E-005  0.2795736E+03  0.7546771E-02  0.1095922E+00
         21   -1    0    0  502  501  0.00000000000E+00  0.00000000000E+00  0.48181645218E+03  0.48181645218E+03  0.00000000000E+00 0.  1.
         21   -1    0    0  501  502 -0.00000000000E+00 -0.00000000000E+00 -0.16222239976E+03  0.16222239976E+03  0.00000000000E+00 0.  1.
         25    1    1    2    0    0 -0.98845160798E+02 -0.11470895097E+03  0.25508150119E+03  0.32190073236E+03  0.12500000000E+03 0.  0.
         25    1    1    2    0    0  0.10149317825E+03  0.30552736812E+02  0.20724712344E+02  0.16519336748E+03  0.12500000000E+03 0.  0.
         25    1    1    2    0    0 -0.26480174553E+01  0.84156214159E+02  0.43787838887E+02  0.15694475210E+03  0.12500000000E+03 0.  0.
</event>
<event>
 5    0  0.5829567E-005  0.3788218E+03  0.7546771E-02  0.1051370E+00
         21   -1    0    0  502  501  0.00000000000E+00  0.00000000000E+00  0.10297368674E+03  0.10297368674E+03  0.00000000000E+00 0. -1.
         21   -1    0    0  501  502 -0.00000000000E+00 -0.00000000000E+00 -0.13936177219E+04  0.13936177219E+04  0.00000000000E+00 0. -1.
         25    1    1    2    0    0  0.28862063073E+02 -0.19869397190E+03 -0.24439620459E+03  0.34009824753E+03  0.12500000000E+03 0.  0.
         25    1    1    2    0    0  0.17251479304E+02  0.67497116932E+02 -0.64273380236E+02  0.15687428642E+03  0.12500000000E+03 0.  0.
         25    1    1    2    0    0 -0.46113542377E+02  0.13119685496E+03 -0.98197445035E+03  0.99961887471E+03  0.12500000000E+03 0.  0.
</event>
<event>
 5    0  0.5829567E-005  0.3629708E+03  0.7546771E-02  0.1057414E+00
         21   -1    0    0  502  501  0.00000000000E+00  0.00000000000E+00  0.77623216337E+03  0.77623216337E+03  0.00000000000E+00 0.  1.
         21   -1    0    0  501  502 -0.00000000000E+00 -0.00000000000E+00 -0.16972731950E+03  0.16972731950E+03  0.00000000000E+00 0.  1.
         25    1    1    2    0    0  0.17516375070E+03  0.12935406954E+02  0.13872725409E+03  0.25635895798E+03  0.12500000000E+03 0.  0.
         25    1    1    2    0    0  0.61683311450E+02 -0.15076770382E+03  0.19818782028E+03  0.28537544312E+03  0.12500000000E+03 0.  0.
         25    1    1    2    0    0 -0.23684706215E+03  0.13783229687E+03  0.26958976950E+03  0.40422508177E+03  0.12500000000E+03 0.  0.
</event>
<event>
 5    0  0.5829567E-005  0.3094042E+03  0.7546771E-02  0.1080632E+00
         21   -1    0    0  502  501  0.00000000000E+00  0.00000000000E+00  0.20281928005E+03  0.20281928005E+03  0.00000000000E+00 0. -1.
         21   -1    0    0  501  502 -0.00000000000E+00 -0.00000000000E+00 -0.47200114482E+03  0.47200114482E+03  0.00000000000E+00 0. -1.
         25    1    1    2    0    0 -0.76580249324E+02  0.50059516872E+02  0.22873178792E+02  0.15658439298E+03  0.12500000000E+03 0.  0.
         25    1    1    2    0    0  0.36602847827E+02 -0.12209058145E+03  0.12411523116E+02  0.17895509060E+03  0.12500000000E+03 0.  0.
         25    1    1    2    0    0  0.39977401497E+02  0.72031064575E+02 -0.30446656668E+03  0.33928094128E+03  0.12500000000E+03 0.  0.
</event>
<event>
 5    0  0.5829567E-005  0.3963373E+03  0.7546771E-02  0.1045055E+00
         21   -1    0    0  502  501  0.00000000000E+00  0.00000000000E+00  0.14478042243E+03  0.14478042243E+03  0.00000000000E+00 0.  1.
         21   -1    0    0  501  502 -0.00000000000E+00 -0.00000000000E+00 -0.10849759617E+04  0.10849759617E+04  0.00000000000E+00 0.  1.
         25    1    1    2    0    0  0.59086929972E+02  0.46019923134E+01 -0.32080712188E+02  0.14200920999E+03  0.12500000000E+03 0.  0.
         25    1    1    2    0    0 -0.45492734426E+02 -0.20823408817E+03 -0.14171452213E+03  0.28484913576E+03  0.12500000000E+03 0.  0.
         25    1    1    2    0    0 -0.13594195546E+02  0.20363209586E+03 -0.76640030498E+03  0.80289803842E+03  0.12500000000E+03 0.  0.
</event>
<event>
 5    0  0.5829567E-005  0.2269159E+03  0.7546771E-02  0.1128829E+00
         21   -1    0    0  502  501  0.00000000000E+00  0.00000000000E+00  0.93140471771E+03  0.93140471771E+03  0.00000000000E+00 0.  1.
         21   -1    0    0  501  502 -0.00000000000E+00 -0.00000000000E+00 -0.55282991791E+02  0.55282991791E+02  0.00000000000E+00 0.  1.
         25    1    1    2    0    0 -0.35318065524E+02  0.65472041188E+02  0.39689058198E+03  0.42270685823E+03  0.12500000000E+03 0.  0.
         25    1    1    2    0    0 -0.42619298471E+02 -0.17526896661E+02  0.15324280826E+03  0.20305653152E+03  0.12500000000E+03 0.  0.
         25    1    1    2    0    0  0.77937363995E+02 -0.47945144528E+02  0.32598833568E+03  0.36092431976E+03  0.12500000000E+03 0.  0.
</event>
<event>
 5    0  0.7763369E-005  0.2717436E+03  0.7546771E-02  0.1100286E+00
         21   -1    0    0  502  501  0.00000000000E+00  0.00000000000E+00  0.26109554242E+03  0.26109554242E+03  0.00000000000E+00 0.  1.
         21   -1    0    0  501  502 -0.00000000000E+00 -0.00000000000E+00 -0.28282586794E+03  0.28282586794E+03  0.00000000000E+00 0.  1.
         25    1    1    2    0    0 -0.58016416321E+01 -0.78954794481E+02  0.66383316338E+02  0.16217047606E+03  0.12500000000E+03 0.  0.
         25    1    1    2    0    0 -0.57429417322E+02  0.15365405332E+03 -0.84725213744E+02  0.22295978992E+03  0.12500000000E+03 0.  0.
         25    1    1    2    0    0  0.63231058954E+02 -0.74699258843E+02 -0.33884281103E+01  0.15879114438E+03  0.12500000000E+03 0.  0.
</event>
<event>
 5    0  0.5829567E-005  0.3966403E+03  0.7546771E-02  0.1044949E+00
         21   -1    0    0  502  501  0.00000000000E+00  0.00000000000E+00  0.11578923608E+03  0.11578923608E+03  0.00000000000E+00 0. -1.
         21   -1    0    0  501  502 -0.00000000000E+00 -0.00000000000E+00 -0.13587059985E+04  0.13587059985E+04  0.00000000000E+00 0. -1.
         25    1    1    2    0    0  0.10294235601E+03 -0.27223808559E+03 -0.64920403740E+03  0.72235835019E+03  0.12500000000E+03 0.  0.
         25    1    1    2    0    0 -0.14001206242E+03  0.18143867869E+03 -0.50909972910E+03  0.57212839985E+03  0.12500000000E+03 0.  0.
         25    1    1    2    0    0  0.37069706410E+02  0.90799406904E+02 -0.84612995912E+02  0.18000848453E+03  0.12500000000E+03 0.  0.
</event>
<event>
 5    0  0.5829567E-005  0.2489186E+03  0.7546771E-02  0.1113990E+00
         21   -1    0    0  502  501  0.00000000000E+00  0.00000000000E+00  0.18044487840E+03  0.18044487840E+03  0.00000000000E+00 0. -1.
         21   -1    0    0  501  502 -0.00000000000E+00 -0.00000000000E+00 -0.34337608036E+03  0.34337608036E+03  0.00000000000E+00 0. -1.
         25    1    1    2    0    0 -0.10012718253E+03  0.87342230367E+02 -0.12584446987E+03  0.22162118239E+03  0.12500000000E+03 0.  0.
         25    1    1    2    0    0  0.24657686564E+01 -0.47664296841E+02 -0.36472415480E+02  0.13868382133E+03  0.12500000000E+03 0.  0.
         25    1    1    2    0    0  0.97661413870E+02 -0.39677933525E+02 -0.61431660570E+00  0.16351595504E+03  0.12500000000E+03 0.  0.
</event>
<event>
 5    0  0.5829567E-005  0.2608269E+03  0.7546771E-02  0.1106647E+00
         21   -1    0    0  502  501  0.00000000000E+00  0.00000000000E+00  0.59615793658E+03  0.59615793658E+03  0.00000000000E+00 0. -1.
         21   -1    0    0  501  502 -0.00000000000E+00 -0.00000000000E+00 -0.11411517398E+03  0.11411517398E+03  0.00000000000E+00 0. -1.
         25    1    1    2    0    0  0.91301316837E+02  0.52336128159E+02  0.23615653388E+03  0.28717574629E+03  0.12500000000E+03 0.  0.
         25    1    1    2    0    0 -0.10376120266E+03 -0.41329777631E+02  0.26020527820E+02  0.16963668697E+03  0.12500000000E+03 0.  0.
         25    1    1    2    0    0  0.12459885823E+02 -0.11006350527E+02  0.21986570090E+03  0.25346067730E+03  0.12500000000E+03 0.  0.
</event>
<event>
 5    0  0.5829567E-005  0.3065287E+03  0.7546771E-02  0.1082022E+00
         21   -1    0    0  502  501  0.00000000000E+00  0.00000000000E+00  0.24083656406E+03  0.24083656406E+03  0.00000000000E+00 0.  1.
         21   -1    0    0  501  502 -0.00000000000E+00 -0.00000000000E+00 -0.39013951231E+03  0.39013951231E+03  0.00000000000E+00 0.  1.
         25    1    1    2    0    0  0.12137060974E+03  0.29108384374E+02 -0.31258675322E+02  0.17938848272E+03  0.12500000000E+03 0.  0.
         25    1    1    2    0    0 -0.24038649470E+02 -0.13704688076E+03  0.53283654461E+02  0.19448355207E+03  0.12500000000E+03 0.  0.
         25    1    1    2    0    0 -0.97331960270E+02  0.10793849638E+03 -0.17132792739E+03  0.25710404157E+03  0.12500000000E+03 0.  0.
</event>
<event>
 5    0  0.5829567E-005  0.2966158E+03  0.7546771E-02  0.1086945E+00
         21   -1    0    0  502  501  0.00000000000E+00  0.00000000000E+00  0.45866192424E+02  0.45866192424E+02  0.00000000000E+00 0.  1.
         21   -1    0    0  501  502 -0.00000000000E+00 -0.00000000000E+00 -0.19182091134E+04  0.19182091134E+04  0.00000000000E+00 0.  1.
         25    1    1    2    0    0  0.96679934239E+02  0.10316388711E+03 -0.24233244106E+03  0.30714786224E+03  0.12500000000E+03 0.  0.
         25    1    1    2    0    0 -0.18005013144E+02 -0.61082856272E+02 -0.65093762845E+03  0.66588294163E+03  0.12500000000E+03 0.  0.
         25    1    1    2    0    0 -0.78674921095E+02 -0.42081030840E+02 -0.97907285148E+03  0.99104450196E+03  0.12500000000E+03 0.  0.
</event>
<event>
 5    0  0.5829567E-005  0.3352373E+03  0.7546771E-02  0.1068843E+00
         21   -1    0    0  502  501  0.00000000000E+00  0.00000000000E+00  0.24740661554E+03  0.24740661554E+03  0.00000000000E+00 0. -1.
         21   -1    0    0  501  502 -0.00000000000E+00 -0.00000000000E+00 -0.45424826431E+03  0.45424826431E+03  0.00000000000E+00 0. -1.
         25    1    1    2    0    0  0.17248296964E+02 -0.91371445817E+02 -0.33411010779E+03  0.36864726906E+03  0.12500000000E+03 0.  0.
         25    1    1    2    0    0 -0.27717776799E+02 -0.88540572159E+01  0.35095219664E+00  0.12834248185E+03  0.12500000000E+03 0.  0.
         25    1    1    2    0    0  0.10469479834E+02  0.10022550303E+03  0.12691750683E+03  0.20466512894E+03  0.12500000000E+03 0.  0.
</event>
<event>
 5    0  0.5829567E-005  0.2594575E+03  0.7546771E-02  0.1107470E+00
         21   -1    0    0  502  501  0.00000000000E+00  0.00000000000E+00  0.13188326433E+03  0.13188326433E+03  0.00000000000E+00 0. -1.
         21   -1    0    0  501  502 -0.00000000000E+00 -0.00000000000E+00 -0.51043784402E+03  0.51043784402E+03  0.00000000000E+00 0. -1.
         25    1    1    2    0    0 -0.10411629448E+02  0.56187262024E+01 -0.27525761506E+03  0.30254210742E+03  0.12500000000E+03 0.  0.
         25    1    1    2    0    0 -0.61233372747E+02 -0.33144358279E+02 -0.12685087017E+03  0.19121772325E+03  0.12500000000E+03 0.  0.
         25    1    1    2    0    0  0.71645002195E+02  0.27525632077E+02  0.23553905536E+02  0.14856127768E+03  0.12500000000E+03 0.  0.
</event>
<event>
 5    0  0.5829567E-005  0.3604011E+03  0.7546771E-02  0.1058425E+00
         21   -1    0    0  502  501  0.00000000000E+00  0.00000000000E+00  0.73872127402E+03  0.73872127402E+03  0.00000000000E+00 0. -1.
         21   -1    0    0  501  502 -0.00000000000E+00 -0.00000000000E+00 -0.17582941285E+03  0.17582941285E+03  0.00000000000E+00 0. -1.
         25    1    1    2    0    0  0.14729654533E+03  0.88190010345E+01  0.10352337742E+03  0.21935390746E+03  0.12500000000E+03 0.  0.
         25    1    1    2    0    0 -0.53449613678E+01 -0.20509732116E+03  0.27976849086E+03  0.36876671249E+03  0.12500000000E+03 0.  0.
         25    1    1    2    0    0 -0.14195158396E+03  0.19627832013E+03  0.17959999290E+03  0.32643006692E+03  0.12500000000E+03 0.  0.
</event>
<event>
 5    0  0.5829567E-005  0.3245600E+03  0.7546771E-02  0.1073570E+00
         21   -1    0    0  502  501  0.00000000000E+00  0.00000000000E+00  0.75785218317E+03  0.75785218317E+03  0.00000000000E+00 0. -1.
         21   -1    0    0  501  502 -0.00000000000E+00 -0.00000000000E+00 -0.13899705347E+03  0.13899705347E+03  0.00000000000E+00 0. -1.
         25    1    1    2    0    0  0.18899091979E+03 -0.70037075887E+01  0.49351928643E+03  0.54309566907E+03  0.12500000000E+03 0.  0.
         25    1    1    2    0    0 -0.11859887734E+03 -0.24435819727E+02  0.11048492640E+03  0.20614247974E+03  0.12500000000E+03 0.  0.
         25    1    1    2    0    0 -0.70392042452E+02  0.31439527316E+02  0.14850916878E+02  0.14761108783E+03  0.12500000000E+03 0.  0.
</event>
<event>
 5    0  0.5829567E-005  0.3694023E+03  0.7546771E-02  0.1054922E+00
         21   -1    0    0  502  501  0.00000000000E+00  0.00000000000E+00  0.69088561596E+03  0.69088561596E+03  0.00000000000E+00 0.  1.
         21   -1    0    0  501  502 -0.00000000000E+00 -0.00000000000E+00 -0.19751179600E+03  0.19751179600E+03  0.00000000000E+00 0.  1.
         25    1    1    2    0    0  0.27491257353E+03 -0.77888923272E+02  0.12682714429E+03  0.33668045975E+03  0.12500000000E+03 0.  0.
         25    1    1    2    0    0 -0.59557919371E+02  0.85600450384E+02  0.13243358333E+03  0.20985289338E+03  0.12500000000E+03 0.  0.
         25    1    1    2    0    0 -0.21535465416E+03 -0.77115271115E+01  0.23411309233E+03  0.34186405883E+03  0.12500000000E+03 0.  0.
</event>
<event>
 5    0  0.5829567E-005  0.2220061E+03  0.7546771E-02  0.1132396E+00
         21   -1    0    0  502  501  0.00000000000E+00  0.00000000000E+00  0.79475206199E+03  0.79475206199E+03  0.00000000000E+00 0. -1.
         21   -1    0    0  501  502 -0.00000000000E+00 -0.00000000000E+00 -0.62015190634E+02  0.62015190634E+02  0.00000000000E+00 0. -1.
         25    1    1    2    0    0 -0.84077825413E+02  0.26808806453E+02  0.20313028092E+03  0.25431221728E+03  0.12500000000E+03 0.  0.
         25    1    1    2    0    0  0.36545894116E+02 -0.22755859169E+02  0.37696935693E+03  0.39948007155E+03  0.12500000000E+03 0.  0.
         25    1    1    2    0    0  0.47531931298E+02 -0.40529472844E+01  0.15263723350E+03  0.20297496379E+03  0.12500000000E+03 0.  0.
</event>
<event>
 5    0  0.5829567E-005  0.2497952E+03  0.7546771E-02  0.1113434E+00
         21   -1    0    0  502  501  0.00000000000E+00  0.00000000000E+00  0.22874552686E+03  0.22874552686E+03  0.00000000000E+00 0. -1.
         21   -1    0    0  501  502 -0.00000000000E+00 -0.00000000000E+00 -0.27278188492E+03  0.27278188492E+03  0.00000000000E+00 0. -1.
         25    1    1    2    0    0 -0.94397133581E+01  0.83668648034E+02  0.63803858130E+02  0.16366271159E+03  0.12500000000E+03 0.  0.
         25    1    1    2    0    0 -0.38282130582E+02 -0.10447376249E+03 -0.11371872177E+03  0.20232952393E+03  0.12500000000E+03 0.  0.
         25    1    1    2    0    0  0.47721843941E+02  0.20805114460E+02  0.58785055730E+01  0.13553517626E+03  0.12500000000E+03 0.  0.
</event>
<event>
 5    0  0.5829567E-005  0.3619567E+03  0.7546771E-02  0.1057812E+00
         21   -1    0    0  502  501  0.00000000000E+00  0.00000000000E+00  0.42014600900E+03  0.42014600900E+03  0.00000000000E+00 0.  1.
         21   -1    0    0  501  502 -0.00000000000E+00 -0.00000000000E+00 -0.31182645333E+03  0.31182645333E+03  0.00000000000E+00 0.  1.
         25    1    1    2    0    0 -0.11994935322E+02 -0.10900278989E+03  0.39833107662E+02  0.17098878075E+03  0.12500000000E+03 0.  0.
         25    1    1    2    0    0 -0.89424588428E+02  0.25617197943E+03 -0.64375329415E+02  0.30559781265E+03  0.12500000000E+03 0.  0.
         25    1    1    2    0    0  0.10141952375E+03 -0.14716918954E+03  0.13286177743E+03  0.25538586893E+03  0.12500000000E+03 0.  0.
</event>
<event>
 5    0  0.5829567E-005  0.2780069E+03  0.7546771E-02  0.1096783E+00
         21   -1    0    0  502  501  0.00000000000E+00  0.00000000000E+00  0.12224670650E+03  0.12224670650E+03  0.00000000000E+00 0. -1.
         21   -1    0    0  501  502 -0.00000000000E+00 -0.00000000000E+00 -0.63222854366E+03  0.63222854366E+03  0.00000000000E+00 0. -1.
         25    1    1    2    0    0 -0.74120889537E+01  0.14569804400E+03 -0.12990284728E+03  0.23191077771E+03  0.12500000000E+03 0.  0.
         25    1    1    2    0    0  0.90838083818E+02 -0.38657035533E+02 -0.25142178040E+03  0.29763036728E+03  0.12500000000E+03 0.  0.
         25    1    1    2    0    0 -0.83425994864E+02 -0.10704100847E+03 -0.12865720948E+03  0.22493410516E+03  0.12500000000E+03 0.  0.
</event>
<event>
 5    0  0.5829567E-005  0.3086755E+03  0.7546771E-02  0.1080982E+00
         21   -1    0    0  502  501  0.00000000000E+00  0.00000000000E+00  0.28740532001E+03  0.28740532001E+03  0.00000000000E+00 0.  1.
         21   -1    0    0  501  502 -0.00000000000E+00 -0.00000000000E+00 -0.33151992817E+03  0.33151992817E+03  0.00000000000E+00 0.  1.
         25    1    1    2    0    0  0.64088812608E+02  0.14578538759E+03  0.10814575416E+03  0.22952398410E+03  0.12500000000E+03 0.  0.
         25    1    1    2    0    0 -0.76624489398E+01 -0.10796560901E+03 -0.18004205036E+03  0.24444922939E+03  0.12500000000E+03 0.  0.
         25    1    1    2    0    0 -0.56426363668E+02 -0.37819778582E+02  0.27781688045E+02  0.14495203469E+03  0.12500000000E+03 0.  0.
</event>
<event>
 5    0  0.5863839E-005  0.3968021E+03  0.7546771E-02  0.1044893E+00
         21   -1    0    0  502  501  0.00000000000E+00  0.00000000000E+00  0.34245771706E+03  0.34245771706E+03  0.00000000000E+00 0. -1.
         21   -1    0    0  501  502 -0.00000000000E+00 -0.00000000000E+00 -0.45977043942E+03  0.45977043942E+03  0.00000000000E+00 0. -1.
         25    1    1    2    0    0  0.87800406245E+01 -0.20827741846E+03  0.49876425471E+02  0.24813147719E+03  0.12500000000E+03 0.  0.
         25    1    1    2    0    0 -0.16588442874E+03  0.23773291497E+03 -0.49569290705E+02  0.31955703269E+03  0.12500000000E+03 0.  0.
         25    1    1    2    0    0  0.15710438812E+03 -0.29455496509E+02 -0.11761985713E+03  0.23453964661E+03  0.12500000000E+03 0.  0.
</event>
<event>
 5    0  0.5829567E-005  0.2652298E+03  0.7546771E-02  0.1104041E+00
         21   -1    0    0  502  501  0.00000000000E+00  0.00000000000E+00  0.87220998141E+02  0.87220998141E+02  0.00000000000E+00 0. -1.
         21   -1    0    0  501  502 -0.00000000000E+00 -0.00000000000E+00 -0.80653577388E+03  0.80653577388E+03  0.00000000000E+00 0. -1.
         25    1    1    2    0    0 -0.45632342938E+02 -0.19550573232E+02 -0.35344423278E+03  0.37816975199E+03  0.12500000000E+03 0.  0.
         25    1    1    2    0    0  0.77620485701E+02  0.88674208499E+02 -0.70038672303E+02  0.18552215682E+03  0.12500000000E+03 0.  0.
         25    1    1    2    0    0 -0.31988142763E+02 -0.69123635267E+02 -0.29583187066E+03  0.33006486321E+03  0.12500000000E+03 0.  0.
</event>
<event>
 5    0  0.5904116E-005  0.3036042E+03  0.7546771E-02  0.1083453E+00
         21   -1    0    0  502  501  0.00000000000E+00  0.00000000000E+00  0.65238015852E+03  0.65238015852E+03  0.00000000000E+00 0. -1.
         21   -1    0    0  501  502 -0.00000000000E+00 -0.00000000000E+00 -0.14129106335E+03  0.14129106335E+03  0.00000000000E+00 0. -1.
         25    1    1    2    0    0 -0.93155746634E+02  0.12719190441E+03  0.99452034651E+02  0.22443591708E+03  0.12500000000E+03 0.  0.
         25    1    1    2    0    0 -0.80396762765E+02 -0.64555693159E+02  0.23201301873E+03  0.28299490780E+03  0.12500000000E+03 0.  0.
         25    1    1    2    0    0  0.17355250940E+03 -0.62636211248E+02  0.17962404179E+03  0.28624039699E+03  0.12500000000E+03 0.  0.
</event>
<event>
 5    0  0.5829567E-005  0.3431007E+03  0.7546771E-02  0.1065483E+00
         21   -1    0    0  502  501  0.00000000000E+00  0.00000000000E+00  0.47346587394E+03  0.47346587394E+03  0.00000000000E+00 0. -1.
         21   -1    0    0  501  502 -0.00000000000E+00 -0.00000000000E+00 -0.24863055997E+03  0.24863055997E+03  0.00000000000E+00 0. -1.
         25    1    1    2    0    0 -0.89153336950E+02 -0.51560316325E+02 -0.11349754391E+03  0.19777127239E+03  0.12500000000E+03 0.  0.
         25    1    1    2    0    0 -0.20812835025E+02 -0.38530139622E+02 -0.46946499730E+01  0.13253220552E+03  0.12500000000E+03 0.  0.
         25    1    1    2    0    0  0.10996617198E+03  0.90090455947E+02  0.34302750785E+03  0.39179295600E+03  0.12500000000E+03 0.  0.
</event>
<event>
 5    0  0.5829567E-005  0.3189622E+03  0.7546771E-02  0.1076128E+00
         21   -1    0    0  502  501  0.00000000000E+00  0.00000000000E+00  0.14358333053E+03  0.14358333053E+03  0.00000000000E+00 0.  1.
         21   -1    0    0  501  502 -0.00000000000E+00 -0.00000000000E+00 -0.70855629298E+03  0.70855629298E+03  0.00000000000E+00 0.  1.
         25    1    1    2    0    0 -0.63219432347E+01  0.10389706209E+03  0.53225005362E+02  0.17115042411E+03  0.12500000000E+03 0.  0.
         25    1    1    2    0    0 -0.26911949616E+02 -0.70076341284E+02 -0.39196910337E+03  0.41821014411E+03  0.12500000000E+03 0.  0.
         25    1    1    2    0    0  0.33233892851E+02 -0.33820720807E+02 -0.22622886444E+03  0.26277905529E+03  0.12500000000E+03 0.  0.
</event>
<event>
 5    0  0.5829567E-005  0.2725675E+03  0.7546771E-02  0.1099819E+00
         21   -1    0    0  502  501  0.00000000000E+00  0.00000000000E+00  0.70964454199E+02  0.70964454199E+02  0.00000000000E+00 0.  1.
         21   -1    0    0  501  502 -0.00000000000E+00 -0.00000000000E+00 -0.10469046388E+04  0.10469046388E+04  0.00000000000E+00 0.  1.
         25    1    1    2    0    0  0.11365832657E+03 -0.59054420588E+02 -0.58291895702E+03  0.60977467169E+03  0.12500000000E+03 0.  0.
         25    1    1    2    0    0  0.30283689610E+01  0.50960289257E+02 -0.97413051888E+02  0.16649451876E+03  0.12500000000E+03 0.  0.
         25    1    1    2    0    0 -0.11668669553E+03  0.80941313311E+01 -0.29560817567E+03  0.34159990252E+03  0.12500000000E+03 0.  0.
</event>
<event>
 5    0  0.5829567E-005  0.2988402E+03  0.7546771E-02  0.1085822E+00
         21   -1    0    0  502  501  0.00000000000E+00  0.00000000000E+00  0.47340490941E+02  0.47340490941E+02  0.00000000000E+00 0.  1.
         21   -1    0    0  501  502 -0.00000000000E+00 -0.00000000000E+00 -0.18864497206E+04  0.18864497206E+04  0.00000000000E+00 0.  1.
         25    1    1    2    0    0 -0.15951984455E+03  0.63778248483E+02 -0.66574600918E+03  0.69882543923E+03  0.12500000000E+03 0.  0.
         25    1    1    2    0    0  0.22708302549E+02  0.94944240609E+01 -0.81521078662E+03  0.82510571306E+03  0.12500000000E+03 0.  0.
         25    1    1    2    0    0  0.13681154201E+03 -0.73272672544E+02 -0.35815243383E+03  0.40985905923E+03  0.12500000000E+03 0.  0.
</event>
<event>
 5    0  0.5829567E-005  0.2972297E+03  0.7546771E-02  0.1086634E+00
         21   -1    0    0  502  501  0.00000000000E+00  0.00000000000E+00  0.10669690125E+03  0.10669690125E+03  0.00000000000E+00 0.  1.
         21   -1    0    0  501  502 -0.00000000000E+00 -0.00000000000E+00 -0.82800408839E+03  0.82800408839E+03  0.00000000000E+00 0.  1.
         25    1    1    2    0    0  0.50794970153E+02  0.10894722370E+03 -0.62834599761E+02  0.18445274048E+03  0.12500000000E+03 0.  0.
         25    1    1    2    0    0 -0.10186083267E+03 -0.94797275957E+02 -0.20787539664E+03  0.27964143701E+03  0.12500000000E+03 0.  0.
         25    1    1    2    0    0  0.51065862522E+02 -0.14149947745E+02 -0.45059719074E+03  0.47060681215E+03  0.12500000000E+03 0.  0.
</event>
<event>
 5    0  0.5829567E-005  0.3410383E+03  0.7546771E-02  0.1066355E+00
         21   -1    0    0  502  501  0.00000000000E+00  0.00000000000E+00  0.10582610134E+03  0.10582610134E+03  0.00000000000E+00 0.  1.
         21   -1    0    0  501  502 -0.00000000000E+00 -0.00000000000E+00 -0.10990398468E+04  0.10990398468E+04  0.00000000000E+00 0.  1.
         25    1    1    2    0    0  0.20706634411E+03  0.11323773450E+02 -0.33269303272E+03  0.41147825305E+03  0.12500000000E+03 0.  0.
         25    1    1    2    0    0 -0.14287672073E+03  0.12996549784E+02 -0.61488807326E+03  0.64365752560E+03  0.12500000000E+03 0.  0.
         25    1    1    2    0    0 -0.64189623383E+02 -0.24320323234E+02 -0.45632639496E+02  0.14973016950E+03  0.12500000000E+03 0.  0.
</event>
<event>
 5    0  0.5829567E-005  0.3083490E+03  0.7546771E-02  0.1081140E+00
         21   -1    0    0  502  501  0.00000000000E+00  0.00000000000E+00  0.24389355267E+03  0.24389355267E+03  0.00000000000E+00 0. -1.
         21   -1    0    0  501  502 -0.00000000000E+00 -0.00000000000E+00 -0.38983865424E+03  0.38983865424E+03  0.00000000000E+00 0. -1.
         25    1    1    2    0    0  0.10772090697E+03  0.20538993179E+03 -0.56490111304E+02  0.26945305816E+03  0.12500000000E+03 0.  0.
         25    1    1    2    0    0 -0.17466191948E+02 -0.13077552332E+03 -0.50226318729E+02  0.18856030455E+03  0.12500000000E+03 0.  0.
         25    1    1    2    0    0 -0.90254715017E+02 -0.74614408472E+02 -0.39228671530E+02  0.17571884419E+03  0.12500000000E+03 0.  0.
</event>
<event>
 5    0  0.7311198E-005  0.4403217E+03  0.7546771E-02  0.1030648E+00
         21   -1    0    0  502  501  0.00000000000E+00  0.00000000000E+00  0.35687315372E+03  0.35687315372E+03  0.00000000000E+00 0.  1.
         21   -1    0    0  501  502 -0.00000000000E+00 -0.00000000000E+00 -0.54328325238E+03  0.54328325238E+03  0.00000000000E+00 0.  1.
         25    1    1    2    0    0 -0.11087347219E+03  0.47424134276E+02  0.14845311909E+03  0.22848480018E+03  0.12500000000E+03 0.  0.
         25    1    1    2    0    0 -0.12397615102E+03  0.12244740630E+03 -0.27773562903E+03  0.35089248064E+03  0.12500000000E+03 0.  0.
         25    1    1    2    0    0  0.23484962321E+03 -0.16987154058E+03 -0.57127588721E+02  0.32077912528E+03  0.12500000000E+03 0.  0.
</event>
<event>
 5    0  0.5829567E-005  0.2559883E+03  0.7546771E-02  0.1109578E+00
         21   -1    0    0  502  501  0.00000000000E+00  0.00000000000E+00  0.12333576434E+03  0.12333576434E+03  0.00000000000E+00 0. -1.
         21   -1    0    0  501  502 -0.00000000000E+00 -0.00000000000E+00 -0.53131398582E+03  0.53131398582E+03  0.00000000000E+00 0. -1.
         25    1    1    2    0    0  0.12218120428E+03  0.22637065508E+02 -0.20969401576E+03  0.27392930412E+03  0.12500000000E+03 0.  0.
         25    1    1    2    0    0 -0.11745279811E+03 -0.54222466903E+02 -0.55441517963E+02  0.18823920318E+03  0.12500000000E+03 0.  0.
         25    1    1    2    0    0 -0.47284061659E+01  0.31585401396E+02 -0.14284268776E+03  0.19248124286E+03  0.12500000000E+03 0.  0.
</event>
<event>
 5    0  0.6420744E-005  0.3445355E+03  0.7546771E-02  0.1064880E+00
         21   -1    0    0  502  501  0.00000000000E+00  0.00000000000E+00  0.15134778659E+03  0.15134778659E+03  0.00000000000E+00 0. -1.
         21   -1    0    0  501  502 -0.00000000000E+00 -0.00000000000E+00 -0.78431758520E+03  0.78431758520E+03  0.00000000000E+00 0. -1.
         25    1    1    2    0    0  0.17641203530E+03  0.27531431613E+02 -0.15888766165E+03  0.26972110587E+03  0.12500000000E+03 0.  0.
         25    1    1    2    0    0 -0.19466584525E+03 -0.30536243072E+02 -0.71593099268E+02  0.24408569255E+03  0.12500000000E+03 0.  0.
         25    1    1    2    0    0  0.18253809944E+02  0.30048114591E+01 -0.40248903768E+03  0.42185857337E+03  0.12500000000E+03 0.  0.
</event>
<event>
 5    0  0.5829567E-005  0.3562873E+03  0.7546771E-02  0.1060064E+00
         21   -1    0    0  502  501  0.00000000000E+00  0.00000000000E+00  0.70703633377E+02  0.70703633377E+02  0.00000000000E+00 0. -1.
         21   -1    0    0  501  502 -0.00000000000E+00 -0.00000000000E+00 -0.17953901993E+04  0.17953901993E+04  0.00000000000E+00 0. -1.
         25    1    1    2    0    0  0.76783068392E+02 -0.13935954246E+03 -0.64100574669E+03  0.67218307696E+03  0.12500000000E+03 0.  0.
         25    1    1    2    0    0 -0.18512461349E+02 -0.13373722933E+03 -0.29158357658E+03  0.34478158284E+03  0.12500000000E+03 0.  0.
         25    1    1    2    0    0 -0.58270607044E+02  0.27309677179E+03 -0.79209724264E+03  0.84912917286E+03  0.12500000000E+03 0.  0.
</event>
<event>
 5    0  0.5829567E-005  0.3284678E+03  0.7546771E-02  0.1071817E+00
         21   -1    0    0  502  501  0.00000000000E+00  0.00000000000E+00  0.14840795247E+03  0.14840795247E+03  0.00000000000E+00 0. -1.
         21   -1    0    0  501  502 -0.00000000000E+00 -0.00000000000E+00 -0.72699012905E+03  0.72699012905E+03  0.00000000000E+00 0. -1.
         25    1    1    2    0    0 -0.19573112681E+03 -0.53354660242E+01 -0.10944850226E+03  0.25679391708E+03  0.12500000000E+03 0.  0.
         25    1    1    2    0    0  0.13672514574E+03 -0.99744425774E+02 -0.16105645350E+03  0.26496584151E+03  0.12500000000E+03 0.  0.
         25    1    1    2    0    0  0.59005981068E+02  0.10507989180E+03 -0.30807722081E+03  0.35363832293E+03  0.12500000000E+03 0.  0.
</event>
<event>
 5    0  0.5829567E-005  0.3563384E+03  0.7546771E-02  0.1060043E+00
         21   -1    0    0  502  501  0.00000000000E+00  0.00000000000E+00  0.12790076867E+03  0.12790076867E+03  0.00000000000E+00 0. -1.
         21   -1    0    0  501  502 -0.00000000000E+00 -0.00000000000E+00 -0.99277810128E+03  0.99277810128E+03  0.00000000000E+00 0. -1.
         25    1    1    2    0    0  0.27335759289E+02  0.12708335359E+03 -0.17299590113E+03  0.24989998861E+03  0.12500000000E+03 0.  0.
         25    1    1    2    0    0  0.14915764719E+03 -0.15029769037E+03 -0.57154256384E+03  0.62219233499E+03  0.12500000000E+03 0.  0.
         25    1    1    2    0    0 -0.17649340648E+03  0.23214336775E+02 -0.12033886764E+03  0.24858654635E+03  0.12500000000E+03 0.  0.
</event>
<event>
 5    0  0.5829567E-005  0.5291308E+03  0.7546771E-02  0.1006443E+00
         21   -1    0    0  502  501  0.00000000000E+00  0.00000000000E+00  0.26979371280E+03  0.26979371280E+03  0.00000000000E+00 0.  1.
         21   -1    0    0  501  502 -0.00000000000E+00 -0.00000000000E+00 -0.10377537244E+04  0.10377537244E+04  0.00000000000E+00 0.  1.
         25    1    1    2    0    0 -0.12619493220E+03 -0.12078524562E+03 -0.85448458130E+03  0.88106931404E+03  0.12500000000E+03 0.  0.
         25    1    1    2    0    0  0.84363538665E+02  0.93301696708E+01 -0.93005181531E+02  0.17742384990E+03  0.12500000000E+03 0.  0.
         25    1    1    2    0    0  0.41831393533E+02  0.11145507595E+03  0.17952975124E+03  0.24905427324E+03  0.12500000000E+03 0.  0.
</event>
<event>
 5    0  0.5829567E-005  0.2562677E+03  0.7546771E-02  0.1109407E+00
         21   -1    0    0  502  501  0.00000000000E+00  0.00000000000E+00  0.57288126144E+03  0.57288126144E+03  0.00000000000E+00 0. -1.
         21   -1    0    0  501  502 -0.00000000000E+00 -0.00000000000E+00 -0.11463653356E+03  0.11463653356E+03  0.00000000000E+00 0. -1.
         25    1    1    2    0    0 -0.52693489823E+02 -0.88856053940E+02  0.17769499034E+03  0.24056706296E+03  0.12500000000E+03 0.  0.
         25    1    1    2    0    0 -0.49772782852E+02  0.10572605860E+03  0.20701196375E+03  0.26857826144E+03  0.12500000000E+03 0.  0.
         25    1    1    2    0    0  0.10246627268E+03 -0.16870004657E+02  0.73537773797E+02  0.17837247060E+03  0.12500000000E+03 0.  0.
</event>
<event>
 5    0  0.5829567E-005  0.2935605E+03  0.7546771E-02  0.1088505E+00
         21   -1    0    0  502  501  0.00000000000E+00  0.00000000000E+00  0.25924205100E+03  0.25924205100E+03  0.00000000000E+00 0. -1.
         21   -1    0    0  501  502 -0.00000000000E+00 -0.00000000000E+00 -0.33242196912E+03  0.33242196912E+03  0.00000000000E+00 0. -1.
         25    1    1    2    0    0  0.21981757776E+02  0.19739892286E+02 -0.10759053390E+03  0.16755173531E+03  0.12500000000E+03 0.  0.
         25    1    1    2    0    0 -0.39188009916E+02 -0.12864660531E+03 -0.10082981200E+03  0.20946909120E+03  0.12500000000E+03 0.  0.
         25    1    1    2    0    0  0.17206252140E+02  0.10890671302E+03  0.13524042779E+03  0.21464319361E+03  0.12500000000E+03 0.  0.
</event>
<event>
 5    0  0.5829567E-005  0.3056526E+03  0.7546771E-02  0.1082449E+00
         21   -1    0    0  502  501  0.00000000000E+00  0.00000000000E+00  0.77938409298E+02  0.77938409298E+02  0.00000000000E+00 0.  1.
         21   -1    0    0  501  502 -0.00000000000E+00 -0.00000000000E+00 -0.11986839988E+04  0.11986839988E+04  0.00000000000E+00 0.  1.
         25    1    1    2    0    0 -0.98563489639E+02  0.51670106894E+02 -0.30259236716E+03  0.34579141415E+03  0.12500000000E+03 0.  0.
         25    1    1    2    0    0  0.17872782029E+03  0.69829243749E+02 -0.58902928332E+03  0.63198121304E+03  0.12500000000E+03 0.  0.
         25    1    1    2    0    0 -0.80164330656E+02 -0.12149935064E+03 -0.22912393903E+03  0.29884978092E+03  0.12500000000E+03 0.  0.
</event>
<event>
 5    0  0.5829567E-005  0.4986082E+03  0.7546771E-02  0.1014143E+00
         21   -1    0    0  502  501  0.00000000000E+00  0.00000000000E+00  0.77890485915E+03  0.77890485915E+03  0.00000000000E+00 0.  1.
         21   -1    0    0  501  502 -0.00000000000E+00 -0.00000000000E+00 -0.31917903424E+03  0.31917903424E+03  0.00000000000E+00 0.  1.
         25    1    1    2    0    0 -0.12326708484E+03  0.17089611734E+02  0.18148771488E+03  0.25308026333E+03  0.12500000000E+03 0.  0.
         25    1    1    2    0    0  0.38991921944E+03 -0.19421976325E+03  0.17942123163E+03  0.48741695957E+03  0.12500000000E+03 0.  0.
         25    1    1    2    0    0 -0.26665213459E+03  0.17713015151E+03  0.98816878401E+02  0.35758667049E+03  0.12500000000E+03 0.  0.
</event>
<event>
 5    0  0.5829567E-005  0.3102380E+03  0.7546771E-02  0.1080232E+00
         21   -1    0    0  502  501  0.00000000000E+00  0.00000000000E+00  0.56765743215E+03  0.56765743215E+03  0.00000000000E+00 0.  1.
         21   -1    0    0  501  502 -0.00000000000E+00 -0.00000000000E+00 -0.16955231526E+03  0.16955231526E+03  0.00000000000E+00 0.  1.
         25    1    1    2    0    0 -0.45764699512E+02 -0.75825650591E+02  0.20750158227E+03  0.25792604300E+03  0.12500000000E+03 0.  0.
         25    1    1    2    0    0  0.49592166244E+02 -0.74456943521E+02 -0.56871051225E+02  0.16389794342E+03  0.12500000000E+03 0.  0.
         25    1    1    2    0    0 -0.38274667325E+01  0.15028259411E+03  0.24747458584E+03  0.31538576098E+03  0.12500000000E+03 0.  0.
</event>
<event>
 5    0  0.5829567E-005  0.2656047E+03  0.7546771E-02  0.1103822E+00
         21   -1    0    0  502  501  0.00000000000E+00  0.00000000000E+00  0.24632264869E+03  0.24632264869E+03  0.00000000000E+00 0.  1.
         21   -1    0    0  501  502 -0.00000000000E+00 -0.00000000000E+00 -0.28639613345E+03  0.28639613345E+03  0.00000000000E+00 0.  1.
         25    1    1    2    0    0  0.20823615188E+01  0.39775283765E+02 -0.83988841594E+02  0.15577398673E+03  0.12500000000E+03 0.  0.
         25    1    1    2    0    0 -0.73863806262E+02 -0.87472236376E+02  0.11944709438E+03  0.20736408167E+03  0.12500000000E+03 0.  0.
         25    1    1    2    0    0  0.71781444743E+02  0.47696952611E+02 -0.75531737548E+02  0.16958071375E+03  0.12500000000E+03 0.  0.
</event>
<event>
 5    0  0.5829567E-005  0.2492059E+03  0.7546771E-02  0.1113808E+00
         21   -1    0    0  502  501  0.00000000000E+00  0.00000000000E+00  0.13672460271E+03  0.13672460271E+03  0.00000000000E+00 0.  1.
         21   -1    0    0  501  502 -0.00000000000E+00 -0.00000000000E+00 -0.45422380764E+03  0.45422380764E+03  0.00000000000E+00 0.  1.
         25    1    1    2    0    0 -0.12350126798E+03  0.42575285641E+02 -0.19971131192E+03  0.26939715338E+03  0.12500000000E+03 0.  0.
         25    1    1    2    0    0  0.30021930365E+02  0.21742414419E+02 -0.50985172968E+02  0.13999477401E+03  0.12500000000E+03 0.  0.
         25    1    1    2    0    0  0.93479337614E+02 -0.64317700061E+02 -0.66802720046E+02  0.18155648297E+03  0.12500000000E+03 0.  0.
</event>
<event>
 5    0  0.5829567E-005  0.2476028E+03  0.7546771E-02  0.1114829E+00
         21   -1    0    0  502  501  0.00000000000E+00  0.00000000000E+00  0.51793566271E+03  0.51793566271E+03  0.00000000000E+00 0. -1.
         21   -1    0    0  501  502 -0.00000000000E+00 -0.00000000000E+00 -0.11836823616E+03  0.11836823616E+03  0.00000000000E+00 0. -1.
         25    1    1    2    0    0 -0.41138431274E+02  0.28029138031E+02  0.25896615304E+03  0.29183295141E+03  0.12500000000E+03 0.  0.
         25    1    1    2    0    0  0.14507245876E+02 -0.63136959888E+02 -0.13238494053E+02  0.14141072665E+03  0.12500000000E+03 0.  0.
         25    1    1    2    0    0  0.26631185398E+02  0.35107821856E+02  0.15383976756E+03  0.20306022081E+03  0.12500000000E+03 0.  0.
</event>
<event>
 5    0  0.5829567E-005  0.2586217E+03  0.7546771E-02  0.1107974E+00
         21   -1    0    0  502  501  0.00000000000E+00  0.00000000000E+00  0.28972117095E+04  0.28972117095E+04  0.00000000000E+00 0.  1.
         21   -1    0    0  501  502 -0.00000000000E+00 -0.00000000000E+00 -0.23086056371E+02  0.23086056371E+02  0.00000000000E+00 0.  1.
         25    1    1    2    0    0 -0.33964844332E+01  0.18366840257E+02  0.16842403367E+04  0.16889758402E+04  0.12500000000E+03 0.  0.
         25    1    1    2    0    0 -0.44271344036E+02 -0.91622085289E+01  0.26193499593E+03  0.29373259959E+03  0.12500000000E+03 0.  0.
         25    1    1    2    0    0  0.47667828470E+02 -0.92046317284E+01  0.92795032054E+03  0.93758932615E+03  0.12500000000E+03 0.  0.
</event>
<event>
 5    0  0.5829567E-005  0.2616575E+03  0.7546771E-02  0.1106151E+00
         21   -1    0    0  502  501  0.00000000000E+00  0.00000000000E+00  0.36932498058E+03  0.36932498058E+03  0.00000000000E+00 0. -1.
         21   -1    0    0  501  502 -0.00000000000E+00 -0.00000000000E+00 -0.18537785122E+03  0.18537785122E+03  0.00000000000E+00 0. -1.
         25    1    1    2    0    0  0.47413795924E+02  0.60297645290E+02 -0.39691371710E+02  0.15193511464E+03  0.12500000000E+03 0.  0.
         25    1    1    2    0    0 -0.21621485203E+02 -0.13538530063E+03  0.14229028822E+03  0.23381230586E+03  0.12500000000E+03 0.  0.
         25    1    1    2    0    0 -0.25792310721E+02  0.75087655342E+02  0.81348212847E+02  0.16895541131E+03  0.12500000000E+03 0.  0.
</event>
<event>
 5    0  0.5829567E-005  0.2955067E+03  0.7546771E-02  0.1087509E+00
         21   -1    0    0  502  501  0.00000000000E+00  0.00000000000E+00  0.11516917843E+04  0.11516917843E+04  0.00000000000E+00 0. -1.
         21   -1    0    0  501  502 -0.00000000000E+00 -0.00000000000E+00 -0.75822570194E+02  0.75822570194E+02  0.00000000000E+00 0. -1.
         25    1    1    2    0    0 -0.85564721764E+02 -0.94820383516E+02  0.27821781036E+03  0.33066958848E+03  0.12500000000E+03 0.  0.
         25    1    1    2    0    0  0.17002314552E+03 -0.48754344183E+01  0.29566143611E+03  0.36327995359E+03  0.12500000000E+03 0.  0.
         25    1    1    2    0    0 -0.84458423760E+02  0.99695817934E+02  0.50198996760E+03  0.53356481240E+03  0.12500000000E+03 0.  0.
</event>
<event>
 5    0  0.5829567E-005  0.2968372E+03  0.7546771E-02  0.1086832E+00
         21   -1    0    0  502  501  0.00000000000E+00  0.00000000000E+00  0.10736747852E+03  0.10736747852E+03  0.00000000000E+00 0. -1.
         21   -1    0    0  501  502 -0.00000000000E+00 -0.00000000000E+00 -0.82066139560E+03  0.82066139560E+03  0.00000000000E+00 0. -1.
         25    1    1    2    0    0  0.97083834644E+02  0.34833173124E+02 -0.17917397018E+03  0.24159249262E+03  0.12500000000E+03 0.  0.
         25    1    1    2    0    0 -0.58018552989E+02 -0.16356548493E+03 -0.41693645372E+03  0.46859452279E+03  0.12500000000E+03 0.  0.
         25    1    1    2    0    0 -0.39065281656E+02  0.12873231180E+03 -0.11718349318E+03  0.21784185871E+03  0.12500000000E+03 0.  0.
</event>
<event>
 5    0  0.5829567E-005  0.2448167E+03  0.7546771E-02  0.1116625E+00
         21   -1    0    0  502  501  0.00000000000E+00  0.00000000000E+00  0.70637299926E+02  0.70637299926E+02  0.00000000000E+00 0. -1.
         21   -1    0    0  501  502 -0.00000000000E+00 -0.00000000000E+00 -0.84849249708E+03  0.84849249708E+03  0.00000000000E+00 0. -1.
         25    1    1    2    0    0 -0.38414161005E+02 -0.57491619422E+02 -0.29816037934E+03  0.33061389245E+03  0.12500000000E+03 0.  0.
         25    1    1    2    0    0 -0.18967271582E+02  0.34970839620E+02 -0.56260143922E+02  0.14273374096E+03  0.12500000000E+03 0.  0.
         25    1    1    2    0    0  0.57381432587E+02  0.22520779802E+02 -0.42343467389E+03  0.44578216360E+03  0.12500000000E+03 0.  0.
</event>
<event>
 5    0  0.5829567E-005  0.5863826E+03  0.7546771E-02  0.9934068E-01
         21   -1    0    0  502  501  0.00000000000E+00  0.00000000000E+00  0.82242353755E+03  0.82242353755E+03  0.00000000000E+00 0.  1.
         21   -1    0    0  501  502 -0.00000000000E+00 -0.00000000000E+00 -0.41808698578E+03  0.41808698578E+03  0.00000000000E+00 0.  1.
         25    1    1    2    0    0  0.47491250875E+02  0.17791918457E+03  0.20111135509E+02  0.22347284605E+03  0.12500000000E+03 0.  0.
         25    1    1    2    0    0 -0.44359496976E+03 -0.97177169160E+02  0.36069442053E+03  0.59324983304E+03  0.12500000000E+03 0.  0.
         25    1    1    2    0    0  0.39610371888E+03 -0.80742015415E+02  0.23530995729E+02  0.42378784424E+03  0.12500000000E+03 0.  0.
</event>
<event>
 5    0  0.5829567E-005  0.3103347E+03  0.7546771E-02  0.1080186E+00
         21   -1    0    0  502  501  0.00000000000E+00  0.00000000000E+00  0.45993681601E+03  0.45993681601E+03  0.00000000000E+00 0. -1.
         21   -1    0    0  501  502 -0.00000000000E+00 -0.00000000000E+00 -0.20939310902E+03  0.20939310902E+03  0.00000000000E+00 0. -1.
         25    1    1    2    0    0  0.20166426880E+03  0.11507803242E+03  0.11403186201E+03  0.28729722660E+03  0.12500000000E+03 0.  0.
         25    1    1    2    0    0 -0.38092649003E+02 -0.30402882748E+02  0.48398331385E+02  0.14262813070E+03  0.12500000000E+03 0.  0.
         25    1    1    2    0    0 -0.16357161980E+03 -0.84675149669E+02  0.88113513592E+02  0.23940456773E+03  0.12500000000E+03 0.  0.
</event>
<event>
 5    0  0.5829567E-005  0.3222167E+03  0.7546771E-02  0.1074634E+00
         21   -1    0    0  502  501  0.00000000000E+00  0.00000000000E+00  0.30598501033E+03  0.30598501033E+03  0.00000000000E+00 0.  1.
         21   -1    0    0  501  502 -0.00000000000E+00 -0.00000000000E+00 -0.33930950419E+03  0.33930950419E+03  0.00000000000E+00 0.  1.
         25    1    1    2    0    0 -0.30377985152E+02  0.13126935110E+03  0.16324469217E+02  0.18451545414E+03  0.12500000000E+03 0.  0.
         25    1    1    2    0    0  0.10590711913E+03  0.81654354921E+02 -0.81964915220E+02  0.20056669436E+03  0.12500000000E+03 0.  0.
         25    1    1    2    0    0 -0.75529133980E+02 -0.21292370602E+03  0.32315952147E+02  0.26021236602E+03  0.12500000000E+03 0.  0.
</event>
<event>
 5    0  0.5829567E-005  0.3195393E+03  0.7546771E-02  0.1075862E+00
         21   -1    0    0  502  501  0.00000000000E+00  0.00000000000E+00  0.52764570087E+03  0.52764570087E+03  0.00000000000E+00 0.  1.
         21   -1    0    0  501  502 -0.00000000000E+00 -0.00000000000E+00 -0.19351116730E+03  0.19351116730E+03  0.00000000000E+00 0.  1.
         25    1    1    2    0    0 -0.63643320942E+02 -0.37064822701E+02 -0.27310844559E+02  0.14763182453E+03  0.12500000000E+03 0.  0.
         25    1    1    2    0    0  0.98005836127E+02 -0.79385405586E+02  0.60147780447E+01  0.17767488311E+03  0.12500000000E+03 0.  0.
         25    1    1    2    0    0 -0.34362515185E+02  0.11645022829E+03  0.35543060008E+03  0.39585016053E+03  0.12500000000E+03 0.  0.
</event>
<event>
 5    0  0.5829567E-005  0.2722973E+03  0.7546771E-02  0.1099972E+00
         21   -1    0    0  502  501  0.00000000000E+00  0.00000000000E+00  0.20197977800E+03  0.20197977800E+03  0.00000000000E+00 0. -1.
         21   -1    0    0  501  502 -0.00000000000E+00 -0.00000000000E+00 -0.36709524489E+03  0.36709524489E+03  0.00000000000E+00 0. -1.
         25    1    1    2    0    0 -0.38857416452E+02 -0.79559302948E+02 -0.10134777855E+03  0.18367349758E+03  0.12500000000E+03 0.  0.
         25    1    1    2    0    0  0.56291230769E+02 -0.27312568690E+02  0.84457270279E+02  0.16331781768E+03  0.12500000000E+03 0.  0.
         25    1    1    2    0    0 -0.17433814317E+02  0.10687187164E+03 -0.14822495862E+03  0.22208370761E+03  0.12500000000E+03 0.  0.
</event>
<event>
 5    0  0.5829567E-005  0.2508640E+03  0.7546771E-02  0.1112760E+00
         21   -1    0    0  502  501  0.00000000000E+00  0.00000000000E+00  0.54004951213E+03  0.54004951213E+03  0.00000000000E+00 0. -1.
         21   -1    0    0  501  502 -0.00000000000E+00 -0.00000000000E+00 -0.11653143501E+03  0.11653143501E+03  0.00000000000E+00 0. -1.
         25    1    1    2    0    0 -0.14949869224E+02 -0.64938795066E+02  0.19786858669E+03  0.24334650869E+03  0.12500000000E+03 0.  0.
         25    1    1    2    0    0  0.67811638753E+02  0.24714138908E+02  0.23008390998E+03  0.27161151052E+03  0.12500000000E+03 0.  0.
         25    1    1    2    0    0 -0.52861769529E+02  0.40224656159E+02 -0.44344195420E+01  0.14162292794E+03  0.12500000000E+03 0.  0.
</event>
<event>
 5    0  0.5829567E-005  0.2916216E+03  0.7546771E-02  0.1089506E+00
         21   -1    0    0  502  501  0.00000000000E+00  0.00000000000E+00  0.10553260760E+03  0.10553260760E+03  0.00000000000E+00 0.  1.
         21   -1    0    0  501  502 -0.00000000000E+00 -0.00000000000E+00 -0.80584699334E+03  0.80584699334E+03  0.00000000000E+00 0.  1.
         25    1    1    2    0    0 -0.98831002569E+02 -0.12603397163E+03 -0.31699896694E+03  0.37651756149E+03  0.12500000000E+03 0.  0.
         25    1    1    2    0    0  0.39964988596E+02 -0.53494942906E+02 -0.10714023208E+03  0.17765961432E+03  0.12500000000E+03 0.  0.
         25    1    1    2    0    0  0.58866013973E+02  0.17952891454E+03 -0.27617518673E+03  0.35720242513E+03  0.12500000000E+03 0.  0.
</event>
<event>
 5    0  0.5829567E-005  0.2653826E+03  0.7546771E-02  0.1103952E+00
         21   -1    0    0  502  501  0.00000000000E+00  0.00000000000E+00  0.15672578030E+03  0.15672578030E+03  0.00000000000E+00 0. -1.
         21   -1    0    0  501  502 -0.00000000000E+00 -0.00000000000E+00 -0.44937045355E+03  0.44937045355E+03  0.00000000000E+00 0. -1.
         25    1    1    2    0    0 -0.31741146534E+00 -0.34204640684E+02 -0.69463361073E+02  0.14703814718E+03  0.12500000000E+03 0.  0.
         25    1    1    2    0    0  0.74700752004E+02  0.72953553941E+02  0.28934616497E+02  0.16542259644E+03  0.12500000000E+03 0.  0.
         25    1    1    2    0    0 -0.74383340539E+02 -0.38748913257E+02 -0.25211592867E+03  0.29363549022E+03  0.12500000000E+03 0.  0.
</event>
<event>
 5    0  0.5829567E-005  0.2913217E+03  0.7546771E-02  0.1089661E+00
         21   -1    0    0  502  501  0.00000000000E+00  0.00000000000E+00  0.21930563299E+03  0.21930563299E+03  0.00000000000E+00 0.  1.
         21   -1    0    0  501  502 -0.00000000000E+00 -0.00000000000E+00 -0.38698660456E+03  0.38698660456E+03  0.00000000000E+00 0.  1.
         25    1    1    2    0    0 -0.74824983634E+02 -0.27741201951E+02 -0.10722736432E+03  0.18300562866E+03  0.12500000000E+03 0.  0.
         25    1    1    2    0    0  0.73434630970E+02 -0.53763243533E+02  0.11518598278E+03  0.19281063770E+03  0.12500000000E+03 0.  0.
         25    1    1    2    0    0  0.13903526637E+01  0.81504445483E+02 -0.17563959003E+03  0.23047597120E+03  0.12500000000E+03 0.  0.
</event>
<event>
 5    0  0.5829567E-005  0.3308183E+03  0.7546771E-02  0.1070775E+00
         21   -1    0    0  502  501  0.00000000000E+00  0.00000000000E+00  0.50299299347E+03  0.50299299347E+03  0.00000000000E+00 0. -1.
         21   -1    0    0  501  502 -0.00000000000E+00 -0.00000000000E+00 -0.21757902662E+03  0.21757902662E+03  0.00000000000E+00 0. -1.
         25    1    1    2    0    0  0.14066772466E+03  0.10023710762E+03  0.21310206662E+03  0.30145045580E+03  0.12500000000E+03 0.  0.
         25    1    1    2    0    0 -0.28118772286E+02 -0.18346823808E+03  0.56424133518E+02  0.23078115734E+03  0.12500000000E+03 0.  0.
         25    1    1    2    0    0 -0.11254895238E+03  0.83231130457E+02  0.15887766722E+02  0.18834040695E+03  0.12500000000E+03 0.  0.
</event>
<event>
 5    0  0.5829567E-005  0.2307991E+03  0.7546771E-02  0.1126079E+00
         21   -1    0    0  502  501  0.00000000000E+00  0.00000000000E+00  0.51139359393E+02  0.51139359393E+02  0.00000000000E+00 0.  1.
         21   -1    0    0  501  502 -0.00000000000E+00 -0.00000000000E+00 -0.10416283847E+04  0.10416283847E+04  0.00000000000E+00 0.  1.
         25    1    1    2    0    0 -0.27978103722E+02  0.92460258518E+02 -0.31396050346E+03  0.35146532037E+03  0.12500000000E+03 0.  0.
         25    1    1    2    0    0  0.10901101036E+02 -0.59958044498E+02 -0.17716979019E+03  0.22522862976E+03  0.12500000000E+03 0.  0.
         25    1    1    2    0    0  0.17077002686E+02 -0.32502214020E+02 -0.49935873162E+03  0.51607379393E+03  0.12500000000E+03 0.  0.
</event>
<event>
 5    0  0.5829567E-005  0.2401878E+03  0.7546771E-02  0.1119668E+00
         21   -1    0    0  502  501  0.00000000000E+00  0.00000000000E+00  0.13669178903E+04  0.13669178903E+04  0.00000000000E+00 0.  1.
         21   -1    0    0  501  502 -0.00000000000E+00 -0.00000000000E+00 -0.42204582794E+02  0.42204582794E+02  0.00000000000E+00 0.  1.
         25    1    1    2    0    0 -0.99541149511E+02 -0.55891698005E+02  0.36325262402E+03  0.40076151413E+03  0.12500000000E+03 0.  0.
         25    1    1    2    0    0  0.79854570572E+02  0.42148491272E+02  0.70962800478E+03  0.72618878601E+03  0.12500000000E+03 0.  0.
         25    1    1    2    0    0  0.19686578938E+02  0.13743206733E+02  0.25183267866E+03  0.28217217291E+03  0.12500000000E+03 0.  0.
</event>
<event>
 5    0  0.5829567E-005  0.2250800E+03  0.7546771E-02  0.1130151E+00
         21   -1    0    0  502  501  0.00000000000E+00  0.00000000000E+00  0.42382088047E+03  0.42382088047E+03  0.00000000000E+00 0. -1.
         21   -1    0    0  501  502 -0.00000000000E+00 -0.00000000000E+00 -0.11953398903E+03  0.11953398903E+03  0.00000000000E+00 0. -1.
         25    1    1    2    0    0  0.53154666935E+02 -0.53546781443E+02  0.85407554308E+02  0.16915119495E+03  0.12500000000E+03 0.  0.
         25    1    1    2    0    0 -0.11550283525E+02 -0.48173494157E+02  0.73646260386E+02  0.15330644558E+03  0.12500000000E+03 0.  0.
         25    1    1    2    0    0 -0.41604383410E+02  0.10172027560E+03  0.14523307674E+03  0.22089722897E+03  0.12500000000E+03 0.  0.
</event>
<event>
 5    0  0.5829567E-005  0.2249829E+03  0.7546771E-02  0.1130222E+00
         21   -1    0    0  502  501  0.00000000000E+00  0.00000000000E+00  0.11779354368E+04  0.11779354368E+04  0.00000000000E+00 0.  1.
         21   -1    0    0  501  502 -0.00000000000E+00 -0.00000000000E+00 -0.42971192632E+02  0.42971192632E+02  0.00000000000E+00 0.  1.
         25    1    1    2    0    0  0.41628648077E+02 -0.55348127982E+02  0.54971935429E+03  0.56799007746E+03  0.12500000000E+03 0.  0.
         25    1    1    2    0    0 -0.67210907697E+02  0.30698819295E+02  0.20606060123E+03  0.25208271460E+03  0.12500000000E+03 0.  0.
         25    1    1    2    0    0  0.25582259619E+02  0.24649308687E+02  0.37918428864E+03  0.40083383737E+03  0.12500000000E+03 0.  0.
</event>
<event>
 5    0  0.5829567E-005  0.2728452E+03  0.7546771E-02  0.1099662E+00
         21   -1    0    0  502  501  0.00000000000E+00  0.00000000000E+00  0.12590472462E+04  0.12590472462E+04  0.00000000000E+00 0. -1.
         21   -1    0    0  501  502 -0.00000000000E+00 -0.00000000000E+00 -0.59127630965E+02  0.59127630965E+02  0.00000000000E+00 0. -1.
         25    1    1    2    0    0  0.67938350764E+02 -0.69666297278E+01  0.51405505800E+03  0.53342455520E+03  0.12500000000E+03 0.  0.
         25    1    1    2    0    0 -0.98279242793E+02  0.11079903332E+03  0.49870743767E+03  0.53504144114E+03  0.12500000000E+03 0.  0.
         25    1    1    2    0    0  0.30340892029E+02 -0.10383240359E+03  0.18715711961E+03  0.24970888087E+03  0.12500000000E+03 0.  0.
</event>
<event>
 5    0  0.5829567E-005  0.3338246E+03  0.7546771E-02  0.1069457E+00
         21   -1    0    0  502  501  0.00000000000E+00  0.00000000000E+00  0.50472055054E+03  0.50472055054E+03  0.00000000000E+00 0.  1.
         21   -1    0    0  501  502 -0.00000000000E+00 -0.00000000000E+00 -0.22079322491E+03  0.22079322491E+03  0.00000000000E+00 0.  1.
         25    1    1    2    0    0 -0.32308121455E+02  0.13783893487E+02  0.40609737645E+03  0.42634949231E+03  0.12500000000E+03 0.  0.
         25    1    1    2    0    0 -0.20717185805E+02  0.19337391364E+02 -0.29663520285E+02  0.13156010386E+03  0.12500000000E+03 0.  0.
         25    1    1    2    0    0  0.53025307260E+02 -0.33121284850E+02 -0.92506530535E+02  0.16760417928E+03  0.12500000000E+03 0.  0.
</event>
<event>
 5    0  0.5829567E-005  0.2802553E+03  0.7546771E-02  0.1095550E+00
         21   -1    0    0  502  501  0.00000000000E+00  0.00000000000E+00  0.14916452214E+03  0.14916452214E+03  0.00000000000E+00 0. -1.
         21   -1    0    0  501  502 -0.00000000000E+00 -0.00000000000E+00 -0.52655317858E+03  0.52655317858E+03  0.00000000000E+00 0. -1.
         25    1    1    2    0    0  0.55257572217E+02  0.34115223771E+02 -0.25686968942E+02  0.14318543276E+03  0.12500000000E+03 0.  0.
         25    1    1    2    0    0 -0.13617998682E+03 -0.12706943490E+03 -0.19479073754E+03  0.29708594973E+03  0.12500000000E+03 0.  0.
         25    1    1    2    0    0  0.80922414605E+02  0.92954211133E+02 -0.15691094996E+03  0.23544631823E+03  0.12500000000E+03 0.  0.
</event>
<event>
 5    0  0.5829567E-005  0.2804709E+03  0.7546771E-02  0.1095432E+00
         21   -1    0    0  502  501  0.00000000000E+00  0.00000000000E+00  0.97404231286E+02  0.97404231286E+02  0.00000000000E+00 0. -1.
         21   -1    0    0  501  502 -0.00000000000E+00 -0.00000000000E+00 -0.80760293744E+03  0.80760293744E+03  0.00000000000E+00 0. -1.
         25    1    1    2    0    0 -0.67035028236E+02 -0.17401858798E+03 -0.35181566331E+03  0.41734329385E+03  0.12500000000E+03 0.  0.
         25    1    1    2    0    0  0.43913509206E+02  0.13156036798E+03 -0.14816828192E+03  0.23835974174E+03  0.12500000000E+03 0.  0.
         25    1    1    2    0    0  0.23121519030E+02  0.42458220000E+02 -0.21021476092E+03  0.24930413313E+03  0.12500000000E+03 0.  0.
</event>
<event>
 5    0  0.5829567E-005  0.3297401E+03  0.7546771E-02  0.1071252E+00
         21   -1    0    0  502  501  0.00000000000E+00  0.00000000000E+00  0.43710358390E+03  0.43710358390E+03  0.00000000000E+00 0.  1.
         21   -1    0    0  501  502 -0.00000000000E+00 -0.00000000000E+00 -0.24874778438E+03  0.24874778438E+03  0.00000000000E+00 0.  1.
         25    1    1    2    0    0  0.49605708330E+02  0.12041441507E+03  0.40161427641E+02  0.18492781815E+03  0.12500000000E+03 0.  0.
         25    1    1    2    0    0 -0.19854739128E+03  0.12531754841E+02  0.28403931672E+02  0.23666409698E+03  0.12500000000E+03 0.  0.
         25    1    1    2    0    0  0.14894168295E+03 -0.13294616991E+03  0.11979044021E+03  0.26425945315E+03  0.12500000000E+03 0.  0.
</event>
<event>
 5    0  0.5829567E-005  0.3913350E+03  0.7546771E-02  0.1046822E+00
         21   -1    0    0  502  501  0.00000000000E+00  0.00000000000E+00  0.82712120028E+03  0.82712120028E+03  0.00000000000E+00 0. -1.
         21   -1    0    0  501  502 -0.00000000000E+00 -0.00000000000E+00 -0.18515188214E+03  0.18515188214E+03  0.00000000000E+00 0. -1.
         25    1    1    2    0    0  0.16167871117E+03 -0.21165814589E+03  0.42681329183E+03  0.51839537272E+03  0.12500000000E+03 0.  0.
         25    1    1    2    0    0  0.25222904618E+02  0.16869163731E+03  0.13708781911E+03  0.25201415350E+03  0.12500000000E+03 0.  0.
         25    1    1    2    0    0 -0.18690161579E+03  0.42966508581E+02  0.78068207205E+02  0.24186355621E+03  0.12500000000E+03 0.  0.
</event>
<event>
 5    0  0.5829567E-005  0.2623423E+03  0.7546771E-02  0.1105744E+00
         21   -1    0    0  502  501  0.00000000000E+00  0.00000000000E+00  0.99826133603E+02  0.99826133603E+02  0.00000000000E+00 0.  1.
         21   -1    0    0  501  502 -0.00000000000E+00 -0.00000000000E+00 -0.68943343651E+03  0.68943343651E+03  0.00000000000E+00 0.  1.
         25    1    1    2    0    0 -0.55999994316E+02 -0.86304304915E+02 -0.32808020780E+03  0.36584977130E+03  0.12500000000E+03 0.  0.
         25    1    1    2    0    0  0.38386146193E+02  0.10192908193E+03 -0.24401644274E+03  0.29501196296E+03  0.12500000000E+03 0.  0.
         25    1    1    2    0    0  0.17613848123E+02 -0.15624777020E+02 -0.17510652357E+02  0.12839783584E+03  0.12500000000E+03 0.  0.
</event>
<event>
 5    0  0.5829567E-005  0.3739419E+03  0.7546771E-02  0.1053196E+00
         21   -1    0    0  502  501  0.00000000000E+00  0.00000000000E+00  0.22207768131E+03  0.22207768131E+03  0.00000000000E+00 0.  1.
         21   -1    0    0  501  502 -0.00000000000E+00 -0.00000000000E+00 -0.62965585239E+03  0.62965585239E+03  0.00000000000E+00 0.  1.
         25    1    1    2    0    0 -0.10515857342E+03  0.80323705372E+02 -0.25288353930E+03  0.31158515314E+03  0.12500000000E+03 0.  0.
         25    1    1    2    0    0  0.44214190341E+02 -0.21713549160E+03  0.47913900682E+02  0.25888889164E+03  0.12500000000E+03 0.  0.
         25    1    1    2    0    0  0.60944383074E+02  0.13681178622E+03 -0.20260853246E+03  0.28125948891E+03  0.12500000000E+03 0.  0.
</event>
<event>
 5    0  0.5829567E-005  0.2925585E+03  0.7546771E-02  0.1089021E+00
         21   -1    0    0  502  501  0.00000000000E+00  0.00000000000E+00  0.29684506731E+04  0.29684506731E+04  0.00000000000E+00 0. -1.
         21   -1    0    0  501  502 -0.00000000000E+00 -0.00000000000E+00 -0.28833378681E+02  0.28833378681E+02  0.00000000000E+00 0. -1.
         25    1    1    2    0    0 -0.49427216887E+02 -0.28933798558E+02  0.53735176727E+03  0.55466398500E+03  0.12500000000E+03 0.  0.
         25    1    1    2    0    0 -0.52024843694E+02  0.17143760328E+03  0.96906459373E+03  0.99338241529E+03  0.12500000000E+03 0.  0.
         25    1    1    2    0    0  0.10145206058E+03 -0.14250380472E+03  0.14332009334E+04  0.14492376515E+04  0.12500000000E+03 0.  0.
</event>
<event>
 5    0  0.5829567E-005  0.2277613E+03  0.7546771E-02  0.1128225E+00
         21   -1    0    0  502  501  0.00000000000E+00  0.00000000000E+00  0.93052942336E+03  0.93052942336E+03  0.00000000000E+00 0.  1.
         21   -1    0    0  501  502 -0.00000000000E+00 -0.00000000000E+00 -0.55748072495E+02  0.55748072495E+02  0.00000000000E+00 0.  1.
         25    1    1    2    0    0 -0.52540325513E+02 -0.71842509893E+02  0.25454725055E+03  0.29722236591E+03  0.12500000000E+03 0.  0.
         25    1    1    2    0    0  0.38021046596E+02  0.10596193208E+03  0.31406880771E+03  0.35628323987E+03  0.12500000000E+03 0.  0.
         25    1    1    2    0    0  0.14519278918E+02 -0.34119422189E+02  0.30616529260E+03  0.33277189008E+03  0.12500000000E+03 0.  0.
</event>
<event>
 5    0  0.5829567E-005  0.2367431E+03  0.7546771E-02  0.1121982E+00
         21   -1    0    0  502  501  0.00000000000E+00  0.00000000000E+00  0.11627667813E+04  0.11627667813E+04  0.00000000000E+00 0.  1.
         21   -1    0    0  501  502 -0.00000000000E+00 -0.00000000000E+00 -0.48201652851E+02  0.48201652851E+02  0.00000000000E+00 0.  1.
         25    1    1    2    0    0 -0.42434849102E+02  0.62594179049E+02  0.41877753099E+03  0.44352944449E+03  0.12500000000E+03 0.  0.
         25    1    1    2    0    0  0.71460793160E+02 -0.87137983957E+02  0.53164002674E+03  0.55764306795E+03  0.12500000000E+03 0.  0.
         25    1    1    2    0    0 -0.29025944058E+02  0.24543804908E+02  0.16414757069E+03  0.20979592168E+03  0.12500000000E+03 0.  0.
</event>
<event>
 5    0  0.5829567E-005  0.3192950E+03  0.7546771E-02  0.1075974E+00
         21   -1    0    0  502  501  0.00000000000E+00  0.00000000000E+00  0.42305182588E+03  0.42305182588E+03  0.00000000000E+00 0. -1.
         21   -1    0    0  501  502 -0.00000000000E+00 -0.00000000000E+00 -0.24098532166E+03  0.24098532166E+03  0.00000000000E+00 0. -1.
         25    1    1    2    0    0  0.11785031703E+03  0.12896582942E+03  0.21110068417E+02  0.21585068305E+03  0.12500000000E+03 0.  0.
         25    1    1    2    0    0 -0.70883102537E+02  0.82976060742E+02  0.43650593443E+02  0.17158034616E+03  0.12500000000E+03 0.  0.
         25    1    1    2    0    0 -0.46967214497E+02 -0.21194189016E+03  0.11730584236E+03  0.27660611832E+03  0.12500000000E+03 0.  0.
</event>
<event>
 5    0  0.5829567E-005  0.2656115E+03  0.7546771E-02  0.1103818E+00
         21   -1    0    0  502  501  0.00000000000E+00  0.00000000000E+00  0.13292650785E+03  0.13292650785E+03  0.00000000000E+00 0. -1.
         21   -1    0    0  501  502 -0.00000000000E+00 -0.00000000000E+00 -0.53074052802E+03  0.53074052802E+03  0.00000000000E+00 0.  1.
         25    1    1    2    0    0 -0.10783759133E+03  0.94260137587E+02 -0.25018378915E+03  0.31421465274E+03  0.12500000000E+03 0.  0.
         25    1    1    2    0    0  0.66040123418E+02 -0.61940554770E+01 -0.14136633144E+02  0.14221289893E+03  0.12500000000E+03 0.  0.
         25    1    1    2    0    0  0.41797467914E+02 -0.88066082110E+02 -0.13349359787E+03  0.20723948421E+03  0.12500000000E+03 0.  0.
</event>
<event>
 5    0  0.5829567E-005  0.4290121E+03  0.7546771E-02  0.1034172E+00
         21   -1    0    0  502  501  0.00000000000E+00  0.00000000000E+00  0.19018070937E+03  0.19018070937E+03  0.00000000000E+00 0. -1.
         21   -1    0    0  501  502 -0.00000000000E+00 -0.00000000000E+00 -0.96777125488E+03  0.96777125488E+03  0.00000000000E+00 0. -1.
         25    1    1    2    0    0  0.18507915728E+03  0.23956684151E+01 -0.16510633866E+03  0.27775013367E+03  0.12500000000E+03 0.  0.
         25    1    1    2    0    0  0.94245467281E+02  0.93869626407E+02 -0.51272263606E+03  0.54424554789E+03  0.12500000000E+03 0.  0.
         25    1    1    2    0    0 -0.27932462456E+03 -0.96265294822E+02 -0.99761570790E+02  0.33595628269E+03  0.12500000000E+03 0.  0.
</event>
<event>
 5    0  0.5829567E-005  0.4138018E+03  0.7546771E-02  0.1039103E+00
         21   -1    0    0  502  501  0.00000000000E+00  0.00000000000E+00  0.54083965565E+03  0.54083965565E+03  0.00000000000E+00 0.  1.
         21   -1    0    0  501  502 -0.00000000000E+00 -0.00000000000E+00 -0.31660383651E+03  0.31660383651E+03  0.00000000000E+00 0.  1.
         25    1    1    2    0    0  0.25668484573E+03 -0.92187909811E+02  0.77642188788E+02  0.30990164604E+03  0.12500000000E+03 0.  0.
         25    1    1    2    0    0  0.27894005239E+02 -0.91389873462E+02 -0.15361032772E+01  0.15734530216E+03  0.12500000000E+03 0.  0.
         25    1    1    2    0    0 -0.28457885097E+03  0.18357778327E+03  0.14812973362E+03  0.39019654395E+03  0.12500000000E+03 0.  0.
</event>
<event>
 5    0  0.5829567E-005  0.2742140E+03  0.7546771E-02  0.1098892E+00
         21   -1    0    0  502  501  0.00000000000E+00  0.00000000000E+00  0.80048227007E+03  0.80048227007E+03  0.00000000000E+00 0. -1.
         21   -1    0    0  501  502 -0.00000000000E+00 -0.00000000000E+00 -0.93935043944E+02  0.93935043944E+02  0.00000000000E+00 0. -1.
         25    1    1    2    0    0  0.53580386583E+02 -0.10650309247E+01  0.73251182091E+02  0.15447565438E+03  0.12500000000E+03 0.  0.
         25    1    1    2    0    0  0.54139393729E+02 -0.16942112507E+02  0.72793558704E+02  0.15537699739E+03  0.12500000000E+03 0.  0.
         25    1    1    2    0    0 -0.10771978031E+03  0.18007143431E+02  0.56050248533E+03  0.58456466225E+03  0.12500000000E+03 0.  0.
</event>
<event>
 5    0  0.5829567E-005  0.5955565E+03  0.7546771E-02  0.9914668E-01
         21   -1    0    0  502  501  0.00000000000E+00  0.00000000000E+00  0.28130134712E+03  0.28130134712E+03  0.00000000000E+00 0. -1.
         21   -1    0    0  501  502 -0.00000000000E+00 -0.00000000000E+00 -0.12608812335E+04  0.12608812335E+04  0.00000000000E+00 0. -1.
         25    1    1    2    0    0 -0.31216366604E+03  0.17973757586E+03 -0.64464998220E+03  0.74896618757E+03  0.12500000000E+03 0.  0.
         25    1    1    2    0    0  0.94101317794E+02  0.15984638971E+03 -0.29305314689E+03  0.36866119027E+03  0.12500000000E+03 0.  0.
         25    1    1    2    0    0  0.21806234825E+03 -0.33958396557E+03 -0.41876757289E+02  0.42455520277E+03  0.12500000000E+03 0.  0.
</event>
<event>
 5    0  0.5829567E-005  0.2582670E+03  0.7546771E-02  0.1108189E+00
         21   -1    0    0  502  501  0.00000000000E+00  0.00000000000E+00  0.22693975655E+03  0.22693975655E+03  0.00000000000E+00 0.  1.
         21   -1    0    0  501  502 -0.00000000000E+00 -0.00000000000E+00 -0.29391870921E+03  0.29391870921E+03  0.00000000000E+00 0.  1.
         25    1    1    2    0    0 -0.34487404964E+01  0.17528435286E+01  0.57461555249E+02  0.13762919967E+03  0.12500000000E+03 0.  0.
         25    1    1    2    0    0  0.89832635801E+02  0.41267850678E+02 -0.15507808864E+03  0.22236715479E+03  0.12500000000E+03 0.  0.
         25    1    1    2    0    0 -0.86383895305E+02 -0.43020694206E+02  0.30637580732E+02  0.16086211130E+03  0.12500000000E+03 0.  0.
</event>
<event>
 5    0  0.5829567E-005  0.2486206E+03  0.7546771E-02  0.1114180E+00
         21   -1    0    0  502  501  0.00000000000E+00  0.00000000000E+00  0.89994850491E+03  0.89994850491E+03  0.00000000000E+00 0. -1.
         21   -1    0    0  501  502 -0.00000000000E+00 -0.00000000000E+00 -0.68684166411E+02  0.68684166411E+02  0.00000000000E+00 0. -1.
         25    1    1    2    0    0 -0.13029594293E+02 -0.70114349923E+02  0.39861095237E+03  0.42379415255E+03  0.12500000000E+03 0.  0.
         25    1    1    2    0    0 -0.15678255333E+02  0.71300678328E+02  0.71232235400E+02  0.16133389532E+03  0.12500000000E+03 0.  0.
         25    1    1    2    0    0  0.28707849626E+02 -0.11863284046E+01  0.36142115073E+03  0.38350462344E+03  0.12500000000E+03 0.  0.
</event>
<event>
 5    0  0.5829567E-005  0.2945144E+03  0.7546771E-02  0.1088015E+00
         21   -1    0    0  502  501  0.00000000000E+00  0.00000000000E+00  0.11056462718E+03  0.11056462718E+03  0.00000000000E+00 0.  1.
         21   -1    0    0  501  502 -0.00000000000E+00 -0.00000000000E+00 -0.78450721510E+03  0.78450721510E+03  0.00000000000E+00 0.  1.
         25    1    1    2    0    0  0.88097214110E+01 -0.66510555600E+02 -0.12394295706E+03  0.18838291272E+03  0.12500000000E+03 0.  0.
         25    1    1    2    0    0 -0.13792202150E+03 -0.39303902679E+02 -0.10996626370E+03  0.21973816221E+03  0.12500000000E+03 0.  0.
         25    1    1    2    0    0  0.12911230009E+03  0.10581445828E+03 -0.44003336716E+03  0.48695076735E+03  0.12500000000E+03 0.  0.
</event>
<event>
 5    0  0.5829567E-005  0.3535820E+03  0.7546771E-02  0.1061154E+00
         21   -1    0    0  502  501  0.00000000000E+00  0.00000000000E+00  0.20246214443E+03  0.20246214443E+03  0.00000000000E+00 0. -1.
         21   -1    0    0  501  502 -0.00000000000E+00 -0.00000000000E+00 -0.61749931907E+03  0.61749931907E+03  0.00000000000E+00 0. -1.
         25    1    1    2    0    0 -0.63763978217E+02 -0.15900320899E+03 -0.10531723116E+03  0.23677961180E+03  0.12500000000E+03 0.  0.
         25    1    1    2    0    0  0.20727946148E+03  0.16450755742E+03 -0.12612769814E+03  0.31868590781E+03  0.12500000000E+03 0.  0.
         25    1    1    2    0    0 -0.14351548326E+03 -0.55043484310E+01 -0.18359224534E+03  0.26449594389E+03  0.12500000000E+03 0.  0.
</event>
<event>
 5    0  0.5829567E-005  0.2902961E+03  0.7546771E-02  0.1090195E+00
         21   -1    0    0  502  501  0.00000000000E+00  0.00000000000E+00  0.24493574411E+03  0.24493574411E+03  0.00000000000E+00 0.  1.
         21   -1    0    0  501  502 -0.00000000000E+00 -0.00000000000E+00 -0.34405690385E+03  0.34405690385E+03  0.00000000000E+00 0.  1.
         25    1    1    2    0    0  0.52177161470E+02  0.12774853487E+03 -0.76993278138E+02  0.20148228016E+03  0.12500000000E+03 0.  0.
         25    1    1    2    0    0 -0.13504702606E+03  0.25316570514E+01 -0.39046993003E+02  0.18813233693E+03  0.12500000000E+03 0.  0.
         25    1    1    2    0    0  0.82869864593E+02 -0.13028019192E+03  0.16919111398E+02  0.19937803087E+03  0.12500000000E+03 0.  0.
</event>
<event>
 5    0  0.6068731E-005  0.2872433E+03  0.7546771E-02  0.1091797E+00
         21   -1    0    0  502  501  0.00000000000E+00  0.00000000000E+00  0.17256427499E+03  0.17256427499E+03  0.00000000000E+00 0. -1.
         21   -1    0    0  501  502 -0.00000000000E+00 -0.00000000000E+00 -0.47813323491E+03  0.47813323491E+03  0.00000000000E+00 0. -1.
         25    1    1    2    0    0  0.11196656758E+03 -0.11268923852E+03 -0.91386162244E+01  0.20234596868E+03  0.12500000000E+03 0.  0.
         25    1    1    2    0    0 -0.13076317478E+02 -0.72194755033E+01 -0.17242252113E+03  0.21348919574E+03  0.12500000000E+03 0.  0.
         25    1    1    2    0    0 -0.98890250103E+02  0.11990871402E+03 -0.12400782256E+03  0.23486234547E+03  0.12500000000E+03 0.  0.
</event>
<event>
 5    0  0.5829567E-005  0.3252573E+03  0.7546771E-02  0.1073255E+00
         21   -1    0    0  502  501  0.00000000000E+00  0.00000000000E+00  0.88669561727E+02  0.88669561727E+02  0.00000000000E+00 0.  1.
         21   -1    0    0  501  502 -0.00000000000E+00 -0.00000000000E+00 -0.11931076203E+04  0.11931076203E+04  0.00000000000E+00 0.  1.
         25    1    1    2    0    0 -0.35334807325E+02  0.17896734257E+03 -0.40188423930E+03  0.45870884024E+03  0.12500000000E+03 0.  0.
         25    1    1    2    0    0 -0.10430813651E+03 -0.49025530904E+02 -0.45866315459E+03  0.48916314190E+03  0.12500000000E+03 0.  0.
         25    1    1    2    0    0  0.13964294383E+03 -0.12994181167E+03 -0.24389066466E+03  0.33390519985E+03  0.12500000000E+03 0.  0.
</event>
<event>
 5    0  0.5829567E-005  0.3245638E+03  0.7546771E-02  0.1073568E+00
         21   -1    0    0  502  501  0.00000000000E+00  0.00000000000E+00  0.43707074046E+02  0.43707074046E+02  0.00000000000E+00 0.  1.
         21   -1    0    0  501  502 -0.00000000000E+00 -0.00000000000E+00 -0.24101744431E+04  0.24101744431E+04  0.00000000000E+00 0.  1.
         25    1    1    2    0    0 -0.12340408509E+03  0.26312832113E+02 -0.37124862239E+03  0.41154765578E+03  0.12500000000E+03 0.  0.
         25    1    1    2    0    0 -0.28879965930E+02 -0.15301468655E+03 -0.81612759505E+03  0.84020045116E+03  0.12500000000E+03 0.  0.
         25    1    1    2    0    0  0.15228405102E+03  0.12670185444E+03 -0.11790911516E+04  0.12021334102E+04  0.12500000000E+03 0.  0.
</event>
<event>
 5    0  0.5829567E-005  0.3853050E+03  0.7546771E-02  0.1048990E+00
         21   -1    0    0  502  501  0.00000000000E+00  0.00000000000E+00  0.70176350451E+03  0.70176350451E+03  0.00000000000E+00 0.  1.
         21   -1    0    0  501  502 -0.00000000000E+00 -0.00000000000E+00 -0.21155263130E+03  0.21155263130E+03  0.00000000000E+00 0.  1.
         25    1    1    2    0    0  0.59816350958E+02 -0.17554663664E+03  0.71739100145E+01  0.22376568652E+03  0.12500000000E+03 0.  0.
         25    1    1    2    0    0 -0.19015901111E+03  0.24115364468E+02  0.12457050384E+03  0.26054713726E+03  0.12500000000E+03 0.  0.
         25    1    1    2    0    0  0.13034266015E+03  0.15143127218E+03  0.35846645936E+03  0.42900331203E+03  0.12500000000E+03 0.  0.
</event>
<event>
 5    0  0.5829567E-005  0.3166480E+03  0.7546771E-02  0.1077202E+00
         21   -1    0    0  502  501  0.00000000000E+00  0.00000000000E+00  0.12405211613E+03  0.12405211613E+03  0.00000000000E+00 0.  1.
         21   -1    0    0  501  502 -0.00000000000E+00 -0.00000000000E+00 -0.80825656520E+03  0.80825656520E+03  0.00000000000E+00 0.  1.
         25    1    1    2    0    0  0.30952624372E+01 -0.26429351705E+02 -0.22858558496E+03  0.26188635118E+03  0.12500000000E+03 0.  0.
         25    1    1    2    0    0  0.34816759902E+02 -0.67126315846E+02 -0.48549348978E+03  0.50699810420E+03  0.12500000000E+03 0.  0.
         25    1    1    2    0    0 -0.37912022339E+02  0.93555667551E+02  0.29874625671E+02  0.16342422595E+03  0.12500000000E+03 0.  0.
</event>
<event>
 5    0  0.5829567E-005  0.5245685E+03  0.7546771E-02  0.1007558E+00
         21   -1    0    0  502  501  0.00000000000E+00  0.00000000000E+00  0.32012258102E+03  0.32012258102E+03  0.00000000000E+00 0. -1.
         21   -1    0    0  501  502 -0.00000000000E+00 -0.00000000000E+00 -0.85958343095E+03  0.85958343095E+03  0.00000000000E+00 0. -1.
         25    1    1    2    0    0 -0.41070236060E+03  0.20113306537E+02 -0.10221088098E+03  0.44176129107E+03  0.12500000000E+03 0.  0.
         25    1    1    2    0    0  0.31833128966E+03  0.12500196153E+03 -0.18628396425E+03  0.40900735409E+03  0.12500000000E+03 0.  0.
         25    1    1    2    0    0  0.92371070939E+02 -0.14511526807E+03 -0.25096600469E+03  0.32893736681E+03  0.12500000000E+03 0.  0.
</event>
<event>
 5    0  0.5829567E-005  0.2900974E+03  0.7546771E-02  0.1090298E+00
         21   -1    0    0  502  501  0.00000000000E+00  0.00000000000E+00  0.65491836545E+03  0.65491836545E+03  0.00000000000E+00 0. -1.
         21   -1    0    0  501  502 -0.00000000000E+00 -0.00000000000E+00 -0.12849924737E+03  0.12849924737E+03  0.00000000000E+00 0. -1.
         25    1    1    2    0    0  0.11997213438E+03  0.37622179074E+02  0.10721639121E+03  0.20719337810E+03  0.12500000000E+03 0.  0.
         25    1    1    2    0    0 -0.49846828231E+01 -0.99319184801E+02  0.34631157058E+03  0.38137363759E+03  0.12500000000E+03 0.  0.
         25    1    1    2    0    0 -0.11498745156E+03  0.61697005727E+02  0.72891156296E+02  0.19485059712E+03  0.12500000000E+03 0.  0.
</event>
<event>
 5    0  0.5829567E-005  0.3285524E+03  0.7546771E-02  0.1071779E+00
         21   -1    0    0  502  501  0.00000000000E+00  0.00000000000E+00  0.16507166151E+03  0.16507166151E+03  0.00000000000E+00 0. -1.
         21   -1    0    0  501  502 -0.00000000000E+00 -0.00000000000E+00 -0.65393834463E+03  0.65393834463E+03  0.00000000000E+00 0. -1.
         25    1    1    2    0    0 -0.19788301810E+03  0.15497524491E+02 -0.21484603794E+03  0.31809068226E+03  0.12500000000E+03 0.  0.
         25    1    1    2    0    0  0.14206953387E+03 -0.23194526400E+02  0.42584778302E+01  0.19069576068E+03  0.12500000000E+03 0.  0.
         25    1    1    2    0    0  0.55813484237E+02  0.76970019097E+01 -0.27827912301E+03  0.31022356320E+03  0.12500000000E+03 0.  0.
</event>
<event>
 5    0  0.5829567E-005  0.2711634E+03  0.7546771E-02  0.1100616E+00
         21   -1    0    0  502  501  0.00000000000E+00  0.00000000000E+00  0.89568281711E+03  0.89568281711E+03  0.00000000000E+00 0. -1.
         21   -1    0    0  501  502 -0.00000000000E+00 -0.00000000000E+00 -0.82093342978E+02  0.82093342978E+02  0.00000000000E+00 0. -1.
         25    1    1    2    0    0 -0.57044600371E+02  0.18269901707E+02  0.10722730647E+03  0.17524431801E+03  0.12500000000E+03 0.  0.
         25    1    1    2    0    0  0.55006411662E+02  0.12202969472E+03  0.25812500361E+03  0.31649718673E+03  0.12500000000E+03 0.  0.
         25    1    1    2    0    0  0.20381887097E+01 -0.14029959643E+03  0.44823716405E+03  0.48603465536E+03  0.12500000000E+03 0.  0.
</event>
<event>
 5    0  0.5829567E-005  0.2472307E+03  0.7546771E-02  0.1115068E+00
         21   -1    0    0  502  501  0.00000000000E+00  0.00000000000E+00  0.30410197288E+03  0.30410197288E+03  0.00000000000E+00 0. -1.
         21   -1    0    0  501  502 -0.00000000000E+00 -0.00000000000E+00 -0.20099517699E+03  0.20099517699E+03  0.00000000000E+00 0. -1.
         25    1    1    2    0    0  0.54968403687E+02  0.35019687571E+02 -0.68220528058E+02  0.15661080541E+03  0.12500000000E+03 0.  0.
         25    1    1    2    0    0  0.42111814969E+01 -0.11098124752E+02  0.16585685518E+03  0.20802499569E+03  0.12500000000E+03 0.  0.
         25    1    1    2    0    0 -0.59179585183E+02 -0.23921562819E+02  0.54704687639E+01  0.14046134877E+03  0.12500000000E+03 0.  0.
</event>
<event>
 5    0  0.5829567E-005  0.2670806E+03  0.7546771E-02  0.1102962E+00
         21   -1    0    0  502  501  0.00000000000E+00  0.00000000000E+00  0.13223177307E+04  0.13223177307E+04  0.00000000000E+00 0. -1.
         21   -1    0    0  501  502 -0.00000000000E+00 -0.00000000000E+00 -0.53944698064E+02  0.53944698064E+02  0.00000000000E+00 0. -1.
         25    1    1    2    0    0  0.45353158661E+02  0.25827507875E+02  0.11895077063E+03  0.18027272394E+03  0.12500000000E+03 0.  0.
         25    1    1    2    0    0 -0.93986837880E+02 -0.61162344402E+02  0.39966932413E+03  0.43351462111E+03  0.12500000000E+03 0.  0.
         25    1    1    2    0    0  0.48633679219E+02  0.35334836527E+02  0.74975293783E+03  0.76247508366E+03  0.12500000000E+03 0.  0.
</event>
<event>
 5    0  0.6414553E-005  0.2730887E+03  0.7546771E-02  0.1099525E+00
         21   -1    0    0  502  501  0.00000000000E+00  0.00000000000E+00  0.44111311475E+03  0.44111311475E+03  0.00000000000E+00 0.  1.
         21   -1    0    0  501  502 -0.00000000000E+00 -0.00000000000E+00 -0.16906647949E+03  0.16906647949E+03  0.00000000000E+00 0.  1.
         25    1    1    2    0    0 -0.94685638065E+02 -0.12121654633E+02  0.15736682954E+02  0.15806627647E+03  0.12500000000E+03 0.  0.
         25    1    1    2    0    0 -0.46779377281E+02  0.68426036761E+02  0.31597706825E+02  0.15327702934E+03  0.12500000000E+03 0.  0.
         25    1    1    2    0    0  0.14146501535E+03 -0.56304382128E+02  0.22471224549E+03  0.29883628843E+03  0.12500000000E+03 0.  0.
</event>
<event>
 5    0  0.5829567E-005  0.2551058E+03  0.7546771E-02  0.1110120E+00
         21   -1    0    0  502  501  0.00000000000E+00  0.00000000000E+00  0.68270360462E+02  0.68270360462E+02  0.00000000000E+00 0.  1.
         21   -1    0    0  501  502 -0.00000000000E+00 -0.00000000000E+00 -0.95325397158E+03  0.95325397158E+03  0.00000000000E+00 0.  1.
         25    1    1    2    0    0  0.50597240573E+02  0.84097746957E+02 -0.20409584806E+03  0.25867475136E+03  0.12500000000E+03 0.  0.
         25    1    1    2    0    0  0.24161285492E+02 -0.28893266144E+02 -0.10882333099E+03  0.16995913012E+03  0.12500000000E+03 0.  0.
         25    1    1    2    0    0 -0.74758526065E+02 -0.55204480813E+02 -0.57206443208E+03  0.59289045056E+03  0.12500000000E+03 0.  0.
</event>
<event>
 5    0  0.5829567E-005  0.2790805E+03  0.7546771E-02  0.1096192E+00
         21   -1    0    0  502  501  0.00000000000E+00  0.00000000000E+00  0.15415918356E+04  0.15415918356E+04  0.00000000000E+00 0.  1.
         21   -1    0    0  501  502 -0.00000000000E+00 -0.00000000000E+00 -0.50523034956E+02  0.50523034956E+02  0.00000000000E+00 0.  1.
         25    1    1    2    0    0 -0.65380507537E+02 -0.23302389692E+02  0.41491186215E+03  0.43885585957E+03  0.12500000000E+03 0.  0.
         25    1    1    2    0    0  0.11410290640E+03  0.84050424905E+02  0.24632134997E+03  0.31045636510E+03  0.12500000000E+03 0.  0.
         25    1    1    2    0    0 -0.48722398865E+02 -0.60748035214E+02  0.82983558852E+03  0.84280264588E+03  0.12500000000E+03 0.  0.
</event>
<event>
 5    0  0.5829567E-005  0.2692196E+03  0.7546771E-02  0.1101727E+00
         21   -1    0    0  502  501  0.00000000000E+00  0.00000000000E+00  0.13230700492E+03  0.13230700492E+03  0.00000000000E+00 0. -1.
         21   -1    0    0  501  502 -0.00000000000E+00 -0.00000000000E+00 -0.54781089724E+03  0.54781089724E+03  0.00000000000E+00 0. -1.
         25    1    1    2    0    0  0.43488949430E+02 -0.29925682072E+02 -0.59589030232E+02  0.14819813661E+03  0.12500000000E+03 0.  0.
         25    1    1    2    0    0 -0.82770656481E+02  0.50278270325E+02 -0.36624212624E+03  0.39892001840E+03  0.12500000000E+03 0.  0.
         25    1    1    2    0    0  0.39281707051E+02 -0.20352588252E+02  0.10327264157E+02  0.13299974715E+03  0.12500000000E+03 0.  0.
</event>
<event>
 5    0  0.5829567E-005  0.2393828E+03  0.7546771E-02  0.1120205E+00
         21   -1    0    0  502  501  0.00000000000E+00  0.00000000000E+00  0.73531365545E+02  0.73531365545E+02  0.00000000000E+00 0.  1.
         21   -1    0    0  501  502 -0.00000000000E+00 -0.00000000000E+00 -0.77931546996E+03  0.77931546996E+03  0.00000000000E+00 0.  1.
         25    1    1    2    0    0  0.12018916424E+03 -0.38586491068E+02 -0.33368436794E+03  0.37802726079E+03  0.12500000000E+03 0.  0.
         25    1    1    2    0    0 -0.82198022710E+02 -0.50344565305E+01 -0.24663873086E+03  0.28850914067E+03  0.12500000000E+03 0.  0.
         25    1    1    2    0    0 -0.37991141526E+02  0.43620947599E+02 -0.12546100562E+03  0.18631043405E+03  0.12500000000E+03 0.  0.
</event>
<event>
 5    0  0.6540390E-005  0.2996080E+03  0.7546771E-02  0.1085437E+00
         21   -1    0    0  502  501  0.00000000000E+00  0.00000000000E+00  0.56765038332E+03  0.56765038332E+03  0.00000000000E+00 0. -1.
         21   -1    0    0  501  502 -0.00000000000E+00 -0.00000000000E+00 -0.15813424352E+03  0.15813424352E+03  0.00000000000E+00 0. -1.
         25    1    1    2    0    0 -0.10814703208E+01 -0.11775937012E+03  0.36519567282E+03  0.40356079874E+03  0.12500000000E+03 0.  0.
         25    1    1    2    0    0  0.79898715761E+02  0.49601070338E+02  0.21539299220E+02  0.15790190743E+03  0.12500000000E+03 0.  0.
         25    1    1    2    0    0 -0.78817245440E+02  0.68158299779E+02  0.22781167756E+02  0.16432192067E+03  0.12500000000E+03 0.  0.
</event>
<event>
 5    0  0.5829567E-005  0.3066073E+03  0.7546771E-02  0.1081984E+00
         21   -1    0    0  502  501  0.00000000000E+00  0.00000000000E+00  0.80725768200E+02  0.80725768200E+02  0.00000000000E+00 0.  1.
         21   -1    0    0  501  502 -0.00000000000E+00 -0.00000000000E+00 -0.11645359367E+04  0.11645359367E+04  0.00000000000E+00 0.  1.
         25    1    1    2    0    0  0.19057101685E+00 -0.21875327745E+00  0.72766490504E+01  0.12521195547E+03  0.12500000000E+03 0.  0.
         25    1    1    2    0    0 -0.10520056338E+02 -0.62224575356E+01 -0.61361296272E+03  0.62633478155E+03  0.12500000000E+03 0.  0.
         25    1    1    2    0    0  0.10329485321E+02  0.64412108130E+01 -0.47747385482E+03  0.49371496788E+03  0.12500000000E+03 0.  0.
</event>
<event>
 5    0  0.5829567E-005  0.4097951E+03  0.7546771E-02  0.1040440E+00
         21   -1    0    0  502  501  0.00000000000E+00  0.00000000000E+00  0.47794350285E+03  0.47794350285E+03  0.00000000000E+00 0. -1.
         21   -1    0    0  501  502 -0.00000000000E+00 -0.00000000000E+00 -0.35136376796E+03  0.35136376796E+03  0.00000000000E+00 0. -1.
         25    1    1    2    0    0  0.61505481056E+02 -0.21257307144E+03  0.16677875995E+03  0.30399077235E+03  0.12500000000E+03 0.  0.
         25    1    1    2    0    0 -0.14460676821E+03  0.16577020002E+03 -0.18352359151E+03  0.31256484970E+03  0.12500000000E+03 0.  0.
         25    1    1    2    0    0  0.83101287151E+02  0.46802871418E+02  0.14332456646E+03  0.21275164876E+03  0.12500000000E+03 0.  0.
</event>
<event>
 5    0  0.5829567E-005  0.3850585E+03  0.7546771E-02  0.1049080E+00
         21   -1    0    0  502  501  0.00000000000E+00  0.00000000000E+00  0.98639018416E+03  0.98639018416E+03  0.00000000000E+00 0. -1.
         21   -1    0    0  501  502 -0.00000000000E+00 -0.00000000000E+00 -0.15031582742E+03  0.15031582742E+03  0.00000000000E+00 0. -1.
         25    1    1    2    0    0  0.23909729010E+03  0.26610526997E+02  0.11113010013E+03  0.29300261677E+03  0.12500000000E+03 0.  0.
         25    1    1    2    0    0 -0.42982145493E+02 -0.93388255495E+02  0.44590671542E+03  0.47436971863E+03  0.12500000000E+03 0.  0.
         25    1    1    2    0    0 -0.19611514461E+03  0.66777728498E+02  0.27903754118E+03  0.36933367617E+03  0.12500000000E+03 0.  0.
</event>
<event>
 5    0  0.5829567E-005  0.2188614E+03  0.7546771E-02  0.1134735E+00
         21   -1    0    0  502  501  0.00000000000E+00  0.00000000000E+00  0.47519957395E+03  0.47519957395E+03  0.00000000000E+00 0. -1.
         21   -1    0    0  501  502 -0.00000000000E+00 -0.00000000000E+00 -0.10080036813E+03  0.10080036813E+03  0.00000000000E+00 0. -1.
         25    1    1    2    0    0  0.29343866624E+02 -0.81031381177E+02  0.19933259779E+03  0.25057061237E+03  0.12500000000E+03 0.  0.
         25    1    1    2    0    0 -0.13603451205E+02  0.63473132477E+01  0.61608095118E+02  0.14016383148E+03  0.12500000000E+03 0.  0.
         25    1    1    2    0    0 -0.15740415419E+02  0.74684067929E+02  0.11345851291E+03  0.18526549822E+03  0.12500000000E+03 0.  0.
</event>
<event>
 5    0  0.6620506E-005  0.2884524E+03  0.7546771E-02  0.1091160E+00
         21   -1    0    0  502  501  0.00000000000E+00  0.00000000000E+00  0.66541347107E+03  0.66541347107E+03  0.00000000000E+00 0. -1.
         21   -1    0    0  501  502 -0.00000000000E+00 -0.00000000000E+00 -0.12504221703E+03  0.12504221703E+03  0.00000000000E+00 0. -1.
         25    1    1    2    0    0  0.92564931360E+01  0.13722160055E+03  0.30882814502E+03  0.36043761385E+03  0.12500000000E+03 0.  0.
         25    1    1    2    0    0 -0.24437425307E+02 -0.68712398407E+02  0.24655013793E+03  0.28588555746E+03  0.12500000000E+03 0.  0.
         25    1    1    2    0    0  0.15180932171E+02 -0.68509202142E+02 -0.15007028914E+02  0.14413251679E+03  0.12500000000E+03 0.  0.
</event>
<event>
 5    0  0.5829567E-005  0.2168470E+03  0.7546771E-02  0.1136256E+00
         21   -1    0    0  502  501  0.00000000000E+00  0.00000000000E+00  0.17101446125E+04  0.17101446125E+04  0.00000000000E+00 0. -1.
         21   -1    0    0  501  502 -0.00000000000E+00 -0.00000000000E+00 -0.27496275114E+02  0.27496275114E+02  0.00000000000E+00 0. -1.
         25    1    1    2    0    0  0.66910199662E+00 -0.14910936179E+02  0.27894175190E+03  0.30603314309E+03  0.12500000000E+03 0.  0.
         25    1    1    2    0    0 -0.54666609344E+02  0.38277464479E+02  0.63910675993E+03  0.65462665165E+03  0.12500000000E+03 0.  0.
         25    1    1    2    0    0  0.53997507348E+02 -0.23366528300E+02  0.76459982555E+03  0.77698109287E+03  0.12500000000E+03 0.  0.
</event>
<event>
 5    0  0.5829567E-005  0.2663503E+03  0.7546771E-02  0.1103387E+00
         21   -1    0    0  502  501  0.00000000000E+00  0.00000000000E+00  0.23288058869E+03  0.23288058869E+03  0.00000000000E+00 0.  1.
         21   -1    0    0  501  502 -0.00000000000E+00 -0.00000000000E+00 -0.30463023611E+03  0.30463023611E+03  0.00000000000E+00 0.  1.
         25    1    1    2    0    0  0.16911554315E+02 -0.17006807051E+03  0.24663746560E+01  0.21175512339E+03  0.12500000000E+03 0.  0.
         25    1    1    2    0    0  0.31040720167E+02  0.97215005121E+02 -0.61923429088E+02  0.17284037317E+03  0.12500000000E+03 0.  0.
         25    1    1    2    0    0 -0.47952274481E+02  0.72853065393E+02 -0.12292592986E+02  0.15291532823E+03  0.12500000000E+03 0.  0.
</event>
<event>
 5    0  0.5829567E-005  0.3330509E+03  0.7546771E-02  0.1069795E+00
         21   -1    0    0  502  501  0.00000000000E+00  0.00000000000E+00  0.25768319503E+03  0.25768319503E+03  0.00000000000E+00 0. -1.
         21   -1    0    0  501  502 -0.00000000000E+00 -0.00000000000E+00 -0.43046236776E+03  0.43046236776E+03  0.00000000000E+00 0. -1.
         25    1    1    2    0    0  0.68493010555E+01  0.23497936603E+03  0.35492588597E+02  0.26860182284E+03  0.12500000000E+03 0.  0.
         25    1    1    2    0    0  0.42596003315E+02 -0.64854504196E+02 -0.76591186509E+02  0.16586662131E+03  0.12500000000E+03 0.  0.
         25    1    1    2    0    0 -0.49445304371E+02 -0.17012486184E+03 -0.13168057482E+03  0.25367711865E+03  0.12500000000E+03 0.  0.
</event>
<event>
 5    0  0.5829567E-005  0.3225673E+03  0.7546771E-02  0.1074474E+00
         21   -1    0    0  502  501  0.00000000000E+00  0.00000000000E+00  0.13350795184E+03  0.13350795184E+03  0.00000000000E+00 0.  1.
         21   -1    0    0  501  502 -0.00000000000E+00 -0.00000000000E+00 -0.77935161314E+03  0.77935161314E+03  0.00000000000E+00 0.  1.
         25    1    1    2    0    0 -0.57292191176E+02 -0.70504335801E+02 -0.23460790210E+03  0.28092547813E+03  0.12500000000E+03 0.  0.
         25    1    1    2    0    0  0.19388285508E+03 -0.32205217714E+02 -0.33264412961E+03  0.40608478733E+03  0.12500000000E+03 0.  0.
         25    1    1    2    0    0 -0.13659066390E+03  0.10270955351E+03 -0.78591629590E+02  0.22584929951E+03  0.12500000000E+03 0.  0.
</event>
<event>
 5    0  0.5829567E-005  0.2755932E+03  0.7546771E-02  0.1098120E+00
         21   -1    0    0  502  501  0.00000000000E+00  0.00000000000E+00  0.57533384223E+02  0.57533384223E+02  0.00000000000E+00 0.  1.
         21   -1    0    0  501  502 -0.00000000000E+00 -0.00000000000E+00 -0.13201310630E+04  0.13201310630E+04  0.00000000000E+00 0.  1.
         25    1    1    2    0    0 -0.57363550389E+02  0.10349970443E+03 -0.73117172611E+03  0.75115901033E+03  0.12500000000E+03 0.  0.
         25    1    1    2    0    0  0.67295090763E+02 -0.44378261029E+02 -0.11619754319E+03  0.18874567104E+03  0.12500000000E+03 0.  0.
         25    1    1    2    0    0 -0.99315403741E+01 -0.59121443403E+02 -0.41522840943E+03  0.43775976581E+03  0.12500000000E+03 0.  0.
</event>
<event>
 5    0  0.5829567E-005  0.2748483E+03  0.7546771E-02  0.1098536E+00
         21   -1    0    0  502  501  0.00000000000E+00  0.00000000000E+00  0.12205488706E+03  0.12205488706E+03  0.00000000000E+00 0. -1.
         21   -1    0    0  501  502 -0.00000000000E+00 -0.00000000000E+00 -0.61891475624E+03  0.61891475624E+03  0.00000000000E+00 0. -1.
         25    1    1    2    0    0  0.67810936691E+02 -0.20272362269E+02 -0.26485502851E+03  0.30130130755E+03  0.12500000000E+03 0.  0.
         25    1    1    2    0    0 -0.71265756019E+02  0.13294470913E+03 -0.17284415639E+03  0.26125314556E+03  0.12500000000E+03 0.  0.
         25    1    1    2    0    0  0.34548193281E+01 -0.11267234687E+03 -0.59160684290E+02  0.17841519019E+03  0.12500000000E+03 0.  0.
</event>
<event>
 5    0  0.5829567E-005  0.2912892E+03  0.7546771E-02  0.1089678E+00
         21   -1    0    0  502  501  0.00000000000E+00  0.00000000000E+00  0.16356925405E+03  0.16356925405E+03  0.00000000000E+00 0. -1.
         21   -1    0    0  501  502 -0.00000000000E+00 -0.00000000000E+00 -0.51873673081E+03  0.51873673081E+03  0.00000000000E+00 0. -1.
         25    1    1    2    0    0 -0.49616409225E+02 -0.29982497806E+02 -0.18803494227E+03  0.23311558883E+03  0.12500000000E+03 0.  0.
         25    1    1    2    0    0 -0.99000863264E+02  0.12225216188E+03 -0.65132729177E+02  0.21122034566E+03  0.12500000000E+03 0.  0.
         25    1    1    2    0    0  0.14861727249E+03 -0.92269664077E+02 -0.10199980532E+03  0.23797005037E+03  0.12500000000E+03 0.  0.
</event>
<event>
 5    0  0.5829567E-005  0.2570732E+03  0.7546771E-02  0.1108915E+00
         21   -1    0    0  502  501  0.00000000000E+00  0.00000000000E+00  0.68055129305E+02  0.68055129305E+02  0.00000000000E+00 0.  1.
         21   -1    0    0  501  502 -0.00000000000E+00 -0.00000000000E+00 -0.97107494610E+03  0.97107494610E+03  0.00000000000E+00 0.  1.
         25    1    1    2    0    0 -0.59043211474E+02  0.97823463350E+02 -0.50259069790E+03  0.53035642771E+03  0.12500000000E+03 0.  0.
         25    1    1    2    0    0  0.35031414498E+02 -0.13865591169E+02 -0.29726990940E+03  0.32467499697E+03  0.12500000000E+03 0.  0.
         25    1    1    2    0    0  0.24011796976E+02 -0.83957872181E+02 -0.10315920950E+03  0.18409865073E+03  0.12500000000E+03 0.  0.
</event>
<event>
 5    0  0.7194077E-005  0.2938303E+03  0.7546771E-02  0.1088366E+00
         21   -1    0    0  502  501  0.00000000000E+00  0.00000000000E+00  0.20084651711E+03  0.20084651711E+03  0.00000000000E+00 0.  1.
         21   -1    0    0  501  502 -0.00000000000E+00 -0.00000000000E+00 -0.42986185035E+03  0.42986185035E+03  0.00000000000E+00 0.  1.
         25    1    1    2    0    0  0.88517533822E+02  0.10073408135E+03 -0.74187177432E+02  0.19776614026E+03  0.12500000000E+03 0.  0.
         25    1    1    2    0    0  0.70183980668E+02  0.22888216431E+01  0.22424677096E+02  0.14511683565E+03  0.12500000000E+03 0.  0.
         25    1    1    2    0    0 -0.15870151449E+03 -0.10302290299E+03 -0.17725283291E+03  0.28782539154E+03  0.12500000000E+03 0.  0.
</event>
<event>
 5    0  0.5829567E-005  0.3011440E+03  0.7546771E-02  0.1084670E+00
         21   -1    0    0  502  501  0.00000000000E+00  0.00000000000E+00  0.11961795522E+03  0.11961795522E+03  0.00000000000E+00 0.  1.
         21   -1    0    0  501  502 -0.00000000000E+00 -0.00000000000E+00 -0.75814446018E+03  0.75814446018E+03  0.00000000000E+00 0.  1.
         25    1    1    2    0    0  0.85320110690E+02  0.12584459535E+02 -0.40596598842E+02  0.15719724472E+03  0.12500000000E+03 0.  0.
         25    1    1    2    0    0 -0.18843330654E+03 -0.51937606190E+02 -0.30129827877E+03  0.38027658190E+03  0.12500000000E+03 0.  0.
         25    1    1    2    0    0  0.10311319585E+03  0.39353146655E+02 -0.29663162734E+03  0.34028858877E+03  0.12500000000E+03 0.  0.
</event>
<event>
 5    0  0.5829567E-005  0.3441250E+03  0.7546771E-02  0.1065053E+00
         21   -1    0    0  502  501  0.00000000000E+00  0.00000000000E+00  0.52439724698E+03  0.52439724698E+03  0.00000000000E+00 0. -1.
         21   -1    0    0  501  502 -0.00000000000E+00 -0.00000000000E+00 -0.22582501991E+03  0.22582501991E+03  0.00000000000E+00 0. -1.
         25    1    1    2    0    0 -0.10159217096E+03  0.46920521939E+02 -0.10427842555E+03  0.19753859019E+03  0.12500000000E+03 0.  0.
         25    1    1    2    0    0  0.78903698197E+02  0.14709278418E+02  0.38210593281E+03  0.40996597463E+03  0.12500000000E+03 0.  0.
         25    1    1    2    0    0  0.22688472759E+02 -0.61629800356E+02  0.20744719802E+02  0.14271770208E+03  0.12500000000E+03 0.  0.
</event>
<event>
 5    0  0.5829567E-005  0.2608891E+03  0.7546771E-02  0.1106610E+00
         21   -1    0    0  502  501  0.00000000000E+00  0.00000000000E+00  0.67393347273E+03  0.67393347273E+03  0.00000000000E+00 0.  1.
         21   -1    0    0  501  502 -0.00000000000E+00 -0.00000000000E+00 -0.10099383331E+03  0.10099383331E+03  0.00000000000E+00 0.  1.
         25    1    1    2    0    0 -0.39522913370E+02  0.22221500072E+02  0.38690506957E+02  0.13848397407E+03  0.12500000000E+03 0.  0.
         25    1    1    2    0    0  0.28948293526E+02  0.18466581820E+02  0.57537330355E+02  0.14182581827E+03  0.12500000000E+03 0.  0.
         25    1    1    2    0    0  0.10574619843E+02 -0.40688081892E+02  0.47671180211E+03  0.49461751370E+03  0.12500000000E+03 0.  0.
</event>
<event>
 5    0  0.5829567E-005  0.2320305E+03  0.7546771E-02  0.1125219E+00
         21   -1    0    0  502  501  0.00000000000E+00  0.00000000000E+00  0.14254815664E+03  0.14254815664E+03  0.00000000000E+00 0.  1.
         21   -1    0    0  501  502 -0.00000000000E+00 -0.00000000000E+00 -0.37768388188E+03  0.37768388188E+03  0.00000000000E+00 0.  1.
         25    1    1    2    0    0  0.56972893372E+02  0.56050295269E+02 -0.96944157807E+02  0.17723068558E+03  0.12500000000E+03 0.  0.
         25    1    1    2    0    0  0.12946944003E+02 -0.71686267742E+02 -0.19232257731E+01  0.14469016255E+03  0.12500000000E+03 0.  0.
         25    1    1    2    0    0 -0.69919837375E+02  0.15635972473E+02 -0.13626834166E+03  0.19831119039E+03  0.12500000000E+03 0.  0.
</event>
<event>
 5    0  0.5829567E-005  0.2656022E+03  0.7546771E-02  0.1103823E+00
         21   -1    0    0  502  501  0.00000000000E+00  0.00000000000E+00  0.16174327764E+04  0.16174327764E+04  0.00000000000E+00 0. -1.
         21   -1    0    0  501  502 -0.00000000000E+00 -0.00000000000E+00 -0.43615124216E+02  0.43615124216E+02  0.00000000000E+00 0. -1.
         25    1    1    2    0    0 -0.60945365067E+02  0.35375071729E+01  0.88558180443E+03  0.89644128855E+03  0.12500000000E+03 0.  0.
         25    1    1    2    0    0  0.83331532497E+02 -0.93948079229E+02  0.37088375438E+03  0.41103545487E+03  0.12500000000E+03 0.  0.
         25    1    1    2    0    0 -0.22386167430E+02  0.90410572056E+02  0.31735209339E+03  0.35357115721E+03  0.12500000000E+03 0.  0.
</event>
<event>
 5    0  0.5829567E-005  0.3666634E+03  0.7546771E-02  0.1055976E+00
         21   -1    0    0  502  501  0.00000000000E+00  0.00000000000E+00  0.97629471456E+03  0.97629471456E+03  0.00000000000E+00 0.  1.
         21   -1    0    0  501  502 -0.00000000000E+00 -0.00000000000E+00 -0.13770639489E+03  0.13770639489E+03  0.00000000000E+00 0.  1.
         25    1    1    2    0    0 -0.27717929115E+02  0.23129606582E+03  0.14683375455E+03  0.30240916841E+03  0.12500000000E+03 0.  0.
         25    1    1    2    0    0 -0.63064031470E+02 -0.18038144320E+03  0.23919072853E+03  0.33068374882E+03  0.12500000000E+03 0.  0.
         25    1    1    2    0    0  0.90781960585E+02 -0.50914622621E+02  0.45256383659E+03  0.48090819223E+03  0.12500000000E+03 0.  0.
</event>
<event>
 5    0  0.5829567E-005  0.3505959E+03  0.7546771E-02  0.1062371E+00
         21   -1    0    0  502  501  0.00000000000E+00  0.00000000000E+00  0.42922231119E+03  0.42922231119E+03  0.00000000000E+00 0.  1.
         21   -1    0    0  501  502 -0.00000000000E+00 -0.00000000000E+00 -0.28637255611E+03  0.28637255611E+03  0.00000000000E+00 0.  1.
         25    1    1    2    0    0  0.10212621384E+03  0.12847797589E+02  0.55210320298E+02  0.17107895523E+03  0.12500000000E+03 0.  0.
         25    1    1    2    0    0 -0.12493454103E+03  0.11376944861E+03 -0.14160265879E+03  0.25343330475E+03  0.12500000000E+03 0.  0.
         25    1    1    2    0    0  0.22808327190E+02 -0.12661724619E+03  0.22924209357E+03  0.29108260733E+03  0.12500000000E+03 0.  0.
</event>
<event>
 5    0  0.5829567E-005  0.3065263E+03  0.7546771E-02  0.1082023E+00
         21   -1    0    0  502  501  0.00000000000E+00  0.00000000000E+00  0.40925117023E+03  0.40925117023E+03  0.00000000000E+00 0. -1.
         21   -1    0    0  501  502 -0.00000000000E+00 -0.00000000000E+00 -0.22958610984E+03  0.22958610984E+03  0.00000000000E+00 0. -1.
         25    1    1    2    0    0 -0.15165953174E+03  0.12397551838E+03  0.34555942997E+02  0.23492478780E+03  0.12500000000E+03 0.  0.
         25    1    1    2    0    0 -0.15249937018E+02 -0.86056648394E+02  0.11237956206E+03  0.18945308992E+03  0.12500000000E+03 0.  0.
         25    1    1    2    0    0  0.16690946876E+03 -0.37918869985E+02  0.32729555328E+02  0.21445940235E+03  0.12500000000E+03 0.  0.
</event>
<event>
 5    0  0.5829567E-005  0.3611987E+03  0.7546771E-02  0.1058110E+00
         21   -1    0    0  502  501  0.00000000000E+00  0.00000000000E+00  0.87682355664E+02  0.87682355664E+02  0.00000000000E+00 0.  1.
         21   -1    0    0  501  502 -0.00000000000E+00 -0.00000000000E+00 -0.14879220584E+04  0.14879220584E+04  0.00000000000E+00 0.  1.
         25    1    1    2    0    0  0.62123777539E+02  0.17277016068E+03 -0.78342191411E+03  0.81429956875E+03  0.12500000000E+03 0.  0.
         25    1    1    2    0    0 -0.17141894020E+03 -0.89430486680E+02 -0.47404591029E+03  0.52699790329E+03  0.12500000000E+03 0.  0.
         25    1    1    2    0    0  0.10929516266E+03 -0.83339673997E+02 -0.14277187836E+03  0.23430694205E+03  0.12500000000E+03 0.  0.
</event>
<event>
 5    0  0.5829567E-005  0.5104577E+03  0.7546771E-02  0.1011085E+00
         21   -1    0    0  502  501  0.00000000000E+00  0.00000000000E+00  0.36168920103E+04  0.36168920103E+04  0.00000000000E+00 0. -1.
         21   -1    0    0  501  502 -0.00000000000E+00 -0.00000000000E+00 -0.72041694723E+02  0.72041694723E+02  0.00000000000E+00 0. -1.
         25    1    1    2    0    0 -0.22289782799E+03 -0.90959936190E+02  0.46085102580E+03  0.53475772056E+03  0.12500000000E+03 0.  0.
         25    1    1    2    0    0 -0.16438305152E+03  0.12393180488E+03  0.14544809989E+04  0.14742865583E+04  0.12500000000E+03 0.  0.
         25    1    1    2    0    0  0.38728087951E+03 -0.32971868690E+02  0.16295182908E+04  0.16798894261E+04  0.12500000000E+03 0.  0.
</event>
<event>
 5    0  0.5829567E-005  0.2829552E+03  0.7546771E-02  0.1094086E+00
         21   -1    0    0  502  501  0.00000000000E+00  0.00000000000E+00  0.14444516326E+03  0.14444516326E+03  0.00000000000E+00 0.  1.
         21   -1    0    0  501  502 -0.00000000000E+00 -0.00000000000E+00 -0.55428418555E+03  0.55428418555E+03  0.00000000000E+00 0.  1.
         25    1    1    2    0    0 -0.43791462227E+02  0.11606150433E+02  0.26139548639E+02  0.13550155311E+03  0.12500000000E+03 0.  0.
         25    1    1    2    0    0  0.61394602696E+02  0.10701051424E+03 -0.16111013656E+03  0.23833175093E+03  0.12500000000E+03 0.  0.
         25    1    1    2    0    0 -0.17603140469E+02 -0.11861666467E+03 -0.27486843437E+03  0.32489604477E+03  0.12500000000E+03 0.  0.
</event>
<event>
 5    0  0.7170607E-005  0.2912200E+03  0.7546771E-02  0.1089714E+00
         21   -1    0    0  502  501  0.00000000000E+00  0.00000000000E+00  0.16333386409E+03  0.16333386409E+03  0.00000000000E+00 0.  1.
         21   -1    0    0  501  502 -0.00000000000E+00 -0.00000000000E+00 -0.51923772995E+03  0.51923772995E+03  0.00000000000E+00 0.  1.
         25    1    1    2    0    0  0.39903981424E+02  0.37707592306E+02 -0.29193034418E+02  0.13961168830E+03  0.12500000000E+03 0.  0.
         25    1    1    2    0    0  0.14206520889E+03  0.50278594651E+02 -0.13905047214E+03  0.24014681855E+03  0.12500000000E+03 0.  0.
         25    1    1    2    0    0 -0.18196919032E+03 -0.87986186957E+02 -0.18766035930E+03  0.30281308719E+03  0.12500000000E+03 0.  0.
</event>
<event>
 5    0  0.5829567E-005  0.2176497E+03  0.7546771E-02  0.1135647E+00
         21   -1    0    0  502  501  0.00000000000E+00  0.00000000000E+00  0.74001713727E+03  0.74001713727E+03  0.00000000000E+00 0.  1.
         21   -1    0    0  501  502 -0.00000000000E+00 -0.00000000000E+00 -0.64013939808E+02  0.64013939808E+02  0.00000000000E+00 0.  1.
         25    1    1    2    0    0 -0.46193351273E+02 -0.26418444317E+01  0.27882985026E+03  0.30904998049E+03  0.12500000000E+03 0.  0.
         25    1    1    2    0    0 -0.29836182018E+02  0.43551266493E+02  0.13159213188E+03  0.18901957503E+03  0.12500000000E+03 0.  0.
         25    1    1    2    0    0  0.76029533291E+02 -0.40909422062E+02  0.26558121532E+03  0.30596152156E+03  0.12500000000E+03 0.  0.
</event>
<event>
 5    0  0.5829567E-005  0.2635724E+03  0.7546771E-02  0.1105016E+00
         21   -1    0    0  502  501  0.00000000000E+00  0.00000000000E+00  0.15491723830E+03  0.15491723830E+03  0.00000000000E+00 0.  1.
         21   -1    0    0  501  502 -0.00000000000E+00 -0.00000000000E+00 -0.44843568964E+03  0.44843568964E+03  0.00000000000E+00 0.  1.
         25    1    1    2    0    0 -0.16323624559E+01  0.17282663164E+03 -0.82190257479E+02  0.22858684922E+03  0.12500000000E+03 0.  0.
         25    1    1    2    0    0  0.49493218338E+01 -0.12129159798E+03 -0.12028825688E+03  0.21173193494E+03  0.12500000000E+03 0.  0.
         25    1    1    2    0    0 -0.33169593779E+01 -0.51535033660E+02 -0.91039936983E+02  0.16303414379E+03  0.12500000000E+03 0.  0.
</event>
<event>
 5    0  0.5829567E-005  0.2854975E+03  0.7546771E-02  0.1092724E+00
         21   -1    0    0  502  501  0.00000000000E+00  0.00000000000E+00  0.13171030246E+04  0.13171030246E+04  0.00000000000E+00 0. -1.
         21   -1    0    0  501  502 -0.00000000000E+00 -0.00000000000E+00 -0.61884933845E+02  0.61884933845E+02  0.00000000000E+00 0. -1.
         25    1    1    2    0    0  0.31596712841E+02 -0.37176640680E+02  0.73534088415E+03  0.74748355887E+03  0.12500000000E+03 0.  0.
         25    1    1    2    0    0  0.55566006351E+02 -0.32185199437E+02  0.81989292190E+02  0.16269822420E+03  0.12500000000E+03 0.  0.
         25    1    1    2    0    0 -0.87162719192E+02  0.69361840117E+02  0.43788791444E+03  0.46880617540E+03  0.12500000000E+03 0.  0.
</event>
<event>
 5    0  0.5829567E-005  0.4395513E+03  0.7546771E-02  0.1030885E+00
         21   -1    0    0  502  501  0.00000000000E+00  0.00000000000E+00  0.84460382922E+02  0.84460382922E+02  0.00000000000E+00 0. -1.
         21   -1    0    0  501  502 -0.00000000000E+00 -0.00000000000E+00 -0.22875266072E+04  0.22875266072E+04  0.00000000000E+00 0. -1.
         25    1    1    2    0    0 -0.10799910139E+03  0.41734171920E+02 -0.19905192253E+03  0.26201567677E+03  0.12500000000E+03 0.  0.
         25    1    1    2    0    0  0.14012168655E+02 -0.30741407639E+03 -0.12933103496E+04  0.13352813994E+04  0.12500000000E+03 0.  0.
         25    1    1    2    0    0  0.93986932740E+02  0.26567990447E+03 -0.71070395210E+03  0.77468991390E+03  0.12500000000E+03 0.  0.
</event>
<event>
 5    0  0.5829567E-005  0.3797275E+03  0.7546771E-02  0.1051035E+00
         21   -1    0    0  502  501  0.00000000000E+00  0.00000000000E+00  0.15400673562E+03  0.15400673562E+03  0.00000000000E+00 0. -1.
         21   -1    0    0  501  502 -0.00000000000E+00 -0.00000000000E+00 -0.93627683614E+03  0.93627683614E+03  0.00000000000E+00 0. -1.
         25    1    1    2    0    0 -0.22180039306E+02  0.11213650002E+03 -0.46180256205E+03  0.49188733984E+03  0.12500000000E+03 0.  0.
         25    1    1    2    0    0 -0.19238006996E+03 -0.70368492299E+02 -0.87724472613E+02  0.25550420568E+03  0.12500000000E+03 0.  0.
         25    1    1    2    0    0  0.21456010926E+03 -0.41768007726E+02 -0.23274306586E+03  0.34289202624E+03  0.12500000000E+03 0.  0.
</event>
<event>
 5    0  0.5884412E-005  0.3670749E+03  0.7546771E-02  0.1055817E+00
         21   -1    0    0  502  501  0.00000000000E+00  0.00000000000E+00  0.11805148936E+04  0.11805148936E+04  0.00000000000E+00 0.  1.
         21   -1    0    0  501  502 -0.00000000000E+00 -0.00000000000E+00 -0.11414003760E+03  0.11414003760E+03  0.00000000000E+00 0.  1.
         25    1    1    2    0    0  0.16894630554E+03  0.43431170403E+02  0.29931060885E+03  0.36829466639E+03  0.12500000000E+03 0.  0.
         25    1    1    2    0    0 -0.28736708091E+02  0.50886192916E+02  0.74336437295E+01  0.13818633102E+03  0.12500000000E+03 0.  0.
         25    1    1    2    0    0 -0.14020959745E+03 -0.94317363319E+02  0.75963060338E+03  0.78817393374E+03  0.12500000000E+03 0.  0.
</event>
<event>
 5    0  0.5829567E-005  0.2108279E+03  0.7546771E-02  0.1140912E+00
         21   -1    0    0  502  501  0.00000000000E+00  0.00000000000E+00  0.21685818927E+03  0.21685818927E+03  0.00000000000E+00 0. -1.
         21   -1    0    0  501  502 -0.00000000000E+00 -0.00000000000E+00 -0.20496535075E+03  0.20496535075E+03  0.00000000000E+00 0. -1.
         25    1    1    2    0    0  0.46969988853E+02 -0.22515904178E+02  0.45171165391E+02  0.14275356380E+03  0.12500000000E+03 0.  0.
         25    1    1    2    0    0  0.19928466343E+02 -0.53777485356E+01 -0.44156466029E+02  0.13416727411E+03  0.12500000000E+03 0.  0.
         25    1    1    2    0    0 -0.66898455196E+02  0.27893652713E+02  0.10878139155E+02  0.14490270212E+03  0.12500000000E+03 0.  0.
</event>
<event>
 5    0  0.5829567E-005  0.2403632E+03  0.7546771E-02  0.1119551E+00
         21   -1    0    0  502  501  0.00000000000E+00  0.00000000000E+00  0.36809867753E+03  0.36809867753E+03  0.00000000000E+00 0. -1.
         21   -1    0    0  501  502 -0.00000000000E+00 -0.00000000000E+00 -0.15695370052E+03  0.15695370052E+03  0.00000000000E+00 0. -1.
         25    1    1    2    0    0  0.58425952209E+02 -0.48641254528E+02  0.19314995069E+03  0.24230449229E+03  0.12500000000E+03 0.  0.
         25    1    1    2    0    0 -0.39869834504E+02  0.66401161447E+02  0.41929425714E+02  0.15291106790E+03  0.12500000000E+03 0.  0.
         25    1    1    2    0    0 -0.18556117705E+02 -0.17759906919E+02 -0.23934399390E+02  0.12983681786E+03  0.12500000000E+03 0.  0.
</event>
<event>
 5    0  0.5829567E-005  0.2522098E+03  0.7546771E-02  0.1111916E+00
         21   -1    0    0  502  501  0.00000000000E+00  0.00000000000E+00  0.18562719015E+03  0.18562719015E+03  0.00000000000E+00 0.  1.
         21   -1    0    0  501  502 -0.00000000000E+00 -0.00000000000E+00 -0.34267480745E+03  0.34267480745E+03  0.00000000000E+00 0.  1.
         25    1    1    2    0    0  0.76250517540E+02  0.28054688423E+02 -0.96182437887E+02  0.17741834270E+03  0.12500000000E+03 0.  0.
         25    1    1    2    0    0 -0.14229193500E+03 -0.54565092882E+02 -0.63324541261E+02  0.20702497833E+03  0.12500000000E+03 0.  0.
         25    1    1    2    0    0  0.66041417464E+02  0.26510404459E+02  0.24593618487E+01  0.14385867658E+03  0.12500000000E+03 0.  0.
</event>
<event>
 5    0  0.5829567E-005  0.2935033E+03  0.7546771E-02  0.1088534E+00
         21   -1    0    0  502  501  0.00000000000E+00  0.00000000000E+00  0.10964186385E+04  0.10964186385E+04  0.00000000000E+00 0. -1.
         21   -1    0    0  501  502 -0.00000000000E+00 -0.00000000000E+00 -0.78568681496E+02  0.78568681496E+02  0.00000000000E+00 0. -1.
         25    1    1    2    0    0  0.35169243096E+02 -0.15618796481E+03  0.51454725373E+03  0.55318661619E+03  0.12500000000E+03 0.  0.
         25    1    1    2    0    0 -0.14679140442E+02  0.14390015636E+03  0.14028954922E+03  0.23712631610E+03  0.12500000000E+03 0.  0.
         25    1    1    2    0    0 -0.20490102653E+02  0.12287808447E+02  0.36301315405E+03  0.38467438771E+03  0.12500000000E+03 0.  0.
</event>
<event>
 5    0  0.5829567E-005  0.2327997E+03  0.7546771E-02  0.1124685E+00
         21   -1    0    0  502  501  0.00000000000E+00  0.00000000000E+00  0.58606202204E+02  0.58606202204E+02  0.00000000000E+00 0. -1.
         21   -1    0    0  501  502 -0.00000000000E+00 -0.00000000000E+00 -0.92474379141E+03  0.92474379141E+03  0.00000000000E+00 0. -1.
         25    1    1    2    0    0  0.26952573091E+02 -0.59861909552E+02 -0.31976523047E+03  0.34954926982E+03  0.12500000000E+03 0.  0.
         25    1    1    2    0    0 -0.98291818697E+02 -0.13197881201E+02 -0.25917906261E+03  0.30435875572E+03  0.12500000000E+03 0.  0.
         25    1    1    2    0    0  0.71339245605E+02  0.73059790753E+02 -0.28719329613E+03  0.32944196808E+03  0.12500000000E+03 0.  0.
</event>
<event>
 5    0  0.6189730E-005  0.2929450E+03  0.7546771E-02  0.1088821E+00
         21   -1    0    0  502  501  0.00000000000E+00  0.00000000000E+00  0.63122577957E+03  0.63122577957E+03  0.00000000000E+00 0. -1.
         21   -1    0    0  501  502 -0.00000000000E+00 -0.00000000000E+00 -0.13595261123E+03  0.13595261123E+03  0.00000000000E+00 0. -1.
         25    1    1    2    0    0  0.12246528101E+03  0.68342815870E+02  0.13663881482E+03  0.23230077755E+03  0.12500000000E+03 0.  0.
         25    1    1    2    0    0  0.57780773400E+02 -0.30672972302E+02  0.40792652981E+02  0.14686214469E+03  0.12500000000E+03 0.  0.
         25    1    1    2    0    0 -0.18024605441E+03 -0.37669843568E+02  0.31784170054E+03  0.38801546857E+03  0.12500000000E+03 0.  0.
</event>
<event>
 5    0  0.5829567E-005  0.3070998E+03  0.7546771E-02  0.1081744E+00
         21   -1    0    0  502  501  0.00000000000E+00  0.00000000000E+00  0.21253014565E+03  0.21253014565E+03  0.00000000000E+00 0. -1.
         21   -1    0    0  501  502 -0.00000000000E+00 -0.00000000000E+00 -0.44375002421E+03  0.44375002421E+03  0.00000000000E+00 0. -1.
         25    1    1    2    0    0  0.68999457660E+02 -0.63394759074E+02 -0.40673680667E+02  0.16142852578E+03  0.12500000000E+03 0.  0.
         25    1    1    2    0    0  0.13824843423E+03  0.67702126364E+01 -0.15748550796E+03  0.24410069759E+03  0.12500000000E+03 0.  0.
         25    1    1    2    0    0 -0.20724789189E+03  0.56624546437E+02 -0.33060689930E+02  0.25075094650E+03  0.12500000000E+03 0.  0.
</event>
<event>
 5    0  0.5829567E-005  0.3749429E+03  0.7546771E-02  0.1052819E+00
         21   -1    0    0  502  501  0.00000000000E+00  0.00000000000E+00  0.69799542372E+03  0.69799542372E+03  0.00000000000E+00 0.  1.
         21   -1    0    0  501  502 -0.00000000000E+00 -0.00000000000E+00 -0.20140841283E+03  0.20140841283E+03  0.00000000000E+00 0.  1.
         25    1    1    2    0    0  0.15097803381E+02 -0.10447903185E+03 -0.24347057739E+02  0.16541339421E+03  0.12500000000E+03 0.  0.
         25    1    1    2    0    0  0.16480216852E+03  0.15758996932E+03  0.15073845772E+03  0.30056852100E+03  0.12500000000E+03 0.  0.
         25    1    1    2    0    0 -0.17989997190E+03 -0.53110937472E+02  0.37019561091E+03  0.43342192135E+03  0.12500000000E+03 0.  0.
</event>
<event>
 5    0  0.5829567E-005  0.2766944E+03  0.7546771E-02  0.1097508E+00
         21   -1    0    0  502  501  0.00000000000E+00  0.00000000000E+00  0.24512480086E+03  0.24512480086E+03  0.00000000000E+00 0.  1.
         21   -1    0    0  501  502 -0.00000000000E+00 -0.00000000000E+00 -0.31232987653E+03  0.31232987653E+03  0.00000000000E+00 0.  1.
         25    1    1    2    0    0  0.10774902011E+03 -0.11013954816E+03 -0.47085806163E+02  0.20391823005E+03  0.12500000000E+03 0.  0.
         25    1    1    2    0    0 -0.11419893856E+03  0.54070933891E+02 -0.90424726276E+02  0.19941588348E+03  0.12500000000E+03 0.  0.
         25    1    1    2    0    0  0.64499184525E+01  0.56068614270E+02  0.70305456767E+02  0.15412056386E+03  0.12500000000E+03 0.  0.
</event>
<event>
 5    0  0.5829567E-005  0.2215317E+03  0.7546771E-02  0.1132746E+00
         21   -1    0    0  502  501  0.00000000000E+00  0.00000000000E+00  0.71285976603E+03  0.71285976603E+03  0.00000000000E+00 0.  1.
         21   -1    0    0  501  502 -0.00000000000E+00 -0.00000000000E+00 -0.68844245159E+02  0.68844245159E+02  0.00000000000E+00 0.  1.
         25    1    1    2    0    0 -0.12374546001E+02 -0.45862693061E+02  0.21822831137E+03  0.25593966454E+03  0.12500000000E+03 0.  0.
         25    1    1    2    0    0  0.78271831267E+02 -0.20225867476E+02  0.24792814516E+03  0.28918667059E+03  0.12500000000E+03 0.  0.
         25    1    1    2    0    0 -0.65897285267E+02  0.66088560537E+02  0.17785906435E+03  0.23657767606E+03  0.12500000000E+03 0.  0.
</event>
<event>
 5    0  0.5829567E-005  0.4368193E+03  0.7546771E-02  0.1031727E+00
         21   -1    0    0  502  501  0.00000000000E+00  0.00000000000E+00  0.45493106603E+02  0.45493106603E+02  0.00000000000E+00 0. -1.
         21   -1    0    0  501  502 -0.00000000000E+00 -0.00000000000E+00 -0.41942867457E+04  0.41942867457E+04  0.00000000000E+00 0. -1.
         25    1    1    2    0    0 -0.21425088822E+03  0.29716463979E+03 -0.13894359584E+04  0.14423479292E+04  0.12500000000E+03 0.  0.
         25    1    1    2    0    0  0.63377023348E+02 -0.10968551932E+03 -0.14020759861E+04  0.14133257342E+04  0.12500000000E+03 0.  0.
         25    1    1    2    0    0  0.15087386487E+03 -0.18747912048E+03 -0.13572816946E+04  0.13841061889E+04  0.12500000000E+03 0.  0.
</event>
<event>
 5    0  0.5829567E-005  0.2801239E+03  0.7546771E-02  0.1095621E+00
         21   -1    0    0  502  501  0.00000000000E+00  0.00000000000E+00  0.93310851352E+02  0.93310851352E+02  0.00000000000E+00 0.  1.
         21   -1    0    0  501  502 -0.00000000000E+00 -0.00000000000E+00 -0.84094621833E+03  0.84094621833E+03  0.00000000000E+00 0.  1.
         25    1    1    2    0    0  0.83482869385E-01 -0.10471956585E+03 -0.23549487195E+03  0.28644201709E+03  0.12500000000E+03 0.  0.
         25    1    1    2    0    0  0.63559991058E+02  0.14116671585E+03 -0.12636267174E+03  0.23571261938E+03  0.12500000000E+03 0.  0.
         25    1    1    2    0    0 -0.63643473927E+02 -0.36447149995E+02 -0.38577782328E+03  0.41210243320E+03  0.12500000000E+03 0.  0.
</event>
<event>
 5    0  0.5829567E-005  0.3094067E+03  0.7546771E-02  0.1080631E+00
         21   -1    0    0  502  501  0.00000000000E+00  0.00000000000E+00  0.14865497370E+03  0.14865497370E+03  0.00000000000E+00 0. -1.
         21   -1    0    0  501  502 -0.00000000000E+00 -0.00000000000E+00 -0.64399137171E+03  0.64399137171E+03  0.00000000000E+00 0. -1.
         25    1    1    2    0    0 -0.16565935733E+02 -0.63914856112E+02 -0.41314130987E+03  0.43665808247E+03  0.12500000000E+03 0.  0.
         25    1    1    2    0    0  0.12951336975E+02 -0.85147461351E+02 -0.35861439612E+02  0.15597714626E+03  0.12500000000E+03 0.  0.
         25    1    1    2    0    0  0.36145987575E+01  0.14906231746E+03 -0.46333648519E+02  0.20001111668E+03  0.12500000000E+03 0.  0.
</event>
<event>
 5    0  0.5829567E-005  0.3051184E+03  0.7546771E-02  0.1082710E+00
         21   -1    0    0  502  501  0.00000000000E+00  0.00000000000E+00  0.92426951022E+03  0.92426951022E+03  0.00000000000E+00 0.  1.
         21   -1    0    0  501  502 -0.00000000000E+00 -0.00000000000E+00 -0.10072519429E+03  0.10072519429E+03  0.00000000000E+00 0.  1.
         25    1    1    2    0    0  0.12606706349E+03 -0.13237757987E+03  0.32239353426E+03  0.39112570751E+03  0.12500000000E+03 0.  0.
         25    1    1    2    0    0 -0.89722976278E+02  0.18859165110E+03  0.35318163596E+03  0.42892807243E+03  0.12500000000E+03 0.  0.
         25    1    1    2    0    0 -0.36344087213E+02 -0.56214071234E+02  0.14796914571E+03  0.20494092457E+03  0.12500000000E+03 0.  0.
</event>
<event>
 5    0  0.5829567E-005  0.2218573E+03  0.7546771E-02  0.1132506E+00
         21   -1    0    0  502  501  0.00000000000E+00  0.00000000000E+00  0.14066311101E+03  0.14066311101E+03  0.00000000000E+00 0. -1.
         21   -1    0    0  501  502 -0.00000000000E+00 -0.00000000000E+00 -0.34991877657E+03  0.34991877657E+03  0.00000000000E+00 0. -1.
         25    1    1    2    0    0 -0.34733071895E+02 -0.46901214820E+02 -0.57165308912E+02  0.14932843928E+03  0.12500000000E+03 0.  0.
         25    1    1    2    0    0  0.91202149744E+02 -0.12329223383E+02 -0.90256205308E+02  0.17955785826E+03  0.12500000000E+03 0.  0.
         25    1    1    2    0    0 -0.56469077849E+02  0.59230438203E+02 -0.61834151342E+02  0.16169559003E+03  0.12500000000E+03 0.  0.
</event>
<event>
 5    0  0.5829567E-005  0.3395295E+03  0.7546771E-02  0.1066996E+00
         21   -1    0    0  502  501  0.00000000000E+00  0.00000000000E+00  0.11244352885E+03  0.11244352885E+03  0.00000000000E+00 0.  1.
         21   -1    0    0  501  502 -0.00000000000E+00 -0.00000000000E+00 -0.10252281656E+04  0.10252281656E+04  0.00000000000E+00 0.  1.
         25    1    1    2    0    0  0.75697818012E+01  0.61672206327E+02  0.29517717375E+02  0.14267816325E+03  0.12500000000E+03 0.  0.
         25    1    1    2    0    0 -0.49328582837E+02 -0.11173105645E+03 -0.59602495774E+03  0.62111825630E+03  0.12500000000E+03 0.  0.
         25    1    1    2    0    0  0.41758801036E+02  0.50058850127E+02 -0.34627739641E+03  0.37387527493E+03  0.12500000000E+03 0.  0.
</event>
<event>
 5    0  0.5829567E-005  0.3703385E+03  0.7546771E-02  0.1054564E+00
         21   -1    0    0  502  501  0.00000000000E+00  0.00000000000E+00  0.13473580736E+04  0.13473580736E+04  0.00000000000E+00 0. -1.
         21   -1    0    0  501  502 -0.00000000000E+00 -0.00000000000E+00 -0.10179226819E+03  0.10179226819E+03  0.00000000000E+00 0. -1.
         25    1    1    2    0    0  0.36454088313E+02  0.67894330503E+02  0.18705016781E+03  0.23780518486E+03  0.12500000000E+03 0.  0.
         25    1    1    2    0    0  0.18217618595E+03 -0.20312901506E+03  0.48092723330E+03  0.56689113878E+03  0.12500000000E+03 0.  0.
         25    1    1    2    0    0 -0.21863027427E+03  0.13523468456E+03  0.57758840431E+03  0.64445401817E+03  0.12500000000E+03 0.  0.
</event>
<event>
 5    0  0.5829567E-005  0.2699786E+03  0.7546771E-02  0.1101292E+00
         21   -1    0    0  502  501  0.00000000000E+00  0.00000000000E+00  0.13963790262E+03  0.13963790262E+03  0.00000000000E+00 0. -1.
         21   -1    0    0  501  502 -0.00000000000E+00 -0.00000000000E+00 -0.52198172786E+03  0.52198172786E+03  0.00000000000E+00 0. -1.
         25    1    1    2    0    0  0.76603118969E+02  0.69465915220E+02 -0.13193868163E+03  0.20910850515E+03  0.12500000000E+03 0.  0.
         25    1    1    2    0    0 -0.94105609271E+01  0.61566983215E+02 -0.21463442866E+03  0.25607028341E+03  0.12500000000E+03 0.  0.
         25    1    1    2    0    0 -0.67192558042E+02 -0.13103289844E+03 -0.35770714958E+02  0.19644084193E+03  0.12500000000E+03 0.  0.
</event>
<event>
 5    0  0.5829567E-005  0.3086884E+03  0.7546771E-02  0.1080976E+00
         21   -1    0    0  502  501  0.00000000000E+00  0.00000000000E+00  0.15590060380E+04  0.15590060380E+04  0.00000000000E+00 0. -1.
         21   -1    0    0  501  502 -0.00000000000E+00 -0.00000000000E+00 -0.61121327933E+02  0.61121327933E+02  0.00000000000E+00 0. -1.
         25    1    1    2    0    0  0.40397494570E+02 -0.16251637716E+03  0.28259664378E+03  0.35146748567E+03  0.12500000000E+03 0.  0.
         25    1    1    2    0    0 -0.84972278436E+02  0.10304288240E+03  0.93673402335E+03  0.95442849613E+03  0.12500000000E+03 0.  0.
         25    1    1    2    0    0  0.44574783866E+02  0.59473494758E+02  0.27855404292E+03  0.31423138411E+03  0.12500000000E+03 0.  0.
</event>
<event>
 5    0  0.5829567E-005  0.2014147E+03  0.7546771E-02  0.1148551E+00
         21   -1    0    0  502  501  0.00000000000E+00  0.00000000000E+00  0.62269707871E+02  0.62269707871E+02  0.00000000000E+00 0. -1.
         21   -1    0    0  501  502 -0.00000000000E+00 -0.00000000000E+00 -0.65148636988E+03  0.65148636988E+03  0.00000000000E+00 0. -1.
         25    1    1    2    0    0  0.26857941698E+02 -0.48889308539E+02 -0.21926069237E+03  0.25847971824E+03  0.12500000000E+03 0.  0.
         25    1    1    2    0    0  0.10973431398E+02  0.10071545854E+01 -0.19273080418E+03  0.22998172414E+03  0.12500000000E+03 0.  0.
         25    1    1    2    0    0 -0.37831373096E+02  0.47882153953E+02 -0.17722516546E+03  0.22529463538E+03  0.12500000000E+03 0.  0.
</event>
<event>
 5    0  0.5829567E-005  0.2557376E+03  0.7546771E-02  0.1109732E+00
         21   -1    0    0  502  501  0.00000000000E+00  0.00000000000E+00  0.25329690775E+03  0.25329690775E+03  0.00000000000E+00 0. -1.
         21   -1    0    0  501  502 -0.00000000000E+00 -0.00000000000E+00 -0.25820171816E+03  0.25820171816E+03  0.00000000000E+00 0. -1.
         25    1    1    2    0    0  0.46762756610E+02  0.10218460927E+03  0.10581381360E+03  0.19862027320E+03  0.12500000000E+03 0.  0.
         25    1    1    2    0    0 -0.15602930430E+01 -0.76648106272E+02 -0.99193207409E+02  0.17703575657E+03  0.12500000000E+03 0.  0.
         25    1    1    2    0    0 -0.45202463567E+02 -0.25536502996E+02 -0.11525416605E+02  0.13584259614E+03  0.12500000000E+03 0.  0.
</event>
<event>
 5    0  0.5829567E-005  0.2910323E+03  0.7546771E-02  0.1089811E+00
         21   -1    0    0  502  501  0.00000000000E+00  0.00000000000E+00  0.14321094002E+04  0.14321094002E+04  0.00000000000E+00 0.  1.
         21   -1    0    0  501  502 -0.00000000000E+00 -0.00000000000E+00 -0.59143380147E+02  0.59143380147E+02  0.00000000000E+00 0.  1.
         25    1    1    2    0    0  0.13323306983E+03 -0.13020767280E+03  0.70244178604E+03  0.73739714654E+03  0.12500000000E+03 0.  0.
         25    1    1    2    0    0 -0.13686045053E+03  0.97495652018E+02  0.34479688350E+03  0.40341799161E+03  0.12500000000E+03 0.  0.
         25    1    1    2    0    0  0.36273807045E+01  0.32712020785E+02  0.32572735050E+03  0.35043764218E+03  0.12500000000E+03 0.  0.
</event>
<event>
 5    0  0.5829567E-005  0.2721852E+03  0.7546771E-02  0.1100035E+00
         21   -1    0    0  502  501  0.00000000000E+00  0.00000000000E+00  0.10840767778E+03  0.10840767778E+03  0.00000000000E+00 0.  1.
         21   -1    0    0  501  502 -0.00000000000E+00 -0.00000000000E+00 -0.68339067906E+03  0.68339067906E+03  0.00000000000E+00 0.  1.
         25    1    1    2    0    0 -0.54166040015E+02 -0.12265112260E+03 -0.36931157051E+03  0.41230243012E+03  0.12500000000E+03 0.  0.
         25    1    1    2    0    0  0.93380454999E+02  0.55444761251E+02 -0.14552205481E+03  0.22044432259E+03  0.12500000000E+03 0.  0.
         25    1    1    2    0    0 -0.39214414984E+02  0.67206361348E+02 -0.60149375957E+02  0.15905160413E+03  0.12500000000E+03 0.  0.
</event>
<event>
 5    0  0.5829567E-005  0.4063765E+03  0.7546771E-02  0.1041594E+00
         21   -1    0    0  502  501  0.00000000000E+00  0.00000000000E+00  0.22418800986E+03  0.22418800986E+03  0.00000000000E+00 0. -1.
         21   -1    0    0  501  502 -0.00000000000E+00 -0.00000000000E+00 -0.73662214947E+03  0.73662214947E+03  0.00000000000E+00 0. -1.
         25    1    1    2    0    0 -0.13294699057E+03  0.57846511000E+02  0.77717660142E+02  0.20660628217E+03  0.12500000000E+03 0.  0.
         25    1    1    2    0    0  0.21381749607E+02 -0.15135792024E+03 -0.50883927014E+03  0.54581022533E+03  0.12500000000E+03 0.  0.
         25    1    1    2    0    0  0.11156524096E+03  0.93511409236E+02 -0.81312529612E+02  0.20839365182E+03  0.12500000000E+03 0.  0.
</event>
<event>
 5    0  0.5829567E-005  0.2889036E+03  0.7546771E-02  0.1090923E+00
         21   -1    0    0  502  501  0.00000000000E+00  0.00000000000E+00  0.69372637020E+02  0.69372637020E+02  0.00000000000E+00 0.  1.
         21   -1    0    0  501  502 -0.00000000000E+00 -0.00000000000E+00 -0.12031445028E+04  0.12031445028E+04  0.00000000000E+00 0.  1.
         25    1    1    2    0    0 -0.10773732957E+03 -0.49649708220E+02 -0.15496733228E+03  0.23175914174E+03  0.12500000000E+03 0.  0.
         25    1    1    2    0    0  0.10050146489E+03  0.12787799747E+03 -0.60640442967E+03  0.64015986988E+03  0.12500000000E+03 0.  0.
         25    1    1    2    0    0  0.72358646797E+01 -0.78228289252E+02 -0.37240010381E+03  0.40059812817E+03  0.12500000000E+03 0.  0.
</event>
<event>
 5    0  0.5829567E-005  0.2106094E+03  0.7546771E-02  0.1141084E+00
         21   -1    0    0  502  501  0.00000000000E+00  0.00000000000E+00  0.14668703435E+03  0.14668703435E+03  0.00000000000E+00 0. -1.
         21   -1    0    0  501  502 -0.00000000000E+00 -0.00000000000E+00 -0.30238740777E+03  0.30238740777E+03  0.00000000000E+00 0. -1.
         25    1    1    2    0    0  0.18294764615E+02  0.64628065244E+02 -0.44810332193E+02  0.14881011760E+03  0.12500000000E+03 0.  0.
         25    1    1    2    0    0 -0.43636421538E+02 -0.24463870150E+02 -0.96761930830E+02  0.16580256176E+03  0.12500000000E+03 0.  0.
         25    1    1    2    0    0  0.25341656922E+02 -0.40164195094E+02 -0.14128110397E+02  0.13446176277E+03  0.12500000000E+03 0.  0.
</event>
<event>
 5    0  0.5829567E-005  0.3085356E+03  0.7546771E-02  0.1081050E+00
         21   -1    0    0  502  501  0.00000000000E+00  0.00000000000E+00  0.74697269007E+02  0.74697269007E+02  0.00000000000E+00 0.  1.
         21   -1    0    0  501  502 -0.00000000000E+00 -0.00000000000E+00 -0.12743999440E+04  0.12743999440E+04  0.00000000000E+00 0.  1.
         25    1    1    2    0    0  0.21185885582E+02  0.15850294900E+02 -0.12691185743E+03  0.18008801502E+03  0.12500000000E+03 0.  0.
         25    1    1    2    0    0 -0.13597018690E+03  0.44414413723E+02 -0.19235643694E+03  0.27034520655E+03  0.12500000000E+03 0.  0.
         25    1    1    2    0    0  0.11478430131E+03 -0.60264708623E+02 -0.88043438064E+03  0.89866399146E+03  0.12500000000E+03 0.  0.
</event>
<event>
 5    0  0.5829567E-005  0.3824191E+03  0.7546771E-02  0.1050043E+00
         21   -1    0    0  502  501  0.00000000000E+00  0.00000000000E+00  0.22941329407E+03  0.22941329407E+03  0.00000000000E+00 0. -1.
         21   -1    0    0  501  502 -0.00000000000E+00 -0.00000000000E+00 -0.63747108229E+03  0.63747108229E+03  0.00000000000E+00 0. -1.
         25    1    1    2    0    0  0.10298965136E+03 -0.56619240513E+02 -0.11841498216E+03  0.20846993713E+03  0.12500000000E+03 0.  0.
         25    1    1    2    0    0  0.60222935387E+02 -0.17235545891E+03 -0.27138095025E+03  0.35015114783E+03  0.12500000000E+03 0.  0.
         25    1    1    2    0    0 -0.16321258675E+03  0.22897469943E+03 -0.18261855809E+02  0.30826329141E+03  0.12500000000E+03 0.  0.
</event>
<event>
 5    0  0.5829567E-005  0.3470155E+03  0.7546771E-02  0.1063847E+00
         21   -1    0    0  502  501  0.00000000000E+00  0.00000000000E+00  0.86994749365E+03  0.86994749365E+03  0.00000000000E+00 0.  1.
         21   -1    0    0  501  502 -0.00000000000E+00 -0.00000000000E+00 -0.13842186838E+03  0.13842186838E+03  0.00000000000E+00 0.  1.
         25    1    1    2    0    0 -0.28966172826E+02 -0.83636595747E+02 -0.29035597746E+02  0.15589158173E+03  0.12500000000E+03 0.  0.
         25    1    1    2    0    0  0.26041320424E+02 -0.98329887579E+02  0.26845434006E+03  0.31311283886E+03  0.12500000000E+03 0.  0.
         25    1    1    2    0    0  0.29248524016E+01  0.18196648333E+03  0.49210688295E+03  0.53936494144E+03  0.12500000000E+03 0.  0.
</event>
<event>
 5    0  0.5829567E-005  0.3330321E+03  0.7546771E-02  0.1069803E+00
         21   -1    0    0  502  501  0.00000000000E+00  0.00000000000E+00  0.12582513807E+04  0.12582513807E+04  0.00000000000E+00 0.  1.
         21   -1    0    0  501  502 -0.00000000000E+00 -0.00000000000E+00 -0.88146433664E+02  0.88146433664E+02  0.00000000000E+00 0.  1.
         25    1    1    2    0    0 -0.66557490630E+02 -0.13699226039E+03  0.24358662445E+03  0.31329893485E+03  0.12500000000E+03 0.  0.
         25    1    1    2    0    0  0.11393240310E+03 -0.83306255041E+01  0.74793753941E+03  0.76686736445E+03  0.12500000000E+03 0.  0.
         25    1    1    2    0    0 -0.47374912472E+02  0.14532288590E+03  0.17858078319E+03  0.26623151508E+03  0.12500000000E+03 0.  0.
</event>
<event>
 5    0  0.5829567E-005  0.3388995E+03  0.7546771E-02  0.1067266E+00
         21   -1    0    0  502  501  0.00000000000E+00  0.00000000000E+00  0.51897155796E+02  0.51897155796E+02  0.00000000000E+00 0. -1.
         21   -1    0    0  501  502 -0.00000000000E+00 -0.00000000000E+00 -0.22130861547E+04  0.22130861547E+04  0.00000000000E+00 0. -1.
         25    1    1    2    0    0 -0.96473536033E+02  0.87447356311E+02 -0.29210800184E+03  0.34337482147E+03  0.12500000000E+03 0.  0.
         25    1    1    2    0    0 -0.78766045257E+02 -0.61040550883E+02 -0.13444588123E+04  0.13539292953E+04  0.12500000000E+03 0.  0.
         25    1    1    2    0    0  0.17523958129E+03 -0.26406805428E+02 -0.52462218472E+03  0.56767919367E+03  0.12500000000E+03 0.  0.
</event>
<event>
 5    0  0.5829567E-005  0.2981249E+03  0.7546771E-02  0.1086182E+00
         21   -1    0    0  502  501  0.00000000000E+00  0.00000000000E+00  0.74427764672E+02  0.74427764672E+02  0.00000000000E+00 0. -1.
         21   -1    0    0  501  502 -0.00000000000E+00 -0.00000000000E+00 -0.11941575256E+04  0.11941575256E+04  0.00000000000E+00 0. -1.
         25    1    1    2    0    0  0.25244795041E+02  0.44489149021E+02 -0.54080750068E+03  0.55741756059E+03  0.12500000000E+03 0.  0.
         25    1    1    2    0    0 -0.16071124416E+03 -0.66283547987E+02 -0.21943713326E+03  0.30659300088E+03  0.12500000000E+03 0.  0.
         25    1    1    2    0    0  0.13546644912E+03  0.21794398967E+02 -0.35948512697E+03  0.40457472880E+03  0.12500000000E+03 0.  0.
</event>
<event>
 5    0  0.5829567E-005  0.3265954E+03  0.7546771E-02  0.1072653E+00
         21   -1    0    0  502  501  0.00000000000E+00  0.00000000000E+00  0.53752050928E+03  0.53752050928E+03  0.00000000000E+00 0. -1.
         21   -1    0    0  501  502 -0.00000000000E+00 -0.00000000000E+00 -0.19843809495E+03  0.19843809495E+03  0.00000000000E+00 0. -1.
         25    1    1    2    0    0 -0.67244781200E+02  0.48875174622E+02  0.21526726469E+03  0.26244168598E+03  0.12500000000E+03 0.  0.
         25    1    1    2    0    0  0.51829497941E+02  0.13184749205E+03  0.16330274039E+03  0.24972553541E+03  0.12500000000E+03 0.  0.
         25    1    1    2    0    0  0.15415283259E+02 -0.18072266667E+03 -0.39487590760E+02  0.22379138283E+03  0.12500000000E+03 0.  0.
</event>
<event>
 5    0  0.5829567E-005  0.2607681E+03  0.7546771E-02  0.1106683E+00
         21   -1    0    0  502  501  0.00000000000E+00  0.00000000000E+00  0.16025858040E+04  0.16025858040E+04  0.00000000000E+00 0. -1.
         21   -1    0    0  501  502 -0.00000000000E+00 -0.00000000000E+00 -0.42431430691E+02  0.42431430691E+02  0.00000000000E+00 0. -1.
         25    1    1    2    0    0  0.56516951872E+02  0.44001935305E+02  0.26859118686E+03  0.30478937288E+03  0.12500000000E+03 0.  0.
         25    1    1    2    0    0 -0.34642635265E+02 -0.57989369600E+02  0.11053983738E+04  0.11144924603E+04  0.12500000000E+03 0.  0.
         25    1    1    2    0    0 -0.21874316606E+02  0.13987434295E+02  0.18616481260E+03  0.22573540151E+03  0.12500000000E+03 0.  0.
</event>
<event>
 5    0  0.5829567E-005  0.3259342E+03  0.7546771E-02  0.1072950E+00
         21   -1    0    0  502  501  0.00000000000E+00  0.00000000000E+00  0.25475182504E+04  0.25475182504E+04  0.00000000000E+00 0.  1.
         21   -1    0    0  501  502 -0.00000000000E+00 -0.00000000000E+00 -0.41700630627E+02  0.41700630627E+02  0.00000000000E+00 0.  1.
         25    1    1    2    0    0 -0.78774162332E+02  0.55056427458E+02  0.43701305441E+03  0.46458797723E+03  0.12500000000E+03 0.  0.
         25    1    1    2    0    0  0.10831042206E+03 -0.16278844366E+03  0.17414753595E+04  0.17568701297E+04  0.12500000000E+03 0.  0.
         25    1    1    2    0    0 -0.29536259726E+02  0.10773201620E+03  0.32732920587E+03  0.36776077411E+03  0.12500000000E+03 0.  0.
</event>
<event>
 5    0  0.5829567E-005  0.2373147E+03  0.7546771E-02  0.1121595E+00
         21   -1    0    0  502  501  0.00000000000E+00  0.00000000000E+00  0.31486102982E+03  0.31486102982E+03  0.00000000000E+00 0.  1.
         21   -1    0    0  501  502 -0.00000000000E+00 -0.00000000000E+00 -0.17886710193E+03  0.17886710193E+03  0.00000000000E+00 0.  1.
         25    1    1    2    0    0 -0.25646525097E+02 -0.81190250670E+02  0.71666747962E+02  0.16736404577E+03  0.12500000000E+03 0.  0.
         25    1    1    2    0    0  0.92950608437E+02  0.17544634719E+02 -0.31301981317E+01  0.15678784378E+03  0.12500000000E+03 0.  0.
         25    1    1    2    0    0 -0.67304083340E+02  0.63645615951E+02  0.67457378061E+02  0.16957624220E+03  0.12500000000E+03 0.  0.
</event>
<event>
 5    0  0.7194922E-005  0.3535765E+03  0.7546771E-02  0.1061157E+00
         21   -1    0    0  502  501  0.00000000000E+00  0.00000000000E+00  0.29685414135E+03  0.29685414135E+03  0.00000000000E+00 0. -1.
         21   -1    0    0  501  502 -0.00000000000E+00 -0.00000000000E+00 -0.42113716534E+03  0.42113716534E+03  0.00000000000E+00 0. -1.
         25    1    1    2    0    0 -0.81913045950E+02 -0.58617229493E+02  0.95266446155E+02  0.18667196483E+03  0.12500000000E+03 0.  0.
         25    1    1    2    0    0 -0.29027973937E+02 -0.27650788581E+02 -0.29945708377E+03  0.32696595297E+03  0.12500000000E+03 0.  0.
         25    1    1    2    0    0  0.11094101989E+03  0.86268018074E+02  0.79907613626E+02  0.20435338889E+03  0.12500000000E+03 0.  0.
</event>
<event>
 5    0  0.5829567E-005  0.3751393E+03  0.7546771E-02  0.1052745E+00
         21   -1    0    0  502  501  0.00000000000E+00  0.00000000000E+00  0.40159449080E+03  0.40159449080E+03  0.00000000000E+00 0.  1.
         21   -1    0    0  501  502 -0.00000000000E+00 -0.00000000000E+00 -0.35042678022E+03  0.35042678022E+03  0.00000000000E+00 0.  1.
         25    1    1    2    0    0  0.97620969584E+02 -0.97605021527E+02 -0.11211943044E+03  0.21737608105E+03  0.12500000000E+03 0.  0.
         25    1    1    2    0    0 -0.50431347050E+02 -0.13538997482E+03  0.18402181348E+03  0.26525986105E+03  0.12500000000E+03 0.  0.
         25    1    1    2    0    0 -0.47189622534E+02  0.23299499634E+03 -0.20734672466E+02  0.26938532892E+03  0.12500000000E+03 0.  0.
</event>
<event>
 5    0  0.5829567E-005  0.3912437E+03  0.7546771E-02  0.1046855E+00
         21   -1    0    0  502  501  0.00000000000E+00  0.00000000000E+00  0.52307920411E+03  0.52307920411E+03  0.00000000000E+00 0. -1.
         21   -1    0    0  501  502 -0.00000000000E+00 -0.00000000000E+00 -0.29263565617E+03  0.29263565617E+03  0.00000000000E+00 0. -1.
         25    1    1    2    0    0 -0.46196660161E+02 -0.14841133748E+03  0.34364156437E+02  0.20240047369E+03  0.12500000000E+03 0.  0.
         25    1    1    2    0    0  0.16705236799E+03  0.28768793506E+03  0.90155444819E+02  0.36663857661E+03  0.12500000000E+03 0.  0.
         25    1    1    2    0    0 -0.12085570783E+03 -0.13927659758E+03  0.10592394668E+03  0.24667580998E+03  0.12500000000E+03 0.  0.
</event>
<event>
 5    0  0.5829567E-005  0.2494815E+03  0.7546771E-02  0.1113633E+00
         21   -1    0    0  502  501  0.00000000000E+00  0.00000000000E+00  0.13272229187E+03  0.13272229187E+03  0.00000000000E+00 0. -1.
         21   -1    0    0  501  502 -0.00000000000E+00 -0.00000000000E+00 -0.46895669107E+03  0.46895669107E+03  0.00000000000E+00 0. -1.
         25    1    1    2    0    0 -0.10301490384E+03 -0.29356130793E+02 -0.84465511402E+02  0.18502236471E+03  0.12500000000E+03 0.  0.
         25    1    1    2    0    0 -0.16247808214E+02  0.83178358538E+02 -0.11311476135E+03  0.18868645907E+03  0.12500000000E+03 0.  0.
         25    1    1    2    0    0  0.11926271205E+03 -0.53822227745E+02 -0.13865412644E+03  0.22797015915E+03  0.12500000000E+03 0.  0.
</event>
<event>
 5    0  0.5829567E-005  0.4023012E+03  0.7546771E-02  0.1042986E+00
         21   -1    0    0  502  501  0.00000000000E+00  0.00000000000E+00  0.12101268934E+04  0.12101268934E+04  0.00000000000E+00 0.  1.
         21   -1    0    0  501  502 -0.00000000000E+00 -0.00000000000E+00 -0.13374319026E+03  0.13374319026E+03  0.00000000000E+00 0.  1.
         25    1    1    2    0    0  0.19040658774E+03  0.12987444641E+03  0.13944194983E+03  0.29696986018E+03  0.12500000000E+03 0.  0.
         25    1    1    2    0    0 -0.16607206872E+03 -0.89284623214E+02  0.21298198706E+03  0.31070565293E+03  0.12500000000E+03 0.  0.
         25    1    1    2    0    0 -0.24334519022E+02 -0.40589823199E+02  0.72395976629E+03  0.73619457059E+03  0.12500000000E+03 0.  0.
</event>
<event>
 5    0  0.5829567E-005  0.3438204E+03  0.7546771E-02  0.1065180E+00
         21   -1    0    0  502  501  0.00000000000E+00  0.00000000000E+00  0.11758781551E+04  0.11758781551E+04  0.00000000000E+00 0. -1.
         21   -1    0    0  501  502 -0.00000000000E+00 -0.00000000000E+00 -0.10053122542E+03  0.10053122542E+03  0.00000000000E+00 0. -1.
         25    1    1    2    0    0  0.50264758825E+02 -0.16055127484E+03  0.21407456861E+03  0.29959335566E+03  0.12500000000E+03 0.  0.
         25    1    1    2    0    0  0.56852113364E+02 -0.67573008781E+02  0.16093061484E+03  0.22208542749E+03  0.12500000000E+03 0.  0.
         25    1    1    2    0    0 -0.10711687219E+03  0.22812428362E+03  0.70034174626E+03  0.75473059739E+03  0.12500000000E+03 0.  0.
</event>
<event>
 5    0  0.5829567E-005  0.2899031E+03  0.7546771E-02  0.1090400E+00
         21   -1    0    0  502  501  0.00000000000E+00  0.00000000000E+00  0.58821047068E+03  0.58821047068E+03  0.00000000000E+00 0. -1.
         21   -1    0    0  501  502 -0.00000000000E+00 -0.00000000000E+00 -0.14288049547E+03  0.14288049547E+03  0.00000000000E+00 0. -1.
         25    1    1    2    0    0  0.14904007129E+02  0.74730505663E+00  0.61317539449E+02  0.14002688505E+03  0.12500000000E+03 0.  0.
         25    1    1    2    0    0 -0.13711311034E+03  0.13001929051E+03  0.23698002003E+03  0.32785599098E+03  0.12500000000E+03 0.  0.
         25    1    1    2    0    0  0.12220910321E+03 -0.13076659557E+03  0.14703241573E+03  0.26320809011E+03  0.12500000000E+03 0.  0.
</event>
<event>
 5    0  0.5829567E-005  0.2450746E+03  0.7546771E-02  0.1116458E+00
         21   -1    0    0  502  501  0.00000000000E+00  0.00000000000E+00  0.16494788632E+02  0.16494788632E+02  0.00000000000E+00 0. -1.
         21   -1    0    0  501  502 -0.00000000000E+00 -0.00000000000E+00 -0.36412436916E+04  0.36412436916E+04  0.00000000000E+00 0. -1.
         25    1    1    2    0    0 -0.16440375095E+02 -0.40619837765E+02 -0.15704928001E+04  0.15760688095E+04  0.12500000000E+03 0.  0.
         25    1    1    2    0    0 -0.47259610612E+02  0.10563475439E+03 -0.80115375025E+03  0.81906318662E+03  0.12500000000E+03 0.  0.
         25    1    1    2    0    0  0.63699985707E+02 -0.65014916621E+02 -0.12531023526E+04  0.12626064841E+04  0.12500000000E+03 0.  0.
</event>
<event>
 5    0  0.5829567E-005  0.4215202E+03  0.7546771E-02  0.1036573E+00
         21   -1    0    0  502  501  0.00000000000E+00  0.00000000000E+00  0.14060891625E+04  0.14060891625E+04  0.00000000000E+00 0.  1.
         21   -1    0    0  501  502 -0.00000000000E+00 -0.00000000000E+00 -0.12636417633E+03  0.12636417633E+03  0.00000000000E+00 0.  1.
         25    1    1    2    0    0  0.20125106583E+03  0.12231146471E+03  0.80922235092E+03  0.85201402519E+03  0.12500000000E+03 0.  0.
         25    1    1    2    0    0  0.72826027846E+02 -0.17646868226E+01  0.24766203370E+03  0.28682438423E+03  0.12500000000E+03 0.  0.
         25    1    1    2    0    0 -0.27407709368E+03 -0.12054677789E+03  0.22284060151E+03  0.39361492936E+03  0.12500000000E+03 0.  0.
</event>
<event>
 5    0  0.6591200E-005  0.2486123E+03  0.7546771E-02  0.1114185E+00
         21   -1    0    0  502  501  0.00000000000E+00  0.00000000000E+00  0.43155783377E+03  0.43155783377E+03  0.00000000000E+00 0. -1.
         21   -1    0    0  501  502 -0.00000000000E+00 -0.00000000000E+00 -0.14322078586E+03  0.14322078586E+03  0.00000000000E+00 0. -1.
         25    1    1    2    0    0 -0.33074270528E+02  0.14129017880E+03  0.12844061467E+03  0.23060531974E+03  0.12500000000E+03 0.  0.
         25    1    1    2    0    0  0.41805606507E+02 -0.76612887411E+02  0.36426564043E+02  0.15674545550E+03  0.12500000000E+03 0.  0.
         25    1    1    2    0    0 -0.87313359793E+01 -0.64677291388E+02  0.12346986919E+03  0.18742784438E+03  0.12500000000E+03 0.  0.
</event>
<event>
 5    0  0.5829567E-005  0.3286153E+03  0.7546771E-02  0.1071751E+00
         21   -1    0    0  502  501  0.00000000000E+00  0.00000000000E+00  0.24829298049E+03  0.24829298049E+03  0.00000000000E+00 0. -1.
         21   -1    0    0  501  502 -0.00000000000E+00 -0.00000000000E+00 -0.43492174417E+03  0.43492174417E+03  0.00000000000E+00 0. -1.
         25    1    1    2    0    0 -0.57182199004E+02  0.79202934484E+02 -0.19680294833E+02  0.15986000975E+03  0.12500000000E+03 0.  0.
         25    1    1    2    0    0 -0.54342574127E+02 -0.72727670625E+02 -0.28094712192E+03  0.32062238654E+03  0.12500000000E+03 0.  0.
         25    1    1    2    0    0  0.11152477313E+03 -0.64752638592E+01  0.11399865307E+03  0.20273232837E+03  0.12500000000E+03 0.  0.
</event>
<event>
 5    0  0.5829567E-005  0.2774368E+03  0.7546771E-02  0.1097097E+00
         21   -1    0    0  502  501  0.00000000000E+00  0.00000000000E+00  0.86264336129E+03  0.86264336129E+03  0.00000000000E+00 0. -1.
         21   -1    0    0  501  502 -0.00000000000E+00 -0.00000000000E+00 -0.89227110165E+02  0.89227110165E+02  0.00000000000E+00 0. -1.
         25    1    1    2    0    0 -0.36070142181E+02  0.16971235648E+03  0.31685844151E+03  0.38226641371E+03  0.12500000000E+03 0.  0.
         25    1    1    2    0    0  0.63023564475E+02 -0.20615150595E+02  0.15661378120E+03  0.21106830784E+03  0.12500000000E+03 0.  0.
         25    1    1    2    0    0 -0.26953422294E+02 -0.14909720588E+03  0.29994402841E+03  0.35853574989E+03  0.12500000000E+03 0.  0.
</event>
<event>
 5    0  0.5829567E-005  0.3876726E+03  0.7546771E-02  0.1048134E+00
         21   -1    0    0  502  501  0.00000000000E+00  0.00000000000E+00  0.23326195141E+03  0.23326195141E+03  0.00000000000E+00 0.  1.
         21   -1    0    0  501  502 -0.00000000000E+00 -0.00000000000E+00 -0.64429736674E+03  0.64429736674E+03  0.00000000000E+00 0.  1.
         25    1    1    2    0    0  0.21829111098E+03  0.23141523341E+03 -0.16323557680E+03  0.37878077158E+03  0.12500000000E+03 0.  0.
         25    1    1    2    0    0 -0.80945460648E+02 -0.67590145107E+02 -0.24575494313E+02  0.16537699428E+03  0.12500000000E+03 0.  0.
         25    1    1    2    0    0 -0.13734565033E+03 -0.16382508830E+03 -0.22322434421E+03  0.33340155229E+03  0.12500000000E+03 0.  0.
</event>
<event>
 5    0  0.5829567E-005  0.3939847E+03  0.7546771E-02  0.1045883E+00
         21   -1    0    0  502  501  0.00000000000E+00  0.00000000000E+00  0.43015930625E+03  0.43015930625E+03  0.00000000000E+00 0.  1.
         21   -1    0    0  501  502 -0.00000000000E+00 -0.00000000000E+00 -0.36085217631E+03  0.36085217631E+03  0.00000000000E+00 0.  1.
         25    1    1    2    0    0 -0.60342467067E+02  0.59073854356E+02 -0.26736656595E+03  0.30698666777E+03  0.12500000000E+03 0.  0.
         25    1    1    2    0    0  0.67968186588E+02 -0.51523989886E+02  0.32196556675E+02  0.15471268268E+03  0.12500000000E+03 0.  0.
         25    1    1    2    0    0 -0.76257195208E+01 -0.75498644696E+01  0.30447713921E+03  0.32931213211E+03  0.12500000000E+03 0.  0.
</event>
<event>
 5    0  0.5829567E-005  0.4171668E+03  0.7546771E-02  0.1037992E+00
         21   -1    0    0  502  501  0.00000000000E+00  0.00000000000E+00  0.14152685215E+03  0.14152685215E+03  0.00000000000E+00 0. -1.
         21   -1    0    0  501  502 -0.00000000000E+00 -0.00000000000E+00 -0.12296476973E+04  0.12296476973E+04  0.00000000000E+00 0. -1.
         25    1    1    2    0    0  0.19256992178E+03  0.11414903413E+03 -0.53380043080E+03  0.59218331342E+03  0.12500000000E+03 0.  0.
         25    1    1    2    0    0  0.75099560095E+02  0.34214106564E+02 -0.20614348854E+02  0.15119689280E+03  0.12500000000E+03 0.  0.
         25    1    1    2    0    0 -0.26766948188E+03 -0.14836314070E+03 -0.53370606549E+03  0.62779434322E+03  0.12500000000E+03 0.  0.
</event>
<event>
 5    0  0.6796180E-005  0.4453326E+03  0.7546771E-02  0.1029123E+00
         21   -1    0    0  502  501  0.00000000000E+00  0.00000000000E+00  0.45242358210E+03  0.45242358210E+03  0.00000000000E+00 0. -1.
         21   -1    0    0  501  502 -0.00000000000E+00 -0.00000000000E+00 -0.43835275005E+03  0.43835275005E+03  0.00000000000E+00 0. -1.
         25    1    1    2    0    0  0.20918436169E+03 -0.17049320988E+03  0.34650624685E+02  0.29941893324E+03  0.12500000000E+03 0.  0.
         25    1    1    2    0    0 -0.15501839044E+03 -0.11754493619E+02 -0.21411752072E+03  0.29264343863E+03  0.12500000000E+03 0.  0.
         25    1    1    2    0    0 -0.54165971253E+02  0.18224770350E+03  0.19353772808E+03  0.29871396027E+03  0.12500000000E+03 0.  0.
</event>
<event>
 5    0  0.5829567E-005  0.2168157E+03  0.7546771E-02  0.1136280E+00
         21   -1    0    0  502  501  0.00000000000E+00  0.00000000000E+00  0.50496506733E+02  0.50496506733E+02  0.00000000000E+00 0.  1.
         21   -1    0    0  501  502 -0.00000000000E+00 -0.00000000000E+00 -0.93093664180E+03  0.93093664180E+03  0.00000000000E+00 0.  1.
         25    1    1    2    0    0  0.67525604513E+02 -0.27130251605E+02 -0.38480983966E+03  0.41109533021E+03  0.12500000000E+03 0.  0.
         25    1    1    2    0    0 -0.10485833228E+02  0.75329221850E+01 -0.13759903651E+03  0.18634696795E+03  0.12500000000E+03 0.  0.
         25    1    1    2    0    0 -0.57039771285E+02  0.19597329420E+02 -0.35803125889E+03  0.38399085038E+03  0.12500000000E+03 0.  0.
</event>
<event>
 5    0  0.5829567E-005  0.2930140E+03  0.7546771E-02  0.1088786E+00
         21   -1    0    0  502  501  0.00000000000E+00  0.00000000000E+00  0.20907003833E+03  0.20907003833E+03  0.00000000000E+00 0. -1.
         21   -1    0    0  501  502 -0.00000000000E+00 -0.00000000000E+00 -0.41066245249E+03  0.41066245249E+03  0.00000000000E+00 0. -1.
         25    1    1    2    0    0 -0.26321612988E+02  0.15838466281E+03 -0.71129625460E+01  0.20360285597E+03  0.12500000000E+03 0.  0.
         25    1    1    2    0    0  0.12142083005E+02 -0.19814553707E+03 -0.10711571265E+03  0.25789117848E+03  0.12500000000E+03 0.  0.
         25    1    1    2    0    0  0.14179529982E+02  0.39760874258E+02 -0.87363738957E+02  0.15823845638E+03  0.12500000000E+03 0.  0.
</event>
<event>
 5    0  0.5829567E-005  0.3114200E+03  0.7546771E-02  0.1079667E+00
         21   -1    0    0  502  501  0.00000000000E+00  0.00000000000E+00  0.14145501284E+03  0.14145501284E+03  0.00000000000E+00 0.  1.
         21   -1    0    0  501  502 -0.00000000000E+00 -0.00000000000E+00 -0.68560607066E+03  0.68560607066E+03  0.00000000000E+00 0.  1.
         25    1    1    2    0    0 -0.21452303012E+02  0.48561914129E+02 -0.71685019465E+02  0.15356497916E+03  0.12500000000E+03 0.  0.
         25    1    1    2    0    0  0.80421129412E+02 -0.59456471591E+02  0.20511191661E+02  0.16139497840E+03  0.12500000000E+03 0.  0.
         25    1    1    2    0    0 -0.58968826400E+02  0.10894557462E+02 -0.49297723002E+03  0.51210112594E+03  0.12500000000E+03 0.  0.
</event>
<event>
 5    0  0.5829567E-005  0.2931413E+03  0.7546771E-02  0.1088720E+00
         21   -1    0    0  502  501  0.00000000000E+00  0.00000000000E+00  0.85530936096E+03  0.85530936096E+03  0.00000000000E+00 0. -1.
         21   -1    0    0  501  502 -0.00000000000E+00 -0.00000000000E+00 -0.10046870405E+03  0.10046870405E+03  0.00000000000E+00 0. -1.
         25    1    1    2    0    0  0.14974851803E+03  0.57348545368E+02  0.27358619046E+03  0.34086343001E+03  0.12500000000E+03 0.  0.
         25    1    1    2    0    0 -0.12493892017E+03 -0.39456003311E+02  0.88379831241E+02  0.20150063161E+03  0.12500000000E+03 0.  0.
         25    1    1    2    0    0 -0.24809597861E+02 -0.17892542057E+02  0.39287463521E+03  0.41341400339E+03  0.12500000000E+03 0.  0.
</event>
<event>
 5    0  0.5829567E-005  0.3074995E+03  0.7546771E-02  0.1081551E+00
         21   -1    0    0  502  501  0.00000000000E+00  0.00000000000E+00  0.52820409432E+02  0.52820409432E+02  0.00000000000E+00 0. -1.
         21   -1    0    0  501  502 -0.00000000000E+00 -0.00000000000E+00 -0.17901397628E+04  0.17901397628E+04  0.00000000000E+00 0. -1.
         25    1    1    2    0    0 -0.46739550809E+01 -0.53470227213E+02 -0.57986314424E+03  0.59560656234E+03  0.12500000000E+03 0.  0.
         25    1    1    2    0    0  0.72877866757E+02  0.11741879783E+03 -0.10274433033E+04  0.10442045293E+04  0.12500000000E+03 0.  0.
         25    1    1    2    0    0 -0.68203911676E+02 -0.63948570613E+02 -0.13001290579E+03  0.20314908054E+03  0.12500000000E+03 0.  0.
</event>
<event>
 5    0  0.5829567E-005  0.2341101E+03  0.7546771E-02  0.1123780E+00
         21   -1    0    0  502  501  0.00000000000E+00  0.00000000000E+00  0.36545808223E+02  0.36545808223E+02  0.00000000000E+00 0.  1.
         21   -1    0    0  501  502 -0.00000000000E+00 -0.00000000000E+00 -0.14996942056E+04  0.14996942056E+04  0.00000000000E+00 0.  1.
         25    1    1    2    0    0 -0.56271100177E+01  0.20171958983E+02 -0.77052391186E+03  0.78087814097E+03  0.12500000000E+03 0.  0.
         25    1    1    2    0    0  0.51830922580E+02  0.15504081384E+02 -0.18758560678E+03  0.23181928511E+03  0.12500000000E+03 0.  0.
         25    1    1    2    0    0 -0.46203812562E+02 -0.35676040367E+02 -0.50503887875E+03  0.52354258776E+03  0.12500000000E+03 0.  0.
</event>
<event>
 5    0  0.5829567E-005  0.2553852E+03  0.7546771E-02  0.1109948E+00
         21   -1    0    0  502  501  0.00000000000E+00  0.00000000000E+00  0.18163194829E+04  0.18163194829E+04  0.00000000000E+00 0.  1.
         21   -1    0    0  501  502 -0.00000000000E+00 -0.00000000000E+00 -0.35908655596E+02  0.35908655596E+02  0.00000000000E+00 0.  1.
         25    1    1    2    0    0 -0.10111517281E+03  0.66639541356E+00  0.11142600492E+04  0.11257997955E+04  0.12500000000E+03 0.  0.
         25    1    1    2    0    0  0.21168944944E+01 -0.16839489268E+02  0.23995191134E+03  0.27109033438E+03  0.12500000000E+03 0.  0.
         25    1    1    2    0    0  0.98998278314E+02  0.16173093854E+02  0.42619886674E+03  0.45533800861E+03  0.12500000000E+03 0.  0.
</event>
<event>
 5    0  0.5829567E-005  0.3108205E+03  0.7546771E-02  0.1079953E+00
         21   -1    0    0  502  501  0.00000000000E+00  0.00000000000E+00  0.68259682906E+02  0.68259682906E+02  0.00000000000E+00 0.  1.
         21   -1    0    0  501  502 -0.00000000000E+00 -0.00000000000E+00 -0.14153208557E+04  0.14153208557E+04  0.00000000000E+00 0.  1.
         25    1    1    2    0    0 -0.65695820837E+02  0.47516508605E+02 -0.18557324871E+03  0.23798359208E+03  0.12500000000E+03 0.  0.
         25    1    1    2    0    0  0.16517743227E+03 -0.11258606636E+03 -0.39561358166E+03  0.46053698273E+03  0.12500000000E+03 0.  0.
         25    1    1    2    0    0 -0.99481611431E+02  0.65069557753E+02 -0.76587434240E+03  0.78505996377E+03  0.12500000000E+03 0.  0.
</event>
<event>
 5    0  0.5829567E-005  0.2487752E+03  0.7546771E-02  0.1114081E+00
         21   -1    0    0  502  501  0.00000000000E+00  0.00000000000E+00  0.26240051374E+03  0.26240051374E+03  0.00000000000E+00 0. -1.
         21   -1    0    0  501  502 -0.00000000000E+00 -0.00000000000E+00 -0.23585743524E+03  0.23585743524E+03  0.00000000000E+00 0. -1.
         25    1    1    2    0    0 -0.46619379286E+02  0.12802262908E+02  0.19168368350E+02  0.13538718848E+03  0.12500000000E+03 0.  0.
         25    1    1    2    0    0  0.58435676934E+02  0.11729690419E+03 -0.89956021613E+01  0.18132626101E+03  0.12500000000E+03 0.  0.
         25    1    1    2    0    0 -0.11816297648E+02 -0.13009916710E+03  0.16370312313E+02  0.18154449949E+03  0.12500000000E+03 0.  0.
</event>
<event>
 5    0  0.5829567E-005  0.2757816E+03  0.7546771E-02  0.1098016E+00
         21   -1    0    0  502  501  0.00000000000E+00  0.00000000000E+00  0.11103206001E+04  0.11103206001E+04  0.00000000000E+00 0. -1.
         21   -1    0    0  501  502 -0.00000000000E+00 -0.00000000000E+00 -0.68498667513E+02  0.68498667513E+02  0.00000000000E+00 0. -1.
         25    1    1    2    0    0  0.10447728116E+01 -0.56830403313E+02  0.67346758901E+02  0.15294238204E+03  0.12500000000E+03 0.  0.
         25    1    1    2    0    0  0.43609766951E+02  0.28944298155E+00  0.21252398144E+03  0.25038637790E+03  0.12500000000E+03 0.  0.
         25    1    1    2    0    0 -0.44654539763E+02  0.56540960331E+02  0.76195119220E+03  0.77549050763E+03  0.12500000000E+03 0.  0.
</event>
<event>
 5    0  0.5829567E-005  0.2164083E+03  0.7546771E-02  0.1136589E+00
         21   -1    0    0  502  501  0.00000000000E+00  0.00000000000E+00  0.63713436941E+03  0.63713436941E+03  0.00000000000E+00 0. -1.
         21   -1    0    0  501  502 -0.00000000000E+00 -0.00000000000E+00 -0.73505000364E+02  0.73505000364E+02  0.00000000000E+00 0. -1.
         25    1    1    2    0    0  0.13570782073E+02 -0.34925230998E+02  0.12872143266E+03  0.18329796811E+03  0.12500000000E+03 0.  0.
         25    1    1    2    0    0  0.29105956629E+02 -0.18833007228E+02  0.10147690492E+03  0.16469487273E+03  0.12500000000E+03 0.  0.
         25    1    1    2    0    0 -0.42676738702E+02  0.53758238226E+02  0.33343103146E+03  0.36264652893E+03  0.12500000000E+03 0.  0.
</event>
<event>
 5    0  0.5829567E-005  0.4142357E+03  0.7546771E-02  0.1038959E+00
         21   -1    0    0  502  501  0.00000000000E+00  0.00000000000E+00  0.21737715325E+03  0.21737715325E+03  0.00000000000E+00 0. -1.
         21   -1    0    0  501  502 -0.00000000000E+00 -0.00000000000E+00 -0.78937101926E+03  0.78937101926E+03  0.00000000000E+00 0.  1.
         25    1    1    2    0    0  0.22254732155E+03  0.86261975522E+02 -0.69410924323E+02  0.27822888988E+03  0.12500000000E+03 0.  0.
         25    1    1    2    0    0  0.61444995397E+02  0.89352152140E+02 -0.11280302213E+03  0.20027185612E+03  0.12500000000E+03 0.  0.
         25    1    1    2    0    0 -0.28399231694E+03 -0.17561412766E+03 -0.38977991957E+03  0.52824742651E+03  0.12500000000E+03 0.  0.
</event>
<event>
 5    0  0.5829567E-005  0.3095474E+03  0.7546771E-02  0.1080563E+00
         21   -1    0    0  502  501  0.00000000000E+00  0.00000000000E+00  0.12329680464E+04  0.12329680464E+04  0.00000000000E+00 0.  1.
         21   -1    0    0  501  502 -0.00000000000E+00 -0.00000000000E+00 -0.77714584669E+02  0.77714584669E+02  0.00000000000E+00 0.  1.
         25    1    1    2    0    0  0.75646519964E+02  0.33928292055E+02  0.12472559101E+03  0.19507690288E+03  0.12500000000E+03 0.  0.
         25    1    1    2    0    0 -0.18076079406E+03  0.71517023112E+02  0.50860121546E+03  0.55864957320E+03  0.12500000000E+03 0.  0.
         25    1    1    2    0    0  0.10511427410E+03 -0.10544531517E+03  0.52192665523E+03  0.55695615496E+03  0.12500000000E+03 0.  0.
</event>
<event>
 5    0  0.5829567E-005  0.3421139E+03  0.7546771E-02  0.1065899E+00
         21   -1    0    0  502  501  0.00000000000E+00  0.00000000000E+00  0.15082726874E+04  0.15082726874E+04  0.00000000000E+00 0.  1.
         21   -1    0    0  501  502 -0.00000000000E+00 -0.00000000000E+00 -0.77599981472E+02  0.77599981472E+02  0.00000000000E+00 0.  1.
         25    1    1    2    0    0 -0.43965245436E+02  0.20903308424E+03  0.33197609130E+03  0.41407837218E+03  0.12500000000E+03 0.  0.
         25    1    1    2    0    0 -0.85357118559E+02 -0.13327433311E+03  0.69037570017E+03  0.71922979147E+03  0.12500000000E+03 0.  0.
         25    1    1    2    0    0  0.12932236400E+03 -0.75758751137E+02  0.40832091449E+03  0.45256450525E+03  0.12500000000E+03 0.  0.
</event>
<event>
 5    0  0.5829567E-005  0.2163159E+03  0.7546771E-02  0.1136660E+00
         21   -1    0    0  502  501  0.00000000000E+00  0.00000000000E+00  0.43880296066E+03  0.43880296066E+03  0.00000000000E+00 0. -1.
         21   -1    0    0  501  502 -0.00000000000E+00 -0.00000000000E+00 -0.10663684314E+03  0.10663684314E+03  0.00000000000E+00 0. -1.
         25    1    1    2    0    0 -0.77449379299E+02 -0.15511348820E+02  0.90155216196E+02  0.17318190236E+03  0.12500000000E+03 0.  0.
         25    1    1    2    0    0  0.53734731819E+02  0.56163184050E+02  0.14936250997E+03  0.20970427757E+03  0.12500000000E+03 0.  0.
         25    1    1    2    0    0  0.23714647480E+02 -0.40651835230E+02  0.92648391359E+02  0.16255362387E+03  0.12500000000E+03 0.  0.
</event>
<event>
 5    0  0.5829567E-005  0.3930641E+03  0.7546771E-02  0.1046208E+00
         21   -1    0    0  502  501  0.00000000000E+00  0.00000000000E+00  0.93836620037E+03  0.93836620037E+03  0.00000000000E+00 0.  1.
         21   -1    0    0  501  502 -0.00000000000E+00 -0.00000000000E+00 -0.16464722028E+03  0.16464722028E+03  0.00000000000E+00 0.  1.
         25    1    1    2    0    0 -0.16030282468E+03 -0.13269698300E+03  0.90113805497E+02  0.25894204533E+03  0.12500000000E+03 0.  0.
         25    1    1    2    0    0  0.29074755422E+02  0.50629914842E+02  0.62005603187E+03  0.63521902706E+03  0.12500000000E+03 0.  0.
         25    1    1    2    0    0  0.13122806926E+03  0.82067068163E+02  0.63549142726E+02  0.20885234827E+03  0.12500000000E+03 0.  0.
</event>
<event>
 5    0  0.5829567E-005  0.2285635E+03  0.7546771E-02  0.1127655E+00
         21   -1    0    0  502  501  0.00000000000E+00  0.00000000000E+00  0.56625019605E+02  0.56625019605E+02  0.00000000000E+00 0.  1.
         21   -1    0    0  501  502 -0.00000000000E+00 -0.00000000000E+00 -0.92258262982E+03  0.92258262982E+03  0.00000000000E+00 0.  1.
         25    1    1    2    0    0  0.37940346488E+02 -0.93216351856E+02 -0.28261492593E+03  0.32499993001E+03  0.12500000000E+03 0.  0.
         25    1    1    2    0    0 -0.16222425089E+02  0.10564915962E+03 -0.27317674183E+03  0.31886587193E+03  0.12500000000E+03 0.  0.
         25    1    1    2    0    0 -0.21717921399E+02 -0.12432807764E+02 -0.31016594245E+03  0.33534184749E+03  0.12500000000E+03 0.  0.
</event>
<event>
 5    0  0.6918600E-005  0.2982263E+03  0.7546771E-02  0.1086131E+00
         21   -1    0    0  502  501  0.00000000000E+00  0.00000000000E+00  0.25220823433E+03  0.25220823433E+03  0.00000000000E+00 0. -1.
         21   -1    0    0  501  502 -0.00000000000E+00 -0.00000000000E+00 -0.35264077127E+03  0.35264077127E+03  0.00000000000E+00 0. -1.
         25    1    1    2    0    0  0.17611673859E+01  0.90027224928E+02  0.43433035081E+02  0.16006071184E+03  0.12500000000E+03 0.  0.
         25    1    1    2    0    0 -0.94934058074E+01 -0.93081989813E+02  0.89465051467E+02  0.17995381912E+03  0.12500000000E+03 0.  0.
         25    1    1    2    0    0  0.77322384216E+01  0.30547648848E+01 -0.23333062349E+03  0.26483447464E+03  0.12500000000E+03 0.  0.
</event>
<event>
 5    0  0.5829567E-005  0.3308995E+03  0.7546771E-02  0.1070740E+00
         21   -1    0    0  502  501  0.00000000000E+00  0.00000000000E+00  0.15207730346E+04  0.15207730346E+04  0.00000000000E+00 0.  1.
         21   -1    0    0  501  502 -0.00000000000E+00 -0.00000000000E+00 -0.71999213205E+02  0.71999213205E+02  0.00000000000E+00 0.  1.
         25    1    1    2    0    0  0.21318826378E+02 -0.12986557226E+02  0.32531115217E+03  0.34939302906E+03  0.12500000000E+03 0.  0.
         25    1    1    2    0    0 -0.66778028406E+02 -0.13938775400E+03  0.14973053012E+03  0.24886237701E+03  0.12500000000E+03 0.  0.
         25    1    1    2    0    0  0.45459202028E+02  0.15237431122E+03  0.97373213911E+03  0.99451684174E+03  0.12500000000E+03 0.  0.
</event>
<event>
 5    0  0.5829567E-005  0.2811945E+03  0.7546771E-02  0.1095038E+00
         21   -1    0    0  502  501  0.00000000000E+00  0.00000000000E+00  0.11672594461E+03  0.11672594461E+03  0.00000000000E+00 0.  1.
         21   -1    0    0  501  502 -0.00000000000E+00 -0.00000000000E+00 -0.67740185821E+03  0.67740185821E+03  0.00000000000E+00 0.  1.
         25    1    1    2    0    0  0.10144164786E+03  0.28095731389E+02 -0.77483524075E+02  0.18085484386E+03  0.12500000000E+03 0.  0.
         25    1    1    2    0    0 -0.20744950410E+02  0.93504195659E+02 -0.33650028813E+03  0.37152500788E+03  0.12500000000E+03 0.  0.
         25    1    1    2    0    0 -0.80696697451E+02 -0.12159992705E+03 -0.14669210140E+03  0.24174795108E+03  0.12500000000E+03 0.  0.
</event>
<event>
 5    0  0.5829567E-005  0.3584356E+03  0.7546771E-02  0.1059205E+00
         21   -1    0    0  502  501  0.00000000000E+00  0.00000000000E+00  0.85053481854E+03  0.85053481854E+03  0.00000000000E+00 0.  1.
         21   -1    0    0  501  502 -0.00000000000E+00 -0.00000000000E+00 -0.15105327871E+03  0.15105327871E+03  0.00000000000E+00 0.  1.
         25    1    1    2    0    0 -0.11858218236E+03  0.15540129367E+03  0.20350905407E+03  0.30862960185E+03  0.12500000000E+03 0.  0.
         25    1    1    2    0    0  0.15210034150E+03 -0.14425634577E+03  0.79485144350E+02  0.25668520672E+03  0.12500000000E+03 0.  0.
         25    1    1    2    0    0 -0.33518159138E+02 -0.11144947902E+02  0.41648734141E+03  0.43627328868E+03  0.12500000000E+03 0.  0.
</event>
<event>
 5    0  0.5829567E-005  0.3645281E+03  0.7546771E-02  0.1056805E+00
         21   -1    0    0  502  501  0.00000000000E+00  0.00000000000E+00  0.12091476945E+04  0.12091476945E+04  0.00000000000E+00 0.  1.
         21   -1    0    0  501  502 -0.00000000000E+00 -0.00000000000E+00 -0.10989620874E+03  0.10989620874E+03  0.00000000000E+00 0.  1.
         25    1    1    2    0    0  0.21696962560E+02  0.14596805078E+03  0.49207689374E+03  0.52871740976E+03  0.12500000000E+03 0.  0.
         25    1    1    2    0    0  0.65387312293E+02  0.73597862157E+00  0.55478234007E+03  0.57243732157E+03  0.12500000000E+03 0.  0.
         25    1    1    2    0    0 -0.87084274852E+02 -0.14670402940E+03  0.52392251936E+02  0.21788917190E+03  0.12500000000E+03 0.  0.
</event>
<event>
 5    0  0.5829567E-005  0.2671175E+03  0.7546771E-02  0.1102941E+00
         21   -1    0    0  502  501  0.00000000000E+00  0.00000000000E+00  0.14898935119E+03  0.14898935119E+03  0.00000000000E+00 0.  1.
         21   -1    0    0  501  502 -0.00000000000E+00 -0.00000000000E+00 -0.47890506485E+03  0.47890506485E+03  0.00000000000E+00 0.  1.
         25    1    1    2    0    0 -0.15350159955E+02 -0.70516928601E+02 -0.16038377214E+02  0.14522566637E+03  0.12500000000E+03 0.  0.
         25    1    1    2    0    0  0.10431155693E+02  0.11150050489E+03 -0.30817016389E+03  0.35090600096E+03  0.12500000000E+03 0.  0.
         25    1    1    2    0    0  0.49190042627E+01 -0.40983576284E+02 -0.57071725546E+01  0.13176274871E+03  0.12500000000E+03 0.  0.
</event>
<event>
 5    0  0.5829567E-005  0.2412163E+03  0.7546771E-02  0.1118985E+00
         21   -1    0    0  502  501  0.00000000000E+00  0.00000000000E+00  0.19769270631E+03  0.19769270631E+03  0.00000000000E+00 0.  1.
         21   -1    0    0  501  502 -0.00000000000E+00 -0.00000000000E+00 -0.29432206408E+03  0.29432206408E+03  0.00000000000E+00 0.  1.
         25    1    1    2    0    0 -0.31582547734E+02  0.32557226388E+02  0.20690376227E+02  0.13457533942E+03  0.12500000000E+03 0.  0.
         25    1    1    2    0    0  0.66122294526E+02  0.76586137595E+02 -0.20186650952E+02  0.16208052067E+03  0.12500000000E+03 0.  0.
         25    1    1    2    0    0 -0.34539746792E+02 -0.10914336398E+03 -0.97133083049E+02  0.19535891030E+03  0.12500000000E+03 0.  0.
</event>
<event>
 5    0  0.5829567E-005  0.2294371E+03  0.7546771E-02  0.1127037E+00
         21   -1    0    0  502  501  0.00000000000E+00  0.00000000000E+00  0.17709987798E+03  0.17709987798E+03  0.00000000000E+00 0. -1.
         21   -1    0    0  501  502 -0.00000000000E+00 -0.00000000000E+00 -0.29724112957E+03  0.29724112957E+03  0.00000000000E+00 0. -1.
         25    1    1    2    0    0 -0.65401252371E+02 -0.43914398127E+02 -0.12100753282E+03  0.19098068273E+03  0.12500000000E+03 0.  0.
         25    1    1    2    0    0  0.56287664264E+02  0.13798370068E+02  0.48312472711E+02  0.14600613406E+03  0.12500000000E+03 0.  0.
         25    1    1    2    0    0  0.91135881062E+01  0.30116028058E+02 -0.47446191470E+02  0.13735419076E+03  0.12500000000E+03 0.  0.
</event>
<event>
 5    0  0.5829567E-005  0.3462687E+03  0.7546771E-02  0.1064157E+00
         21   -1    0    0  502  501  0.00000000000E+00  0.00000000000E+00  0.69682429518E+03  0.69682429518E+03  0.00000000000E+00 0. -1.
         21   -1    0    0  501  502 -0.00000000000E+00 -0.00000000000E+00 -0.17206920495E+03  0.17206920495E+03  0.00000000000E+00 0. -1.
         25    1    1    2    0    0  0.15236341543E+03 -0.59754266167E+02  0.21212142948E+03  0.29564452224E+03  0.12500000000E+03 0.  0.
         25    1    1    2    0    0 -0.15948130700E+03 -0.12700024042E+03  0.86345232126E+02  0.25425154367E+03  0.12500000000E+03 0.  0.
         25    1    1    2    0    0  0.71178915696E+01  0.18675450659E+03  0.22628842862E+03  0.31899743422E+03  0.12500000000E+03 0.  0.
</event>
<event>
 5    0  0.6284961E-005  0.5631329E+03  0.7546771E-02  0.9984991E-01
         21   -1    0    0  502  501  0.00000000000E+00  0.00000000000E+00  0.24455486155E+03  0.24455486155E+03  0.00000000000E+00 0.  1.
         21   -1    0    0  501  502 -0.00000000000E+00 -0.00000000000E+00 -0.12967177526E+04  0.12967177526E+04  0.00000000000E+00 0.  1.
         25    1    1    2    0    0 -0.10437025140E+03 -0.88862888830E+01  0.99152288279E+02  0.19086197049E+03  0.12500000000E+03 0.  0.
         25    1    1    2    0    0 -0.25318763967E+03  0.11918466927E+03 -0.42672590968E+03  0.52538459081E+03  0.12500000000E+03 0.  0.
         25    1    1    2    0    0  0.35755789107E+03 -0.11029838039E+03 -0.72458926969E+03  0.82502605288E+03  0.12500000000E+03 0.  0.
</event>
<event>
 5    0  0.5844194E-005  0.3298024E+03  0.7546771E-02  0.1071224E+00
         21   -1    0    0  502  501  0.00000000000E+00  0.00000000000E+00  0.44109848518E+03  0.44109848518E+03  0.00000000000E+00 0. -1.
         21   -1    0    0  501  502 -0.00000000000E+00 -0.00000000000E+00 -0.24658801376E+03  0.24658801376E+03  0.00000000000E+00 0. -1.
         25    1    1    2    0    0  0.15845169250E+03 -0.79259293761E+02 -0.60309286163E+02  0.22505818026E+03  0.12500000000E+03 0.  0.
         25    1    1    2    0    0 -0.12900585738E+03 -0.61226994367E+02  0.16787129860E+03  0.25337132626E+03  0.12500000000E+03 0.  0.
         25    1    1    2    0    0 -0.29445835117E+02  0.14048628813E+03  0.86948458977E+02  0.20925699242E+03  0.12500000000E+03 0.  0.
</event>
<event>
 5    0  0.5829567E-005  0.2580559E+03  0.7546771E-02  0.1108317E+00
         21   -1    0    0  502  501  0.00000000000E+00  0.00000000000E+00  0.28182848403E+03  0.28182848403E+03  0.00000000000E+00 0.  1.
         21   -1    0    0  501  502 -0.00000000000E+00 -0.00000000000E+00 -0.23628851453E+03  0.23628851453E+03  0.00000000000E+00 0.  1.
         25    1    1    2    0    0  0.92119060094E+02  0.95290518839E+02  0.91606618542E+02  0.20391904466E+03  0.12500000000E+03 0.  0.
         25    1    1    2    0    0 -0.11113982078E+03 -0.62989134600E+02 -0.10999858760E+02  0.17906894687E+03  0.12500000000E+03 0.  0.
         25    1    1    2    0    0  0.19020760683E+02 -0.32301384239E+02 -0.35066790289E+02  0.13512900703E+03  0.12500000000E+03 0.  0.
</event>
<event>
 5    0  0.5829567E-005  0.2985243E+03  0.7546771E-02  0.1085981E+00
         21   -1    0    0  502  501  0.00000000000E+00  0.00000000000E+00  0.44224149772E+03  0.44224149772E+03  0.00000000000E+00 0.  1.
         21   -1    0    0  501  502 -0.00000000000E+00 -0.00000000000E+00 -0.20151156919E+03  0.20151156919E+03  0.00000000000E+00 0.  1.
         25    1    1    2    0    0 -0.56703614347E+02 -0.28661517510E+02 -0.20768426141E+02  0.14175016751E+03  0.12500000000E+03 0.  0.
         25    1    1    2    0    0  0.16822144516E+03  0.69949609698E+02  0.45537422409E+02  0.22558825180E+03  0.12500000000E+03 0.  0.
         25    1    1    2    0    0 -0.11151783082E+03 -0.41288092188E+02  0.21596093226E+03  0.27641464760E+03  0.12500000000E+03 0.  0.
</event>
<event>
 5    0  0.5992008E-005  0.2952487E+03  0.7546771E-02  0.1087640E+00
         21   -1    0    0  502  501  0.00000000000E+00  0.00000000000E+00  0.47300591634E+03  0.47300591634E+03  0.00000000000E+00 0. -1.
         21   -1    0    0  501  502 -0.00000000000E+00 -0.00000000000E+00 -0.18429329165E+03  0.18429329165E+03  0.00000000000E+00 0. -1.
         25    1    1    2    0    0  0.56222245482E+02  0.89005250059E+02 -0.22106769017E+02  0.16491387043E+03  0.12500000000E+03 0.  0.
         25    1    1    2    0    0 -0.10241232697E+03 -0.12187603260E+03  0.68112855383E+02  0.21355658057E+03  0.12500000000E+03 0.  0.
         25    1    1    2    0    0  0.46190081489E+02  0.32870782539E+02  0.24270653833E+03  0.27882875698E+03  0.12500000000E+03 0.  0.
</event>
<event>
 5    0  0.6670016E-005  0.3160097E+03  0.7546771E-02  0.1077501E+00
         21   -1    0    0  502  501  0.00000000000E+00  0.00000000000E+00  0.10462944506E+04  0.10462944506E+04  0.00000000000E+00 0.  1.
         21   -1    0    0  501  502 -0.00000000000E+00 -0.00000000000E+00 -0.95443648994E+02  0.95443648994E+02  0.00000000000E+00 0.  1.
         25    1    1    2    0    0 -0.11183318237E+03  0.85414726515E+02  0.39946348019E+03  0.44158624094E+03  0.12500000000E+03 0.  0.
         25    1    1    2    0    0 -0.27635087129E+02  0.82698932600E+02  0.96804032611E+02  0.18055146697E+03  0.12500000000E+03 0.  0.
         25    1    1    2    0    0  0.13946826950E+03 -0.16811365912E+03  0.45458328880E+03  0.51960039168E+03  0.12500000000E+03 0.  0.
</event>
<event>
 5    0  0.5829567E-005  0.3616690E+03  0.7546771E-02  0.1057925E+00
         21   -1    0    0  502  501  0.00000000000E+00  0.00000000000E+00  0.43307502556E+03  0.43307502556E+03  0.00000000000E+00 0.  1.
         21   -1    0    0  501  502 -0.00000000000E+00 -0.00000000000E+00 -0.30203650134E+03  0.30203650134E+03  0.00000000000E+00 0.  1.
         25    1    1    2    0    0 -0.20858959674E+03 -0.46467555227E+02  0.17398790321E+03  0.30259815601E+03  0.12500000000E+03 0.  0.
         25    1    1    2    0    0  0.46275960480E+02 -0.40675273505E+02 -0.13273741174E+03  0.19245821070E+03  0.12500000000E+03 0.  0.
         25    1    1    2    0    0  0.16231363626E+03  0.87142828732E+02  0.89788032746E+02  0.24005516020E+03  0.12500000000E+03 0.  0.
</event>
<event>
 5    0  0.5829567E-005  0.3396414E+03  0.7546771E-02  0.1066949E+00
         21   -1    0    0  502  501  0.00000000000E+00  0.00000000000E+00  0.49547982286E+03  0.49547982286E+03  0.00000000000E+00 0. -1.
         21   -1    0    0  501  502 -0.00000000000E+00 -0.00000000000E+00 -0.23281735601E+03  0.23281735601E+03  0.00000000000E+00 0. -1.
         25    1    1    2    0    0 -0.66200827482E+02  0.19127151879E+03  0.55464055121E+02  0.24427158015E+03  0.12500000000E+03 0.  0.
         25    1    1    2    0    0 -0.66598546317E+02  0.35305781994E+02  0.57284470050E+02  0.15680680828E+03  0.12500000000E+03 0.  0.
         25    1    1    2    0    0  0.13279937380E+03 -0.22657730078E+03  0.14991394167E+03  0.32721879044E+03  0.12500000000E+03 0.  0.
</event>
<event>
 5    0  0.5829567E-005  0.4175878E+03  0.7546771E-02  0.1037854E+00
         21   -1    0    0  502  501  0.00000000000E+00  0.00000000000E+00  0.11007630944E+03  0.11007630944E+03  0.00000000000E+00 0.  1.
         21   -1    0    0  501  502 -0.00000000000E+00 -0.00000000000E+00 -0.15841701604E+04  0.15841701604E+04  0.00000000000E+00 0.  1.
         25    1    1    2    0    0 -0.12087458094E+03 -0.23729913530E+03 -0.47612057957E+03  0.55967611189E+03  0.12500000000E+03 0.  0.
         25    1    1    2    0    0 -0.83060542705E+02  0.21662946472E+02 -0.61871726051E+03  0.63702777448E+03  0.12500000000E+03 0.  0.
         25    1    1    2    0    0  0.20393512364E+03  0.21563618883E+03 -0.37925601093E+03  0.49754258352E+03  0.12500000000E+03 0.  0.
</event>
<event>
 5    0  0.5829567E-005  0.3326816E+03  0.7546771E-02  0.1069956E+00
         21   -1    0    0  502  501  0.00000000000E+00  0.00000000000E+00  0.12203633507E+04  0.12203633507E+04  0.00000000000E+00 0.  1.
         21   -1    0    0  501  502 -0.00000000000E+00 -0.00000000000E+00 -0.90691874773E+02  0.90691874773E+02  0.00000000000E+00 0.  1.
         25    1    1    2    0    0 -0.14145521834E+03  0.16259417229E+03  0.56913198707E+03  0.62127502957E+03  0.12500000000E+03 0.  0.
         25    1    1    2    0    0  0.13698720884E+03 -0.99414515615E+02  0.48920701280E+03  0.53253848938E+03  0.12500000000E+03 0.  0.
         25    1    1    2    0    0  0.44680095013E+01 -0.63179656677E+02  0.71332476040E+02  0.15724170651E+03  0.12500000000E+03 0.  0.
</event>
<event>
 5    0  0.5829567E-005  0.2536182E+03  0.7546771E-02  0.1111039E+00
         21   -1    0    0  502  501  0.00000000000E+00  0.00000000000E+00  0.14338579191E+04  0.14338579191E+04  0.00000000000E+00 0.  1.
         21   -1    0    0  501  502 -0.00000000000E+00 -0.00000000000E+00 -0.44859539139E+02  0.44859539139E+02  0.00000000000E+00 0.  1.
         25    1    1    2    0    0  0.66186096242E+02  0.33446459984E+02  0.16110647045E+03  0.21697824739E+03  0.12500000000E+03 0.  0.
         25    1    1    2    0    0  0.13115195667E+02  0.26576051161E+02  0.47324884914E+03  0.49037512994E+03  0.12500000000E+03 0.  0.
         25    1    1    2    0    0 -0.79301291909E+02 -0.60022511145E+02  0.75464306034E+03  0.77136408088E+03  0.12500000000E+03 0.  0.
</event>
<event>
 5    0  0.5829567E-005  0.3090962E+03  0.7546771E-02  0.1080780E+00
         21   -1    0    0  502  501  0.00000000000E+00  0.00000000000E+00  0.51269791561E+03  0.51269791561E+03  0.00000000000E+00 0.  1.
         21   -1    0    0  501  502 -0.00000000000E+00 -0.00000000000E+00 -0.18634850638E+03  0.18634850638E+03  0.00000000000E+00 0.  1.
         25    1    1    2    0    0  0.79595486250E+02 -0.10096793598E+03  0.18424595450E+03  0.25710219228E+03  0.12500000000E+03 0.  0.
         25    1    1    2    0    0 -0.13829134302E+03  0.90375774231E+02  0.20354502832E+03  0.29042702125E+03  0.12500000000E+03 0.  0.
         25    1    1    2    0    0  0.58695856771E+02  0.10592161744E+02 -0.61441573593E+02  0.15151720846E+03  0.12500000000E+03 0.  0.
</event>
<event>
 5    0  0.5829567E-005  0.2201496E+03  0.7546771E-02  0.1133772E+00
         21   -1    0    0  502  501  0.00000000000E+00  0.00000000000E+00  0.28389840234E+02  0.28389840234E+02  0.00000000000E+00 0.  1.
         21   -1    0    0  501  502 -0.00000000000E+00 -0.00000000000E+00 -0.17071553178E+04  0.17071553178E+04  0.00000000000E+00 0.  1.
         25    1    1    2    0    0 -0.29435034708E+02 -0.12444472133E+02 -0.23664442691E+03  0.26953083486E+03  0.12500000000E+03 0.  0.
         25    1    1    2    0    0 -0.14318310172E+02  0.23645905538E+02 -0.81188191500E+03  0.82191324770E+03  0.12500000000E+03 0.  0.
         25    1    1    2    0    0  0.43753344879E+02 -0.11201433405E+02 -0.63023913569E+03  0.64410107549E+03  0.12500000000E+03 0.  0.
</event>
<event>
 5    0  0.5829567E-005  0.2855922E+03  0.7546771E-02  0.1092673E+00
         21   -1    0    0  502  501  0.00000000000E+00  0.00000000000E+00  0.25036432740E+03  0.25036432740E+03  0.00000000000E+00 0.  1.
         21   -1    0    0  501  502 -0.00000000000E+00 -0.00000000000E+00 -0.32577680992E+03  0.32577680992E+03  0.00000000000E+00 0.  1.
         25    1    1    2    0    0  0.21960993141E+02  0.13642273464E+03 -0.24687181338E+02  0.18795718839E+03  0.12500000000E+03 0.  0.
         25    1    1    2    0    0  0.11292826867E+03 -0.30332935327E+02 -0.38989422403E+02  0.17555072170E+03  0.12500000000E+03 0.  0.
         25    1    1    2    0    0 -0.13488926182E+03 -0.10608979931E+03 -0.11735878777E+02  0.21263322723E+03  0.12500000000E+03 0.  0.
</event>
<event>
 5    0  0.5829567E-005  0.3076459E+03  0.7546771E-02  0.1081480E+00
         21   -1    0    0  502  501  0.00000000000E+00  0.00000000000E+00  0.15990129009E+03  0.15990129009E+03  0.00000000000E+00 0.  1.
         21   -1    0    0  501  502 -0.00000000000E+00 -0.00000000000E+00 -0.59190278669E+03  0.59190278669E+03  0.00000000000E+00 0.  1.
         25    1    1    2    0    0  0.77196927726E+02 -0.24927759221E+02 -0.33340217422E+03  0.36518867535E+03  0.12500000000E+03 0.  0.
         25    1    1    2    0    0 -0.85372549449E+02  0.66104383587E+02 -0.16969297812E+03  0.23680998407E+03  0.12500000000E+03 0.  0.
         25    1    1    2    0    0  0.81756217233E+01 -0.41176624366E+02  0.71093655743E+02  0.14980541736E+03  0.12500000000E+03 0.  0.
</event>
<event>
 5    0  0.5829567E-005  0.2962094E+03  0.7546771E-02  0.1087151E+00
         21   -1    0    0  502  501  0.00000000000E+00  0.00000000000E+00  0.42356654312E+03  0.42356654312E+03  0.00000000000E+00 0.  1.
         21   -1    0    0  501  502 -0.00000000000E+00 -0.00000000000E+00 -0.20714568475E+03  0.20714568475E+03  0.00000000000E+00 0.  1.
         25    1    1    2    0    0  0.37699660520E+02  0.68484733275E+02  0.24260302608E+03  0.28388844880E+03  0.12500000000E+03 0.  0.
         25    1    1    2    0    0 -0.11132880500E+03 -0.87825433696E+02  0.27320369166E+02  0.19099427269E+03  0.12500000000E+03 0.  0.
         25    1    1    2    0    0  0.73629144483E+02  0.19340700421E+02 -0.53502536875E+02  0.15582950639E+03  0.12500000000E+03 0.  0.
</event>
<event>
 5    0  0.5829567E-005  0.2365975E+03  0.7546771E-02  0.1122080E+00
         21   -1    0    0  502  501  0.00000000000E+00  0.00000000000E+00  0.58983850105E+03  0.58983850105E+03  0.00000000000E+00 0.  1.
         21   -1    0    0  501  502 -0.00000000000E+00 -0.00000000000E+00 -0.94904552037E+02  0.94904552037E+02  0.00000000000E+00 0.  1.
         25    1    1    2    0    0 -0.16134816841E+02 -0.32452912821E+02  0.18072753445E+03  0.22271274228E+03  0.12500000000E+03 0.  0.
         25    1    1    2    0    0 -0.98756855790E+02  0.51336850317E+02  0.16858725343E+03  0.23756062550E+03  0.12500000000E+03 0.  0.
         25    1    1    2    0    0  0.11489167263E+03 -0.18883937496E+02  0.14561916113E+03  0.22446968531E+03  0.12500000000E+03 0.  0.
</event>
<event>
 5    0  0.5829567E-005  0.3471067E+03  0.7546771E-02  0.1063809E+00
         21   -1    0    0  502  501  0.00000000000E+00  0.00000000000E+00  0.25797303473E+03  0.25797303473E+03  0.00000000000E+00 0. -1.
         21   -1    0    0  501  502 -0.00000000000E+00 -0.00000000000E+00 -0.46703747559E+03  0.46703747559E+03  0.00000000000E+00 0. -1.
         25    1    1    2    0    0  0.11709618331E+03 -0.94749662040E+02 -0.27942702097E+03  0.34116487898E+03  0.12500000000E+03 0.  0.
         25    1    1    2    0    0  0.66192973097E+02  0.26691761407E+02  0.11277194275E+02  0.14438190650E+03  0.12500000000E+03 0.  0.
         25    1    1    2    0    0 -0.18328915640E+03  0.68057900633E+02  0.59085385838E+02  0.23946372484E+03  0.12500000000E+03 0.  0.
</event>
<event>
 5    0  0.5829567E-005  0.2894885E+03  0.7546771E-02  0.1090617E+00
         21   -1    0    0  502  501  0.00000000000E+00  0.00000000000E+00  0.76809638872E+03  0.76809638872E+03  0.00000000000E+00 0.  1.
         21   -1    0    0  501  502 -0.00000000000E+00 -0.00000000000E+00 -0.10910555320E+03  0.10910555320E+03  0.00000000000E+00 0.  1.
         25    1    1    2    0    0 -0.64062870566E+02  0.38765440857E+02  0.30314963596E+02  0.14883147452E+03  0.12500000000E+03 0.  0.
         25    1    1    2    0    0  0.87277836011E+02  0.97573811609E+02  0.29289431526E+03  0.34431112280E+03  0.12500000000E+03 0.  0.
         25    1    1    2    0    0 -0.23214965444E+02 -0.13633925247E+03  0.33578155665E+03  0.38405934460E+03  0.12500000000E+03 0.  0.
</event>
<event>
 5    0  0.5829567E-005  0.2845862E+03  0.7546771E-02  0.1093210E+00
         21   -1    0    0  502  501  0.00000000000E+00  0.00000000000E+00  0.10251163448E+04  0.10251163448E+04  0.00000000000E+00 0.  1.
         21   -1    0    0  501  502 -0.00000000000E+00 -0.00000000000E+00 -0.79004989147E+02  0.79004989147E+02  0.00000000000E+00 0.  1.
         25    1    1    2    0    0  0.50639728077E+02 -0.81528016768E+02  0.27919654583E+03  0.32060397811E+03  0.12500000000E+03 0.  0.
         25    1    1    2    0    0 -0.11169384076E+03  0.16101208772E+02  0.58614986750E+03  0.60986181235E+03  0.12500000000E+03 0.  0.
         25    1    1    2    0    0  0.61054112686E+02  0.65426807995E+02  0.80764942348E+02  0.17365554351E+03  0.12500000000E+03 0.  0.
</event>
<event>
 5    0  0.5829567E-005  0.3731223E+03  0.7546771E-02  0.1053505E+00
         21   -1    0    0  502  501  0.00000000000E+00  0.00000000000E+00  0.12918893363E+03  0.12918893363E+03  0.00000000000E+00 0.  1.
         21   -1    0    0  501  502 -0.00000000000E+00 -0.00000000000E+00 -0.10776483574E+04  0.10776483574E+04  0.00000000000E+00 0.  1.
         25    1    1    2    0    0 -0.20315769162E+03  0.13786751365E+03 -0.66658631329E+03  0.72127859531E+03  0.12500000000E+03 0.  0.
         25    1    1    2    0    0  0.18936821986E+03 -0.37294542138E+02 -0.20075885959E+03  0.30525452539E+03  0.12500000000E+03 0.  0.
         25    1    1    2    0    0  0.13789471758E+02 -0.10057297152E+03 -0.81114250850E+02  0.18030417028E+03  0.12500000000E+03 0.  0.
</event>
<event>
 5    0  0.5829567E-005  0.2765182E+03  0.7546771E-02  0.1097606E+00
         21   -1    0    0  502  501  0.00000000000E+00  0.00000000000E+00  0.27788041936E+03  0.27788041936E+03  0.00000000000E+00 0.  1.
         21   -1    0    0  501  502 -0.00000000000E+00 -0.00000000000E+00 -0.27516263711E+03  0.27516263711E+03  0.00000000000E+00 0.  1.
         25    1    1    2    0    0  0.63799000409E+02 -0.30376797451E+02  0.11291535343E+03  0.18266893364E+03  0.12500000000E+03 0.  0.
         25    1    1    2    0    0 -0.63073953081E+01 -0.10267259846E+03 -0.58362167770E+02  0.17208308557E+03  0.12500000000E+03 0.  0.
         25    1    1    2    0    0 -0.57491605100E+02  0.13304939592E+03 -0.51835403413E+02  0.19829103726E+03  0.12500000000E+03 0.  0.
</event>
<event>
 5    0  0.5829567E-005  0.3510477E+03  0.7546771E-02  0.1062186E+00
         21   -1    0    0  502  501  0.00000000000E+00  0.00000000000E+00  0.59140811635E+03  0.59140811635E+03  0.00000000000E+00 0.  1.
         21   -1    0    0  501  502 -0.00000000000E+00 -0.00000000000E+00 -0.20837474530E+03  0.20837474530E+03  0.00000000000E+00 0.  1.
         25    1    1    2    0    0 -0.10896670012E+03  0.73995294683E+02  0.14867635928E+03  0.23468852800E+03  0.12500000000E+03 0.  0.
         25    1    1    2    0    0  0.21817175473E+02  0.92748639031E+02 -0.81289266420E+02  0.17694983476E+03  0.12500000000E+03 0.  0.
         25    1    1    2    0    0  0.87149524643E+02 -0.16674393371E+03  0.31564627819E+03  0.38814449888E+03  0.12500000000E+03 0.  0.
</event>
<event>
 5    0  0.5829567E-005  0.2547059E+03  0.7546771E-02  0.1110366E+00
         21   -1    0    0  502  501  0.00000000000E+00  0.00000000000E+00  0.12186388282E+04  0.12186388282E+04  0.00000000000E+00 0. -1.
         21   -1    0    0  501  502 -0.00000000000E+00 -0.00000000000E+00 -0.53235685169E+02  0.53235685169E+02  0.00000000000E+00 0. -1.
         25    1    1    2    0    0 -0.91256866665E+02  0.17658960904E+02  0.35441466866E+03  0.38713616723E+03  0.12500000000E+03 0.  0.
         25    1    1    2    0    0  0.12590617552E+03 -0.37081304996E+02  0.66143012841E+03  0.68581499180E+03  0.12500000000E+03 0.  0.
         25    1    1    2    0    0 -0.34649308858E+02  0.19422344092E+02  0.14955834596E+03  0.19892335434E+03  0.12500000000E+03 0.  0.
</event>
<event>
 5    0  0.5829567E-005  0.3100853E+03  0.7546771E-02  0.1080305E+00
         21   -1    0    0  502  501  0.00000000000E+00  0.00000000000E+00  0.29499488354E+03  0.29499488354E+03  0.00000000000E+00 0. -1.
         21   -1    0    0  501  502 -0.00000000000E+00 -0.00000000000E+00 -0.32594771044E+03  0.32594771044E+03  0.00000000000E+00 0. -1.
         25    1    1    2    0    0 -0.23965648772E+02 -0.87288085633E+02 -0.21536894190E+03  0.26495724816E+03  0.12500000000E+03 0.  0.
         25    1    1    2    0    0  0.12239545411E+02 -0.19697197396E+02  0.13113265798E+03  0.18264325897E+03  0.12500000000E+03 0.  0.
         25    1    1    2    0    0  0.11726103361E+02  0.10698528303E+03  0.53283457025E+02  0.17334208686E+03  0.12500000000E+03 0.  0.
</event>
<event>
 5    0  0.5829567E-005  0.6004568E+03  0.7546771E-02  0.9904459E-01
         21   -1    0    0  502  501  0.00000000000E+00  0.00000000000E+00  0.61559319984E+03  0.61559319984E+03  0.00000000000E+00 0.  1.
         21   -1    0    0  501  502 -0.00000000000E+00 -0.00000000000E+00 -0.58569267081E+03  0.58569267081E+03  0.00000000000E+00 0.  1.
         25    1    1    2    0    0 -0.22703572347E+03 -0.15065345143E+03 -0.19277824599E+03  0.35641287054E+03  0.12500000000E+03 0.  0.
         25    1    1    2    0    0 -0.25705372176E+03  0.58157263419E+02  0.15966653618E+03  0.33253163148E+03  0.12500000000E+03 0.  0.
         25    1    1    2    0    0  0.48408944523E+03  0.92496188015E+02  0.63012238840E+02  0.51234136864E+03  0.12500000000E+03 0.  0.
</event>
<event>
 5    0  0.5829567E-005  0.2643169E+03  0.7546771E-02  0.1104577E+00
         21   -1    0    0  502  501  0.00000000000E+00  0.00000000000E+00  0.31739923898E+03  0.31739923898E+03  0.00000000000E+00 0. -1.
         21   -1    0    0  501  502 -0.00000000000E+00 -0.00000000000E+00 -0.22011220145E+03  0.22011220145E+03  0.00000000000E+00 0. -1.
         25    1    1    2    0    0 -0.43595369080E+02 -0.62412634936E+01  0.76821385873E+02  0.15318627518E+03  0.12500000000E+03 0.  0.
         25    1    1    2    0    0  0.10387798825E+03  0.43938601295E+02 -0.10078557150E+03  0.19622428124E+03  0.12500000000E+03 0.  0.
         25    1    1    2    0    0 -0.60282619166E+02 -0.37697337801E+02  0.12125122315E+03  0.18810088401E+03  0.12500000000E+03 0.  0.
</event>
<event>
 5    0  0.5829567E-005  0.2632164E+03  0.7546771E-02  0.1105226E+00
         21   -1    0    0  502  501  0.00000000000E+00  0.00000000000E+00  0.11204296443E+03  0.11204296443E+03  0.00000000000E+00 0. -1.
         21   -1    0    0  501  502 -0.00000000000E+00 -0.00000000000E+00 -0.61836000924E+03  0.61836000924E+03  0.00000000000E+00 0. -1.
         25    1    1    2    0    0 -0.89171124090E+02  0.58234532025E+02 -0.30171891935E+03  0.34351427392E+03  0.12500000000E+03 0.  0.
         25    1    1    2    0    0  0.71760758599E+02  0.56661371686E+02 -0.12268382922E+03  0.19757641425E+03  0.12500000000E+03 0.  0.
         25    1    1    2    0    0  0.17410365490E+02 -0.11489590371E+03 -0.81914296239E+02  0.18931228551E+03  0.12500000000E+03 0.  0.
</event>
<event>
 5    0  0.5829567E-005  0.3162689E+03  0.7546771E-02  0.1077379E+00
         21   -1    0    0  502  501  0.00000000000E+00  0.00000000000E+00  0.38764591610E+03  0.38764591610E+03  0.00000000000E+00 0. -1.
         21   -1    0    0  501  502 -0.00000000000E+00 -0.00000000000E+00 -0.25803455054E+03  0.25803455054E+03  0.00000000000E+00 0. -1.
         25    1    1    2    0    0 -0.57088313550E+02  0.10781999651E+03  0.17581834801E+03  0.24783324774E+03  0.12500000000E+03 0.  0.
         25    1    1    2    0    0 -0.42685122520E+02 -0.15948970311E+03 -0.87438904726E+02  0.22478778246E+03  0.12500000000E+03 0.  0.
         25    1    1    2    0    0  0.99773436070E+02  0.51669706604E+02  0.41231922272E+02  0.17305943644E+03  0.12500000000E+03 0.  0.
</event>
<event>
 5    0  0.5829567E-005  0.3433218E+03  0.7546771E-02  0.1065390E+00
         21   -1    0    0  502  501  0.00000000000E+00  0.00000000000E+00  0.33978795982E+03  0.33978795982E+03  0.00000000000E+00 0.  1.
         21   -1    0    0  501  502 -0.00000000000E+00 -0.00000000000E+00 -0.34689229920E+03  0.34689229920E+03  0.00000000000E+00 0.  1.
         25    1    1    2    0    0 -0.59406713985E+02 -0.18171946501E+03 -0.15197466299E+03  0.27435819620E+03  0.12500000000E+03 0.  0.
         25    1    1    2    0    0  0.50849583161E+02  0.85190968140E+02  0.18972646131E+03  0.24791996951E+03  0.12500000000E+03 0.  0.
         25    1    1    2    0    0  0.85571308247E+01  0.96528496868E+02 -0.44856137701E+02  0.16440209331E+03  0.12500000000E+03 0.  0.
</event>
<event>
 5    0  0.5829567E-005  0.2743187E+03  0.7546771E-02  0.1098833E+00
         21   -1    0    0  502  501  0.00000000000E+00  0.00000000000E+00  0.31326295340E+03  0.31326295340E+03  0.00000000000E+00 0. -1.
         21   -1    0    0  501  502 -0.00000000000E+00 -0.00000000000E+00 -0.24021595630E+03  0.24021595630E+03  0.00000000000E+00 0. -1.
         25    1    1    2    0    0 -0.82595514410E+02  0.43886114141E+02 -0.87612156371E+02  0.17902206556E+03  0.12500000000E+03 0.  0.
         25    1    1    2    0    0 -0.45634176630E+02 -0.79265513707E+02  0.60831081511E+02  0.16640588997E+03  0.12500000000E+03 0.  0.
         25    1    1    2    0    0  0.12822969104E+03  0.35379399566E+02  0.99828071964E+02  0.20805095417E+03  0.12500000000E+03 0.  0.
</event>
<event>
 5    0  0.5829567E-005  0.4204411E+03  0.7546771E-02  0.1036923E+00
         21   -1    0    0  502  501  0.00000000000E+00  0.00000000000E+00  0.25165608001E+03  0.25165608001E+03  0.00000000000E+00 0.  1.
         21   -1    0    0  501  502 -0.00000000000E+00 -0.00000000000E+00 -0.70242990446E+03  0.70242990446E+03  0.00000000000E+00 0.  1.
         25    1    1    2    0    0  0.30647970780E+03  0.49453021463E+02 -0.26029689911E+02  0.33567537500E+03  0.12500000000E+03 0.  0.
         25    1    1    2    0    0 -0.15452323703E+03 -0.39654174909E+02 -0.35619779865E+03  0.40981917492E+03  0.12500000000E+03 0.  0.
         25    1    1    2    0    0 -0.15195647077E+03 -0.97988465540E+01 -0.68546335894E+02  0.20859143455E+03  0.12500000000E+03 0.  0.
</event>
<event>
 5    0  0.5829567E-005  0.3415633E+03  0.7546771E-02  0.1066132E+00
         21   -1    0    0  502  501  0.00000000000E+00  0.00000000000E+00  0.74721708236E+03  0.74721708236E+03  0.00000000000E+00 0. -1.
         21   -1    0    0  501  502 -0.00000000000E+00 -0.00000000000E+00 -0.15613335831E+03  0.15613335831E+03  0.00000000000E+00 0. -1.
         25    1    1    2    0    0  0.16140662067E+03  0.14596890239E+03  0.76494615584E+02  0.26236509653E+03  0.12500000000E+03 0.  0.
         25    1    1    2    0    0  0.21222970385E+02 -0.28059296764E+02  0.20367558708E+03  0.24155016741E+03  0.12500000000E+03 0.  0.
         25    1    1    2    0    0 -0.18262959106E+03 -0.11790960563E+03  0.31091352138E+03  0.39943517673E+03  0.12500000000E+03 0.  0.
</event>
<event>
 5    0  0.5829567E-005  0.3387528E+03  0.7546771E-02  0.1067328E+00
         21   -1    0    0  502  501  0.00000000000E+00  0.00000000000E+00  0.41578776473E+03  0.41578776473E+03  0.00000000000E+00 0. -1.
         21   -1    0    0  501  502 -0.00000000000E+00 -0.00000000000E+00 -0.27599039492E+03  0.27599039492E+03  0.00000000000E+00 0. -1.
         25    1    1    2    0    0 -0.16379242131E+03  0.57181795737E+02  0.19764180444E+03  0.29117863573E+03  0.12500000000E+03 0.  0.
         25    1    1    2    0    0  0.99165162529E+02  0.11206690101E+02 -0.14978007435E+03  0.21913098830E+03  0.12500000000E+03 0.  0.
         25    1    1    2    0    0  0.64627258785E+02 -0.68388485838E+02  0.91935639715E+02  0.18146853563E+03  0.12500000000E+03 0.  0.
</event>
<event>
 5    0  0.5925411E-005  0.2966947E+03  0.7546771E-02  0.1086905E+00
         21   -1    0    0  502  501  0.00000000000E+00  0.00000000000E+00  0.21764860529E+03  0.21764860529E+03  0.00000000000E+00 0. -1.
         21   -1    0    0  501  502 -0.00000000000E+00 -0.00000000000E+00 -0.40444890890E+03  0.40444890890E+03  0.00000000000E+00 0. -1.
         25    1    1    2    0    0  0.77669397503E+02 -0.99754886800E+02 -0.85937531591E+02  0.19746855974E+03  0.12500000000E+03 0.  0.
         25    1    1    2    0    0  0.10215739639E+03  0.55109263391E+02 -0.10641283601E+03  0.20105187445E+03  0.12500000000E+03 0.  0.
         25    1    1    2    0    0 -0.17982679390E+03  0.44645623410E+02  0.55500640012E+01  0.22357708000E+03  0.12500000000E+03 0.  0.
</event>
<event>
 5    0  0.5829567E-005  0.3647138E+03  0.7546771E-02  0.1056733E+00
         21   -1    0    0  502  501  0.00000000000E+00  0.00000000000E+00  0.79914174239E+03  0.79914174239E+03  0.00000000000E+00 0. -1.
         21   -1    0    0  501  502 -0.00000000000E+00 -0.00000000000E+00 -0.16644874884E+03  0.16644874884E+03  0.00000000000E+00 0. -1.
         25    1    1    2    0    0  0.91776196500E+00 -0.18457605487E+03  0.44209677714E+03  0.49511990737E+03  0.12500000000E+03 0.  0.
         25    1    1    2    0    0  0.13077505039E+03  0.16954176579E+03  0.10847562808E+03  0.27062610007E+03  0.12500000000E+03 0.  0.
         25    1    1    2    0    0 -0.13169281235E+03  0.15034289080E+02  0.82120588330E+02  0.19984448379E+03  0.12500000000E+03 0.  0.
</event>
<event>
 5    0  0.5842695E-005  0.3159846E+03  0.7546771E-02  0.1077512E+00
         21   -1    0    0  502  501  0.00000000000E+00  0.00000000000E+00  0.19172268939E+03  0.19172268939E+03  0.00000000000E+00 0.  1.
         21   -1    0    0  501  502 -0.00000000000E+00 -0.00000000000E+00 -0.52078480536E+03  0.52078480536E+03  0.00000000000E+00 0.  1.
         25    1    1    2    0    0  0.96919635769E+02  0.17879978318E+03 -0.28842260138E+03  0.37440002036E+03  0.12500000000E+03 0.  0.
         25    1    1    2    0    0 -0.18449130600E+02 -0.88029216207E+02  0.18323271969E+02  0.15508144835E+03  0.12500000000E+03 0.  0.
         25    1    1    2    0    0 -0.78470505169E+02 -0.90770566973E+02 -0.58962786568E+02  0.18302602605E+03  0.12500000000E+03 0.  0.
</event>
<event>
 5    0  0.5829567E-005  0.3059685E+03  0.7546771E-02  0.1082295E+00
         21   -1    0    0  502  501  0.00000000000E+00  0.00000000000E+00  0.17877137284E+03  0.17877137284E+03  0.00000000000E+00 0. -1.
         21   -1    0    0  501  502 -0.00000000000E+00 -0.00000000000E+00 -0.52366715474E+03  0.52366715474E+03  0.00000000000E+00 0. -1.
         25    1    1    2    0    0 -0.69972530765E+02 -0.58506728337E+02 -0.41979499900E+02  0.16033237581E+03  0.12500000000E+03 0.  0.
         25    1    1    2    0    0  0.20590068452E+03  0.92675779283E+02 -0.20917811746E+03  0.33221134354E+03  0.12500000000E+03 0.  0.
         25    1    1    2    0    0 -0.13592815376E+03 -0.34169050945E+02 -0.93738164545E+02  0.20989480822E+03  0.12500000000E+03 0.  0.
</event>
<event>
 5    0  0.5829567E-005  0.2803897E+03  0.7546771E-02  0.1095476E+00
         21   -1    0    0  502  501  0.00000000000E+00  0.00000000000E+00  0.42776007776E+03  0.42776007776E+03  0.00000000000E+00 0. -1.
         21   -1    0    0  501  502 -0.00000000000E+00 -0.00000000000E+00 -0.18379078928E+03  0.18379078928E+03  0.00000000000E+00 0. -1.
         25    1    1    2    0    0  0.16554446517E+02 -0.15913720812E+03  0.67456732538E+02  0.21394885247E+03  0.12500000000E+03 0.  0.
         25    1    1    2    0    0  0.37382758338E+02  0.57842071472E+01  0.13604169679E+03  0.18858226570E+03  0.12500000000E+03 0.  0.
         25    1    1    2    0    0 -0.53937204856E+02  0.15335300097E+03  0.40470859154E+02  0.20901974887E+03  0.12500000000E+03 0.  0.
</event>
<event>
 5    0  0.5829567E-005  0.2876784E+03  0.7546771E-02  0.1091568E+00
         21   -1    0    0  502  501  0.00000000000E+00  0.00000000000E+00  0.51461194839E+03  0.51461194839E+03  0.00000000000E+00 0.  1.
         21   -1    0    0  501  502 -0.00000000000E+00 -0.00000000000E+00 -0.16081796227E+03  0.16081796227E+03  0.00000000000E+00 0.  1.
         25    1    1    2    0    0 -0.15790229883E+03 -0.13539271837E+02  0.23658924384E+03  0.31099182973E+03  0.12500000000E+03 0.  0.
         25    1    1    2    0    0  0.11579630759E+03  0.41894896777E+01  0.15126817684E+03  0.22788900368E+03  0.12500000000E+03 0.  0.
         25    1    1    2    0    0  0.42105991232E+02  0.93497821593E+01 -0.34063434561E+02  0.13654907725E+03  0.12500000000E+03 0.  0.
</event>
<event>
 5    0  0.5829567E-005  0.3013011E+03  0.7546771E-02  0.1084592E+00
         21   -1    0    0  502  501  0.00000000000E+00  0.00000000000E+00  0.50755243821E+03  0.50755243821E+03  0.00000000000E+00 0.  1.
         21   -1    0    0  501  502 -0.00000000000E+00 -0.00000000000E+00 -0.17886296096E+03  0.17886296096E+03  0.00000000000E+00 0.  1.
         25    1    1    2    0    0 -0.43097691332E+02  0.10481358172E+02 -0.62084300433E+02  0.14644702191E+03  0.12500000000E+03 0.  0.
         25    1    1    2    0    0 -0.59603449220E+02  0.50435912497E+02  0.32162085742E+03  0.35378146977E+03  0.12500000000E+03 0.  0.
         25    1    1    2    0    0  0.10270114055E+03 -0.60917270669E+02  0.69152920271E+02  0.18618690748E+03  0.12500000000E+03 0.  0.
</event>
<event>
 5    0  0.5829567E-005  0.3264878E+03  0.7546771E-02  0.1072702E+00
         21   -1    0    0  502  501  0.00000000000E+00  0.00000000000E+00  0.15792459528E+04  0.15792459528E+04  0.00000000000E+00 0.  1.
         21   -1    0    0  501  502 -0.00000000000E+00 -0.00000000000E+00 -0.67496954092E+02  0.67496954092E+02  0.00000000000E+00 0.  1.
         25    1    1    2    0    0 -0.19924670796E+03 -0.75579715923E+02  0.98120710883E+03  0.10118319695E+04  0.12500000000E+03 0.  0.
         25    1    1    2    0    0  0.30495932070E+02  0.11421757611E+02  0.19457213271E+03  0.23354608378E+03  0.12500000000E+03 0.  0.
         25    1    1    2    0    0  0.16875077589E+03  0.64157958313E+02  0.33596975714E+03  0.40136485359E+03  0.12500000000E+03 0.  0.
</event>
<event>
 5    0  0.5829567E-005  0.3693857E+03  0.7546771E-02  0.1054928E+00
         21   -1    0    0  502  501  0.00000000000E+00  0.00000000000E+00  0.38228595372E+03  0.38228595372E+03  0.00000000000E+00 0. -1.
         21   -1    0    0  501  502 -0.00000000000E+00 -0.00000000000E+00 -0.35692076263E+03  0.35692076263E+03  0.00000000000E+00 0. -1.
         25    1    1    2    0    0  0.10561440015E+03 -0.20589754766E+03  0.19562960248E+02  0.26373454659E+03  0.12500000000E+03 0.  0.
         25    1    1    2    0    0 -0.10603373389E+03  0.49593915032E+02 -0.14538764547E+03  0.22464477868E+03  0.12500000000E+03 0.  0.
         25    1    1    2    0    0  0.41933374424E+00  0.15630363263E+03  0.15118987632E+03  0.25082739108E+03  0.12500000000E+03 0.  0.
</event>
<event>
 5    0  0.5829567E-005  0.2034276E+03  0.7546771E-02  0.1146879E+00
         21   -1    0    0  502  501  0.00000000000E+00  0.00000000000E+00  0.29687426058E+03  0.29687426058E+03  0.00000000000E+00 0.  1.
         21   -1    0    0  501  502 -0.00000000000E+00 -0.00000000000E+00 -0.13939501752E+03  0.13939501752E+03  0.00000000000E+00 0.  1.
         25    1    1    2    0    0  0.30401736671E+02  0.27096756119E+02  0.84666936147E+02  0.15637132046E+03  0.12500000000E+03 0.  0.
         25    1    1    2    0    0 -0.59087443878E+02 -0.20295169557E+02  0.55268130901E+02  0.15027570071E+03  0.12500000000E+03 0.  0.
         25    1    1    2    0    0  0.28685707207E+02 -0.68015865623E+01  0.17544176011E+02  0.12962225692E+03  0.12500000000E+03 0.  0.
</event>
<event>
 5    0  0.5829567E-005  0.2545593E+03  0.7546771E-02  0.1110457E+00
         21   -1    0    0  502  501  0.00000000000E+00  0.00000000000E+00  0.44082788039E+03  0.44082788039E+03  0.00000000000E+00 0.  1.
         21   -1    0    0  501  502 -0.00000000000E+00 -0.00000000000E+00 -0.14699715623E+03  0.14699715623E+03  0.00000000000E+00 0.  1.
         25    1    1    2    0    0 -0.60959043097E+02  0.26828959361E+02  0.19968526881E+02  0.14303684861E+03  0.12500000000E+03 0.  0.
         25    1    1    2    0    0  0.11403045540E+03  0.34384186637E+02  0.23360630987E+03  0.29048601525E+03  0.12500000000E+03 0.  0.
         25    1    1    2    0    0 -0.53071412300E+02 -0.61213145998E+02  0.40255887411E+02  0.15430217276E+03  0.12500000000E+03 0.  0.
</event>
<event>
 5    0  0.5829567E-005  0.2725327E+03  0.7546771E-02  0.1099839E+00
         21   -1    0    0  502  501  0.00000000000E+00  0.00000000000E+00  0.10637324917E+04  0.10637324917E+04  0.00000000000E+00 0.  1.
         21   -1    0    0  501  502 -0.00000000000E+00 -0.00000000000E+00 -0.69824017735E+02  0.69824017735E+02  0.00000000000E+00 0.  1.
         25    1    1    2    0    0 -0.59296736520E+02  0.89917143677E+01  0.14211131541E+03  0.19853861049E+03  0.12500000000E+03 0.  0.
         25    1    1    2    0    0 -0.17064342826E+02  0.12877546062E+03  0.47231927499E+03  0.50555396208E+03  0.12500000000E+03 0.  0.
         25    1    1    2    0    0  0.76361079346E+02 -0.13776717499E+03  0.37947788357E+03  0.42946393685E+03  0.12500000000E+03 0.  0.
</event>
<event>
 5    0  0.5829567E-005  0.5233449E+03  0.7546771E-02  0.1007859E+00
         21   -1    0    0  502  501  0.00000000000E+00  0.00000000000E+00  0.47215032101E+03  0.47215032101E+03  0.00000000000E+00 0. -1.
         21   -1    0    0  501  502 -0.00000000000E+00 -0.00000000000E+00 -0.58009043159E+03  0.58009043159E+03  0.00000000000E+00 0. -1.
         25    1    1    2    0    0  0.23303158496E+03  0.67153221819E+02  0.20672662623E+03  0.34230713224E+03  0.12500000000E+03 0.  0.
         25    1    1    2    0    0 -0.23748075709E+03  0.42630708962E+02  0.78623700909E+02  0.28288014013E+03  0.12500000000E+03 0.  0.
         25    1    1    2    0    0  0.44491721267E+01 -0.10978393078E+03 -0.39329043771E+03  0.42705348024E+03  0.12500000000E+03 0.  0.
</event>
<event>
 5    0  0.5829567E-005  0.3646073E+03  0.7546771E-02  0.1056774E+00
         21   -1    0    0  502  501  0.00000000000E+00  0.00000000000E+00  0.15545595047E+03  0.15545595047E+03  0.00000000000E+00 0.  1.
         21   -1    0    0  501  502 -0.00000000000E+00 -0.00000000000E+00 -0.85515207531E+03  0.85515207531E+03  0.00000000000E+00 0.  1.
         25    1    1    2    0    0  0.56428654585E+02 -0.17938365871E+03 -0.18046046941E+03  0.28905651885E+03  0.12500000000E+03 0.  0.
         25    1    1    2    0    0  0.43681251848E+01 -0.93004900218E+02 -0.54284593842E+02  0.16504789944E+03  0.12500000000E+03 0.  0.
         25    1    1    2    0    0 -0.60796779769E+02  0.27238855893E+03 -0.46495106159E+03  0.55650360748E+03  0.12500000000E+03 0.  0.
</event>
<event>
 5    0  0.5829567E-005  0.4144671E+03  0.7546771E-02  0.1038882E+00
         21   -1    0    0  502  501  0.00000000000E+00  0.00000000000E+00  0.44750241128E+03  0.44750241128E+03  0.00000000000E+00 0. -1.
         21   -1    0    0  501  502 -0.00000000000E+00 -0.00000000000E+00 -0.38387043911E+03  0.38387043911E+03  0.00000000000E+00 0. -1.
         25    1    1    2    0    0 -0.19302798573E+03 -0.13034958618E+03  0.35357337408E+02  0.26669450539E+03  0.12500000000E+03 0.  0.
         25    1    1    2    0    0  0.31566655435E+03  0.17328493241E+01  0.60997520553E+02  0.34495517653E+03  0.12500000000E+03 0.  0.
         25    1    1    2    0    0 -0.12263856861E+03  0.12861673686E+03 -0.32722885796E+02  0.21972316848E+03  0.12500000000E+03 0.  0.
</event>
<event>
 5    0  0.5829567E-005  0.2450070E+03  0.7546771E-02  0.1116502E+00
         21   -1    0    0  502  501  0.00000000000E+00  0.00000000000E+00  0.20504148801E+03  0.20504148801E+03  0.00000000000E+00 0.  1.
         21   -1    0    0  501  502 -0.00000000000E+00 -0.00000000000E+00 -0.29276241471E+03  0.29276241471E+03  0.00000000000E+00 0.  1.
         25    1    1    2    0    0  0.59894928098E+01  0.12706498204E+03 -0.25305745846E+01  0.17836139575E+03  0.12500000000E+03 0.  0.
         25    1    1    2    0    0  0.57149936887E+02 -0.83267297616E+02 -0.35969912596E+02  0.16467663086E+03  0.12500000000E+03 0.  0.
         25    1    1    2    0    0 -0.63139429697E+02 -0.43797684428E+02 -0.49220439520E+02  0.15476587612E+03  0.12500000000E+03 0.  0.
</event>
<event>
 5    0  0.5829567E-005  0.2141991E+03  0.7546771E-02  0.1138283E+00
         21   -1    0    0  502  501  0.00000000000E+00  0.00000000000E+00  0.77955267712E+02  0.77955267712E+02  0.00000000000E+00 0. -1.
         21   -1    0    0  501  502 -0.00000000000E+00 -0.00000000000E+00 -0.58855872696E+03  0.58855872696E+03  0.00000000000E+00 0. -1.
         25    1    1    2    0    0 -0.18467272586E+02  0.21845273182E+02 -0.22978423139E+03  0.26314264024E+03  0.12500000000E+03 0.  0.
         25    1    1    2    0    0  0.21125124926E+02  0.14686705653E+01 -0.23712843317E+03  0.26889276992E+03  0.12500000000E+03 0.  0.
         25    1    1    2    0    0 -0.26578523404E+01 -0.23313943747E+02 -0.43690794686E+02  0.13447858451E+03  0.12500000000E+03 0.  0.
</event>
<event>
 5    0  0.5829567E-005  0.2771758E+03  0.7546771E-02  0.1097242E+00
         21   -1    0    0  502  501  0.00000000000E+00  0.00000000000E+00  0.16202112212E+03  0.16202112212E+03  0.00000000000E+00 0.  1.
         21   -1    0    0  501  502 -0.00000000000E+00 -0.00000000000E+00 -0.47417544667E+03  0.47417544667E+03  0.00000000000E+00 0.  1.
         25    1    1    2    0    0  0.13781475739E+03  0.92309055110E+01 -0.22926595807E+02  0.18769322249E+03  0.12500000000E+03 0.  0.
         25    1    1    2    0    0 -0.65298177781E+02 -0.95094662093E+02 -0.18204728441E+03  0.24914465786E+03  0.12500000000E+03 0.  0.
         25    1    1    2    0    0 -0.72516579611E+02  0.85863756582E+02 -0.10718044433E+03  0.19935868845E+03  0.12500000000E+03 0.  0.
</event>
<event>
 5    0  0.5829567E-005  0.2978982E+03  0.7546771E-02  0.1086296E+00
         21   -1    0    0  502  501  0.00000000000E+00  0.00000000000E+00  0.55313653237E+03  0.55313653237E+03  0.00000000000E+00 0. -1.
         21   -1    0    0  501  502 -0.00000000000E+00 -0.00000000000E+00 -0.16043655278E+03  0.16043655278E+03  0.00000000000E+00 0. -1.
         25    1    1    2    0    0  0.22166946969E+03 -0.17558799807E+02  0.18389040228E+03  0.31446199341E+03  0.12500000000E+03 0.  0.
         25    1    1    2    0    0 -0.72918408906E+02  0.11371914561E+02  0.77861660687E+02  0.16472356542E+03  0.12500000000E+03 0.  0.
         25    1    1    2    0    0 -0.14875106079E+03  0.61868852463E+01  0.13094791661E+03  0.23438752633E+03  0.12500000000E+03 0.  0.
</event>
<event>
 5    0  0.5829567E-005  0.2186582E+03  0.7546771E-02  0.1134887E+00
         21   -1    0    0  502  501  0.00000000000E+00  0.00000000000E+00  0.21681499828E+02  0.21681499828E+02  0.00000000000E+00 0.  1.
         21   -1    0    0  501  502 -0.00000000000E+00 -0.00000000000E+00 -0.22051715485E+04  0.22051715485E+04  0.00000000000E+00 0.  1.
         25    1    1    2    0    0 -0.59288178700E+02  0.21182926521E+02 -0.92352836562E+03  0.93407357666E+03  0.12500000000E+03 0.  0.
         25    1    1    2    0    0 -0.99605383398E+01 -0.89752219624E+01 -0.35677561688E+03  0.37827715730E+03  0.12500000000E+03 0.  0.
         25    1    1    2    0    0  0.69248717039E+02 -0.12207704559E+02 -0.90318606620E+03  0.91450231440E+03  0.12500000000E+03 0.  0.
</event>
<event>
 5    0  0.5829567E-005  0.2164472E+03  0.7546771E-02  0.1136560E+00
         21   -1    0    0  502  501  0.00000000000E+00  0.00000000000E+00  0.15713475531E+04  0.15713475531E+04  0.00000000000E+00 0. -1.
         21   -1    0    0  501  502 -0.00000000000E+00 -0.00000000000E+00 -0.29814794862E+02  0.29814794862E+02  0.00000000000E+00 0. -1.
         25    1    1    2    0    0 -0.63236401125E+01  0.11995508909E+02  0.30821953391E+03  0.33287859910E+03  0.12500000000E+03 0.  0.
         25    1    1    2    0    0  0.38117669335E+02  0.43979149192E+02  0.39771059208E+03  0.42093448104E+03  0.12500000000E+03 0.  0.
         25    1    1    2    0    0 -0.31794029222E+02 -0.55974658100E+02  0.83560263223E+03  0.84734926780E+03  0.12500000000E+03 0.  0.
</event>
<event>
 5    0  0.5829567E-005  0.2369019E+03  0.7546771E-02  0.1121874E+00
         21   -1    0    0  502  501  0.00000000000E+00  0.00000000000E+00  0.25433822889E+03  0.25433822889E+03  0.00000000000E+00 0.  1.
         21   -1    0    0  501  502 -0.00000000000E+00 -0.00000000000E+00 -0.22066099737E+03  0.22066099737E+03  0.00000000000E+00 0.  1.
         25    1    1    2    0    0 -0.78887825559E+02 -0.10648704701E+02  0.78459876307E+01  0.14840230273E+03  0.12500000000E+03 0.  0.
         25    1    1    2    0    0 -0.10702194683E+02  0.43364935429E+01 -0.71518337233E+02  0.14447565438E+03  0.12500000000E+03 0.  0.
         25    1    1    2    0    0  0.89590020242E+02  0.63122111579E+01  0.97349581120E+02  0.18212126916E+03  0.12500000000E+03 0.  0.
</event>
<event>
 5    0  0.5829567E-005  0.3482165E+03  0.7546771E-02  0.1063349E+00
         21   -1    0    0  502  501  0.00000000000E+00  0.00000000000E+00  0.13823758489E+04  0.13823758489E+04  0.00000000000E+00 0.  1.
         21   -1    0    0  501  502 -0.00000000000E+00 -0.00000000000E+00 -0.87714720340E+02  0.87714720340E+02  0.00000000000E+00 0.  1.
         25    1    1    2    0    0  0.24193405039E+03  0.64707689118E+01  0.62754905610E+03  0.68411751432E+03  0.12500000000E+03 0.  0.
         25    1    1    2    0    0 -0.15839601053E+03  0.46932292918E+02  0.55096958602E+03  0.58862927296E+03  0.12500000000E+03 0.  0.
         25    1    1    2    0    0 -0.83538039853E+02 -0.53403061830E+02  0.11614248641E+03  0.19734378193E+03  0.12500000000E+03 0.  0.
</event>
<event>
 5    0  0.5829567E-005  0.3451191E+03  0.7546771E-02  0.1064636E+00
         21   -1    0    0  502  501  0.00000000000E+00  0.00000000000E+00  0.56750615978E+03  0.56750615978E+03  0.00000000000E+00 0. -1.
         21   -1    0    0  501  502 -0.00000000000E+00 -0.00000000000E+00 -0.20987818133E+03  0.20987818133E+03  0.00000000000E+00 0. -1.
         25    1    1    2    0    0  0.10032280019E+02  0.71375756571E+01  0.12704611488E+03  0.17865415454E+03  0.12500000000E+03 0.  0.
         25    1    1    2    0    0 -0.44744179171E+02  0.23572605917E+03  0.67950164897E+02  0.27894630568E+03  0.12500000000E+03 0.  0.
         25    1    1    2    0    0  0.34711899152E+02 -0.24286363483E+03  0.16263169866E+03  0.31978388089E+03  0.12500000000E+03 0.  0.
</event>
<event>
 5    0  0.5829567E-005  0.2693489E+03  0.7546771E-02  0.1101653E+00
         21   -1    0    0  502  501  0.00000000000E+00  0.00000000000E+00  0.35010004087E+03  0.35010004087E+03  0.00000000000E+00 0.  1.
         21   -1    0    0  501  502 -0.00000000000E+00 -0.00000000000E+00 -0.20722315435E+03  0.20722315435E+03  0.00000000000E+00 0.  1.
         25    1    1    2    0    0 -0.66285800575E+02  0.79828315950E+02 -0.41056114639E+02  0.16756184510E+03  0.12500000000E+03 0.  0.
         25    1    1    2    0    0 -0.29436010683E+02 -0.11892559222E+03  0.13268430388E+03  0.21963583429E+03  0.12500000000E+03 0.  0.
         25    1    1    2    0    0  0.95721811258E+02  0.39097276272E+02  0.51248697280E+02  0.17012551583E+03  0.12500000000E+03 0.  0.
</event>
<event>
 5    0  0.5829567E-005  0.3674703E+03  0.7546771E-02  0.1055664E+00
         21   -1    0    0  502  501  0.00000000000E+00  0.00000000000E+00  0.15432416385E+03  0.15432416385E+03  0.00000000000E+00 0.  1.
         21   -1    0    0  501  502 -0.00000000000E+00 -0.00000000000E+00 -0.87500513276E+03  0.87500513276E+03  0.00000000000E+00 0.  1.
         25    1    1    2    0    0  0.17332856592E+03 -0.11302009872E+03 -0.75682400705E+01  0.24186486462E+03  0.12500000000E+03 0.  0.
         25    1    1    2    0    0 -0.64983640731E+02  0.49710446830E+02 -0.24491447162E+03  0.28688342667E+03  0.12500000000E+03 0.  0.
         25    1    1    2    0    0 -0.10834492519E+03  0.63309651894E+02 -0.46819825721E+03  0.50058100532E+03  0.12500000000E+03 0.  0.
</event>
<event>
 5    0  0.5829567E-005  0.2645695E+03  0.7546771E-02  0.1104428E+00
         21   -1    0    0  502  501  0.00000000000E+00  0.00000000000E+00  0.24380217052E+03  0.24380217052E+03  0.00000000000E+00 0.  1.
         21   -1    0    0  501  502 -0.00000000000E+00 -0.00000000000E+00 -0.28710581369E+03  0.28710581369E+03  0.00000000000E+00 0.  1.
         25    1    1    2    0    0 -0.76943044242E+00 -0.41710679570E+02 -0.68475716548E+02  0.14850689065E+03  0.12500000000E+03 0.  0.
         25    1    1    2    0    0  0.72977562125E+02  0.36326469227E+02  0.13476463083E+03  0.20107670841E+03  0.12500000000E+03 0.  0.
         25    1    1    2    0    0 -0.72208131683E+02  0.53842103433E+01 -0.10959255746E+03  0.18132438516E+03  0.12500000000E+03 0.  0.
</event>
<event>
 5    0  0.5829567E-005  0.2587413E+03  0.7546771E-02  0.1107902E+00
         21   -1    0    0  502  501  0.00000000000E+00  0.00000000000E+00  0.13845105759E+03  0.13845105759E+03  0.00000000000E+00 0.  1.
         21   -1    0    0  501  502 -0.00000000000E+00 -0.00000000000E+00 -0.48354298864E+03  0.48354298864E+03  0.00000000000E+00 0.  1.
         25    1    1    2    0    0  0.25262123970E+02  0.85344886975E+02 -0.22196827985E+03  0.26984595958E+03  0.12500000000E+03 0.  0.
         25    1    1    2    0    0 -0.27987527775E+02  0.36399168694E+02 -0.11742549637E+03  0.17754421531E+03  0.12500000000E+03 0.  0.
         25    1    1    2    0    0  0.27254038053E+01 -0.12174405567E+03 -0.56981548194E+01  0.17460387133E+03  0.12500000000E+03 0.  0.
</event>
<event>
 5    0  0.5829567E-005  0.3337341E+03  0.7546771E-02  0.1069497E+00
         21   -1    0    0  502  501  0.00000000000E+00  0.00000000000E+00  0.14680798802E+04  0.14680798802E+04  0.00000000000E+00 0.  1.
         21   -1    0    0  501  502 -0.00000000000E+00 -0.00000000000E+00 -0.75866729551E+02  0.75866729551E+02  0.00000000000E+00 0.  1.
         25    1    1    2    0    0  0.36918349169E+01 -0.11824573726E+02  0.10661552665E+03  0.16475837069E+03  0.12500000000E+03 0.  0.
         25    1    1    2    0    0  0.80337740608E+02 -0.18466133825E+03  0.46299591246E+03  0.52013861361E+03  0.12500000000E+03 0.  0.
         25    1    1    2    0    0 -0.84029575524E+02  0.19648591198E+03  0.82260171154E+03  0.85904962545E+03  0.12500000000E+03 0.  0.
</event>
<event>
 5    0  0.5829567E-005  0.3072016E+03  0.7546771E-02  0.1081695E+00
         21   -1    0    0  502  501  0.00000000000E+00  0.00000000000E+00  0.74611760724E+02  0.74611760724E+02  0.00000000000E+00 0.  1.
         21   -1    0    0  501  502 -0.00000000000E+00 -0.00000000000E+00 -0.12648516788E+04  0.12648516788E+04  0.00000000000E+00 0.  1.
         25    1    1    2    0    0  0.87892984824E+02 -0.13660224698E+03 -0.32932093009E+03  0.38789512198E+03  0.12500000000E+03 0.  0.
         25    1    1    2    0    0 -0.17309292944E+03  0.12576461818E+03 -0.60952376073E+03  0.65796817272E+03  0.12500000000E+03 0.  0.
         25    1    1    2    0    0  0.85199944613E+02  0.10837628801E+02 -0.25139522726E+03  0.29360014484E+03  0.12500000000E+03 0.  0.
</event>
<event>
 5    0  0.5829567E-005  0.3284081E+03  0.7546771E-02  0.1071843E+00
         21   -1    0    0  502  501  0.00000000000E+00  0.00000000000E+00  0.18933053369E+03  0.18933053369E+03  0.00000000000E+00 0.  1.
         21   -1    0    0  501  502 -0.00000000000E+00 -0.00000000000E+00 -0.56964869983E+03  0.56964869983E+03  0.00000000000E+00 0.  1.
         25    1    1    2    0    0  0.13217618784E+03  0.16001338011E+03 -0.31740489395E+03  0.39930651529E+03  0.12500000000E+03 0.  0.
         25    1    1    2    0    0 -0.66277844423E+02 -0.44198863984E+02 -0.92307823467E+02  0.17461966244E+03  0.12500000000E+03 0.  0.
         25    1    1    2    0    0 -0.65898343420E+02 -0.11581451612E+03  0.29394551279E+02  0.18505305578E+03  0.12500000000E+03 0.  0.
</event>
<event>
 5    0  0.5829567E-005  0.4193182E+03  0.7546771E-02  0.1037288E+00
         21   -1    0    0  502  501  0.00000000000E+00  0.00000000000E+00  0.86595632998E+03  0.86595632998E+03  0.00000000000E+00 0. -1.
         21   -1    0    0  501  502 -0.00000000000E+00 -0.00000000000E+00 -0.20304463464E+03  0.20304463464E+03  0.00000000000E+00 0. -1.
         25    1    1    2    0    0  0.19893014030E+03 -0.37358228145E+02 -0.67187401345E+02  0.24720029294E+03  0.12500000000E+03 0.  0.
         25    1    1    2    0    0 -0.13788626540E+03 -0.89064762020E+01  0.20681592163E+03  0.27836984920E+03  0.12500000000E+03 0.  0.
         25    1    1    2    0    0 -0.61043874904E+02  0.46264704347E+02  0.52328317505E+03  0.54343082248E+03  0.12500000000E+03 0.  0.
</event>
<event>
 5    0  0.5829567E-005  0.4524569E+03  0.7546771E-02  0.1026992E+00
         21   -1    0    0  502  501  0.00000000000E+00  0.00000000000E+00  0.14244212304E+04  0.14244212304E+04  0.00000000000E+00 0.  1.
         21   -1    0    0  501  502 -0.00000000000E+00 -0.00000000000E+00 -0.14371960597E+03  0.14371960597E+03  0.00000000000E+00 0.  1.
         25    1    1    2    0    0  0.23156475060E+03  0.23459204556E+03  0.34244168680E+03  0.49147428256E+03  0.12500000000E+03 0.  0.
         25    1    1    2    0    0 -0.37823113956E+02  0.45774553334E+02  0.43266789712E+03  0.45426028539E+03  0.12500000000E+03 0.  0.
         25    1    1    2    0    0 -0.19374163664E+03 -0.28036659889E+03  0.50559204049E+03  0.62240626841E+03  0.12500000000E+03 0.  0.
</event>
<event>
 5    0  0.5829567E-005  0.4722152E+03  0.7546771E-02  0.1021297E+00
         21   -1    0    0  502  501  0.00000000000E+00  0.00000000000E+00  0.11668714803E+03  0.11668714803E+03  0.00000000000E+00 0.  1.
         21   -1    0    0  501  502 -0.00000000000E+00 -0.00000000000E+00 -0.19109835987E+04  0.19109835987E+04  0.00000000000E+00 0.  1.
         25    1    1    2    0    0 -0.35299477003E+03 -0.86841165414E+02 -0.49880142704E+03  0.62974166076E+03  0.12500000000E+03 0.  0.
         25    1    1    2    0    0  0.33489381136E+03  0.14159260020E+03 -0.10174354536E+04  0.10876590604E+04  0.12500000000E+03 0.  0.
         25    1    1    2    0    0  0.18100958666E+02 -0.54751434783E+02 -0.27805957004E+03  0.31027002563E+03  0.12500000000E+03 0.  0.
</event>
<event>
 5    0  0.5829567E-005  0.2353245E+03  0.7546771E-02  0.1122947E+00
         21   -1    0    0  502  501  0.00000000000E+00  0.00000000000E+00  0.87306353774E+02  0.87306353774E+02  0.00000000000E+00 0. -1.
         21   -1    0    0  501  502 -0.00000000000E+00 -0.00000000000E+00 -0.63429074971E+03  0.63429074971E+03  0.00000000000E+00 0. -1.
         25    1    1    2    0    0 -0.18526179129E+02 -0.43213817346E+02 -0.19281237109E+03  0.23454693297E+03  0.12500000000E+03 0.  0.
         25    1    1    2    0    0  0.11592872372E+03  0.43085314643E+02 -0.18340113787E+03  0.25408028395E+03  0.12500000000E+03 0.  0.
         25    1    1    2    0    0 -0.97402544587E+02  0.12850270330E+00 -0.17077088698E+03  0.23296988656E+03  0.12500000000E+03 0.  0.
</event>
<event>
 5    0  0.7735603E-005  0.5539169E+03  0.7546771E-02  0.1000591E+00
         21   -1    0    0  502  501  0.00000000000E+00  0.00000000000E+00  0.76835745237E+03  0.76835745237E+03  0.00000000000E+00 0.  1.
         21   -1    0    0  501  502 -0.00000000000E+00 -0.00000000000E+00 -0.39932447370E+03  0.39932447370E+03  0.00000000000E+00 0.  1.
         25    1    1    2    0    0  0.22166940497E+03  0.29551076000E+03 -0.65468569597E+02  0.39544287575E+03  0.12500000000E+03 0.  0.
         25    1    1    2    0    0 -0.58086652440E+02 -0.25900304212E+03  0.37464656165E+01  0.29342063837E+03  0.12500000000E+03 0.  0.
         25    1    1    2    0    0 -0.16358275253E+03 -0.36507717883E+02  0.43075508265E+03  0.47881841195E+03  0.12500000000E+03 0.  0.
</event>
<event>
 5    0  0.5829567E-005  0.3200705E+03  0.7546771E-02  0.1075617E+00
         21   -1    0    0  502  501  0.00000000000E+00  0.00000000000E+00  0.37621507490E+03  0.37621507490E+03  0.00000000000E+00 0. -1.
         21   -1    0    0  501  502 -0.00000000000E+00 -0.00000000000E+00 -0.27230472936E+03  0.27230472936E+03  0.00000000000E+00 0. -1.
         25    1    1    2    0    0 -0.18927928446E+03 -0.13484169768E+03 -0.45137426310E+02  0.26771499437E+03  0.12500000000E+03 0.  0.
         25    1    1    2    0    0  0.10710599917E+03  0.11198097846E+03  0.83451182925E+02  0.21587156952E+03  0.12500000000E+03 0.  0.
         25    1    1    2    0    0  0.82173285288E+02  0.22860719226E+02  0.65596588934E+02  0.16493324037E+03  0.12500000000E+03 0.  0.
</event>
<event>
 5    0  0.5829567E-005  0.4640574E+03  0.7546771E-02  0.1023611E+00
         21   -1    0    0  502  501  0.00000000000E+00  0.00000000000E+00  0.32205105467E+03  0.32205105467E+03  0.00000000000E+00 0. -1.
         21   -1    0    0  501  502 -0.00000000000E+00 -0.00000000000E+00 -0.66868054073E+03  0.66868054073E+03  0.00000000000E+00 0. -1.
         25    1    1    2    0    0 -0.10390123354E+03  0.66885187752E+02 -0.34983205923E+03  0.39150550997E+03  0.12500000000E+03 0.  0.
         25    1    1    2    0    0 -0.19867964735E+01 -0.23032950820E+03  0.17140275529E+03  0.31314458997E+03  0.12500000000E+03 0.  0.
         25    1    1    2    0    0  0.10588803001E+03  0.16344432044E+03 -0.16820018212E+03  0.28608149547E+03  0.12500000000E+03 0.  0.
</event>
<event>
 5    0  0.5829567E-005  0.2778887E+03  0.7546771E-02  0.1096848E+00
         21   -1    0    0  502  501  0.00000000000E+00  0.00000000000E+00  0.59236749637E+02  0.59236749637E+02  0.00000000000E+00 0. -1.
         21   -1    0    0  501  502 -0.00000000000E+00 -0.00000000000E+00 -0.13036188116E+04  0.13036188116E+04  0.00000000000E+00 0. -1.
         25    1    1    2    0    0  0.21795171142E+02  0.17176639122E+02 -0.54652023362E+03  0.56131936736E+03  0.12500000000E+03 0.  0.
         25    1    1    2    0    0  0.38477818770E+02  0.62090984957E+02 -0.59293233923E+03  0.61035202290E+03  0.12500000000E+03 0.  0.
         25    1    1    2    0    0 -0.60272989912E+02 -0.79267624079E+02 -0.10492948907E+03  0.19118417093E+03  0.12500000000E+03 0.  0.
</event>
<event>
 5    0  0.5829567E-005  0.2941758E+03  0.7546771E-02  0.1088189E+00
         21   -1    0    0  502  501  0.00000000000E+00  0.00000000000E+00  0.18927649283E+03  0.18927649283E+03  0.00000000000E+00 0. -1.
         21   -1    0    0  501  502 -0.00000000000E+00 -0.00000000000E+00 -0.45721164796E+03  0.45721164796E+03  0.00000000000E+00 0. -1.
         25    1    1    2    0    0 -0.38423713202E+02 -0.54296178501E+02 -0.20127561675E+03  0.24609211819E+03  0.12500000000E+03 0.  0.
         25    1    1    2    0    0  0.11317086545E+03  0.12356429415E+03 -0.10600637730E+03  0.23438884701E+03  0.12500000000E+03 0.  0.
         25    1    1    2    0    0 -0.74747152246E+02 -0.69268115644E+02  0.39346838918E+02  0.16600717559E+03  0.12500000000E+03 0.  0.
</event>
<event>
 5    0  0.5829567E-005  0.4092018E+03  0.7546771E-02  0.1040639E+00
         21   -1    0    0  502  501  0.00000000000E+00  0.00000000000E+00  0.16647357823E+03  0.16647357823E+03  0.00000000000E+00 0.  1.
         21   -1    0    0  501  502 -0.00000000000E+00 -0.00000000000E+00 -0.10058419377E+04  0.10058419377E+04  0.00000000000E+00 0.  1.
         25    1    1    2    0    0  0.75333874902E+02  0.50819614639E+02  0.36154205840E+02  0.15871342898E+03  0.12500000000E+03 0.  0.
         25    1    1    2    0    0 -0.68591919380E+02  0.38028539825E+02 -0.25407110814E+02  0.14973824670E+03  0.12500000000E+03 0.  0.
         25    1    1    2    0    0 -0.67419555224E+01 -0.88848154464E+02 -0.85011545445E+03  0.86386384020E+03  0.12500000000E+03 0.  0.
</event>
<event>
 5    0  0.5829567E-005  0.2426343E+03  0.7546771E-02  0.1118050E+00
         21   -1    0    0  502  501  0.00000000000E+00  0.00000000000E+00  0.72294963871E+03  0.72294963871E+03  0.00000000000E+00 0.  1.
         21   -1    0    0  501  502 -0.00000000000E+00 -0.00000000000E+00 -0.81432203457E+02  0.81432203457E+02  0.00000000000E+00 0.  1.
         25    1    1    2    0    0  0.52760450860E+02  0.52178338358E+02  0.20255101165E+03  0.24931537556E+03  0.12500000000E+03 0.  0.
         25    1    1    2    0    0  0.32513689474E+02  0.62743953343E+02  0.24195680472E+03  0.28135749329E+03  0.12500000000E+03 0.  0.
         25    1    1    2    0    0 -0.85274140333E+02 -0.11492229170E+03  0.19700961888E+03  0.27370897331E+03  0.12500000000E+03 0.  0.
</event>
<event>
 5    0  0.5829567E-005  0.2521979E+03  0.7546771E-02  0.1111924E+00
         21   -1    0    0  502  501  0.00000000000E+00  0.00000000000E+00  0.61544152278E+02  0.61544152278E+02  0.00000000000E+00 0. -1.
         21   -1    0    0  501  502 -0.00000000000E+00 -0.00000000000E+00 -0.10334660254E+04  0.10334660254E+04  0.00000000000E+00 0. -1.
         25    1    1    2    0    0 -0.12677459464E+02  0.74960209182E+02 -0.35008129520E+03  0.37942280399E+03  0.12500000000E+03 0.  0.
         25    1    1    2    0    0  0.57909195169E+02 -0.27634891702E+02 -0.52739713889E+03  0.54579291332E+03  0.12500000000E+03 0.  0.
         25    1    1    2    0    0 -0.45231735705E+02 -0.47325317481E+02 -0.94443439001E+02  0.16979446033E+03  0.12500000000E+03 0.  0.
</event>
<event>
 5    0  0.5829567E-005  0.2938198E+03  0.7546771E-02  0.1088371E+00
         21   -1    0    0  502  501  0.00000000000E+00  0.00000000000E+00  0.11299680923E+04  0.11299680923E+04  0.00000000000E+00 0.  1.
         21   -1    0    0  501  502 -0.00000000000E+00 -0.00000000000E+00 -0.76400466120E+02  0.76400466120E+02  0.00000000000E+00 0.  1.
         25    1    1    2    0    0  0.33717568529E+02  0.17129971809E+03  0.57994217057E+03  0.61841603234E+03  0.12500000000E+03 0.  0.
         25    1    1    2    0    0 -0.69274326757E+02 -0.52186664348E+02  0.12352675289E+03  0.19597509782E+03  0.12500000000E+03 0.  0.
         25    1    1    2    0    0  0.35556758228E+02 -0.11911305374E+03  0.35009870271E+03  0.39197742826E+03  0.12500000000E+03 0.  0.
</event>
<event>
 5    0  0.5829567E-005  0.2467437E+03  0.7546771E-02  0.1115380E+00
         21   -1    0    0  502  501  0.00000000000E+00  0.00000000000E+00  0.12995858521E+03  0.12995858521E+03  0.00000000000E+00 0.  1.
         21   -1    0    0  501  502 -0.00000000000E+00 -0.00000000000E+00 -0.46847564339E+03  0.46847564339E+03  0.00000000000E+00 0.  1.
         25    1    1    2    0    0 -0.62432792601E+01  0.48391141252E+02  0.54774681827E+01  0.13429699827E+03  0.12500000000E+03 0.  0.
         25    1    1    2    0    0 -0.70689668861E+02 -0.75636882965E+02 -0.18040843789E+03  0.24267297297E+03  0.12500000000E+03 0.  0.
         25    1    1    2    0    0  0.76932948121E+02  0.27245741713E+02 -0.16358608848E+03  0.22146425737E+03  0.12500000000E+03 0.  0.
</event>
<event>
 5    0  0.5829567E-005  0.2475419E+03  0.7546771E-02  0.1114868E+00
         21   -1    0    0  502  501  0.00000000000E+00  0.00000000000E+00  0.25440221079E+03  0.25440221079E+03  0.00000000000E+00 0.  1.
         21   -1    0    0  501  502 -0.00000000000E+00 -0.00000000000E+00 -0.24086656875E+03  0.24086656875E+03  0.00000000000E+00 0.  1.
         25    1    1    2    0    0  0.53737500282E+02 -0.13691884054E+02  0.34538892833E+02  0.14104297836E+03  0.12500000000E+03 0.  0.
         25    1    1    2    0    0  0.68085192348E+02 -0.43818881825E+02  0.50162481847E+02  0.15715267229E+03  0.12500000000E+03 0.  0.
         25    1    1    2    0    0 -0.12182269263E+03  0.57510765879E+02 -0.71165732642E+02  0.19707312890E+03  0.12500000000E+03 0.  0.
</event>
<event>
 5    0  0.5922164E-005  0.2716273E+03  0.7546771E-02  0.1100352E+00
         21   -1    0    0  502  501  0.00000000000E+00  0.00000000000E+00  0.12321588339E+03  0.12321588339E+03  0.00000000000E+00 0. -1.
         21   -1    0    0  501  502 -0.00000000000E+00 -0.00000000000E+00 -0.59879773355E+03  0.59879773355E+03  0.00000000000E+00 0. -1.
         25    1    1    2    0    0  0.14533118479E+03  0.21231254698E+02 -0.28899250145E+03  0.34743860658E+03  0.12500000000E+03 0.  0.
         25    1    1    2    0    0 -0.63677917029E+02 -0.62517580022E+02 -0.15151842131E+03  0.21574558379E+03  0.12500000000E+03 0.  0.
         25    1    1    2    0    0 -0.81653267762E+02  0.41286325324E+02 -0.35070927395E+02  0.15882942657E+03  0.12500000000E+03 0.  0.
</event>
<event>
 5    0  0.5829567E-005  0.2369477E+03  0.7546771E-02  0.1121843E+00
         21   -1    0    0  502  501  0.00000000000E+00  0.00000000000E+00  0.49968489902E+03  0.49968489902E+03  0.00000000000E+00 0. -1.
         21   -1    0    0  501  502 -0.00000000000E+00 -0.00000000000E+00 -0.11235922966E+03  0.11235922966E+03  0.00000000000E+00 0. -1.
         25    1    1    2    0    0  0.50488989720E+02  0.77789071881E+01  0.11719425950E+03  0.17879917209E+03  0.12500000000E+03 0.  0.
         25    1    1    2    0    0 -0.28070664053E+02 -0.22746704962E+02 -0.46148142115E+01  0.13019858401E+03  0.12500000000E+03 0.  0.
         25    1    1    2    0    0 -0.22418325667E+02  0.14967797774E+02  0.27474622407E+03  0.30304637258E+03  0.12500000000E+03 0.  0.
</event>
<event>
 5    0  0.5829567E-005  0.2500180E+03  0.7546771E-02  0.1113293E+00
         21   -1    0    0  502  501  0.00000000000E+00  0.00000000000E+00  0.31680458027E+03  0.31680458027E+03  0.00000000000E+00 0. -1.
         21   -1    0    0  501  502 -0.00000000000E+00 -0.00000000000E+00 -0.19731098702E+03  0.19731098702E+03  0.00000000000E+00 0. -1.
         25    1    1    2    0    0 -0.11484024041E+03  0.12771678793E+02  0.47165037709E+02  0.17663787074E+03  0.12500000000E+03 0.  0.
         25    1    1    2    0    0 -0.48302294020E+01 -0.65452316294E+02  0.67585775015E+02  0.15652531364E+03  0.12500000000E+03 0.  0.
         25    1    1    2    0    0  0.11967046982E+03  0.52680637502E+02  0.47427805277E+01  0.18095238291E+03  0.12500000000E+03 0.  0.
</event>
<event>
 5    0  0.5829567E-005  0.2506474E+03  0.7546771E-02  0.1112896E+00
         21   -1    0    0  502  501  0.00000000000E+00  0.00000000000E+00  0.17638427986E+03  0.17638427986E+03  0.00000000000E+00 0. -1.
         21   -1    0    0  501  502 -0.00000000000E+00 -0.00000000000E+00 -0.35617751490E+03  0.35617751490E+03  0.00000000000E+00 0. -1.
         25    1    1    2    0    0 -0.17700769178E+02 -0.68112002889E+02 -0.39733292840E+02  0.14884991343E+03  0.12500000000E+03 0.  0.
         25    1    1    2    0    0 -0.36684697958E+02  0.14749062472E+03 -0.54196304531E+02  0.20411146677E+03  0.12500000000E+03 0.  0.
         25    1    1    2    0    0  0.54385467136E+02 -0.79378621827E+02 -0.85863637667E+02  0.17960041457E+03  0.12500000000E+03 0.  0.
</event>
<event>
 5    0  0.5829567E-005  0.6163797E+03  0.7546771E-02  0.9871994E-01
         21   -1    0    0  502  501  0.00000000000E+00  0.00000000000E+00  0.27378976173E+03  0.27378976173E+03  0.00000000000E+00 0.  1.
         21   -1    0    0  501  502 -0.00000000000E+00 -0.00000000000E+00 -0.13876485867E+04  0.13876485867E+04  0.00000000000E+00 0.  1.
         25    1    1    2    0    0 -0.29523536167E+03  0.99381524808E+02 -0.48936890515E+03  0.59342019815E+03  0.12500000000E+03 0.  0.
         25    1    1    2    0    0 -0.71944455892E+02 -0.36074880270E+03 -0.20272793413E+03  0.43822290979E+03  0.12500000000E+03 0.  0.
         25    1    1    2    0    0  0.36717981756E+03  0.26136727789E+03 -0.42176198569E+03  0.62979524049E+03  0.12500000000E+03 0.  0.
</event>
<event>
 5    0  0.5829567E-005  0.2667907E+03  0.7546771E-02  0.1103131E+00
         21   -1    0    0  502  501  0.00000000000E+00  0.00000000000E+00  0.23794873585E+03  0.23794873585E+03  0.00000000000E+00 0. -1.
         21   -1    0    0  501  502 -0.00000000000E+00 -0.00000000000E+00 -0.29912867701E+03  0.29912867701E+03  0.00000000000E+00 0. -1.
         25    1    1    2    0    0  0.33787773293E+02 -0.59861970820E+02 -0.22917171309E+02  0.14448275300E+03  0.12500000000E+03 0.  0.
         25    1    1    2    0    0  0.95466832887E+02  0.11953635910E+03 -0.46530421606E+02  0.20296043325E+03  0.12500000000E+03 0.  0.
         25    1    1    2    0    0 -0.12925460618E+03 -0.59674388282E+02  0.82676517516E+01  0.18963422661E+03  0.12500000000E+03 0.  0.
</event>
<event>
 5    0  0.6010505E-005  0.3341599E+03  0.7546771E-02  0.1069311E+00
         21   -1    0    0  502  501  0.00000000000E+00  0.00000000000E+00  0.69055607473E+03  0.69055607473E+03  0.00000000000E+00 0.  1.
         21   -1    0    0  501  502 -0.00000000000E+00 -0.00000000000E+00 -0.16169989189E+03  0.16169989189E+03  0.00000000000E+00 0.  1.
         25    1    1    2    0    0 -0.35701386825E+02  0.20120005301E+02  0.21209581806E+03  0.24957772271E+03  0.12500000000E+03 0.  0.
         25    1    1    2    0    0  0.64685564244E+02  0.20222609627E+03  0.21334618221E+03  0.32591595496E+03  0.12500000000E+03 0.  0.
         25    1    1    2    0    0 -0.28984177420E+02 -0.22234610157E+03  0.10341418257E+03  0.27676228895E+03  0.12500000000E+03 0.  0.
</event>
<event>
 5    0  0.6278316E-005  0.3158303E+03  0.7546771E-02  0.1077584E+00
         21   -1    0    0  502  501  0.00000000000E+00  0.00000000000E+00  0.33814679904E+03  0.33814679904E+03  0.00000000000E+00 0.  1.
         21   -1    0    0  501  502 -0.00000000000E+00 -0.00000000000E+00 -0.29498669179E+03  0.29498669179E+03  0.00000000000E+00 0.  1.
         25    1    1    2    0    0 -0.66042615117E+02 -0.14954569967E+03 -0.77064240182E+01  0.20593671910E+03  0.12500000000E+03 0.  0.
         25    1    1    2    0    0  0.89110572912E+01  0.80721799659E+02  0.17481501797E+03  0.22974051970E+03  0.12500000000E+03 0.  0.
         25    1    1    2    0    0  0.57131557825E+02  0.68823900012E+02 -0.12394848670E+03  0.19745625203E+03  0.12500000000E+03 0.  0.
</event>
<event>
 5    0  0.5944270E-005  0.5344458E+03  0.7546771E-02  0.1005160E+00
         21   -1    0    0  502  501  0.00000000000E+00  0.00000000000E+00  0.11843214676E+04  0.11843214676E+04  0.00000000000E+00 0.  1.
         21   -1    0    0  501  502 -0.00000000000E+00 -0.00000000000E+00 -0.24117801120E+03  0.24117801120E+03  0.00000000000E+00 0.  1.
         25    1    1    2    0    0  0.22955588369E+03  0.76844837227E+01  0.78605103128E+03  0.82840580563E+03  0.12500000000E+03 0.  0.
         25    1    1    2    0    0 -0.49775685531E+02 -0.18521934607E+03 -0.65271497983E+02  0.23805292159E+03  0.12500000000E+03 0.  0.
         25    1    1    2    0    0 -0.17978019815E+03  0.17753486235E+03  0.22236392307E+03  0.35904075156E+03  0.12500000000E+03 0.  0.
</event>
<event>
 5    0  0.5829567E-005  0.2314813E+03  0.7546771E-02  0.1125602E+00
         21   -1    0    0  502  501  0.00000000000E+00  0.00000000000E+00  0.30687843782E+03  0.30687843782E+03  0.00000000000E+00 0. -1.
         21   -1    0    0  501  502 -0.00000000000E+00 -0.00000000000E+00 -0.17460848388E+03  0.17460848388E+03  0.00000000000E+00 0. -1.
         25    1    1    2    0    0  0.20175227690E+02 -0.12574842176E+03  0.54637224150E+02  0.18662778906E+03  0.12500000000E+03 0.  0.
         25    1    1    2    0    0  0.13720495212E+00  0.44270905872E+02  0.50215149549E+02  0.14179736661E+03  0.12500000000E+03 0.  0.
         25    1    1    2    0    0 -0.20312432642E+02  0.81477515888E+02  0.27417580235E+02  0.15306176603E+03  0.12500000000E+03 0.  0.
</event>
<event>
 5    0  0.5829567E-005  0.4157870E+03  0.7546771E-02  0.1038446E+00
         21   -1    0    0  502  501  0.00000000000E+00  0.00000000000E+00  0.67315067703E+02  0.67315067703E+02  0.00000000000E+00 0.  1.
         21   -1    0    0  501  502 -0.00000000000E+00 -0.00000000000E+00 -0.25682039515E+04  0.25682039515E+04  0.00000000000E+00 0.  1.
         25    1    1    2    0    0 -0.17598561425E+03  0.37918837765E+02 -0.39149653668E+03  0.44866837744E+03  0.12500000000E+03 0.  0.
         25    1    1    2    0    0  0.53827832813E+02  0.94347054565E+02 -0.18004714574E+04  0.18080711466E+04  0.12500000000E+03 0.  0.
         25    1    1    2    0    0  0.12215778144E+03 -0.13226589233E+03 -0.30892088968E+03  0.37877949512E+03  0.12500000000E+03 0.  0.
</event>
<event>
 5    0  0.5829567E-005  0.3092286E+03  0.7546771E-02  0.1080716E+00
         21   -1    0    0  502  501  0.00000000000E+00  0.00000000000E+00  0.23267353235E+04  0.23267353235E+04  0.00000000000E+00 0. -1.
         21   -1    0    0  501  502 -0.00000000000E+00 -0.00000000000E+00 -0.41097198492E+02  0.41097198492E+02  0.00000000000E+00 0. -1.
         25    1    1    2    0    0 -0.13561061947E+03 -0.75345853875E+02  0.87186579948E+03  0.89433897942E+03  0.12500000000E+03 0.  0.
         25    1    1    2    0    0  0.59085824513E+02  0.18439099824E+03  0.71433722654E+03  0.75059566220E+03  0.12500000000E+03 0.  0.
         25    1    1    2    0    0  0.76524794957E+02 -0.10904514436E+03  0.69943509897E+03  0.72289788036E+03  0.12500000000E+03 0.  0.
</event>
<event>
 5    0  0.5829567E-005  0.2956419E+03  0.7546771E-02  0.1087440E+00
         21   -1    0    0  502  501  0.00000000000E+00  0.00000000000E+00  0.60910784643E+03  0.60910784643E+03  0.00000000000E+00 0.  1.
         21   -1    0    0  501  502 -0.00000000000E+00 -0.00000000000E+00 -0.14349533423E+03  0.14349533423E+03  0.00000000000E+00 0.  1.
         25    1    1    2    0    0 -0.13386867957E+02  0.16316898545E+02  0.13564296716E+03  0.18565953774E+03  0.12500000000E+03 0.  0.
         25    1    1    2    0    0  0.51131574643E+01 -0.74500033662E+02 -0.56766579907E+02  0.15628129763E+03  0.12500000000E+03 0.  0.
         25    1    1    2    0    0  0.82737104929E+01  0.58183135117E+02  0.38673612495E+03  0.41066234529E+03  0.12500000000E+03 0.  0.
</event>
<event>
 5    0  0.5829567E-005  0.3717478E+03  0.7546771E-02  0.1054027E+00
         21   -1    0    0  502  501  0.00000000000E+00  0.00000000000E+00  0.51659303628E+03  0.51659303628E+03  0.00000000000E+00 0. -1.
         21   -1    0    0  501  502 -0.00000000000E+00 -0.00000000000E+00 -0.26751509596E+03  0.26751509596E+03  0.00000000000E+00 0. -1.
         25    1    1    2    0    0  0.82795036813E+02  0.12989975009E+03  0.68934401018E+02  0.21001408248E+03  0.12500000000E+03 0.  0.
         25    1    1    2    0    0 -0.16533828019E+03 -0.23449826855E+03  0.22562162543E+03  0.38581900253E+03  0.12500000000E+03 0.  0.
         25    1    1    2    0    0  0.82543243373E+02  0.10459851846E+03 -0.45478086133E+02  0.18827504723E+03  0.12500000000E+03 0.  0.
</event>
<event>
 5    0  0.6423239E-005  0.2992270E+03  0.7546771E-02  0.1085628E+00
         21   -1    0    0  502  501  0.00000000000E+00  0.00000000000E+00  0.46896867124E+03  0.46896867124E+03  0.00000000000E+00 0. -1.
         21   -1    0    0  501  502 -0.00000000000E+00 -0.00000000000E+00 -0.19092274536E+03  0.19092274536E+03  0.00000000000E+00 0. -1.
         25    1    1    2    0    0 -0.15958227157E+03 -0.67904373650E+02  0.26141757839E+03  0.33770054138E+03  0.12500000000E+03 0.  0.
         25    1    1    2    0    0  0.33903691655E+02  0.16715136779E+02 -0.25221113182E+02  0.13300361144E+03  0.12500000000E+03 0.  0.
         25    1    1    2    0    0  0.12567857991E+03  0.51189236871E+02  0.41849460675E+02  0.18918726379E+03  0.12500000000E+03 0.  0.
</event>
<event>
 5    0  0.5829567E-005  0.2412339E+03  0.7546771E-02  0.1118974E+00
         21   -1    0    0  502  501  0.00000000000E+00  0.00000000000E+00  0.30995190074E+03  0.30995190074E+03  0.00000000000E+00 0. -1.
         21   -1    0    0  501  502 -0.00000000000E+00 -0.00000000000E+00 -0.18775111789E+03  0.18775111789E+03  0.00000000000E+00 0. -1.
         25    1    1    2    0    0 -0.72693079815E+02  0.35569264567E+02  0.13367836090E+03  0.20011087079E+03  0.12500000000E+03 0.  0.
         25    1    1    2    0    0 -0.19768266916E+02 -0.28800669123E+02  0.36346031138E+02  0.13478240574E+03  0.12500000000E+03 0.  0.
         25    1    1    2    0    0  0.92461346731E+02 -0.67685954445E+01 -0.47823609189E+02  0.16280974209E+03  0.12500000000E+03 0.  0.
</event>
<event>
 5    0  0.5829567E-005  0.3784662E+03  0.7546771E-02  0.1051502E+00
         21   -1    0    0  502  501  0.00000000000E+00  0.00000000000E+00  0.32365481372E+03  0.32365481372E+03  0.00000000000E+00 0.  1.
         21   -1    0    0  501  502 -0.00000000000E+00 -0.00000000000E+00 -0.44255988909E+03  0.44255988909E+03  0.00000000000E+00 0.  1.
         25    1    1    2    0    0  0.19823844661E+03  0.96403912919E+02  0.94867632829E+02  0.27058651832E+03  0.12500000000E+03 0.  0.
         25    1    1    2    0    0 -0.19232669214E+03 -0.16440499627E+03 -0.64854290430E+02  0.28956802015E+03  0.12500000000E+03 0.  0.
         25    1    1    2    0    0 -0.59117544730E+01  0.68001083348E+02 -0.14891841776E+03  0.20606016434E+03  0.12500000000E+03 0.  0.
</event>
<event>
 5    0  0.5829567E-005  0.2658208E+03  0.7546771E-02  0.1103696E+00
         21   -1    0    0  502  501  0.00000000000E+00  0.00000000000E+00  0.29332647115E+03  0.29332647115E+03  0.00000000000E+00 0. -1.
         21   -1    0    0  501  502 -0.00000000000E+00 -0.00000000000E+00 -0.24089439893E+03  0.24089439893E+03  0.00000000000E+00 0.  1.
         25    1    1    2    0    0 -0.14436939832E+03  0.10400758813E+03  0.35948430855E+02  0.22040279318E+03  0.12500000000E+03 0.  0.
         25    1    1    2    0    0  0.60819943408E+02 -0.78818145900E+02 -0.49161718391E+01  0.15987662238E+03  0.12500000000E+03 0.  0.
         25    1    1    2    0    0  0.83549454914E+02 -0.25189442230E+02  0.21399813204E+02  0.15394145453E+03  0.12500000000E+03 0.  0.
</event>
<event>
 5    0  0.5829567E-005  0.3076864E+03  0.7546771E-02  0.1081460E+00
         21   -1    0    0  502  501  0.00000000000E+00  0.00000000000E+00  0.14349588803E+04  0.14349588803E+04  0.00000000000E+00 0. -1.
         21   -1    0    0  501  502 -0.00000000000E+00 -0.00000000000E+00 -0.65974657182E+02  0.65974657182E+02  0.00000000000E+00 0. -1.
         25    1    1    2    0    0  0.58242849609E+02 -0.20598598989E+02  0.52504694672E+03  0.54324564248E+03  0.12500000000E+03 0.  0.
         25    1    1    2    0    0 -0.24463264750E+02  0.19019290515E+03  0.33401712395E+03  0.40492497032E+03  0.12500000000E+03 0.  0.
         25    1    1    2    0    0 -0.33779584859E+02 -0.16959430616E+03  0.50992015242E+03  0.55276292466E+03  0.12500000000E+03 0.  0.
</event>
<event>
 5    0  0.5829567E-005  0.4134386E+03  0.7546771E-02  0.1039223E+00
         21   -1    0    0  502  501  0.00000000000E+00  0.00000000000E+00  0.82714733123E+02  0.82714733123E+02  0.00000000000E+00 0.  1.
         21   -1    0    0  501  502 -0.00000000000E+00 -0.00000000000E+00 -0.20665179679E+04  0.20665179679E+04  0.00000000000E+00 0.  1.
         25    1    1    2    0    0 -0.34374936327E+03 -0.10540511447E+03 -0.85655935906E+03  0.93733281095E+03  0.12500000000E+03 0.  0.
         25    1    1    2    0    0  0.16804498064E+03  0.91597220346E+02 -0.55606360453E+03  0.60121618289E+03  0.12500000000E+03 0.  0.
         25    1    1    2    0    0  0.17570438263E+03  0.13807894125E+02 -0.57118027123E+03  0.61068370721E+03  0.12500000000E+03 0.  0.
</event>
<event>
 5    0  0.5829567E-005  0.4556382E+03  0.7546771E-02  0.1026054E+00
         21   -1    0    0  502  501  0.00000000000E+00  0.00000000000E+00  0.11323132707E+04  0.11323132707E+04  0.00000000000E+00 0.  1.
         21   -1    0    0  501  502 -0.00000000000E+00 -0.00000000000E+00 -0.18334695490E+03  0.18334695490E+03  0.00000000000E+00 0.  1.
         25    1    1    2    0    0  0.29472320861E+03  0.15611843425E+03  0.48778790806E+03  0.60398408792E+03  0.12500000000E+03 0.  0.
         25    1    1    2    0    0 -0.25778501216E+03 -0.23253922710E+03  0.22775481453E+03  0.43361833469E+03  0.12500000000E+03 0.  0.
         25    1    1    2    0    0 -0.36938196458E+02  0.76420792856E+02  0.23342359317E+03  0.27805780296E+03  0.12500000000E+03 0.  0.
</event>
<event>
 5    0  0.5829567E-005  0.4172519E+03  0.7546771E-02  0.1037964E+00
         21   -1    0    0  502  501  0.00000000000E+00  0.00000000000E+00  0.72746801800E+03  0.72746801800E+03  0.00000000000E+00 0.  1.
         21   -1    0    0  501  502 -0.00000000000E+00 -0.00000000000E+00 -0.23932210785E+03  0.23932210785E+03  0.00000000000E+00 0.  1.
         25    1    1    2    0    0  0.17321600349E+03 -0.15809769375E+03  0.23506861040E+02  0.26678875005E+03  0.12500000000E+03 0.  0.
         25    1    1    2    0    0  0.27141951467E+02 -0.10684123362E+03  0.12069820026E+03  0.20577849809E+03  0.12500000000E+03 0.  0.
         25    1    1    2    0    0 -0.20035795495E+03  0.26493892737E+03  0.34394084885E+03  0.49422287772E+03  0.12500000000E+03 0.  0.
</event>
<event>
 5    0  0.5829567E-005  0.5388442E+03  0.7546771E-02  0.1004110E+00
         21   -1    0    0  502  501  0.00000000000E+00  0.00000000000E+00  0.59195738638E+03  0.59195738638E+03  0.00000000000E+00 0.  1.
         21   -1    0    0  501  502 -0.00000000000E+00 -0.00000000000E+00 -0.49049650665E+03  0.49049650665E+03  0.00000000000E+00 0.  1.
         25    1    1    2    0    0 -0.15388604258E+03 -0.20639683275E+03 -0.26424449928E+03  0.38952627905E+03  0.12500000000E+03 0.  0.
         25    1    1    2    0    0 -0.25800392454E+02 -0.13224821470E+03  0.13811986522E+03  0.22990725893E+03  0.12500000000E+03 0.  0.
         25    1    1    2    0    0  0.17968643504E+03  0.33864504745E+03  0.22758551378E+03  0.46302035504E+03  0.12500000000E+03 0.  0.
</event>
<event>
 5    0  0.5829567E-005  0.3305032E+03  0.7546771E-02  0.1070914E+00
         21   -1    0    0  502  501  0.00000000000E+00  0.00000000000E+00  0.67483622078E+03  0.67483622078E+03  0.00000000000E+00 0.  1.
         21   -1    0    0  501  502 -0.00000000000E+00 -0.00000000000E+00 -0.16186497842E+03  0.16186497842E+03  0.00000000000E+00 0.  1.
         25    1    1    2    0    0  0.57721851224E+02  0.28574077637E+02 -0.47632971749E+02  0.14846612415E+03  0.12500000000E+03 0.  0.
         25    1    1    2    0    0 -0.44888394318E+02  0.34233092233E+02  0.52595680303E+03  0.54354616290E+03  0.12500000000E+03 0.  0.
         25    1    1    2    0    0 -0.12833456907E+02 -0.62807169870E+02  0.34647411078E+02  0.14468891214E+03  0.12500000000E+03 0.  0.
</event>
<event>
 5    0  0.5829567E-005  0.3169669E+03  0.7546771E-02  0.1077054E+00
         21   -1    0    0  502  501  0.00000000000E+00  0.00000000000E+00  0.32723424718E+03  0.32723424718E+03  0.00000000000E+00 0. -1.
         21   -1    0    0  501  502 -0.00000000000E+00 -0.00000000000E+00 -0.30702162906E+03  0.30702162906E+03  0.00000000000E+00 0. -1.
         25    1    1    2    0    0  0.64482416952E+02  0.34360961979E+02 -0.14002185443E+03  0.20141940702E+03  0.12500000000E+03 0.  0.
         25    1    1    2    0    0  0.99290389098E+02 -0.85082179313E+02  0.11945350769E+03  0.21677568845E+03  0.12500000000E+03 0.  0.
         25    1    1    2    0    0 -0.16377280605E+03  0.50721217334E+02  0.40780964865E+02  0.21606078076E+03  0.12500000000E+03 0.  0.
</event>
<event>
 5    0  0.5829567E-005  0.5591276E+03  0.7546771E-02  0.9994031E-01
         21   -1    0    0  502  501  0.00000000000E+00  0.00000000000E+00  0.15186333627E+03  0.15186333627E+03  0.00000000000E+00 0.  1.
         21   -1    0    0  501  502 -0.00000000000E+00 -0.00000000000E+00 -0.20585853809E+04  0.20585853809E+04  0.00000000000E+00 0.  1.
         25    1    1    2    0    0  0.79091086412E+02 -0.12938336710E+02 -0.14696236884E+03  0.20891562499E+03  0.12500000000E+03 0.  0.
         25    1    1    2    0    0  0.10765886758E+03  0.43533667958E+03 -0.72637290219E+03  0.86275781619E+03  0.12500000000E+03 0.  0.
         25    1    1    2    0    0 -0.18674995400E+03 -0.42239834287E+03 -0.10333867736E+04  0.11387752760E+04  0.12500000000E+03 0.  0.
</event>
<event>
 5    0  0.5829567E-005  0.5093430E+03  0.7546771E-02  0.1011369E+00
         21   -1    0    0  502  501  0.00000000000E+00  0.00000000000E+00  0.10376875552E+03  0.10376875552E+03  0.00000000000E+00 0.  1.
         21   -1    0    0  501  502 -0.00000000000E+00 -0.00000000000E+00 -0.25000806584E+04  0.25000806584E+04  0.00000000000E+00 0.  1.
         25    1    1    2    0    0 -0.12033020102E+03  0.34251130744E+03 -0.16620738630E+04  0.17058452096E+04  0.12500000000E+03 0.  0.
         25    1    1    2    0    0  0.12904698692E+02 -0.29313631767E+03 -0.60102843829E+03  0.68040841824E+03  0.12500000000E+03 0.  0.
         25    1    1    2    0    0  0.10742550233E+03 -0.49374989775E+02 -0.13320960160E+03  0.21759578609E+03  0.12500000000E+03 0.  0.
</event>
<event>
 5    0  0.5829567E-005  0.4184922E+03  0.7546771E-02  0.1037558E+00
         21   -1    0    0  502  501  0.00000000000E+00  0.00000000000E+00  0.25655822398E+03  0.25655822398E+03  0.00000000000E+00 0.  1.
         21   -1    0    0  501  502 -0.00000000000E+00 -0.00000000000E+00 -0.68263522703E+03  0.68263522703E+03  0.00000000000E+00 0.  1.
         25    1    1    2    0    0 -0.13687200941E+03 -0.22864440047E+02 -0.41177434247E+02  0.19125195599E+03  0.12500000000E+03 0.  0.
         25    1    1    2    0    0 -0.61714318991E+02 -0.67355570776E+02 -0.46016960282E+03  0.48551672828E+03  0.12500000000E+03 0.  0.
         25    1    1    2    0    0  0.19858632840E+03  0.90220010823E+02  0.75270034014E+02  0.26242476675E+03  0.12500000000E+03 0.  0.
</event>
<event>
 5    0  0.5829567E-005  0.3020191E+03  0.7546771E-02  0.1084236E+00
         21   -1    0    0  502  501  0.00000000000E+00  0.00000000000E+00  0.69928353287E+03  0.69928353287E+03  0.00000000000E+00 0.  1.
         21   -1    0    0  501  502 -0.00000000000E+00 -0.00000000000E+00 -0.13044137978E+03  0.13044137978E+03  0.00000000000E+00 0.  1.
         25    1    1    2    0    0 -0.14449765558E+03 -0.24047852536E+02  0.63759849261E+02  0.20285016652E+03  0.12500000000E+03 0.  0.
         25    1    1    2    0    0  0.18126890626E+03  0.29977534120E+02  0.40687656991E+03  0.46360609581E+03  0.12500000000E+03 0.  0.
         25    1    1    2    0    0 -0.36771250681E+02 -0.59296815847E+01  0.98205733913E+02  0.16326865031E+03  0.12500000000E+03 0.  0.
</event>
<event>
 5    0  0.5829567E-005  0.3030899E+03  0.7546771E-02  0.1083706E+00
         21   -1    0    0  502  501  0.00000000000E+00  0.00000000000E+00  0.29798030939E+03  0.29798030939E+03  0.00000000000E+00 0. -1.
         21   -1    0    0  501  502 -0.00000000000E+00 -0.00000000000E+00 -0.30828701086E+03  0.30828701086E+03  0.00000000000E+00 0. -1.
         25    1    1    2    0    0  0.98585116108E+02  0.23382808216E+02  0.12575603210E+02  0.16139679871E+03  0.12500000000E+03 0.  0.
         25    1    1    2    0    0 -0.10923600117E+03  0.14220579722E+03 -0.74278613924E+02  0.23086209131E+03  0.12500000000E+03 0.  0.
         25    1    1    2    0    0  0.10650885062E+02 -0.16558860544E+03  0.51396309246E+02  0.21400843023E+03  0.12500000000E+03 0.  0.
</event>
<event>
 5    0  0.5829567E-005  0.4197912E+03  0.7546771E-02  0.1037134E+00
         21   -1    0    0  502  501  0.00000000000E+00  0.00000000000E+00  0.38852106910E+03  0.38852106910E+03  0.00000000000E+00 0. -1.
         21   -1    0    0  501  502 -0.00000000000E+00 -0.00000000000E+00 -0.45357815526E+03  0.45357815526E+03  0.00000000000E+00 0. -1.
         25    1    1    2    0    0 -0.29592898036E+02 -0.20965903126E+03  0.16257621433E+03  0.29476884922E+03  0.12500000000E+03 0.  0.
         25    1    1    2    0    0  0.12786691329E+03  0.40032077085E+02  0.45335419866E+02  0.18876656220E+03  0.12500000000E+03 0.  0.
         25    1    1    2    0    0 -0.98274015256E+02  0.16962695418E+03 -0.27296872036E+03  0.35856381294E+03  0.12500000000E+03 0.  0.
</event>
<event>
 5    0  0.5829567E-005  0.4104232E+03  0.7546771E-02  0.1040229E+00
         21   -1    0    0  502  501  0.00000000000E+00  0.00000000000E+00  0.59952374785E+03  0.59952374785E+03  0.00000000000E+00 0. -1.
         21   -1    0    0  501  502 -0.00000000000E+00 -0.00000000000E+00 -0.28096833796E+03  0.28096833796E+03  0.00000000000E+00 0. -1.
         25    1    1    2    0    0  0.11134146924E+03 -0.41427868010E+02  0.15032894707E+03  0.22877277668E+03  0.12500000000E+03 0.  0.
         25    1    1    2    0    0 -0.75201589185E+02 -0.41187431539E+02  0.36881680548E+03  0.39875120004E+03  0.12500000000E+03 0.  0.
         25    1    1    2    0    0 -0.36139880055E+02  0.82615299548E+02 -0.20059034266E+03  0.25296810909E+03  0.12500000000E+03 0.  0.
</event>
<event>
 5    0  0.5829567E-005  0.3225485E+03  0.7546771E-02  0.1074482E+00
         21   -1    0    0  502  501  0.00000000000E+00  0.00000000000E+00  0.33383050407E+03  0.33383050407E+03  0.00000000000E+00 0. -1.
         21   -1    0    0  501  502 -0.00000000000E+00 -0.00000000000E+00 -0.31164770180E+03  0.31164770180E+03  0.00000000000E+00 0. -1.
         25    1    1    2    0    0  0.95435147149E+01 -0.18866040890E+02 -0.32723330562E+02  0.13093060198E+03  0.12500000000E+03 0.  0.
         25    1    1    2    0    0  0.20462556487E+03 -0.49266733345E+02  0.76515559229E+02  0.25647312455E+03  0.12500000000E+03 0.  0.
         25    1    1    2    0    0 -0.21416907959E+03  0.68132774234E+02 -0.21609426395E+02  0.25807447934E+03  0.12500000000E+03 0.  0.
</event>
<event>
 5    0  0.5829567E-005  0.2864965E+03  0.7546771E-02  0.1092193E+00
         21   -1    0    0  502  501  0.00000000000E+00  0.00000000000E+00  0.31718924682E+03  0.31718924682E+03  0.00000000000E+00 0.  1.
         21   -1    0    0  501  502 -0.00000000000E+00 -0.00000000000E+00 -0.25877369651E+03  0.25877369651E+03  0.00000000000E+00 0.  1.
         25    1    1    2    0    0  0.17113757540E+02  0.24900443522E+02 -0.10063658589E+03  0.16329615796E+03  0.12500000000E+03 0.  0.
         25    1    1    2    0    0 -0.48989044309E+02 -0.14979337422E+03  0.79902844652E+02  0.21644270837E+03  0.12500000000E+03 0.  0.
         25    1    1    2    0    0  0.31875286769E+02  0.12489293070E+03  0.79149291550E+02  0.19622407701E+03  0.12500000000E+03 0.  0.
</event>
<event>
 5    0  0.5829567E-005  0.3319350E+03  0.7546771E-02  0.1070284E+00
         21   -1    0    0  502  501  0.00000000000E+00  0.00000000000E+00  0.10925496437E+04  0.10925496437E+04  0.00000000000E+00 0. -1.
         21   -1    0    0  501  502 -0.00000000000E+00 -0.00000000000E+00 -0.10084742611E+03  0.10084742611E+03  0.00000000000E+00 0. -1.
         25    1    1    2    0    0  0.13576672936E+03 -0.19205214254E+03  0.51583189321E+03  0.58053783022E+03  0.12500000000E+03 0.  0.
         25    1    1    2    0    0 -0.97946083406E+02  0.14606458967E+03  0.40123211483E+03  0.45556614183E+03  0.12500000000E+03 0.  0.
         25    1    1    2    0    0 -0.37820645959E+02  0.45987552869E+02  0.74638209541E+02  0.15729309776E+03  0.12500000000E+03 0.  0.
</event>
<event>
 5    0  0.5829567E-005  0.4647028E+03  0.7546771E-02  0.1023426E+00
         21   -1    0    0  502  501  0.00000000000E+00  0.00000000000E+00  0.56629366282E+03  0.56629366282E+03  0.00000000000E+00 0.  1.
         21   -1    0    0  501  502 -0.00000000000E+00 -0.00000000000E+00 -0.38133695462E+03  0.38133695462E+03  0.00000000000E+00 0.  1.
         25    1    1    2    0    0 -0.23325467082E+03  0.22375428070E+03 -0.12744620892E+03  0.36924416821E+03  0.12500000000E+03 0.  0.
         25    1    1    2    0    0 -0.16985459999E+02 -0.69266506425E+02  0.20096727054E+02  0.14531081585E+03  0.12500000000E+03 0.  0.
         25    1    1    2    0    0  0.25024013082E+03 -0.15448777427E+03  0.29230619006E+03  0.43307563337E+03  0.12500000000E+03 0.  0.
</event>
<event>
 5    0  0.6106851E-005  0.4233972E+03  0.7546771E-02  0.1035966E+00
         21   -1    0    0  502  501  0.00000000000E+00  0.00000000000E+00  0.78354490276E+03  0.78354490276E+03  0.00000000000E+00 0. -1.
         21   -1    0    0  501  502 -0.00000000000E+00 -0.00000000000E+00 -0.22878738402E+03  0.22878738402E+03  0.00000000000E+00 0. -1.
         25    1    1    2    0    0  0.36678552042E+02 -0.15802732264E+03  0.34440618150E+03  0.40069760261E+03  0.12500000000E+03 0.  0.
         25    1    1    2    0    0  0.10726779638E+01 -0.44186792228E+02 -0.13594769365E+03  0.18989575733E+03  0.12500000000E+03 0.  0.
         25    1    1    2    0    0 -0.37751230005E+02  0.20221411486E+03  0.34629903088E+03  0.42173892683E+03  0.12500000000E+03 0.  0.
</event>
<event>
 5    0  0.5829567E-005  0.5555801E+03  0.7546771E-02  0.1000211E+00
         21   -1    0    0  502  501  0.00000000000E+00  0.00000000000E+00  0.14511582142E+04  0.14511582142E+04  0.00000000000E+00 0. -1.
         21   -1    0    0  501  502 -0.00000000000E+00 -0.00000000000E+00 -0.21270546582E+03  0.21270546582E+03  0.00000000000E+00 0. -1.
         25    1    1    2    0    0  0.12929267351E+01  0.15794238395E+02 -0.14981523837E+03  0.19575682689E+03  0.12500000000E+03 0.  0.
         25    1    1    2    0    0 -0.63136685136E+02  0.73736457848E+02  0.12259771262E+04  0.12361505653E+04  0.12500000000E+03 0.  0.
         25    1    1    2    0    0  0.61843758401E+02 -0.89530696243E+02  0.16229086055E+03  0.23195628778E+03  0.12500000000E+03 0.  0.
</event>
<event>
 5    0  0.5829567E-005  0.8821432E+03  0.7546771E-02  0.9448183E-01
         21   -1    0    0  502  501  0.00000000000E+00  0.00000000000E+00  0.36207456178E+03  0.36207456178E+03  0.00000000000E+00 0. -1.
         21   -1    0    0  501  502 -0.00000000000E+00 -0.00000000000E+00 -0.21492163968E+04  0.21492163968E+04  0.00000000000E+00 0. -1.
         25    1    1    2    0    0  0.34881909426E+03 -0.18698678688E+03 -0.32801109464E+02  0.41634088410E+03  0.12500000000E+03 0.  0.
         25    1    1    2    0    0 -0.60170067226E+03  0.40315347191E+03 -0.14557714410E+04  0.16307887384E+04  0.12500000000E+03 0.  0.
         25    1    1    2    0    0  0.25288157800E+03 -0.21616668502E+03 -0.29856928450E+03  0.46416133602E+03  0.12500000000E+03 0.  0.
</event>
<event>
 5    0  0.5829567E-005  0.2559255E+03  0.7546771E-02  0.1109616E+00
         21   -1    0    0  502  501  0.00000000000E+00  0.00000000000E+00  0.10417087618E+04  0.10417087618E+04  0.00000000000E+00 0. -1.
         21   -1    0    0  501  502 -0.00000000000E+00 -0.00000000000E+00 -0.62875391204E+02  0.62875391204E+02  0.00000000000E+00 0. -1.
         25    1    1    2    0    0  0.13128616703E+02 -0.50772762725E+02  0.13870554407E+03  0.19394448166E+03  0.12500000000E+03 0.  0.
         25    1    1    2    0    0  0.25660556633E+01 -0.72031341844E+02  0.57220094239E+03  0.59011356307E+03  0.12500000000E+03 0.  0.
         25    1    1    2    0    0 -0.15694672366E+02  0.12280410457E+03  0.26792688413E+03  0.32052610827E+03  0.12500000000E+03 0.  0.
</event>
<event>
 5    0  0.5829567E-005  0.2711662E+03  0.7546771E-02  0.1100614E+00
         21   -1    0    0  502  501  0.00000000000E+00  0.00000000000E+00  0.25466469611E+03  0.25466469611E+03  0.00000000000E+00 0.  1.
         21   -1    0    0  501  502 -0.00000000000E+00 -0.00000000000E+00 -0.28873704281E+03  0.28873704281E+03  0.00000000000E+00 0.  1.
         25    1    1    2    0    0 -0.65844483583E+02  0.53881615401E+02  0.93480024733E+02  0.17777018738E+03  0.12500000000E+03 0.  0.
         25    1    1    2    0    0  0.65887871861E+02 -0.43453665184E+02 -0.17716511281E+03  0.23074208518E+03  0.12500000000E+03 0.  0.
         25    1    1    2    0    0 -0.43388278108E-01 -0.10427950218E+02  0.49612741382E+02  0.13488946636E+03  0.12500000000E+03 0.  0.
</event>
<event>
 5    0  0.5829567E-005  0.2098600E+03  0.7546771E-02  0.1141677E+00
         21   -1    0    0  502  501  0.00000000000E+00  0.00000000000E+00  0.23471836825E+03  0.23471836825E+03  0.00000000000E+00 0. -1.
         21   -1    0    0  501  502 -0.00000000000E+00 -0.00000000000E+00 -0.18763430582E+03  0.18763430582E+03  0.00000000000E+00 0. -1.
         25    1    1    2    0    0 -0.32371609715E+01  0.43972843787E+02  0.58081614402E+02  0.14471545921E+03  0.12500000000E+03 0.  0.
         25    1    1    2    0    0  0.33077603239E+02 -0.65262006963E+02  0.12092806404E+02  0.14534267562E+03  0.12500000000E+03 0.  0.
         25    1    1    2    0    0 -0.29840442268E+02  0.21289163176E+02 -0.23090358378E+02  0.13229453924E+03  0.12500000000E+03 0.  0.
</event>
<event>
 5    0  0.5829567E-005  0.2910173E+03  0.7546771E-02  0.1089819E+00
         21   -1    0    0  502  501  0.00000000000E+00  0.00000000000E+00  0.99975129082E+03  0.99975129082E+03  0.00000000000E+00 0. -1.
         21   -1    0    0  501  502 -0.00000000000E+00 -0.00000000000E+00 -0.84712111816E+02  0.84712111816E+02  0.00000000000E+00 0. -1.
         25    1    1    2    0    0 -0.91798965980E+02  0.11290636821E+03  0.58799708508E+03  0.61849856120E+03  0.12500000000E+03 0.  0.
         25    1    1    2    0    0 -0.12044174768E+02 -0.44934165813E+02  0.60453478642E+02  0.14643689591E+03  0.12500000000E+03 0.  0.
         25    1    1    2    0    0  0.10384314075E+03 -0.67972202395E+02  0.26658861528E+03  0.31952794553E+03  0.12500000000E+03 0.  0.
</event>
<event>
 5    0  0.5829567E-005  0.2887475E+03  0.7546771E-02  0.1091005E+00
         21   -1    0    0  502  501  0.00000000000E+00  0.00000000000E+00  0.35295757300E+03  0.35295757300E+03  0.00000000000E+00 0. -1.
         21   -1    0    0  501  502 -0.00000000000E+00 -0.00000000000E+00 -0.23621852629E+03  0.23621852629E+03  0.00000000000E+00 0. -1.
         25    1    1    2    0    0  0.48646832243E+02 -0.71607790088E+02 -0.84091669829E+02  0.17375442102E+03  0.12500000000E+03 0.  0.
         25    1    1    2    0    0 -0.12677652043E+03 -0.23951046394E+02  0.14570710749E+03  0.23130391248E+03  0.12500000000E+03 0.  0.
         25    1    1    2    0    0  0.78129688190E+02  0.95558836482E+02  0.55123609044E+02  0.18411776579E+03  0.12500000000E+03 0.  0.
</event>
<event>
 5    0  0.6309288E-005  0.4380497E+03  0.7546771E-02  0.1031347E+00
         21   -1    0    0  502  501  0.00000000000E+00  0.00000000000E+00  0.87042023530E+03  0.87042023530E+03  0.00000000000E+00 0.  1.
         21   -1    0    0  501  502 -0.00000000000E+00 -0.00000000000E+00 -0.22045391372E+03  0.22045391372E+03  0.00000000000E+00 0.  1.
         25    1    1    2    0    0  0.88954160793E+02 -0.20165308566E+03  0.16872998909E+03  0.30442013550E+03  0.12500000000E+03 0.  0.
         25    1    1    2    0    0 -0.21183141831E+03  0.31784757374E+01  0.10323523182E+02  0.24619956869E+03  0.12500000000E+03 0.  0.
         25    1    1    2    0    0  0.12287725752E+03  0.19847460992E+03  0.47091280931E+03  0.54025444484E+03  0.12500000000E+03 0.  0.
</event>
<event>
 5    0  0.5829567E-005  0.5229518E+03  0.7546771E-02  0.1007956E+00
         21   -1    0    0  502  501  0.00000000000E+00  0.00000000000E+00  0.10421520330E+04  0.10421520330E+04  0.00000000000E+00 0. -1.
         21   -1    0    0  501  502 -0.00000000000E+00 -0.00000000000E+00 -0.26241717836E+03  0.26241717836E+03  0.00000000000E+00 0. -1.
         25    1    1    2    0    0  0.29116033498E+03 -0.28757754489E+02 -0.27465684283E+02  0.31934419193E+03  0.12500000000E+03 0.  0.
         25    1    1    2    0    0 -0.24065131052E+03  0.25637286838E+02  0.80555357795E+03  0.85035985952E+03  0.12500000000E+03 0.  0.
         25    1    1    2    0    0 -0.50509024464E+02  0.31204676510E+01  0.16469609588E+01  0.13486515989E+03  0.12500000000E+03 0.  0.
</event>
<event>
 5    0  0.5829567E-005  0.2322579E+03  0.7546771E-02  0.1125061E+00
         21   -1    0    0  502  501  0.00000000000E+00  0.00000000000E+00  0.11517684662E+03  0.11517684662E+03  0.00000000000E+00 0. -1.
         21   -1    0    0  501  502 -0.00000000000E+00 -0.00000000000E+00 -0.46835565158E+03  0.46835565158E+03  0.00000000000E+00 0. -1.
         25    1    1    2    0    0  0.56411588691E+01  0.59464545471E+02 -0.28025345750E+03  0.31262574316E+03  0.12500000000E+03 0.  0.
         25    1    1    2    0    0  0.12107910457E+02 -0.13773219751E+02 -0.41861590027E+02  0.13309280896E+03  0.12500000000E+03 0.  0.
         25    1    1    2    0    0 -0.17749069326E+02 -0.45691325720E+02 -0.31063757435E+02  0.13781394608E+03  0.12500000000E+03 0.  0.
</event>
<event>
 5    0  0.5829567E-005  0.3137044E+03  0.7546771E-02  0.1078584E+00
         21   -1    0    0  502  501  0.00000000000E+00  0.00000000000E+00  0.23507822168E+03  0.23507822168E+03  0.00000000000E+00 0.  1.
         21   -1    0    0  501  502 -0.00000000000E+00 -0.00000000000E+00 -0.41862862876E+03  0.41862862876E+03  0.00000000000E+00 0.  1.
         25    1    1    2    0    0  0.10692813628E+03  0.41136371706E+02  0.10742799546E+03  0.20072768024E+03  0.12500000000E+03 0.  0.
         25    1    1    2    0    0 -0.14431626936E+03  0.22518952411E+02 -0.11187649285E+03  0.22243119941E+03  0.12500000000E+03 0.  0.
         25    1    1    2    0    0  0.37388133077E+02 -0.63655324116E+02 -0.17910190969E+03  0.23054797079E+03  0.12500000000E+03 0.  0.
</event>
<event>
 5    0  0.5829567E-005  0.2903226E+03  0.7546771E-02  0.1090181E+00
         21   -1    0    0  502  501  0.00000000000E+00  0.00000000000E+00  0.52822892944E+03  0.52822892944E+03  0.00000000000E+00 0.  1.
         21   -1    0    0  501  502 -0.00000000000E+00 -0.00000000000E+00 -0.15956572000E+03  0.15956572000E+03  0.00000000000E+00 0.  1.
         25    1    1    2    0    0 -0.13482403687E+03  0.10777648592E+03  0.84449808092E+02  0.22923800278E+03  0.12500000000E+03 0.  0.
         25    1    1    2    0    0 -0.29652027968E+02 -0.70702752853E+02  0.14800675041E+03  0.20834855456E+03  0.12500000000E+03 0.  0.
         25    1    1    2    0    0  0.16447606484E+03 -0.37073733063E+02  0.13620665094E+03  0.25020809209E+03  0.12500000000E+03 0.  0.
</event>
<event>
 5    0  0.5829567E-005  0.4347259E+03  0.7546771E-02  0.1032377E+00
         21   -1    0    0  502  501  0.00000000000E+00  0.00000000000E+00  0.15657978828E+03  0.15657978828E+03  0.00000000000E+00 0. -1.
         21   -1    0    0  501  502 -0.00000000000E+00 -0.00000000000E+00 -0.12069666287E+04  0.12069666287E+04  0.00000000000E+00 0. -1.
         25    1    1    2    0    0 -0.17520001982E+03 -0.66103790157E+02 -0.36073062600E+03  0.42522504930E+03  0.12500000000E+03 0.  0.
         25    1    1    2    0    0 -0.10273013357E+03  0.23381073992E+03 -0.25786662443E+03  0.38385041155E+03  0.12500000000E+03 0.  0.
         25    1    1    2    0    0  0.27793015340E+03 -0.16770694977E+03 -0.43178958999E+03  0.55447095613E+03  0.12500000000E+03 0.  0.
</event>
<event>
 5    0  0.5829567E-005  0.3863341E+03  0.7546771E-02  0.1048617E+00
         21   -1    0    0  502  501  0.00000000000E+00  0.00000000000E+00  0.21812277382E+04  0.21812277382E+04  0.00000000000E+00 0.  1.
         21   -1    0    0  501  502 -0.00000000000E+00 -0.00000000000E+00 -0.68426609207E+02  0.68426609207E+02  0.00000000000E+00 0.  1.
         25    1    1    2    0    0  0.85319921662E+02 -0.15348931942E+03  0.31184732454E+03  0.37909393827E+03  0.12500000000E+03 0.  0.
         25    1    1    2    0    0 -0.49889624216E+02  0.95437530306E+02  0.16669436703E+04  0.16750891012E+04  0.12500000000E+03 0.  0.
         25    1    1    2    0    0 -0.35430297446E+02  0.58051789110E+02  0.13401013414E+03  0.19547130799E+03  0.12500000000E+03 0.  0.
</event>
<event>
 5    0  0.5829567E-005  0.4261977E+03  0.7546771E-02  0.1035068E+00
         21   -1    0    0  502  501  0.00000000000E+00  0.00000000000E+00  0.49114247329E+03  0.49114247329E+03  0.00000000000E+00 0.  1.
         21   -1    0    0  501  502 -0.00000000000E+00 -0.00000000000E+00 -0.36984065623E+03  0.36984065623E+03  0.00000000000E+00 0.  1.
         25    1    1    2    0    0  0.54247302311E+02 -0.69562164852E+02 -0.28172602555E+03  0.32058730178E+03  0.12500000000E+03 0.  0.
         25    1    1    2    0    0 -0.30189862489E+02  0.15887061230E+03  0.23530338265E+03  0.31167929212E+03  0.12500000000E+03 0.  0.
         25    1    1    2    0    0 -0.24057439821E+02 -0.89308447448E+02  0.16772445996E+03  0.22871653562E+03  0.12500000000E+03 0.  0.
</event>
<event>
 5    0  0.8568141E-005  0.3235032E+03  0.7546771E-02  0.1074048E+00
         21   -1    0    0  502  501  0.00000000000E+00  0.00000000000E+00  0.57195723266E+03  0.57195723266E+03  0.00000000000E+00 0. -1.
         21   -1    0    0  501  502 -0.00000000000E+00 -0.00000000000E+00 -0.18297575559E+03  0.18297575559E+03  0.00000000000E+00 0. -1.
         25    1    1    2    0    0 -0.13994124005E+03  0.12855998900E+03  0.28314117918E+03  0.36318748435E+03  0.12500000000E+03 0.  0.
         25    1    1    2    0    0  0.55049647662E+02 -0.68016953388E+02  0.15913201462E+03  0.22046489002E+03  0.12500000000E+03 0.  0.
         25    1    1    2    0    0  0.84891592389E+02 -0.60543035609E+02 -0.53291716730E+02  0.17128061388E+03  0.12500000000E+03 0.  0.
</event>
<event>
 5    0  0.6039560E-005  0.3821889E+03  0.7546771E-02  0.1050128E+00
         21   -1    0    0  502  501  0.00000000000E+00  0.00000000000E+00  0.20879052368E+03  0.20879052368E+03  0.00000000000E+00 0. -1.
         21   -1    0    0  501  502 -0.00000000000E+00 -0.00000000000E+00 -0.69959281827E+03  0.69959281827E+03  0.00000000000E+00 0. -1.
         25    1    1    2    0    0 -0.88543671108E+02  0.11848295783E+03 -0.55975577696E+02  0.20158486622E+03  0.12500000000E+03 0.  0.
         25    1    1    2    0    0 -0.40733191208E+02  0.77473169324E+02 -0.41259243768E+03  0.43990772266E+03  0.12500000000E+03 0.  0.
         25    1    1    2    0    0  0.12927686232E+03 -0.19595612716E+03 -0.22234279218E+02  0.26689075307E+03  0.12500000000E+03 0.  0.
</event>
<event>
 5    0  0.5829567E-005  0.2569241E+03  0.7546771E-02  0.1109005E+00
         21   -1    0    0  502  501  0.00000000000E+00  0.00000000000E+00  0.31763097798E+03  0.31763097798E+03  0.00000000000E+00 0. -1.
         21   -1    0    0  501  502 -0.00000000000E+00 -0.00000000000E+00 -0.20781977603E+03  0.20781977603E+03  0.00000000000E+00 0. -1.
         25    1    1    2    0    0  0.27285537425E+02 -0.10821044691E+03 -0.42653113264E+01  0.16762217709E+03  0.12500000000E+03 0.  0.
         25    1    1    2    0    0  0.47120912916E+02  0.97488703823E+02  0.13101530245E+03  0.21098444797E+03  0.12500000000E+03 0.  0.
         25    1    1    2    0    0 -0.74406450341E+02  0.10721743084E+02 -0.16938789178E+02  0.14684412895E+03  0.12500000000E+03 0.  0.
</event>
<event>
 5    0  0.5829567E-005  0.2872725E+03  0.7546771E-02  0.1091782E+00
         21   -1    0    0  502  501  0.00000000000E+00  0.00000000000E+00  0.39383528400E+03  0.39383528400E+03  0.00000000000E+00 0. -1.
         21   -1    0    0  501  502 -0.00000000000E+00 -0.00000000000E+00 -0.20954318505E+03  0.20954318505E+03  0.00000000000E+00 0. -1.
         25    1    1    2    0    0  0.61547387564E+02  0.12273852310E+03  0.14488809463E+03  0.23552151905E+03  0.12500000000E+03 0.  0.
         25    1    1    2    0    0  0.36722638620E+02  0.36897148931E+02 -0.14516956811E+02  0.13618257532E+03  0.12500000000E+03 0.  0.
         25    1    1    2    0    0 -0.98270026184E+02 -0.15963567203E+03  0.53920961135E+02  0.23167437468E+03  0.12500000000E+03 0.  0.
</event>
<event>
 5    0  0.5829567E-005  0.2867323E+03  0.7546771E-02  0.1092068E+00
         21   -1    0    0  502  501  0.00000000000E+00  0.00000000000E+00  0.52461587741E+03  0.52461587741E+03  0.00000000000E+00 0. -1.
         21   -1    0    0  501  502 -0.00000000000E+00 -0.00000000000E+00 -0.15671547524E+03  0.15671547524E+03  0.00000000000E+00 0. -1.
         25    1    1    2    0    0 -0.70045095856E+02 -0.36010122571E+02  0.16518691429E+03  0.22161850337E+03  0.12500000000E+03 0.  0.
         25    1    1    2    0    0  0.25985611251E+02  0.17726482820E+03  0.11815250226E+03  0.24836079622E+03  0.12500000000E+03 0.  0.
         25    1    1    2    0    0  0.44059484605E+02 -0.14125470563E+03  0.84560985617E+02  0.21135205306E+03  0.12500000000E+03 0.  0.
</event>
<event>
 5    0  0.5829567E-005  0.2593262E+03  0.7546771E-02  0.1107549E+00
         21   -1    0    0  502  501  0.00000000000E+00  0.00000000000E+00  0.90186428849E+02  0.90186428849E+02  0.00000000000E+00 0. -1.
         21   -1    0    0  501  502 -0.00000000000E+00 -0.00000000000E+00 -0.74567828164E+03  0.74567828164E+03  0.00000000000E+00 0. -1.
         25    1    1    2    0    0 -0.45066515368E+02 -0.43753942840E+02 -0.19319030392E+03  0.23852230892E+03  0.12500000000E+03 0.  0.
         25    1    1    2    0    0 -0.18660173723E+02  0.59931256463E+02 -0.30679362062E+02  0.14319979344E+03  0.12500000000E+03 0.  0.
         25    1    1    2    0    0  0.63726689091E+02 -0.16177313623E+02 -0.43162218681E+03  0.45414260814E+03  0.12500000000E+03 0.  0.
</event>
<event>
 5    0  0.5829567E-005  0.3264555E+03  0.7546771E-02  0.1072716E+00
         21   -1    0    0  502  501  0.00000000000E+00  0.00000000000E+00  0.10847703422E+04  0.10847703422E+04  0.00000000000E+00 0.  1.
         21   -1    0    0  501  502 -0.00000000000E+00 -0.00000000000E+00 -0.98244942044E+02  0.98244942044E+02  0.00000000000E+00 0.  1.
         25    1    1    2    0    0 -0.92853390104E+02 -0.14160145057E+03  0.57609229153E+03  0.61333518668E+03  0.12500000000E+03 0.  0.
         25    1    1    2    0    0  0.15022130033E+03  0.20011811681E+02  0.28946597274E+03  0.34983204692E+03  0.12500000000E+03 0.  0.
         25    1    1    2    0    0 -0.57367910221E+02  0.12158963888E+03  0.12096713588E+03  0.21984805064E+03  0.12500000000E+03 0.  0.
</event>
<event>
 5    0  0.5829567E-005  0.2710769E+03  0.7546771E-02  0.1100665E+00
         21   -1    0    0  502  501  0.00000000000E+00  0.00000000000E+00  0.47360740005E+03  0.47360740005E+03  0.00000000000E+00 0.  1.
         21   -1    0    0  501  502 -0.00000000000E+00 -0.00000000000E+00 -0.15515530257E+03  0.15515530257E+03  0.00000000000E+00 0.  1.
         25    1    1    2    0    0 -0.53522712785E+02 -0.22083351183E+02  0.58051335870E+02  0.14949017620E+03  0.12500000000E+03 0.  0.
         25    1    1    2    0    0  0.81725128158E+01 -0.13903640916E+03  0.81054129712E+02  0.20394284734E+03  0.12500000000E+03 0.  0.
         25    1    1    2    0    0  0.45350199969E+02  0.16111976034E+03  0.17934663190E+03  0.27532967908E+03  0.12500000000E+03 0.  0.
</event>
<event>
 5    0  0.5829567E-005  0.3054408E+03  0.7546771E-02  0.1082552E+00
         21   -1    0    0  502  501  0.00000000000E+00  0.00000000000E+00  0.10928483209E+03  0.10928483209E+03  0.00000000000E+00 0.  1.
         21   -1    0    0  501  502 -0.00000000000E+00 -0.00000000000E+00 -0.85367796894E+03  0.85367796894E+03  0.00000000000E+00 0.  1.
         25    1    1    2    0    0  0.15993874848E+02  0.59752354980E+02 -0.79287082493E+01  0.13969256377E+03  0.12500000000E+03 0.  0.
         25    1    1    2    0    0  0.97604924276E+02  0.27473756447E+02 -0.46335015023E+03  0.49050982687E+03  0.12500000000E+03 0.  0.
         25    1    1    2    0    0 -0.11359879912E+03 -0.87226111427E+02 -0.27311427837E+03  0.33276041039E+03  0.12500000000E+03 0.  0.
</event>
<event>
 5    0  0.5829567E-005  0.3138130E+03  0.7546771E-02  0.1078532E+00
         21   -1    0    0  502  501  0.00000000000E+00  0.00000000000E+00  0.57965691244E+03  0.57965691244E+03  0.00000000000E+00 0. -1.
         21   -1    0    0  501  502 -0.00000000000E+00 -0.00000000000E+00 -0.16989119461E+03  0.16989119461E+03  0.00000000000E+00 0. -1.
         25    1    1    2    0    0  0.60178480032E+02 -0.18450547417E+02  0.10735153509E+03  0.17638374144E+03  0.12500000000E+03 0.  0.
         25    1    1    2    0    0  0.15091968991E+03  0.12947493216E+02  0.25725561851E+03  0.32365080509E+03  0.12500000000E+03 0.  0.
         25    1    1    2    0    0 -0.21109816994E+03  0.55030542017E+01  0.45158564231E+02  0.24951356052E+03  0.12500000000E+03 0.  0.
</event>
<event>
 5    0  0.5829567E-005  0.5409514E+03  0.7546771E-02  0.1003610E+00
         21   -1    0    0  502  501  0.00000000000E+00  0.00000000000E+00  0.27723584703E+03  0.27723584703E+03  0.00000000000E+00 0.  1.
         21   -1    0    0  501  502 -0.00000000000E+00 -0.00000000000E+00 -0.10555215653E+04  0.10555215653E+04  0.00000000000E+00 0.  1.
         25    1    1    2    0    0 -0.57059555809E+02  0.23572564633E+02 -0.28357011606E+03  0.31598808432E+03  0.12500000000E+03 0.  0.
         25    1    1    2    0    0 -0.26289004403E+03 -0.50162054251E+02 -0.58956489812E+03  0.65942336631E+03  0.12500000000E+03 0.  0.
         25    1    1    2    0    0  0.31994959984E+03  0.26589489619E+02  0.94849295921E+02  0.35734596169E+03  0.12500000000E+03 0.  0.
</event>
<event>
 5    0  0.5829567E-005  0.3097764E+03  0.7546771E-02  0.1080453E+00
         21   -1    0    0  502  501  0.00000000000E+00  0.00000000000E+00  0.24549422857E+04  0.24549422857E+04  0.00000000000E+00 0.  1.
         21   -1    0    0  501  502 -0.00000000000E+00 -0.00000000000E+00 -0.39089070967E+02  0.39089070967E+02  0.00000000000E+00 0.  1.
         25    1    1    2    0    0 -0.11606634302E+03  0.16861264605E+03  0.15044690917E+04  0.15234677116E+04  0.12500000000E+03 0.  0.
         25    1    1    2    0    0  0.14719385062E+02 -0.67853439802E+02  0.35713682533E+03  0.38469788354E+03  0.12500000000E+03 0.  0.
         25    1    1    2    0    0  0.10134695796E+03 -0.10075920625E+03  0.55424729771E+03  0.58586576154E+03  0.12500000000E+03 0.  0.
</event>
<event>
 5    0  0.5829567E-005  0.5243871E+03  0.7546771E-02  0.1007602E+00
         21   -1    0    0  502  501  0.00000000000E+00  0.00000000000E+00  0.72616695627E+03  0.72616695627E+03  0.00000000000E+00 0.  1.
         21   -1    0    0  501  502 -0.00000000000E+00 -0.00000000000E+00 -0.37867583064E+03  0.37867583064E+03  0.00000000000E+00 0.  1.
         25    1    1    2    0    0  0.91402057509E+01  0.27665776733E+03  0.19260719292E+03  0.35964648525E+03  0.12500000000E+03 0.  0.
         25    1    1    2    0    0  0.15669270699E+03 -0.38536210632E+03  0.23946038283E+03  0.49600688741E+03  0.12500000000E+03 0.  0.
         25    1    1    2    0    0 -0.16583291274E+03  0.10870433899E+03 -0.84576450121E+02  0.24918941426E+03  0.12500000000E+03 0.  0.
</event>
<event>
 5    0  0.6328176E-005  0.4010210E+03  0.7546771E-02  0.1043427E+00
         21   -1    0    0  502  501  0.00000000000E+00  0.00000000000E+00  0.82803071869E+03  0.82803071869E+03  0.00000000000E+00 0. -1.
         21   -1    0    0  501  502 -0.00000000000E+00 -0.00000000000E+00 -0.19421720458E+03  0.19421720458E+03  0.00000000000E+00 0. -1.
         25    1    1    2    0    0  0.15829006871E+03 -0.10096958957E+03  0.31398187679E+03  0.38660085724E+03  0.12500000000E+03 0.  0.
         25    1    1    2    0    0 -0.12082428428E+03  0.15242154030E+03  0.40872055391E+03  0.46958313939E+03  0.12500000000E+03 0.  0.
         25    1    1    2    0    0 -0.37465784426E+02 -0.51451950730E+02 -0.88888916590E+02  0.16606392663E+03  0.12500000000E+03 0.  0.
</event>
<event>
 5    0  0.5829567E-005  0.2690038E+03  0.7546771E-02  0.1101851E+00
         21   -1    0    0  502  501  0.00000000000E+00  0.00000000000E+00  0.68821770470E+03  0.68821770470E+03  0.00000000000E+00 0. -1.
         21   -1    0    0  501  502 -0.00000000000E+00 -0.00000000000E+00 -0.10514556932E+03  0.10514556932E+03  0.00000000000E+00 0. -1.
         25    1    1    2    0    0  0.11947384922E+03  0.43665630843E+02  0.34885566829E+03  0.39179837323E+03  0.12500000000E+03 0.  0.
         25    1    1    2    0    0 -0.26854801715E+02 -0.63362479666E+01  0.13156437450E+02  0.12868341097E+03  0.12500000000E+03 0.  0.
         25    1    1    2    0    0 -0.92619047503E+02 -0.37329382877E+02  0.22106002964E+03  0.27288148983E+03  0.12500000000E+03 0.  0.
</event>
<event>
 5    0  0.5829567E-005  0.4195569E+03  0.7546771E-02  0.1037211E+00
         21   -1    0    0  502  501  0.00000000000E+00  0.00000000000E+00  0.46146405240E+03  0.46146405240E+03  0.00000000000E+00 0. -1.
         21   -1    0    0  501  502 -0.00000000000E+00 -0.00000000000E+00 -0.38145553779E+03  0.38145553779E+03  0.00000000000E+00 0. -1.
         25    1    1    2    0    0 -0.14293048121E+03  0.17619346592E+01  0.25713018330E+02  0.19162042215E+03  0.12500000000E+03 0.  0.
         25    1    1    2    0    0  0.10427036454E+03 -0.15385488135E+02 -0.26194628267E+03  0.30878775424E+03  0.12500000000E+03 0.  0.
         25    1    1    2    0    0  0.38660116671E+02  0.13623553476E+02  0.31624177895E+03  0.34251141380E+03  0.12500000000E+03 0.  0.
</event>
<event>
 5    0  0.5829567E-005  0.3743722E+03  0.7546771E-02  0.1053034E+00
         21   -1    0    0  502  501  0.00000000000E+00  0.00000000000E+00  0.14049721478E+04  0.14049721478E+04  0.00000000000E+00 0. -1.
         21   -1    0    0  501  502 -0.00000000000E+00 -0.00000000000E+00 -0.99756127380E+02  0.99756127380E+02  0.00000000000E+00 0. -1.
         25    1    1    2    0    0  0.16557320266E+03 -0.28970550596E+02  0.30519587798E+03  0.37016658706E+03  0.12500000000E+03 0.  0.
         25    1    1    2    0    0 -0.24268598524E+03 -0.30261057195E+02  0.26144012187E+03  0.37919408795E+03  0.12500000000E+03 0.  0.
         25    1    1    2    0    0  0.77112782578E+02  0.59231607791E+02  0.73858002055E+03  0.75536760015E+03  0.12500000000E+03 0.  0.
</event>
<event>
 5    0  0.5829567E-005  0.2775693E+03  0.7546771E-02  0.1097024E+00
         21   -1    0    0  502  501  0.00000000000E+00  0.00000000000E+00  0.85735574390E+02  0.85735574390E+02  0.00000000000E+00 0.  1.
         21   -1    0    0  501  502 -0.00000000000E+00 -0.00000000000E+00 -0.89863176042E+03  0.89863176042E+03  0.00000000000E+00 0.  1.
         25    1    1    2    0    0 -0.32655542396E+02  0.50104937584E+02 -0.19070548604E+02  0.13987699969E+03  0.12500000000E+03 0.  0.
         25    1    1    2    0    0  0.75126109538E+02 -0.58151850837E+01 -0.46581867125E+03  0.48814934518E+03  0.12500000000E+03 0.  0.
         25    1    1    2    0    0 -0.42470567142E+02 -0.44289752500E+02 -0.32800696617E+03  0.35634098994E+03  0.12500000000E+03 0.  0.
</event>
<event>
 5    0  0.5829567E-005  0.2108746E+03  0.7546771E-02  0.1140875E+00
         21   -1    0    0  502  501  0.00000000000E+00  0.00000000000E+00  0.49526008592E+03  0.49526008592E+03  0.00000000000E+00 0.  1.
         21   -1    0    0  501  502 -0.00000000000E+00 -0.00000000000E+00 -0.89787366596E+02  0.89787366596E+02  0.00000000000E+00 0.  1.
         25    1    1    2    0    0  0.39227541862E+02 -0.19418595184E+02  0.21110644116E+03  0.24921238207E+03  0.12500000000E+03 0.  0.
         25    1    1    2    0    0  0.22294099834E+02 -0.12556683002E+02  0.11790749393E+03  0.17372931330E+03  0.12500000000E+03 0.  0.
         25    1    1    2    0    0 -0.61521641696E+02  0.31975278186E+02  0.76458784236E+02  0.16210575714E+03  0.12500000000E+03 0.  0.
</event>
<event>
 5    0  0.5829567E-005  0.3635590E+03  0.7546771E-02  0.1057183E+00
         21   -1    0    0  502  501  0.00000000000E+00  0.00000000000E+00  0.18414382244E+03  0.18414382244E+03  0.00000000000E+00 0.  1.
         21   -1    0    0  501  502 -0.00000000000E+00 -0.00000000000E+00 -0.71778211990E+03  0.71778211990E+03  0.00000000000E+00 0.  1.
         25    1    1    2    0    0  0.13933941163E+03  0.10888930993E+03 -0.14431211230E+02  0.21703827613E+03  0.12500000000E+03 0.  0.
         25    1    1    2    0    0 -0.13352690155E+03 -0.11325525182E+03 -0.82205398730E+02  0.23030178697E+03  0.12500000000E+03 0.  0.
         25    1    1    2    0    0 -0.58125100830E+01  0.43659418921E+01 -0.43700168750E+03  0.45458587923E+03  0.12500000000E+03 0.  0.
</event>
<event>
 5    0  0.5829567E-005  0.4568653E+03  0.7546771E-02  0.1025694E+00
         21   -1    0    0  502  501  0.00000000000E+00  0.00000000000E+00  0.48732052521E+03  0.48732052521E+03  0.00000000000E+00 0.  1.
         21   -1    0    0  501  502 -0.00000000000E+00 -0.00000000000E+00 -0.42831330186E+03  0.42831330186E+03  0.00000000000E+00 0.  1.
         25    1    1    2    0    0  0.14927178439E+03  0.15683598942E+03  0.27717599689E+03  0.37327084864E+03  0.12500000000E+03 0.  0.
         25    1    1    2    0    0 -0.24851264772E+02  0.10836635964E+03 -0.13008227322E+03  0.21191331026E+03  0.12500000000E+03 0.  0.
         25    1    1    2    0    0 -0.12442051962E+03 -0.26520234906E+03 -0.88086500324E+02  0.33044966816E+03  0.12500000000E+03 0.  0.
</event>
<event>
 5    0  0.5829567E-005  0.3880205E+03  0.7546771E-02  0.1048009E+00
         21   -1    0    0  502  501  0.00000000000E+00  0.00000000000E+00  0.22858550316E+04  0.22858550316E+04  0.00000000000E+00 0. -1.
         21   -1    0    0  501  502 -0.00000000000E+00 -0.00000000000E+00 -0.65865907135E+02  0.65865907135E+02  0.00000000000E+00 0. -1.
         25    1    1    2    0    0  0.25970728912E+03  0.57517571532E+02  0.94726182991E+03  0.99180951874E+03  0.12500000000E+03 0.  0.
         25    1    1    2    0    0 -0.73108539261E+02 -0.17262584242E+03  0.65219216824E+03  0.69001751014E+03  0.12500000000E+03 0.  0.
         25    1    1    2    0    0 -0.18659874986E+03  0.11510827089E+03  0.62053512636E+03  0.66989390990E+03  0.12500000000E+03 0.  0.
</event>
<event>
 5    0  0.5829567E-005  0.2288052E+03  0.7546771E-02  0.1127484E+00
         21   -1    0    0  502  501  0.00000000000E+00  0.00000000000E+00  0.34736253330E+03  0.34736253330E+03  0.00000000000E+00 0. -1.
         21   -1    0    0  501  502 -0.00000000000E+00 -0.00000000000E+00 -0.15071233145E+03  0.15071233145E+03  0.00000000000E+00 0. -1.
         25    1    1    2    0    0 -0.27843466719E+02 -0.88514263512E+02  0.31992876813E+02  0.15892947383E+03  0.12500000000E+03 0.  0.
         25    1    1    2    0    0  0.72302893960E+00  0.96430742664E+02  0.45861742054E+02  0.16440106534E+03  0.12500000000E+03 0.  0.
         25    1    1    2    0    0  0.27120437780E+02 -0.79164791515E+01  0.11879558299E+03  0.17474432559E+03  0.12500000000E+03 0.  0.
</event>
<event>
 5    0  0.5829567E-005  0.3135763E+03  0.7546771E-02  0.1078644E+00
         21   -1    0    0  502  501  0.00000000000E+00  0.00000000000E+00  0.76866591218E+02  0.76866591218E+02  0.00000000000E+00 0.  1.
         21   -1    0    0  501  502 -0.00000000000E+00 -0.00000000000E+00 -0.12792304492E+04  0.12792304492E+04  0.00000000000E+00 0.  1.
         25    1    1    2    0    0 -0.18696052209E+02 -0.46113896261E+02 -0.57866813547E+03  0.59410255411E+03  0.12500000000E+03 0.  0.
         25    1    1    2    0    0 -0.38293626643E+02  0.15758350644E+03 -0.51536273451E+03  0.55454730318E+03  0.12500000000E+03 0.  0.
         25    1    1    2    0    0  0.56989678852E+02 -0.11146961018E+03 -0.10833298796E+03  0.20744718308E+03  0.12500000000E+03 0.  0.
</event>
<event>
 5    0  0.5829567E-005  0.4232280E+03  0.7546771E-02  0.1036021E+00
         21   -1    0    0  502  501  0.00000000000E+00  0.00000000000E+00  0.19923893557E+03  0.19923893557E+03  0.00000000000E+00 0.  1.
         21   -1    0    0  501  502 -0.00000000000E+00 -0.00000000000E+00 -0.89903087214E+03  0.89903087214E+03  0.00000000000E+00 0.  1.
         25    1    1    2    0    0 -0.12355280496E+00 -0.15846854833E+03 -0.34861323878E+03  0.40282562770E+03  0.12500000000E+03 0.  0.
         25    1    1    2    0    0 -0.24706487674E+02 -0.11784184747E+03 -0.35054726991E+03  0.39115917475E+03  0.12500000000E+03 0.  0.
         25    1    1    2    0    0  0.24830040479E+02  0.27631039579E+03 -0.63142787849E+00  0.30428500528E+03  0.12500000000E+03 0.  0.
</event>
<event>
 5    0  0.5829567E-005  0.3210556E+03  0.7546771E-02  0.1075165E+00
         21   -1    0    0  502  501  0.00000000000E+00  0.00000000000E+00  0.10205756679E+04  0.10205756679E+04  0.00000000000E+00 0. -1.
         21   -1    0    0  501  502 -0.00000000000E+00 -0.00000000000E+00 -0.10099855762E+03  0.10099855762E+03  0.00000000000E+00 0. -1.
         25    1    1    2    0    0  0.10500022625E+03 -0.16021809142E+02  0.87700891845E+01  0.16426703974E+03  0.12500000000E+03 0.  0.
         25    1    1    2    0    0 -0.71794835906E+02  0.10461553182E+02  0.65324027926E+03  0.66903796978E+03  0.12500000000E+03 0.  0.
         25    1    1    2    0    0 -0.33205390342E+02  0.55602559598E+01  0.25756674180E+03  0.28826921597E+03  0.12500000000E+03 0.  0.
</event>
<event>
 5    0  0.5829567E-005  0.3742602E+03  0.7546771E-02  0.1053076E+00
         21   -1    0    0  502  501  0.00000000000E+00  0.00000000000E+00  0.26130727017E+03  0.26130727017E+03  0.00000000000E+00 0. -1.
         21   -1    0    0  501  502 -0.00000000000E+00 -0.00000000000E+00 -0.53603820025E+03  0.53603820025E+03  0.00000000000E+00 0. -1.
         25    1    1    2    0    0 -0.13223341979E+03  0.54236300647E+02 -0.23189466244E+03  0.29971217540E+03  0.12500000000E+03 0.  0.
         25    1    1    2    0    0  0.26239259340E+03 -0.56601702392E+02 -0.92907207539E+02  0.31033912901E+03  0.12500000000E+03 0.  0.
         25    1    1    2    0    0 -0.13015917361E+03  0.23654017451E+01  0.50070939895E+02  0.18729416601E+03  0.12500000000E+03 0.  0.
</event>
<event>
 5    0  0.5829567E-005  0.3046700E+03  0.7546771E-02  0.1082929E+00
         21   -1    0    0  502  501  0.00000000000E+00  0.00000000000E+00  0.62627522543E+03  0.62627522543E+03  0.00000000000E+00 0. -1.
         21   -1    0    0  501  502 -0.00000000000E+00 -0.00000000000E+00 -0.14821565002E+03  0.14821565002E+03  0.00000000000E+00 0. -1.
         25    1    1    2    0    0  0.10812865037E+03 -0.16708398228E+03  0.83938222120E+02  0.24955858490E+03  0.12500000000E+03 0.  0.
         25    1    1    2    0    0 -0.37409132356E+02  0.15492116378E+03  0.22577446921E+03  0.30331356896E+03  0.12500000000E+03 0.  0.
         25    1    1    2    0    0 -0.70719518009E+02  0.12162818499E+02  0.16834688408E+03  0.22161872159E+03  0.12500000000E+03 0.  0.
</event>
<event>
 5    0  0.5829567E-005  0.2653243E+03  0.7546771E-02  0.1103986E+00
         21   -1    0    0  502  501  0.00000000000E+00  0.00000000000E+00  0.29832516006E+03  0.29832516006E+03  0.00000000000E+00 0.  1.
         21   -1    0    0  501  502 -0.00000000000E+00 -0.00000000000E+00 -0.23597392792E+03  0.23597392792E+03  0.00000000000E+00 0.  1.
         25    1    1    2    0    0 -0.61546111001E+01 -0.32427989013E+02 -0.21888368881E+02  0.13112419457E+03  0.12500000000E+03 0.  0.
         25    1    1    2    0    0 -0.10571906011E+03 -0.72556125905E+02  0.99207926569E+02  0.20471473755E+03  0.12500000000E+03 0.  0.
         25    1    1    2    0    0  0.11187367121E+03  0.10498411492E+03 -0.14968325549E+02  0.19846015586E+03  0.12500000000E+03 0.  0.
</event>
<event>
 5    0  0.5829567E-005  0.4699190E+03  0.7546771E-02  0.1021943E+00
         21   -1    0    0  502  501  0.00000000000E+00  0.00000000000E+00  0.13747116351E+04  0.13747116351E+04  0.00000000000E+00 0.  1.
         21   -1    0    0  501  502 -0.00000000000E+00 -0.00000000000E+00 -0.16063283215E+03  0.16063283215E+03  0.00000000000E+00 0.  1.
         25    1    1    2    0    0 -0.11045981075E+03  0.85832567780E+02  0.46984493386E+03  0.50591289899E+03  0.12500000000E+03 0.  0.
         25    1    1    2    0    0 -0.19382405689E+03  0.16062051743E+03  0.42253114861E+03  0.50746850857E+03  0.12500000000E+03 0.  0.
         25    1    1    2    0    0  0.30428386764E+03 -0.24645308521E+03  0.32170272048E+03  0.52196305969E+03  0.12500000000E+03 0.  0.
</event>
<event>
 5    0  0.6303330E-005  0.2765798E+03  0.7546771E-02  0.1097572E+00
         21   -1    0    0  502  501  0.00000000000E+00  0.00000000000E+00  0.77059253989E+03  0.77059253989E+03  0.00000000000E+00 0.  1.
         21   -1    0    0  501  502 -0.00000000000E+00 -0.00000000000E+00 -0.99269595549E+02  0.99269595549E+02  0.00000000000E+00 0.  1.
         25    1    1    2    0    0  0.72110362515E+02  0.31109530329E+02  0.14450506526E+02  0.14832910840E+03  0.12500000000E+03 0.  0.
         25    1    1    2    0    0  0.17893372778E+01 -0.63665642081E+02  0.40931067071E+03  0.43268549879E+03  0.12500000000E+03 0.  0.
         25    1    1    2    0    0 -0.73899699793E+02  0.32556111752E+02  0.24756176710E+03  0.28884752825E+03  0.12500000000E+03 0.  0.
</event>
<event>
 5    0  0.5829567E-005  0.3942446E+03  0.7546771E-02  0.1045791E+00
         21   -1    0    0  502  501  0.00000000000E+00  0.00000000000E+00  0.17767972376E+03  0.17767972376E+03  0.00000000000E+00 0.  1.
         21   -1    0    0  501  502 -0.00000000000E+00 -0.00000000000E+00 -0.87476939126E+03  0.87476939126E+03  0.00000000000E+00 0.  1.
         25    1    1    2    0    0  0.18192814597E+03  0.16054147738E+03 -0.46170320241E+03  0.53634528372E+03  0.12500000000E+03 0.  0.
         25    1    1    2    0    0 -0.25363084219E+03 -0.93931914856E+02 -0.12707914742E+03  0.32392270443E+03  0.12500000000E+03 0.  0.
         25    1    1    2    0    0  0.71702696213E+02 -0.66609562526E+02 -0.10830731767E+03  0.19218112687E+03  0.12500000000E+03 0.  0.
</event>
<event>
 5    0  0.5829567E-005  0.2276086E+03  0.7546771E-02  0.1128334E+00
         21   -1    0    0  502  501  0.00000000000E+00  0.00000000000E+00  0.18342377662E+03  0.18342377662E+03  0.00000000000E+00 0.  1.
         21   -1    0    0  501  502 -0.00000000000E+00 -0.00000000000E+00 -0.28243709866E+03  0.28243709866E+03  0.00000000000E+00 0.  1.
         25    1    1    2    0    0  0.37302442753E+02  0.56128041744E+02  0.27924972061E+02  0.14472951796E+03  0.12500000000E+03 0.  0.
         25    1    1    2    0    0 -0.34318386695E+00 -0.92834298542E+02 -0.41959786784E+02  0.16125739818E+03  0.12500000000E+03 0.  0.
         25    1    1    2    0    0 -0.36959258886E+02  0.36706256798E+02 -0.84978507310E+02  0.15987395914E+03  0.12500000000E+03 0.  0.
</event>
<event>
 5    0  0.5829567E-005  0.2680016E+03  0.7546771E-02  0.1102429E+00
         21   -1    0    0  502  501  0.00000000000E+00  0.00000000000E+00  0.62534265690E+03  0.62534265690E+03  0.00000000000E+00 0. -1.
         21   -1    0    0  501  502 -0.00000000000E+00 -0.00000000000E+00 -0.11485679440E+03  0.11485679440E+03  0.00000000000E+00 0. -1.
         25    1    1    2    0    0 -0.36489849946E+02 -0.10654447961E+03  0.41765664188E+03  0.45027247949E+03  0.12500000000E+03 0.  0.
         25    1    1    2    0    0  0.24914788667E+02  0.50023192378E+02  0.49521695348E+02  0.14560379384E+03  0.12500000000E+03 0.  0.
         25    1    1    2    0    0  0.11575061280E+02  0.56521287235E+02  0.43307525268E+02  0.14432317797E+03  0.12500000000E+03 0.  0.
</event>
<event>
 5    0  0.5829567E-005  0.5061380E+03  0.7546771E-02  0.1012189E+00
         21   -1    0    0  502  501  0.00000000000E+00  0.00000000000E+00  0.64559404425E+03  0.64559404425E+03  0.00000000000E+00 0. -1.
         21   -1    0    0  501  502 -0.00000000000E+00 -0.00000000000E+00 -0.39680605353E+03  0.39680605353E+03  0.00000000000E+00 0. -1.
         25    1    1    2    0    0 -0.11076350798E+03 -0.55146830878E+02  0.83155307035E+02  0.19454956372E+03  0.12500000000E+03 0.  0.
         25    1    1    2    0    0  0.28848846943E+03  0.34509762520E+03  0.12473514075E+03  0.48322026370E+03  0.12500000000E+03 0.  0.
         25    1    1    2    0    0 -0.17772496145E+03 -0.28995079432E+03  0.40897542939E+02  0.36463027037E+03  0.12500000000E+03 0.  0.
</event>
<event>
 5    0  0.5829567E-005  0.2568006E+03  0.7546771E-02  0.1109081E+00
         21   -1    0    0  502  501  0.00000000000E+00  0.00000000000E+00  0.60503550380E+03  0.60503550380E+03  0.00000000000E+00 0.  1.
         21   -1    0    0  501  502 -0.00000000000E+00 -0.00000000000E+00 -0.10899614754E+03  0.10899614754E+03  0.00000000000E+00 0.  1.
         25    1    1    2    0    0  0.97517388029E+02 -0.10603779191E+03  0.10659154978E+03  0.21849579576E+03  0.12500000000E+03 0.  0.
         25    1    1    2    0    0 -0.33387730695E+02  0.38863556138E+01  0.13119633107E+03  0.18430225611E+03  0.12500000000E+03 0.  0.
         25    1    1    2    0    0 -0.64129657334E+02  0.10215143629E+03  0.25825147541E+03  0.31123359946E+03  0.12500000000E+03 0.  0.
</event>
<event>
 5    0  0.5829567E-005  0.3807861E+03  0.7546771E-02  0.1050644E+00
         21   -1    0    0  502  501  0.00000000000E+00  0.00000000000E+00  0.23169509353E+04  0.23169509353E+04  0.00000000000E+00 0. -1.
         21   -1    0    0  501  502 -0.00000000000E+00 -0.00000000000E+00 -0.62581400457E+02  0.62581400457E+02  0.00000000000E+00 0. -1.
         25    1    1    2    0    0  0.16329035955E+03  0.68284464202E+02  0.32618868800E+03  0.39160001245E+03  0.12500000000E+03 0.  0.
         25    1    1    2    0    0 -0.16286387734E+03 -0.17514743875E+03  0.15798412303E+04  0.16027241125E+04  0.12500000000E+03 0.  0.
         25    1    1    2    0    0 -0.42648221064E+00  0.10686297455E+03  0.34833961656E+03  0.38520821082E+03  0.12500000000E+03 0.  0.
</event>
<event>
 5    0  0.5829567E-005  0.5992359E+03  0.7546771E-02  0.9906993E-01
         21   -1    0    0  502  501  0.00000000000E+00  0.00000000000E+00  0.25964223645E+03  0.25964223645E+03  0.00000000000E+00 0.  1.
         21   -1    0    0  501  502 -0.00000000000E+00 -0.00000000000E+00 -0.13829942150E+04  0.13829942150E+04  0.00000000000E+00 0.  1.
         25    1    1    2    0    0 -0.12357768901E+03 -0.20966918725E+03 -0.14911502858E+03  0.31159734442E+03  0.12500000000E+03 0.  0.
         25    1    1    2    0    0  0.41431146513E+03 -0.59033832342E+01 -0.80166913074E+03  0.91103635232E+03  0.12500000000E+03 0.  0.
         25    1    1    2    0    0 -0.29073377612E+03  0.21557257049E+03 -0.17256781921E+03  0.42000275470E+03  0.12500000000E+03 0.  0.
</event>
<event>
 5    0  0.5950781E-005  0.3687957E+03  0.7546771E-02  0.1055154E+00
         21   -1    0    0  502  501  0.00000000000E+00  0.00000000000E+00  0.60991660528E+03  0.60991660528E+03  0.00000000000E+00 0.  1.
         21   -1    0    0  501  502 -0.00000000000E+00 -0.00000000000E+00 -0.22299811225E+03  0.22299811225E+03  0.00000000000E+00 0.  1.
         25    1    1    2    0    0  0.49795790229E+02  0.18442181121E+03  0.31049008573E+03  0.38538308021E+03  0.12500000000E+03 0.  0.
         25    1    1    2    0    0 -0.13073746103E+03 -0.24619834531E+02 -0.57403009494E+02  0.19135967566E+03  0.12500000000E+03 0.  0.
         25    1    1    2    0    0  0.80941670800E+02 -0.15980197668E+03  0.13383141678E+03  0.25617196166E+03  0.12500000000E+03 0.  0.
</event>
<event>
 5    0  0.5829567E-005  0.2871183E+03  0.7546771E-02  0.1091863E+00
         21   -1    0    0  502  501  0.00000000000E+00  0.00000000000E+00  0.12554594241E+03  0.12554594241E+03  0.00000000000E+00 0.  1.
         21   -1    0    0  501  502 -0.00000000000E+00 -0.00000000000E+00 -0.65662744507E+03  0.65662744507E+03  0.00000000000E+00 0.  1.
         25    1    1    2    0    0 -0.94670270132E+02  0.59532488313E+01 -0.10290971638E+03  0.18765210082E+03  0.12500000000E+03 0.  0.
         25    1    1    2    0    0  0.13251620276E+03 -0.53074000483E+02 -0.56828864375E+02  0.19807047571E+03  0.12500000000E+03 0.  0.
         25    1    1    2    0    0 -0.37845932629E+02  0.47120751652E+02 -0.37134292191E+03  0.39645081095E+03  0.12500000000E+03 0.  0.
</event>
<event>
 5    0  0.6042370E-005  0.3266008E+03  0.7546771E-02  0.1072651E+00
         21   -1    0    0  502  501  0.00000000000E+00  0.00000000000E+00  0.17630690352E+03  0.17630690352E+03  0.00000000000E+00 0.  1.
         21   -1    0    0  501  502 -0.00000000000E+00 -0.00000000000E+00 -0.60501360339E+03  0.60501360339E+03  0.00000000000E+00 0.  1.
         25    1    1    2    0    0 -0.95062418698E+02 -0.97645004534E+02 -0.16670819516E+03  0.24897395987E+03  0.12500000000E+03 0.  0.
         25    1    1    2    0    0  0.35373477640E+02  0.12533246264E+03  0.52154822893E+02  0.18789527579E+03  0.12500000000E+03 0.  0.
         25    1    1    2    0    0  0.59688941058E+02 -0.27687458107E+02 -0.31415332761E+03  0.34445127126E+03  0.12500000000E+03 0.  0.
</event>
<event>
 5    0  0.5829567E-005  0.3065016E+03  0.7546771E-02  0.1082035E+00
         21   -1    0    0  502  501  0.00000000000E+00  0.00000000000E+00  0.63870308114E+03  0.63870308114E+03  0.00000000000E+00 0.  1.
         21   -1    0    0  501  502 -0.00000000000E+00 -0.00000000000E+00 -0.14708434604E+03  0.14708434604E+03  0.00000000000E+00 0.  1.
         25    1    1    2    0    0  0.16342857817E+03 -0.43587758725E+02  0.44438358886E+01  0.21036525509E+03  0.12500000000E+03 0.  0.
         25    1    1    2    0    0 -0.54023610488E+02  0.24700561756E+02  0.20225161854E+03  0.24507016433E+03  0.12500000000E+03 0.  0.
         25    1    1    2    0    0 -0.10940496768E+03  0.18887196969E+02  0.28492328067E+03  0.33035200776E+03  0.12500000000E+03 0.  0.
</event>
<event>
 5    0  0.5829567E-005  0.3248858E+03  0.7546771E-02  0.1073422E+00
         21   -1    0    0  502  501  0.00000000000E+00  0.00000000000E+00  0.57421812670E+02  0.57421812670E+02  0.00000000000E+00 0.  1.
         21   -1    0    0  501  502 -0.00000000000E+00 -0.00000000000E+00 -0.18381657659E+04  0.18381657659E+04  0.00000000000E+00 0.  1.
         25    1    1    2    0    0 -0.17216561028E+03 -0.23109183731E+02 -0.72310504303E+03  0.75410936541E+03  0.12500000000E+03 0.  0.
         25    1    1    2    0    0  0.22283020795E+03 -0.67462460453E+02 -0.71510919363E+03  0.76237172296E+03  0.12500000000E+03 0.  0.
         25    1    1    2    0    0 -0.50664597672E+02  0.90571644184E+02 -0.34252971659E+03  0.37910649023E+03  0.12500000000E+03 0.  0.
</event>
<event>
 5    0  0.5829567E-005  0.2494744E+03  0.7546771E-02  0.1113637E+00
         21   -1    0    0  502  501  0.00000000000E+00  0.00000000000E+00  0.11217823317E+03  0.11217823317E+03  0.00000000000E+00 0.  1.
         21   -1    0    0  501  502 -0.00000000000E+00 -0.00000000000E+00 -0.55480882442E+03  0.55480882442E+03  0.00000000000E+00 0.  1.
         25    1    1    2    0    0  0.21719482049E+02 -0.49085158519E+02 -0.47752201303E+02  0.14417475998E+03  0.12500000000E+03 0.  0.
         25    1    1    2    0    0  0.32398130574E+02  0.10085002378E+01 -0.33167555990E+02  0.13332570160E+03  0.12500000000E+03 0.  0.
         25    1    1    2    0    0 -0.54117612623E+02  0.48076658281E+02 -0.36171083395E+03  0.38948659600E+03  0.12500000000E+03 0.  0.
</event>
<event>
 5    0  0.5829567E-005  0.3144101E+03  0.7546771E-02  0.1078251E+00
         21   -1    0    0  502  501  0.00000000000E+00  0.00000000000E+00  0.41251882825E+03  0.41251882825E+03  0.00000000000E+00 0.  1.
         21   -1    0    0  501  502 -0.00000000000E+00 -0.00000000000E+00 -0.23963437456E+03  0.23963437456E+03  0.00000000000E+00 0.  1.
         25    1    1    2    0    0  0.25646930122E+02 -0.19244093226E+03  0.10467220907E+03  0.25352031237E+03  0.12500000000E+03 0.  0.
         25    1    1    2    0    0  0.12007266893E+02  0.22317028833E+03  0.23018891010E+02  0.25710702323E+03  0.12500000000E+03 0.  0.
         25    1    1    2    0    0 -0.37654197015E+02 -0.30729356071E+02  0.45193353611E+02  0.14152586720E+03  0.12500000000E+03 0.  0.
</event>
<event>
 5    0  0.5829567E-005  0.2283547E+03  0.7546771E-02  0.1127803E+00
         21   -1    0    0  502  501  0.00000000000E+00  0.00000000000E+00  0.11027356693E+03  0.11027356693E+03  0.00000000000E+00 0. -1.
         21   -1    0    0  501  502 -0.00000000000E+00 -0.00000000000E+00 -0.47287746397E+03  0.47287746397E+03  0.00000000000E+00 0. -1.
         25    1    1    2    0    0 -0.35904426108E+02 -0.19199241727E+02 -0.18997454522E+03  0.23102611655E+03  0.12500000000E+03 0.  0.
         25    1    1    2    0    0 -0.23731319745E+02 -0.29648035651E+02 -0.15728833331E+03  0.20446711557E+03  0.12500000000E+03 0.  0.
         25    1    1    2    0    0  0.59635745853E+02  0.48847277379E+02 -0.15341018511E+02  0.14765779878E+03  0.12500000000E+03 0.  0.
</event>
<event>
 5    0  0.5829567E-005  0.4375965E+03  0.7546771E-02  0.1031487E+00
         21   -1    0    0  502  501  0.00000000000E+00  0.00000000000E+00  0.14470260262E+04  0.14470260262E+04  0.00000000000E+00 0. -1.
         21   -1    0    0  501  502 -0.00000000000E+00 -0.00000000000E+00 -0.13233393863E+03  0.13233393863E+03  0.00000000000E+00 0. -1.
         25    1    1    2    0    0 -0.21741013462E+03  0.68780513049E+02  0.84609382498E+02  0.27346237989E+03  0.12500000000E+03 0.  0.
         25    1    1    2    0    0  0.39379262428E+02 -0.83214129699E+02  0.87921881260E+03  0.89281915197E+03  0.12500000000E+03 0.  0.
         25    1    1    2    0    0  0.17803087219E+03  0.14433616650E+02  0.35086389250E+03  0.41307843299E+03  0.12500000000E+03 0.  0.
</event>
<event>
 5    0  0.5829567E-005  0.2834073E+03  0.7546771E-02  0.1093842E+00
         21   -1    0    0  502  501  0.00000000000E+00  0.00000000000E+00  0.18424922522E+03  0.18424922522E+03  0.00000000000E+00 0. -1.
         21   -1    0    0  501  502 -0.00000000000E+00 -0.00000000000E+00 -0.43592962287E+03  0.43592962287E+03  0.00000000000E+00 0. -1.
         25    1    1    2    0    0  0.10438473532E+02  0.49327384775E+02 -0.31826465856E+03  0.34562920233E+03  0.12500000000E+03 0.  0.
         25    1    1    2    0    0 -0.14902084465E+02 -0.51622293135E+02  0.61589499366E+02  0.14934925411E+03  0.12500000000E+03 0.  0.
         25    1    1    2    0    0  0.44636109332E+01  0.22949083593E+01  0.49947615509E+01  0.12520039165E+03  0.12500000000E+03 0.  0.
</event>
<event>
 5    0  0.5829567E-005  0.3340734E+03  0.7546771E-02  0.1069349E+00
         21   -1    0    0  502  501  0.00000000000E+00  0.00000000000E+00  0.27221425590E+03  0.27221425590E+03  0.00000000000E+00 0. -1.
         21   -1    0    0  501  502 -0.00000000000E+00 -0.00000000000E+00 -0.40998968766E+03  0.40998968766E+03  0.00000000000E+00 0. -1.
         25    1    1    2    0    0  0.89433017074E+02  0.29289943619E+02  0.14219553349E+03  0.21142548353E+03  0.12500000000E+03 0.  0.
         25    1    1    2    0    0 -0.17358087320E+03  0.80112386633E+01 -0.21215465679E+03  0.30137866196E+03  0.12500000000E+03 0.  0.
         25    1    1    2    0    0  0.84147856129E+02 -0.37301182282E+02 -0.67816308470E+02  0.16939979807E+03  0.12500000000E+03 0.  0.
</event>
<event>
 5    0  0.5829567E-005  0.2987814E+03  0.7546771E-02  0.1085851E+00
         21   -1    0    0  502  501  0.00000000000E+00  0.00000000000E+00  0.75947415186E+02  0.75947415186E+02  0.00000000000E+00 0. -1.
         21   -1    0    0  501  502 -0.00000000000E+00 -0.00000000000E+00 -0.11754227346E+04  0.11754227346E+04  0.00000000000E+00 0. -1.
         25    1    1    2    0    0  0.55775613406E+01  0.22184172364E+03 -0.47981837498E+03  0.54322696224E+03  0.12500000000E+03 0.  0.
         25    1    1    2    0    0  0.23781492361E+02 -0.84776262859E+02 -0.31701985012E+03  0.35196471342E+03  0.12500000000E+03 0.  0.
         25    1    1    2    0    0 -0.29359053701E+02 -0.13706546078E+03 -0.30263709429E+03  0.35617847410E+03  0.12500000000E+03 0.  0.
</event>
<event>
 5    0  0.5829567E-005  0.2132960E+03  0.7546771E-02  0.1138982E+00
         21   -1    0    0  502  501  0.00000000000E+00  0.00000000000E+00  0.10843701148E+03  0.10843701148E+03  0.00000000000E+00 0.  1.
         21   -1    0    0  501  502 -0.00000000000E+00 -0.00000000000E+00 -0.41955408772E+03  0.41955408772E+03  0.00000000000E+00 0.  1.
         25    1    1    2    0    0  0.27441658997E+02  0.12092567931E+02 -0.15587484242E+03  0.20204267209E+03  0.12500000000E+03 0.  0.
         25    1    1    2    0    0 -0.33905804752E+02 -0.69293753652E+02 -0.60440412095E+02  0.15883724785E+03  0.12500000000E+03 0.  0.
         25    1    1    2    0    0  0.64641457553E+01  0.57201185721E+02 -0.94801821734E+02  0.16711117926E+03  0.12500000000E+03 0.  0.
</event>
<event>
 5    0  0.5829567E-005  0.3472558E+03  0.7546771E-02  0.1063747E+00
         21   -1    0    0  502  501  0.00000000000E+00  0.00000000000E+00  0.12060867828E+03  0.12060867828E+03  0.00000000000E+00 0. -1.
         21   -1    0    0  501  502 -0.00000000000E+00 -0.00000000000E+00 -0.99981705157E+03  0.99981705157E+03  0.00000000000E+00 0. -1.
         25    1    1    2    0    0  0.53968830174E+02 -0.11330274116E+03 -0.36873869200E+03  0.40907623833E+03  0.12500000000E+03 0.  0.
         25    1    1    2    0    0 -0.39668533017E+02 -0.13234157433E+03 -0.33786150724E+03  0.38582804833E+03  0.12500000000E+03 0.  0.
         25    1    1    2    0    0 -0.14300297157E+02  0.24564431549E+03 -0.17260817405E+03  0.32552144319E+03  0.12500000000E+03 0.  0.
</event>
<event>
 5    0  0.5829567E-005  0.4486616E+03  0.7546771E-02  0.1028122E+00
         21   -1    0    0  502  501  0.00000000000E+00  0.00000000000E+00  0.10151971795E+04  0.10151971795E+04  0.00000000000E+00 0.  1.
         21   -1    0    0  501  502 -0.00000000000E+00 -0.00000000000E+00 -0.19828383251E+03  0.19828383251E+03  0.00000000000E+00 0.  1.
         25    1    1    2    0    0  0.16295961739E+03  0.22609101965E+03  0.89222360299E+02  0.31821158942E+03  0.12500000000E+03 0.  0.
         25    1    1    2    0    0 -0.24135773712E+03 -0.38018800679E+02  0.46615898573E+03  0.54095118675E+03  0.12500000000E+03 0.  0.
         25    1    1    2    0    0  0.78398119732E+02 -0.18807221897E+03  0.26153200100E+03  0.35431823587E+03  0.12500000000E+03 0.  0.
</event>
<event>
 5    0  0.5829567E-005  0.3174824E+03  0.7546771E-02  0.1076814E+00
         21   -1    0    0  502  501  0.00000000000E+00  0.00000000000E+00  0.63663742828E+02  0.63663742828E+02  0.00000000000E+00 0.  1.
         21   -1    0    0  501  502 -0.00000000000E+00 -0.00000000000E+00 -0.15832416112E+04  0.15832416112E+04  0.00000000000E+00 0.  1.
         25    1    1    2    0    0  0.10610331670E+03  0.68133020873E+02 -0.34587415503E+03  0.38878522794E+03  0.12500000000E+03 0.  0.
         25    1    1    2    0    0 -0.17253868291E+03 -0.14146293459E+03 -0.94732021998E+03  0.98123491486E+03  0.12500000000E+03 0.  0.
         25    1    1    2    0    0  0.66435366210E+02  0.73329913715E+02 -0.22638349336E+03  0.27688521123E+03  0.12500000000E+03 0.  0.
</event>
<event>
 5    0  0.5829567E-005  0.2472615E+03  0.7546771E-02  0.1115048E+00
         21   -1    0    0  502  501  0.00000000000E+00  0.00000000000E+00  0.16550734413E+03  0.16550734413E+03  0.00000000000E+00 0.  1.
         21   -1    0    0  501  502 -0.00000000000E+00 -0.00000000000E+00 -0.36939911121E+03  0.36939911121E+03  0.00000000000E+00 0.  1.
         25    1    1    2    0    0 -0.11508479117E+03 -0.15368431018E+02 -0.38190642231E+02  0.17482626515E+03  0.12500000000E+03 0.  0.
         25    1    1    2    0    0  0.93057157767E+02 -0.59604640216E+02 -0.54824181411E+02  0.17562186258E+03  0.12500000000E+03 0.  0.
         25    1    1    2    0    0  0.22027633406E+02  0.74973071234E+02 -0.11087694343E+03  0.18445832762E+03  0.12500000000E+03 0.  0.
</event>
<event>
 5    0  0.5829567E-005  0.2803555E+03  0.7546771E-02  0.1095495E+00
         21   -1    0    0  502  501  0.00000000000E+00  0.00000000000E+00  0.95835414419E+03  0.95835414419E+03  0.00000000000E+00 0.  1.
         21   -1    0    0  501  502 -0.00000000000E+00 -0.00000000000E+00 -0.82014772458E+02  0.82014772458E+02  0.00000000000E+00 0.  1.
         25    1    1    2    0    0 -0.56899692147E+02  0.60013097007E+02  0.53225937503E+03  0.55295948232E+03  0.12500000000E+03 0.  0.
         25    1    1    2    0    0 -0.49322207339E+02  0.34922644853E+02  0.73621797493E+02  0.15715419284E+03  0.12500000000E+03 0.  0.
         25    1    1    2    0    0  0.10622189949E+03 -0.94935741860E+02  0.27045819921E+03  0.33025524149E+03  0.12500000000E+03 0.  0.
</event>
<event>
 5    0  0.5829567E-005  0.2656016E+03  0.7546771E-02  0.1103824E+00
         21   -1    0    0  502  501  0.00000000000E+00  0.00000000000E+00  0.61241707645E+03  0.61241707645E+03  0.00000000000E+00 0.  1.
         21   -1    0    0  501  502 -0.00000000000E+00 -0.00000000000E+00 -0.11518980715E+03  0.11518980715E+03  0.00000000000E+00 0.  1.
         25    1    1    2    0    0 -0.95200958954E+02 -0.13844316728E+02  0.29516380557E+02  0.16047150654E+03  0.12500000000E+03 0.  0.
         25    1    1    2    0    0  0.20937740859E+02 -0.77963236402E+02  0.21886238831E+03  0.26465524790E+03  0.12500000000E+03 0.  0.
         25    1    1    2    0    0  0.74263218095E+02  0.91807553130E+02  0.24884850043E+03  0.30248012917E+03  0.12500000000E+03 0.  0.
</event>
<event>
 5    0  0.5829567E-005  0.5776513E+03  0.7546771E-02  0.9952889E-01
         21   -1    0    0  502  501  0.00000000000E+00  0.00000000000E+00  0.39932364433E+03  0.39932364433E+03  0.00000000000E+00 0. -1.
         21   -1    0    0  501  502 -0.00000000000E+00 -0.00000000000E+00 -0.83561559293E+03  0.83561559293E+03  0.00000000000E+00 0. -1.
         25    1    1    2    0    0  0.44407913506E+02 -0.45980191494E+03 -0.29552571099E+03  0.56245027301E+03  0.12500000000E+03 0.  0.
         25    1    1    2    0    0  0.16908187365E+03  0.18532210560E+03 -0.98092852210E+01  0.28045353430E+03  0.12500000000E+03 0.  0.
         25    1    1    2    0    0 -0.21348978716E+03  0.27447980933E+03 -0.13095695239E+03  0.39203542995E+03  0.12500000000E+03 0.  0.
</event>
<event>
 5    0  0.5829567E-005  0.2511257E+03  0.7546771E-02  0.1112595E+00
         21   -1    0    0  502  501  0.00000000000E+00  0.00000000000E+00  0.13389740663E+03  0.13389740663E+03  0.00000000000E+00 0. -1.
         21   -1    0    0  501  502 -0.00000000000E+00 -0.00000000000E+00 -0.47098819593E+03  0.47098819593E+03  0.00000000000E+00 0. -1.
         25    1    1    2    0    0 -0.15029253742E+02  0.98899510274E+02 -0.15466590545E+03  0.22260623062E+03  0.12500000000E+03 0.  0.
         25    1    1    2    0    0  0.25653440669E+02  0.39453173209E+02 -0.13431837903E+03  0.18942301560E+03  0.12500000000E+03 0.  0.
         25    1    1    2    0    0 -0.10624186927E+02 -0.13835268348E+03 -0.48106504814E+02  0.19285635634E+03  0.12500000000E+03 0.  0.
</event>
<event>
 5    0  0.5829567E-005  0.7083892E+03  0.7546771E-02  0.9702992E-01
         21   -1    0    0  502  501  0.00000000000E+00  0.00000000000E+00  0.75194163061E+03  0.75194163061E+03  0.00000000000E+00 0.  1.
         21   -1    0    0  501  502 -0.00000000000E+00 -0.00000000000E+00 -0.66735934161E+03  0.66735934161E+03  0.00000000000E+00 0.  1.
         25    1    1    2    0    0 -0.35553610042E+02 -0.15195003479E+03 -0.57333502195E+02  0.20800241040E+03  0.12500000000E+03 0.  0.
         25    1    1    2    0    0  0.43874148037E+03 -0.13529521019E+03 -0.27723009610E+03  0.55070900364E+03  0.12500000000E+03 0.  0.
         25    1    1    2    0    0 -0.40318787033E+03  0.28724524498E+03  0.41914588730E+03  0.66058955819E+03  0.12500000000E+03 0.  0.
</event>
<event>
 5    0  0.5829567E-005  0.2102025E+03  0.7546771E-02  0.1141406E+00
         21   -1    0    0  502  501  0.00000000000E+00  0.00000000000E+00  0.26008028459E+02  0.26008028459E+02  0.00000000000E+00 0. -1.
         21   -1    0    0  501  502 -0.00000000000E+00 -0.00000000000E+00 -0.16989022519E+04  0.16989022519E+04  0.00000000000E+00 0. -1.
         25    1    1    2    0    0  0.41926746658E+01  0.11705933856E+02 -0.47342697970E+03  0.48980885304E+03  0.12500000000E+03 0.  0.
         25    1    1    2    0    0  0.27209687072E+02 -0.68506836665E+02 -0.75612048939E+03  0.76991996221E+03  0.12500000000E+03 0.  0.
         25    1    1    2    0    0 -0.31402361738E+02  0.56800902809E+02 -0.44334675434E+03  0.46518146509E+03  0.12500000000E+03 0.  0.
</event>
<event>
 5    0  0.5829567E-005  0.2322318E+03  0.7546771E-02  0.1125079E+00
         21   -1    0    0  502  501  0.00000000000E+00  0.00000000000E+00  0.81016691400E+03  0.81016691400E+03  0.00000000000E+00 0. -1.
         21   -1    0    0  501  502 -0.00000000000E+00 -0.00000000000E+00 -0.66568531388E+02  0.66568531388E+02  0.00000000000E+00 0. -1.
         25    1    1    2    0    0 -0.97357431967E+02 -0.22943951883E+02  0.30257409569E+03  0.34231707213E+03  0.12500000000E+03 0.  0.
         25    1    1    2    0    0  0.85589060207E+02  0.32018118323E+02  0.14247366523E+03  0.21041481034E+03  0.12500000000E+03 0.  0.
         25    1    1    2    0    0  0.11768371760E+02 -0.90741664396E+01  0.29855062170E+03  0.32400356292E+03  0.12500000000E+03 0.  0.
</event>
<event>
 5    0  0.5829567E-005  0.3231358E+03  0.7546771E-02  0.1074215E+00
         21   -1    0    0  502  501  0.00000000000E+00  0.00000000000E+00  0.63443251596E+03  0.63443251596E+03  0.00000000000E+00 0.  1.
         21   -1    0    0  501  502 -0.00000000000E+00 -0.00000000000E+00 -0.16458288573E+03  0.16458288573E+03  0.00000000000E+00 0.  1.
         25    1    1    2    0    0  0.67512343962E+02 -0.20279797599E+02  0.14715449734E+02  0.14425925010E+03  0.12500000000E+03 0.  0.
         25    1    1    2    0    0 -0.10477379265E+03 -0.26178525081E+02  0.48564626165E+03  0.51297188447E+03  0.12500000000E+03 0.  0.
         25    1    1    2    0    0  0.37261448691E+02  0.46458322680E+02 -0.30512081155E+02  0.14178426711E+03  0.12500000000E+03 0.  0.
</event>
<event>
 5    0  0.5829567E-005  0.3149497E+03  0.7546771E-02  0.1077997E+00
         21   -1    0    0  502  501  0.00000000000E+00  0.00000000000E+00  0.57482727860E+02  0.57482727860E+02  0.00000000000E+00 0. -1.
         21   -1    0    0  501  502 -0.00000000000E+00 -0.00000000000E+00 -0.17256199902E+04  0.17256199902E+04  0.00000000000E+00 0. -1.
         25    1    1    2    0    0  0.17870305824E+03  0.63876176056E+02 -0.49443255092E+03  0.54415392703E+03  0.12500000000E+03 0.  0.
         25    1    1    2    0    0 -0.21222423329E+03 -0.55201976706E+02 -0.60314065631E+03  0.65382722085E+03  0.12500000000E+03 0.  0.
         25    1    1    2    0    0  0.33521175049E+02 -0.86741993495E+01 -0.57056405510E+03  0.58512157017E+03  0.12500000000E+03 0.  0.
</event>
<event>
 5    0  0.5829567E-005  0.2680093E+03  0.7546771E-02  0.1102424E+00
         21   -1    0    0  502  501  0.00000000000E+00  0.00000000000E+00  0.98622825505E+02  0.98622825505E+02  0.00000000000E+00 0.  1.
         21   -1    0    0  501  502 -0.00000000000E+00 -0.00000000000E+00 -0.72831994660E+03  0.72831994660E+03  0.00000000000E+00 0.  1.
         25    1    1    2    0    0 -0.57786490816E+02  0.10028108011E+00 -0.25280401041E+01  0.13773409006E+03  0.12500000000E+03 0.  0.
         25    1    1    2    0    0  0.15394213266E+02 -0.18469561970E+01 -0.15933748920E+03  0.20311038504E+03  0.12500000000E+03 0.  0.
         25    1    1    2    0    0  0.42392277550E+02  0.17466751169E+01 -0.46783159180E+03  0.48609829701E+03  0.12500000000E+03 0.  0.
</event>
<event>
 5    0  0.5829567E-005  0.2866206E+03  0.7546771E-02  0.1092127E+00
         21   -1    0    0  502  501  0.00000000000E+00  0.00000000000E+00  0.78586429815E+03  0.78586429815E+03  0.00000000000E+00 0. -1.
         21   -1    0    0  501  502 -0.00000000000E+00 -0.00000000000E+00 -0.10453631586E+03  0.10453631586E+03  0.00000000000E+00 0. -1.
         25    1    1    2    0    0 -0.19827095303E+03  0.25192966552E+02  0.21093581171E+03  0.31633048073E+03  0.12500000000E+03 0.  0.
         25    1    1    2    0    0  0.14344348687E+03 -0.11990074800E+02  0.24818762132E+03  0.31295669220E+03  0.12500000000E+03 0.  0.
         25    1    1    2    0    0  0.54827466165E+02 -0.13202891753E+02  0.22220454926E+03  0.26111344107E+03  0.12500000000E+03 0.  0.
</event>
<event>
 5    0  0.5829567E-005  0.3927652E+03  0.7546771E-02  0.1046314E+00
         21   -1    0    0  502  501  0.00000000000E+00  0.00000000000E+00  0.13173647539E+04  0.13173647539E+04  0.00000000000E+00 0.  1.
         21   -1    0    0  501  502 -0.00000000000E+00 -0.00000000000E+00 -0.11710081225E+03  0.11710081225E+03  0.00000000000E+00 0.  1.
         25    1    1    2    0    0 -0.13451667576E+03 -0.85721998804E+02  0.70096198233E+02  0.21443291292E+03  0.12500000000E+03 0.  0.
         25    1    1    2    0    0  0.22168742209E+03 -0.45385021153E+02  0.62996981034E+03  0.68094939254E+03  0.12500000000E+03 0.  0.
         25    1    1    2    0    0 -0.87170746328E+02  0.13110701996E+03  0.50019793305E+03  0.53908326066E+03  0.12500000000E+03 0.  0.
</event>
<event>
 5    0  0.5829567E-005  0.4321795E+03  0.7546771E-02  0.1033174E+00
         21   -1    0    0  502  501  0.00000000000E+00  0.00000000000E+00  0.32066387674E+03  0.32066387674E+03  0.00000000000E+00 0. -1.
         21   -1    0    0  501  502 -0.00000000000E+00 -0.00000000000E+00 -0.58247622030E+03  0.58247622030E+03  0.00000000000E+00 0. -1.
         25    1    1    2    0    0  0.47075700918E+02  0.16881525332E+03 -0.12502633177E+03  0.24894034427E+03  0.12500000000E+03 0.  0.
         25    1    1    2    0    0  0.12960370535E+03 -0.64202506342E+02 -0.30559659650E+03  0.36046270550E+03  0.12500000000E+03 0.  0.
         25    1    1    2    0    0 -0.17667940627E+03 -0.10461274698E+03  0.16881058470E+03  0.29373704727E+03  0.12500000000E+03 0.  0.
</event>
<event>
 5    0  0.5829567E-005  0.2665993E+03  0.7546771E-02  0.1103242E+00
         21   -1    0    0  502  501  0.00000000000E+00  0.00000000000E+00  0.10798551174E+03  0.10798551174E+03  0.00000000000E+00 0.  1.
         21   -1    0    0  501  502 -0.00000000000E+00 -0.00000000000E+00 -0.65819169749E+03  0.65819169749E+03  0.00000000000E+00 0.  1.
         25    1    1    2    0    0  0.11846084751E+03  0.49760057263E+02 -0.13193621946E+03  0.22257852928E+03  0.12500000000E+03 0.  0.
         25    1    1    2    0    0 -0.11858725374E+03 -0.10597240743E+03 -0.30402440571E+03  0.36516972377E+03  0.12500000000E+03 0.  0.
         25    1    1    2    0    0  0.12640623403E+00  0.56212350171E+02 -0.11424556058E+03  0.17842895617E+03  0.12500000000E+03 0.  0.
</event>
<event>
 5    0  0.5829567E-005  0.2675978E+03  0.7546771E-02  0.1102662E+00
         21   -1    0    0  502  501  0.00000000000E+00  0.00000000000E+00  0.47158187467E+02  0.47158187467E+02  0.00000000000E+00 0. -1.
         21   -1    0    0  501  502 -0.00000000000E+00 -0.00000000000E+00 -0.15184759505E+04  0.15184759505E+04  0.00000000000E+00 0. -1.
         25    1    1    2    0    0 -0.50422610985E+02  0.33268016696E+02 -0.80740535671E+03  0.81925430159E+03  0.12500000000E+03 0.  0.
         25    1    1    2    0    0  0.10121274280E+01 -0.48642616657E+02 -0.10227515056E+03  0.16867819948E+03  0.12500000000E+03 0.  0.
         25    1    1    2    0    0  0.49410483557E+02  0.15374599961E+02 -0.56163725573E+03  0.57770163687E+03  0.12500000000E+03 0.  0.
</event>
<event>
 5    0  0.5829567E-005  0.4009022E+03  0.7546771E-02  0.1043468E+00
         21   -1    0    0  502  501  0.00000000000E+00  0.00000000000E+00  0.16670496699E+04  0.16670496699E+04  0.00000000000E+00 0. -1.
         21   -1    0    0  501  502 -0.00000000000E+00 -0.00000000000E+00 -0.96411398773E+02  0.96411398773E+02  0.00000000000E+00 0. -1.
         25    1    1    2    0    0  0.14086459593E+02  0.23263393470E+03  0.86460172511E+03  0.90414496569E+03  0.12500000000E+03 0.  0.
         25    1    1    2    0    0 -0.28673337240E+02 -0.66890434484E+02  0.24485041440E+02  0.14670040132E+03  0.12500000000E+03 0.  0.
         25    1    1    2    0    0  0.14586877647E+02 -0.16574350021E+03  0.68155150454E+03  0.71261570163E+03  0.12500000000E+03 0.  0.
</event>
<event>
 5    0  0.5829567E-005  0.2644726E+03  0.7546771E-02  0.1104485E+00
         21   -1    0    0  502  501  0.00000000000E+00  0.00000000000E+00  0.96484681913E+02  0.96484681913E+02  0.00000000000E+00 0.  1.
         21   -1    0    0  501  502 -0.00000000000E+00 -0.00000000000E+00 -0.72494181546E+03  0.72494181546E+03  0.00000000000E+00 0.  1.
         25    1    1    2    0    0 -0.12238224566E+03  0.12692777143E+02 -0.12231839192E+03  0.21383477184E+03  0.12500000000E+03 0.  0.
         25    1    1    2    0    0 -0.44762167864E+01 -0.57385169066E+02 -0.13134347512E+03  0.19023459886E+03  0.12500000000E+03 0.  0.
         25    1    1    2    0    0  0.12685846245E+03  0.44692391923E+02 -0.37479526651E+03  0.41735712668E+03  0.12500000000E+03 0.  0.
</event>
<event>
 5    0  0.5829567E-005  0.4547366E+03  0.7546771E-02  0.1026319E+00
         21   -1    0    0  502  501  0.00000000000E+00  0.00000000000E+00  0.11014048773E+03  0.11014048773E+03  0.00000000000E+00 0. -1.
         21   -1    0    0  501  502 -0.00000000000E+00 -0.00000000000E+00 -0.18774693914E+04  0.18774693914E+04  0.00000000000E+00 0. -1.
         25    1    1    2    0    0  0.10317642700E+01  0.86582742848E+01 -0.21901831749E+02  0.12720346098E+03  0.12500000000E+03 0.  0.
         25    1    1    2    0    0 -0.22195695460E+03 -0.26736338676E+02 -0.30780829409E+03  0.40043809436E+03  0.12500000000E+03 0.  0.
         25    1    1    2    0    0  0.22092519033E+03  0.18078064391E+02 -0.14376187779E+04  0.14599683238E+04  0.12500000000E+03 0.  0.
</event>
<event>
 5    0  0.5829567E-005  0.4287525E+03  0.7546771E-02  0.1034255E+00
         21   -1    0    0  502  501  0.00000000000E+00  0.00000000000E+00  0.20082577459E+03  0.20082577459E+03  0.00000000000E+00 0. -1.
         21   -1    0    0  501  502 -0.00000000000E+00 -0.00000000000E+00 -0.91536428357E+03  0.91536428357E+03  0.00000000000E+00 0. -1.
         25    1    1    2    0    0  0.99078898567E+01 -0.26726068578E+03 -0.58675148351E+03  0.65683235597E+03  0.12500000000E+03 0.  0.
         25    1    1    2    0    0 -0.42466331859E+01  0.25225980496E+03 -0.23873485296E+01  0.28157368933E+03  0.12500000000E+03 0.  0.
         25    1    1    2    0    0 -0.56612566708E+01  0.15000880821E+02 -0.12539967694E+03  0.17778401286E+03  0.12500000000E+03 0.  0.
</event>
<event>
 5    0  0.5829567E-005  0.3768263E+03  0.7546771E-02  0.1052113E+00
         21   -1    0    0  502  501  0.00000000000E+00  0.00000000000E+00  0.19651305608E+03  0.19651305608E+03  0.00000000000E+00 0.  1.
         21   -1    0    0  501  502 -0.00000000000E+00 -0.00000000000E+00 -0.72258849441E+03  0.72258849441E+03  0.00000000000E+00 0.  1.
         25    1    1    2    0    0 -0.12657392761E+02 -0.12787337192E+03 -0.41832105158E+01  0.17931622372E+03  0.12500000000E+03 0.  0.
         25    1    1    2    0    0  0.11115260688E+03  0.13491951109E+03 -0.53833125755E+03  0.57964102628E+03  0.12500000000E+03 0.  0.
         25    1    1    2    0    0 -0.98495214120E+02 -0.70461391754E+01  0.16439029744E+02  0.16014430049E+03  0.12500000000E+03 0.  0.
</event>
<event>
 5    0  0.5829567E-005  0.2652059E+03  0.7546771E-02  0.1104055E+00
         21   -1    0    0  502  501  0.00000000000E+00  0.00000000000E+00  0.32374552179E+03  0.32374552179E+03  0.00000000000E+00 0.  1.
         21   -1    0    0  501  502 -0.00000000000E+00 -0.00000000000E+00 -0.21725139718E+03  0.21725139718E+03  0.00000000000E+00 0.  1.
         25    1    1    2    0    0  0.54947230530E+02  0.72994358468E+02  0.63002009762E+02  0.16715749383E+03  0.12500000000E+03 0.  0.
         25    1    1    2    0    0 -0.85374613162E+02  0.78583466546E+02  0.39089045037E+02  0.17497753921E+03  0.12500000000E+03 0.  0.
         25    1    1    2    0    0  0.30427382632E+02 -0.15157782501E+03  0.44030698195E+01  0.19886188592E+03  0.12500000000E+03 0.  0.
</event>
<event>
 5    0  0.6005440E-005  0.5897244E+03  0.7546771E-02  0.9926957E-01
         21   -1    0    0  502  501  0.00000000000E+00  0.00000000000E+00  0.10605002876E+04  0.10605002876E+04  0.00000000000E+00 0. -1.
         21   -1    0    0  501  502 -0.00000000000E+00 -0.00000000000E+00 -0.32793477647E+03  0.32793477647E+03  0.00000000000E+00 0. -1.
         25    1    1    2    0    0  0.10521784672E+03  0.12548520549E+03  0.52506444737E+03  0.56403457869E+03  0.12500000000E+03 0.  0.
         25    1    1    2    0    0 -0.32279467448E+03 -0.31354321811E+03  0.20690425637E+03  0.51082298578E+03  0.12500000000E+03 0.  0.
         25    1    1    2    0    0  0.21757682776E+03  0.18805801262E+03  0.59680740116E+00  0.31357749962E+03  0.12500000000E+03 0.  0.
</event>
<event>
 5    0  0.5829567E-005  0.2542871E+03  0.7546771E-02  0.1110625E+00
         21   -1    0    0  502  501  0.00000000000E+00  0.00000000000E+00  0.44829522147E+02  0.44829522147E+02  0.00000000000E+00 0.  1.
         21   -1    0    0  501  502 -0.00000000000E+00 -0.00000000000E+00 -0.14423964948E+04  0.14423964948E+04  0.00000000000E+00 0.  1.
         25    1    1    2    0    0  0.54391078003E+02  0.99484650501E+02 -0.59196803689E+03  0.61555401205E+03  0.12500000000E+03 0.  0.
         25    1    1    2    0    0  0.32426584329E+02 -0.10606617501E+03 -0.29742803805E+03  0.34115972018E+03  0.12500000000E+03 0.  0.
         25    1    1    2    0    0 -0.86817662332E+02  0.65815245091E+01 -0.50817089773E+03  0.53051228474E+03  0.12500000000E+03 0.  0.
</event>
<event>
 5    0  0.5829567E-005  0.3485116E+03  0.7546771E-02  0.1063228E+00
         21   -1    0    0  502  501  0.00000000000E+00  0.00000000000E+00  0.52892788340E+03  0.52892788340E+03  0.00000000000E+00 0. -1.
         21   -1    0    0  501  502 -0.00000000000E+00 -0.00000000000E+00 -0.22963490621E+03  0.22963490621E+03  0.00000000000E+00 0. -1.
         25    1    1    2    0    0 -0.76350564015E+02  0.18232551310E+02  0.11547318650E+03  0.18740568655E+03  0.12500000000E+03 0.  0.
         25    1    1    2    0    0  0.15060333209E+03  0.11260062754E+03  0.27460966272E+03  0.35552177405E+03  0.12500000000E+03 0.  0.
         25    1    1    2    0    0 -0.74252768078E+02 -0.13083317885E+03 -0.90789872032E+02  0.21563532901E+03  0.12500000000E+03 0.  0.
</event>
<event>
 5    0  0.5829567E-005  0.4435775E+03  0.7546771E-02  0.1029655E+00
         21   -1    0    0  502  501  0.00000000000E+00  0.00000000000E+00  0.38236388068E+03  0.38236388068E+03  0.00000000000E+00 0.  1.
         21   -1    0    0  501  502 -0.00000000000E+00 -0.00000000000E+00 -0.51459104169E+03  0.51459104169E+03  0.00000000000E+00 0.  1.
         25    1    1    2    0    0 -0.23225139352E+03  0.12127916323E+03 -0.50936189628E+02  0.29473520427E+03  0.12500000000E+03 0.  0.
         25    1    1    2    0    0  0.23616359761E+03 -0.25882961417E+03 -0.15396965626E+03  0.40261354803E+03  0.12500000000E+03 0.  0.
         25    1    1    2    0    0 -0.39122040928E+01  0.13755045094E+03  0.72678684884E+02  0.19960617007E+03  0.12500000000E+03 0.  0.
</event>
<event>
 5    0  0.5829567E-005  0.2551362E+03  0.7546771E-02  0.1110101E+00
         21   -1    0    0  502  501  0.00000000000E+00  0.00000000000E+00  0.54275937601E+03  0.54275937601E+03  0.00000000000E+00 0.  1.
         21   -1    0    0  501  502 -0.00000000000E+00 -0.00000000000E+00 -0.11993247427E+03  0.11993247427E+03  0.00000000000E+00 0.  1.
         25    1    1    2    0    0 -0.31423764504E+02 -0.21916828639E+02  0.19344216929E+03  0.23347949206E+03  0.12500000000E+03 0.  0.
         25    1    1    2    0    0 -0.38506528789E+02 -0.80477138134E+02  0.18796417015E+02  0.15471789752E+03  0.12500000000E+03 0.  0.
         25    1    1    2    0    0  0.69930293293E+02  0.10239396677E+03  0.21058831543E+03  0.27449446069E+03  0.12500000000E+03 0.  0.
</event>
<event>
 5    0  0.7267244E-005  0.2799084E+03  0.7546771E-02  0.1095739E+00
         21   -1    0    0  502  501  0.00000000000E+00  0.00000000000E+00  0.48142698238E+03  0.48142698238E+03  0.00000000000E+00 0. -1.
         21   -1    0    0  501  502 -0.00000000000E+00 -0.00000000000E+00 -0.16274265794E+03  0.16274265794E+03  0.00000000000E+00 0. -1.
         25    1    1    2    0    0 -0.14065428392E+03  0.16095382338E+02  0.14954627243E+03  0.24089785494E+03  0.12500000000E+03 0.  0.
         25    1    1    2    0    0  0.18052291151E+03 -0.33729932939E+02  0.55930702336E+02  0.22908398770E+03  0.12500000000E+03 0.  0.
         25    1    1    2    0    0 -0.39868627592E+02  0.17634550600E+02  0.11320734967E+03  0.17418779768E+03  0.12500000000E+03 0.  0.
</event>
<event>
 5    0  0.5829567E-005  0.2546691E+03  0.7546771E-02  0.1110389E+00
         21   -1    0    0  502  501  0.00000000000E+00  0.00000000000E+00  0.81457842975E+03  0.81457842975E+03  0.00000000000E+00 0. -1.
         21   -1    0    0  501  502 -0.00000000000E+00 -0.00000000000E+00 -0.79619530812E+02  0.79619530812E+02  0.00000000000E+00 0. -1.
         25    1    1    2    0    0  0.36477615090E+02  0.63083593062E+02  0.33734625966E+03  0.36706628151E+03  0.12500000000E+03 0.  0.
         25    1    1    2    0    0  0.84153380527E+02 -0.68690415117E+02  0.24566920947E+03  0.29627440839E+03  0.12500000000E+03 0.  0.
         25    1    1    2    0    0 -0.12063099562E+03  0.56068220555E+01  0.15194342981E+03  0.23085727067E+03  0.12500000000E+03 0.  0.
</event>
<event>
 5    0  0.5829567E-005  0.2697431E+03  0.7546771E-02  0.1101427E+00
         21   -1    0    0  502  501  0.00000000000E+00  0.00000000000E+00  0.17549448167E+03  0.17549448167E+03  0.00000000000E+00 0.  1.
         21   -1    0    0  501  502 -0.00000000000E+00 -0.00000000000E+00 -0.41460750051E+03  0.41460750051E+03  0.00000000000E+00 0.  1.
         25    1    1    2    0    0  0.74047979721E+02  0.10708062879E+03 -0.14343147427E+03  0.23053622746E+03  0.12500000000E+03 0.  0.
         25    1    1    2    0    0 -0.10664598725E+03 -0.48867745966E+02  0.25262475287E+02  0.17327612603E+03  0.12500000000E+03 0.  0.
         25    1    1    2    0    0  0.32598007530E+02 -0.58212882820E+02 -0.12094401986E+03  0.18628962870E+03  0.12500000000E+03 0.  0.
</event>
<event>
 5    0  0.5829567E-005  0.3905256E+03  0.7546771E-02  0.1047111E+00
         21   -1    0    0  502  501  0.00000000000E+00  0.00000000000E+00  0.54736524339E+03  0.54736524339E+03  0.00000000000E+00 0.  1.
         21   -1    0    0  501  502 -0.00000000000E+00 -0.00000000000E+00 -0.27862616944E+03  0.27862616944E+03  0.00000000000E+00 0.  1.
         25    1    1    2    0    0  0.22318314812E+02 -0.31283113124E+03  0.18917327078E+03  0.38700510361E+03  0.12500000000E+03 0.  0.
         25    1    1    2    0    0 -0.58868896423E+02  0.14224394777E+03 -0.25668023614E+02  0.19995683304E+03  0.12500000000E+03 0.  0.
         25    1    1    2    0    0  0.36550581612E+02  0.17058718347E+03  0.10523382678E+03  0.23902947617E+03  0.12500000000E+03 0.  0.
</event>
<event>
 5    0  0.5829567E-005  0.3110913E+03  0.7546771E-02  0.1079824E+00
         21   -1    0    0  502  501  0.00000000000E+00  0.00000000000E+00  0.86178459572E+02  0.86178459572E+02  0.00000000000E+00 0. -1.
         21   -1    0    0  501  502 -0.00000000000E+00 -0.00000000000E+00 -0.11229932430E+04  0.11229932430E+04  0.00000000000E+00 0. -1.
         25    1    1    2    0    0  0.77575099295E+01  0.16480326541E+03 -0.50603933623E+03  0.54673677859E+03  0.12500000000E+03 0.  0.
         25    1    1    2    0    0 -0.53957902626E+01  0.30363033882E+02 -0.33552427189E+03  0.35937802577E+03  0.12500000000E+03 0.  0.
         25    1    1    2    0    0 -0.23617196669E+01 -0.19516629929E+03 -0.19525117532E+03  0.30305689823E+03  0.12500000000E+03 0.  0.
</event>
<event>
 5    0  0.5829567E-005  0.2582336E+03  0.7546771E-02  0.1108209E+00
         21   -1    0    0  502  501  0.00000000000E+00  0.00000000000E+00  0.11905179631E+03  0.11905179631E+03  0.00000000000E+00 0. -1.
         21   -1    0    0  501  502 -0.00000000000E+00 -0.00000000000E+00 -0.56013078086E+03  0.56013078086E+03  0.00000000000E+00 0. -1.
         25    1    1    2    0    0  0.17755393607E+02  0.28147344356E+02 -0.10085131012E+03  0.16402290617E+03  0.12500000000E+03 0.  0.
         25    1    1    2    0    0 -0.43932604391E+02  0.22912438385E+02 -0.35230249324E+03  0.37709030789E+03  0.12500000000E+03 0.  0.
         25    1    1    2    0    0  0.26177210784E+02 -0.51059782742E+02  0.12074818807E+02  0.13806936310E+03  0.12500000000E+03 0.  0.
</event>
<event>
 5    0  0.5829567E-005  0.3270865E+03  0.7546771E-02  0.1072433E+00
         21   -1    0    0  502  501  0.00000000000E+00  0.00000000000E+00  0.33544353080E+04  0.33544353080E+04  0.00000000000E+00 0. -1.
         21   -1    0    0  501  502 -0.00000000000E+00 -0.00000000000E+00 -0.31893773796E+02  0.31893773796E+02  0.00000000000E+00 0.  1.
         25    1    1    2    0    0  0.63589884781E+02 -0.22995143503E+03  0.92094313550E+03  0.95952206579E+03  0.12500000000E+03 0.  0.
         25    1    1    2    0    0 -0.73985439249E+01  0.10497785690E+03  0.11305763022E+04  0.11423234498E+04  0.12500000000E+03 0.  0.
         25    1    1    2    0    0 -0.56191340856E+02  0.12497357813E+03  0.12710220965E+04  0.12844835662E+04  0.12500000000E+03 0.  0.
</event>
<event>
 5    0  0.5829567E-005  0.2527757E+03  0.7546771E-02  0.1111563E+00
         21   -1    0    0  502  501  0.00000000000E+00  0.00000000000E+00  0.59409062400E+03  0.59409062400E+03  0.00000000000E+00 0.  1.
         21   -1    0    0  501  502 -0.00000000000E+00 -0.00000000000E+00 -0.10755183145E+03  0.10755183145E+03  0.00000000000E+00 0.  1.
         25    1    1    2    0    0  0.98046279288E+02  0.14272249154E+02  0.14247310382E+03  0.21386994948E+03  0.12500000000E+03 0.  0.
         25    1    1    2    0    0 -0.33533596561E+02  0.82632136400E+02  0.79641540688E+02  0.17297498972E+03  0.12500000000E+03 0.  0.
         25    1    1    2    0    0 -0.64512682726E+02 -0.96904385554E+02  0.26442414804E+03  0.31479751625E+03  0.12500000000E+03 0.  0.
</event>
<event>
 5    0  0.5829567E-005  0.2720162E+03  0.7546771E-02  0.1100131E+00
         21   -1    0    0  502  501  0.00000000000E+00  0.00000000000E+00  0.13451233847E+04  0.13451233847E+04  0.00000000000E+00 0.  1.
         21   -1    0    0  501  502 -0.00000000000E+00 -0.00000000000E+00 -0.55008177530E+02  0.55008177530E+02  0.00000000000E+00 0.  1.
         25    1    1    2    0    0 -0.11578661551E+03  0.55362710235E+02  0.68806030725E+03  0.71100179776E+03  0.12500000000E+03 0.  0.
         25    1    1    2    0    0  0.90497212748E+02 -0.99023382752E+02  0.45002514388E+03  0.48594547633E+03  0.12500000000E+03 0.  0.
         25    1    1    2    0    0  0.25289402766E+02  0.43660672517E+02  0.15202975601E+03  0.20318428810E+03  0.12500000000E+03 0.  0.
</event>
<event>
 5    0  0.5829567E-005  0.2382524E+03  0.7546771E-02  0.1120963E+00
         21   -1    0    0  502  501  0.00000000000E+00  0.00000000000E+00  0.31407234415E+03  0.31407234415E+03  0.00000000000E+00 0.  1.
         21   -1    0    0  501  502 -0.00000000000E+00 -0.00000000000E+00 -0.18073612080E+03  0.18073612080E+03  0.00000000000E+00 0.  1.
         25    1    1    2    0    0  0.96516584781E+02  0.14008776258E+02  0.63688092180E+02  0.17085921115E+03  0.12500000000E+03 0.  0.
         25    1    1    2    0    0 -0.77817685948E+02 -0.86150713936E+02  0.31182269678E+02  0.17342108205E+03  0.12500000000E+03 0.  0.
         25    1    1    2    0    0 -0.18698898832E+02  0.72141937678E+02  0.38465861484E+02  0.15052817175E+03  0.12500000000E+03 0.  0.
</event>
<event>
 5    0  0.5829567E-005  0.3371659E+03  0.7546771E-02  0.1068009E+00
         21   -1    0    0  502  501  0.00000000000E+00  0.00000000000E+00  0.14816128518E+04  0.14816128518E+04  0.00000000000E+00 0. -1.
         21   -1    0    0  501  502 -0.00000000000E+00 -0.00000000000E+00 -0.76727787764E+02  0.76727787764E+02  0.00000000000E+00 0. -1.
         25    1    1    2    0    0  0.95615402518E+02 -0.35134138725E+02  0.64243394148E+03  0.66236174563E+03  0.12500000000E+03 0.  0.
         25    1    1    2    0    0 -0.56237162891E+02 -0.14279124868E+03  0.56844297666E+03  0.60191725088E+03  0.12500000000E+03 0.  0.
         25    1    1    2    0    0 -0.39378239627E+02  0.17792538741E+03  0.19400814587E+03  0.29406164303E+03  0.12500000000E+03 0.  0.
</event>
<event>
 5    0  0.5829567E-005  0.2451601E+03  0.7546771E-02  0.1116402E+00
         21   -1    0    0  502  501  0.00000000000E+00  0.00000000000E+00  0.30087050594E+03  0.30087050594E+03  0.00000000000E+00 0. -1.
         21   -1    0    0  501  502 -0.00000000000E+00 -0.00000000000E+00 -0.19976531504E+03  0.19976531504E+03  0.00000000000E+00 0. -1.
         25    1    1    2    0    0  0.60667432027E+02  0.17501983941E+02 -0.75145989899E+02  0.15893009957E+03  0.12500000000E+03 0.  0.
         25    1    1    2    0    0  0.32902684038E+02  0.17065571627E+02  0.57403243602E+02  0.14245684514E+03  0.12500000000E+03 0.  0.
         25    1    1    2    0    0 -0.93570116065E+02 -0.34567555568E+02  0.11884793720E+03  0.19924887627E+03  0.12500000000E+03 0.  0.
</event>
<event>
 5    0  0.5829567E-005  0.4187466E+03  0.7546771E-02  0.1037475E+00
         21   -1    0    0  502  501  0.00000000000E+00  0.00000000000E+00  0.81284525448E+02  0.81284525448E+02  0.00000000000E+00 0.  1.
         21   -1    0    0  501  502 -0.00000000000E+00 -0.00000000000E+00 -0.21572214168E+04  0.21572214168E+04  0.00000000000E+00 0.  1.
         25    1    1    2    0    0  0.12445926609E+02 -0.15649744571E+03 -0.15084638092E+03  0.25104976048E+03  0.12500000000E+03 0.  0.
         25    1    1    2    0    0 -0.51902170669E+02  0.24647576011E+03 -0.16116651794E+04  0.16360115483E+04  0.12500000000E+03 0.  0.
         25    1    1    2    0    0  0.39456244060E+02 -0.89978314401E+02 -0.31342533096E+03  0.35144463340E+03  0.12500000000E+03 0.  0.
</event>
<event>
 5    0  0.5829567E-005  0.2985207E+03  0.7546771E-02  0.1085982E+00
         21   -1    0    0  502  501  0.00000000000E+00  0.00000000000E+00  0.19800002958E+03  0.19800002958E+03  0.00000000000E+00 0.  1.
         21   -1    0    0  501  502 -0.00000000000E+00 -0.00000000000E+00 -0.45007367032E+03  0.45007367032E+03  0.00000000000E+00 0.  1.
         25    1    1    2    0    0 -0.31173239024E+02 -0.38579492096E+01 -0.18850548060E+02  0.13025742883E+03  0.12500000000E+03 0.  0.
         25    1    1    2    0    0 -0.17339208528E+03 -0.42980932517E+02 -0.11267213752E+03  0.24542246509E+03  0.12500000000E+03 0.  0.
         25    1    1    2    0    0  0.20456532430E+03  0.46838881726E+02 -0.12055095516E+03  0.27239380598E+03  0.12500000000E+03 0.  0.
</event>
<event>
 5    0  0.5829567E-005  0.2809197E+03  0.7546771E-02  0.1095188E+00
         21   -1    0    0  502  501  0.00000000000E+00  0.00000000000E+00  0.15253183370E+03  0.15253183370E+03  0.00000000000E+00 0. -1.
         21   -1    0    0  501  502 -0.00000000000E+00 -0.00000000000E+00 -0.51737317492E+03  0.51737317492E+03  0.00000000000E+00 0. -1.
         25    1    1    2    0    0 -0.31198298625E+02  0.66108337103E+02 -0.30028307347E+03  0.33337451955E+03  0.12500000000E+03 0.  0.
         25    1    1    2    0    0 -0.44652005419E+02 -0.93344346973E+02  0.23076555797E+02  0.16390392346E+03  0.12500000000E+03 0.  0.
         25    1    1    2    0    0  0.75850304043E+02  0.27236009870E+02 -0.87634823548E+02  0.17262656561E+03  0.12500000000E+03 0.  0.
</event>
<event>
 5    0  0.6849328E-005  0.7529691E+03  0.7546771E-02  0.9630704E-01
         21   -1    0    0  502  501  0.00000000000E+00  0.00000000000E+00  0.19549200728E+04  0.19549200728E+04  0.00000000000E+00 0. -1.
         21   -1    0    0  501  502 -0.00000000000E+00 -0.00000000000E+00 -0.29001822754E+03  0.29001822754E+03  0.00000000000E+00 0. -1.
         25    1    1    2    0    0 -0.37779798365E+03 -0.29323722786E+03  0.61379551434E+03  0.78809220379E+03  0.12500000000E+03 0.  0.
         25    1    1    2    0    0 -0.15276621602E+03  0.27731352960E+03  0.90449829168E+02  0.35220233113E+03  0.12500000000E+03 0.  0.
         25    1    1    2    0    0  0.53056419967E+03  0.15923698254E+02  0.96065650175E+03  0.11046437654E+04  0.12500000000E+03 0.  0.
</event>
<event>
 5    0  0.5829567E-005  0.3017385E+03  0.7546771E-02  0.1084375E+00
         21   -1    0    0  502  501  0.00000000000E+00  0.00000000000E+00  0.16101170432E+04  0.16101170432E+04  0.00000000000E+00 0. -1.
         21   -1    0    0  501  502 -0.00000000000E+00 -0.00000000000E+00 -0.56546292181E+02  0.56546292181E+02  0.00000000000E+00 0. -1.
         25    1    1    2    0    0  0.13874543712E+03 -0.79591535518E+02  0.23864180377E+03  0.31330499414E+03  0.12500000000E+03 0.  0.
         25    1    1    2    0    0 -0.81690857703E+02  0.54914839604E+02  0.45142874853E+03  0.47864595563E+03  0.12500000000E+03 0.  0.
         25    1    1    2    0    0 -0.57054579414E+02  0.24676695914E+02  0.86350019873E+03  0.87471238563E+03  0.12500000000E+03 0.  0.
</event>
<event>
 5    0  0.5829567E-005  0.4813212E+03  0.7546771E-02  0.1018773E+00
         21   -1    0    0  502  501  0.00000000000E+00  0.00000000000E+00  0.31136095492E+03  0.31136095492E+03  0.00000000000E+00 0.  1.
         21   -1    0    0  501  502 -0.00000000000E+00 -0.00000000000E+00 -0.74405633233E+03  0.74405633233E+03  0.00000000000E+00 0.  1.
         25    1    1    2    0    0 -0.26568331970E+03 -0.82192359761E+02 -0.24844112523E+03  0.39330802569E+03  0.12500000000E+03 0.  0.
         25    1    1    2    0    0 -0.23423946912E+02 -0.43576956124E+02 -0.27923057654E+03  0.30990699777E+03  0.12500000000E+03 0.  0.
         25    1    1    2    0    0  0.28910726661E+03  0.12576931588E+03  0.94976324370E+02  0.35220226378E+03  0.12500000000E+03 0.  0.
</event>
<event>
 5    0  0.5829567E-005  0.5430404E+03  0.7546771E-02  0.1003118E+00
         21   -1    0    0  502  501  0.00000000000E+00  0.00000000000E+00  0.26028778493E+03  0.26028778493E+03  0.00000000000E+00 0. -1.
         21   -1    0    0  501  502 -0.00000000000E+00 -0.00000000000E+00 -0.11329492312E+04  0.11329492312E+04  0.00000000000E+00 0. -1.
         25    1    1    2    0    0  0.30140925883E+03 -0.71828397565E+02 -0.71765893665E+03  0.79162251697E+03  0.12500000000E+03 0.  0.
         25    1    1    2    0    0  0.45483540657E+01 -0.53467624312E+02 -0.20356585388E+03  0.24483368077E+03  0.12500000000E+03 0.  0.
         25    1    1    2    0    0 -0.30595761290E+03  0.12529602188E+03  0.48563344241E+02  0.35678081842E+03  0.12500000000E+03 0.  0.
</event>
<event>
 5    0  0.5829567E-005  0.2728799E+03  0.7546771E-02  0.1099643E+00
         21   -1    0    0  502  501  0.00000000000E+00  0.00000000000E+00  0.81804312013E+03  0.81804312013E+03  0.00000000000E+00 0. -1.
         21   -1    0    0  501  502 -0.00000000000E+00 -0.00000000000E+00 -0.91026309522E+02  0.91026309522E+02  0.00000000000E+00 0. -1.
         25    1    1    2    0    0 -0.38138477959E+02  0.37555341772E+02  0.23794678925E+03  0.27405952220E+03  0.12500000000E+03 0.  0.
         25    1    1    2    0    0 -0.41648000618E+02  0.50196691499E+02  0.29293087672E+02  0.14400468318E+03  0.12500000000E+03 0.  0.
         25    1    1    2    0    0  0.79786478577E+02 -0.87752033271E+02  0.45977693369E+03  0.49100522427E+03  0.12500000000E+03 0.  0.
</event>
<event>
 5    0  0.5829567E-005  0.2109263E+03  0.7546771E-02  0.1140835E+00
         21   -1    0    0  502  501  0.00000000000E+00  0.00000000000E+00  0.33934151284E+03  0.33934151284E+03  0.00000000000E+00 0. -1.
         21   -1    0    0  501  502 -0.00000000000E+00 -0.00000000000E+00 -0.13110661790E+03  0.13110661790E+03  0.00000000000E+00 0. -1.
         25    1    1    2    0    0  0.63416771490E+02 -0.21137469557E+02  0.13470244672E+03  0.19554597586E+03  0.12500000000E+03 0.  0.
         25    1    1    2    0    0 -0.51066761522E+01  0.21408152356E+02  0.33144254842E+02  0.13117899511E+03  0.12500000000E+03 0.  0.
         25    1    1    2    0    0 -0.58310095338E+02 -0.27068279923E+00  0.40388193384E+02  0.14372315976E+03  0.12500000000E+03 0.  0.
</event>
<event>
 5    0  0.5829567E-005  0.2588055E+03  0.7546771E-02  0.1107863E+00
         21   -1    0    0  502  501  0.00000000000E+00  0.00000000000E+00  0.26812197440E+03  0.26812197440E+03  0.00000000000E+00 0.  1.
         21   -1    0    0  501  502 -0.00000000000E+00 -0.00000000000E+00 -0.24981282443E+03  0.24981282443E+03  0.00000000000E+00 0.  1.
         25    1    1    2    0    0 -0.12481365896E+03 -0.55228962453E+02  0.18844707315E+02  0.18603443431E+03  0.12500000000E+03 0.  0.
         25    1    1    2    0    0 -0.19351798315E+02 -0.17417752129E+01  0.31103024657E+02  0.13026866093E+03  0.12500000000E+03 0.  0.
         25    1    1    2    0    0  0.14416545727E+03  0.56970737666E+02 -0.31638582002E+02  0.20163170359E+03  0.12500000000E+03 0.  0.
</event>
<event>
 5    0  0.5829567E-005  0.4327421E+03  0.7546771E-02  0.1032997E+00
         21   -1    0    0  502  501  0.00000000000E+00  0.00000000000E+00  0.13639195736E+03  0.13639195736E+03  0.00000000000E+00 0.  1.
         21   -1    0    0  501  502 -0.00000000000E+00 -0.00000000000E+00 -0.13729970444E+04  0.13729970444E+04  0.00000000000E+00 0.  1.
         25    1    1    2    0    0  0.71217947298E+02  0.23575390965E+03 -0.53583344234E+03  0.60282201341E+03  0.12500000000E+03 0.  0.
         25    1    1    2    0    0 -0.75262073823E+02 -0.12699016945E+03 -0.71453395872E+03  0.74025310608E+03  0.12500000000E+03 0.  0.
         25    1    1    2    0    0  0.40441265252E+01 -0.10876374019E+03  0.13762314036E+02  0.16631388225E+03  0.12500000000E+03 0.  0.
</event>
<event>
 5    0  0.5829567E-005  0.2640212E+03  0.7546771E-02  0.1104751E+00
         21   -1    0    0  502  501  0.00000000000E+00  0.00000000000E+00  0.17722034015E+04  0.17722034015E+04  0.00000000000E+00 0.  1.
         21   -1    0    0  501  502 -0.00000000000E+00 -0.00000000000E+00 -0.39333635977E+02  0.39333635977E+02  0.00000000000E+00 0.  1.
         25    1    1    2    0    0 -0.13091230940E+03 -0.34464227143E+02  0.57806710158E+03  0.60672266287E+03  0.12500000000E+03 0.  0.
         25    1    1    2    0    0  0.13026221145E+03  0.98451354845E+01  0.92074284900E+03  0.93832700292E+03  0.12500000000E+03 0.  0.
         25    1    1    2    0    0  0.65009794505E+00  0.24619091659E+02  0.23405981497E+03  0.26648737172E+03  0.12500000000E+03 0.  0.
</event>
<event>
 5    0  0.5829567E-005  0.3275926E+03  0.7546771E-02  0.1072207E+00
         21   -1    0    0  502  501  0.00000000000E+00  0.00000000000E+00  0.21553297865E+04  0.21553297865E+04  0.00000000000E+00 0. -1.
         21   -1    0    0  501  502 -0.00000000000E+00 -0.00000000000E+00 -0.49791406871E+02  0.49791406871E+02  0.00000000000E+00 0. -1.
         25    1    1    2    0    0 -0.83009703667E+02  0.71324567920E+02  0.29374606960E+03  0.33747527064E+03  0.12500000000E+03 0.  0.
         25    1    1    2    0    0  0.17089678511E+03  0.17309351388E+02  0.48956383417E+03  0.53366944126E+03  0.12500000000E+03 0.  0.
         25    1    1    2    0    0 -0.87887081439E+02 -0.88633919309E+02  0.13222284759E+04  0.13339764815E+04  0.12500000000E+03 0.  0.
</event>
<event>
 5    0  0.5829567E-005  0.3468818E+03  0.7546771E-02  0.1063902E+00
         21   -1    0    0  502  501  0.00000000000E+00  0.00000000000E+00  0.11303014749E+04  0.11303014749E+04  0.00000000000E+00 0.  1.
         21   -1    0    0  501  502 -0.00000000000E+00 -0.00000000000E+00 -0.10645568250E+03  0.10645568250E+03  0.00000000000E+00 0.  1.
         25    1    1    2    0    0 -0.58695123707E+02 -0.20211271861E+02  0.57806285414E+03  0.59467241099E+03  0.12500000000E+03 0.  0.
         25    1    1    2    0    0  0.59353551151E+02 -0.17940304344E+03  0.22178383602E+03  0.31705104628E+03  0.12500000000E+03 0.  0.
         25    1    1    2    0    0 -0.65842744340E+00  0.19961431530E+03  0.22399910220E+03  0.32503370008E+03  0.12500000000E+03 0.  0.
</event>
<event>
 5    0  0.5829567E-005  0.3816364E+03  0.7546771E-02  0.1050331E+00
         21   -1    0    0  502  501  0.00000000000E+00  0.00000000000E+00  0.20001310294E+04  0.20001310294E+04  0.00000000000E+00 0. -1.
         21   -1    0    0  501  502 -0.00000000000E+00 -0.00000000000E+00 -0.72818390612E+02  0.72818390612E+02  0.00000000000E+00 0. -1.
         25    1    1    2    0    0 -0.20477144365E+03  0.11763634644E+02  0.61894593276E+03  0.66391926837E+03  0.12500000000E+03 0.  0.
         25    1    1    2    0    0  0.18466395767E+03  0.16246421234E+03  0.96537460502E+03  0.10040261578E+04  0.12500000000E+03 0.  0.
         25    1    1    2    0    0  0.20107485981E+02 -0.17422784699E+03  0.34299210098E+03  0.40500399380E+03  0.12500000000E+03 0.  0.
</event>
<event>
 5    0  0.6818501E-005  0.3382859E+03  0.7546771E-02  0.1067528E+00
         21   -1    0    0  502  501  0.00000000000E+00  0.00000000000E+00  0.57791474117E+03  0.57791474117E+03  0.00000000000E+00 0. -1.
         21   -1    0    0  501  502 -0.00000000000E+00 -0.00000000000E+00 -0.19801765137E+03  0.19801765137E+03  0.00000000000E+00 0. -1.
         25    1    1    2    0    0 -0.14466771597E+03 -0.25210674186E+01  0.26730458358E+03  0.32865155442E+03  0.12500000000E+03 0.  0.
         25    1    1    2    0    0  0.10157007327E+03 -0.79892936601E+02 -0.82329164835E+02  0.19774340061E+03  0.12500000000E+03 0.  0.
         25    1    1    2    0    0  0.43097642701E+02  0.82414004019E+02  0.19492167107E+03  0.24953743750E+03  0.12500000000E+03 0.  0.
</event>
<event>
 5    0  0.5829567E-005  0.3580455E+03  0.7546771E-02  0.1059360E+00
         21   -1    0    0  502  501  0.00000000000E+00  0.00000000000E+00  0.12746132493E+04  0.12746132493E+04  0.00000000000E+00 0.  1.
         21   -1    0    0  501  502 -0.00000000000E+00 -0.00000000000E+00 -0.10057683870E+03  0.10057683870E+03  0.00000000000E+00 0.  1.
         25    1    1    2    0    0  0.13760082458E+02 -0.13394983485E+03  0.45660264001E+03  0.49218174386E+03  0.12500000000E+03 0.  0.
         25    1    1    2    0    0 -0.14376282489E+03 -0.92019734446E+02  0.40758243293E+03  0.45922088474E+03  0.12500000000E+03 0.  0.
         25    1    1    2    0    0  0.13000274244E+03  0.22596956929E+03  0.30985133765E+03  0.42378745938E+03  0.12500000000E+03 0.  0.
</event>
<event>
 5    0  0.5829567E-005  0.2515917E+03  0.7546771E-02  0.1112303E+00
         21   -1    0    0  502  501  0.00000000000E+00  0.00000000000E+00  0.23189540299E+03  0.23189540299E+03  0.00000000000E+00 0. -1.
         21   -1    0    0  501  502 -0.00000000000E+00 -0.00000000000E+00 -0.27296085561E+03  0.27296085561E+03  0.00000000000E+00 0. -1.
         25    1    1    2    0    0  0.11228686166E+03  0.10395601422E+02 -0.81589536555E+02  0.18707821975E+03  0.12500000000E+03 0.  0.
         25    1    1    2    0    0 -0.12731804270E+03  0.30995153683E+02  0.77767882099E+01  0.18126241194E+03  0.12500000000E+03 0.  0.
         25    1    1    2    0    0  0.15031181044E+02 -0.41390755105E+02  0.32747295721E+02  0.13651562690E+03  0.12500000000E+03 0.  0.
</event>
<event>
 5    0  0.5829567E-005  0.3284440E+03  0.7546771E-02  0.1071827E+00
         21   -1    0    0  502  501  0.00000000000E+00  0.00000000000E+00  0.56814507238E+03  0.56814507238E+03  0.00000000000E+00 0.  1.
         21   -1    0    0  501  502 -0.00000000000E+00 -0.00000000000E+00 -0.18987313588E+03  0.18987313588E+03  0.00000000000E+00 0.  1.
         25    1    1    2    0    0  0.52110385840E+01  0.65631873165E+02  0.33068539778E+02  0.14509729846E+03  0.12500000000E+03 0.  0.
         25    1    1    2    0    0 -0.21321765557E+03 -0.61964569977E+02  0.23400949660E+03  0.34595783136E+03  0.12500000000E+03 0.  0.
         25    1    1    2    0    0  0.20800661699E+03 -0.36673031881E+01  0.11119390011E+03  0.26696307843E+03  0.12500000000E+03 0.  0.
</event>
<event>
 5    0  0.5829567E-005  0.3468515E+03  0.7546771E-02  0.1063915E+00
         21   -1    0    0  502  501  0.00000000000E+00  0.00000000000E+00  0.20823962924E+03  0.20823962924E+03  0.00000000000E+00 0. -1.
         21   -1    0    0  501  502 -0.00000000000E+00 -0.00000000000E+00 -0.57772837472E+03  0.57772837472E+03  0.00000000000E+00 0. -1.
         25    1    1    2    0    0 -0.90922450550E+02  0.15057588804E+03 -0.10498505335E+03  0.23997260573E+03  0.12500000000E+03 0.  0.
         25    1    1    2    0    0  0.67226563698E+02  0.84294376248E+01  0.66815098590E+02  0.15709781566E+03  0.12500000000E+03 0.  0.
         25    1    1    2    0    0  0.23695886852E+02 -0.15900532567E+03 -0.33131879072E+03  0.38889758257E+03  0.12500000000E+03 0.  0.
</event>
<event>
 5    0  0.5829567E-005  0.3155118E+03  0.7546771E-02  0.1077734E+00
         21   -1    0    0  502  501  0.00000000000E+00  0.00000000000E+00  0.10954221772E+04  0.10954221772E+04  0.00000000000E+00 0. -1.
         21   -1    0    0  501  502 -0.00000000000E+00 -0.00000000000E+00 -0.90876118734E+02  0.90876118734E+02  0.00000000000E+00 0. -1.
         25    1    1    2    0    0 -0.49325889176E+02  0.11797094404E+03  0.24509831023E+03  0.30339474065E+03  0.12500000000E+03 0.  0.
         25    1    1    2    0    0  0.13020249589E+02 -0.22826214940E+03  0.32771114194E+03  0.41867974432E+03  0.12500000000E+03 0.  0.
         25    1    1    2    0    0  0.36305639587E+02  0.11029120536E+03  0.43173660627E+03  0.46422381094E+03  0.12500000000E+03 0.  0.
</event>
<event>
 5    0  0.5829567E-005  0.2624344E+03  0.7546771E-02  0.1105689E+00
         21   -1    0    0  502  501  0.00000000000E+00  0.00000000000E+00  0.10029373081E+04  0.10029373081E+04  0.00000000000E+00 0. -1.
         21   -1    0    0  501  502 -0.00000000000E+00 -0.00000000000E+00 -0.68670131985E+02  0.68670131985E+02  0.00000000000E+00 0. -1.
         25    1    1    2    0    0  0.10590953201E+03 -0.11752377395E+03  0.48100332442E+03  0.52155331896E+03  0.12500000000E+03 0.  0.
         25    1    1    2    0    0 -0.51369064990E+02  0.45554346022E+02  0.13489183342E+03  0.19630279163E+03  0.12500000000E+03 0.  0.
         25    1    1    2    0    0 -0.54540467019E+02  0.71969427925E+02  0.31837201829E+03  0.35375132951E+03  0.12500000000E+03 0.  0.
</event>
<event>
 5    0  0.5829567E-005  0.3025456E+03  0.7546771E-02  0.1083975E+00
         21   -1    0    0  502  501  0.00000000000E+00  0.00000000000E+00  0.57309118785E+03  0.57309118785E+03  0.00000000000E+00 0. -1.
         21   -1    0    0  501  502 -0.00000000000E+00 -0.00000000000E+00 -0.15971946777E+03  0.15971946777E+03  0.00000000000E+00 0. -1.
         25    1    1    2    0    0  0.96779784049E+02  0.43678380688E+02  0.20057558391E+03  0.25909398372E+03  0.12500000000E+03 0.  0.
         25    1    1    2    0    0 -0.13092063661E+03  0.11795324604E+03  0.10631150396E+03  0.24079102395E+03  0.12500000000E+03 0.  0.
         25    1    1    2    0    0  0.34140852559E+02 -0.16163162673E+03  0.10648463221E+03  0.23292564794E+03  0.12500000000E+03 0.  0.
</event>
<event>
 5    0  0.5829567E-005  0.2504632E+03  0.7546771E-02  0.1113012E+00
         21   -1    0    0  502  501  0.00000000000E+00  0.00000000000E+00  0.24963078074E+04  0.24963078074E+04  0.00000000000E+00 0. -1.
         21   -1    0    0  501  502 -0.00000000000E+00 -0.00000000000E+00 -0.25129838221E+02  0.25129838221E+02  0.00000000000E+00 0. -1.
         25    1    1    2    0    0 -0.29243352174E+01 -0.13381873012E+03  0.87516236787E+03  0.89411977632E+03  0.12500000000E+03 0.  0.
         25    1    1    2    0    0 -0.85654784612E+01 -0.94609458293E+01  0.71333235887E+03  0.72431411081E+03  0.12500000000E+03 0.  0.
         25    1    1    2    0    0  0.11489813679E+02  0.14327967595E+03  0.88268324239E+03  0.90300375844E+03  0.12500000000E+03 0.  0.
</event>
<event>
 5    0  0.5829567E-005  0.3353654E+03  0.7546771E-02  0.1068787E+00
         21   -1    0    0  502  501  0.00000000000E+00  0.00000000000E+00  0.20479742170E+03  0.20479742170E+03  0.00000000000E+00 0. -1.
         21   -1    0    0  501  502 -0.00000000000E+00 -0.00000000000E+00 -0.54917654955E+03  0.54917654955E+03  0.00000000000E+00 0. -1.
         25    1    1    2    0    0 -0.66741177847E+02 -0.84185030049E+02  0.70030864689E+02  0.17908329379E+03  0.12500000000E+03 0.  0.
         25    1    1    2    0    0  0.95615425770E+02 -0.45807672474E+02 -0.34043783692E+03  0.37784067185E+03  0.12500000000E+03 0.  0.
         25    1    1    2    0    0 -0.28874247923E+02  0.12999270252E+03 -0.73972155627E+02  0.19705000561E+03  0.12500000000E+03 0.  0.
</event>
<event>
 5    0  0.6510641E-005  0.6037463E+03  0.7546771E-02  0.9897664E-01
         21   -1    0    0  502  501  0.00000000000E+00  0.00000000000E+00  0.28591329209E+03  0.28591329209E+03  0.00000000000E+00 0.  1.
         21   -1    0    0  501  502 -0.00000000000E+00 -0.00000000000E+00 -0.12748955559E+04  0.12748955559E+04  0.00000000000E+00 0.  1.
         25    1    1    2    0    0 -0.26617187202E+03 -0.23193936021E+03 -0.28809733629E+03  0.47251286485E+03  0.12500000000E+03 0.  0.
         25    1    1    2    0    0  0.14819738120E+03  0.31942828718E+03 -0.79145149107E+03  0.87522417538E+03  0.12500000000E+03 0.  0.
         25    1    1    2    0    0  0.11797449083E+03 -0.87488926971E+02  0.90566563561E+02  0.21307180776E+03  0.12500000000E+03 0.  0.
</event>
<event>
 5    0  0.5829567E-005  0.2758632E+03  0.7546771E-02  0.1097970E+00
         21   -1    0    0  502  501  0.00000000000E+00  0.00000000000E+00  0.57402400195E+02  0.57402400195E+02  0.00000000000E+00 0.  1.
         21   -1    0    0  501  502 -0.00000000000E+00 -0.00000000000E+00 -0.13257374543E+04  0.13257374543E+04  0.00000000000E+00 0.  1.
         25    1    1    2    0    0 -0.17838308097E+02  0.45560437456E+02 -0.10826533376E+03  0.17245388134E+03  0.12500000000E+03 0.  0.
         25    1    1    2    0    0  0.22704861027E+02 -0.12741434689E+03 -0.44200687284E+03  0.47722636364E+03  0.12500000000E+03 0.  0.
         25    1    1    2    0    0 -0.48665529300E+01  0.81853909431E+02 -0.71806284755E+03  0.73345960956E+03  0.12500000000E+03 0.  0.
</event>
<event>
 5    0  0.5829567E-005  0.2449704E+03  0.7546771E-02  0.1116525E+00
         21   -1    0    0  502  501  0.00000000000E+00  0.00000000000E+00  0.13312254191E+04  0.13312254191E+04  0.00000000000E+00 0.  1.
         21   -1    0    0  501  502 -0.00000000000E+00 -0.00000000000E+00 -0.45079121998E+02  0.45079121998E+02  0.00000000000E+00 0.  1.
         25    1    1    2    0    0 -0.13428895387E+02  0.81155829453E+02  0.28122067237E+03  0.31855403066E+03  0.12500000000E+03 0.  0.
         25    1    1    2    0    0  0.21427801853E+01  0.55859485875E+02  0.53948373748E+03  0.55659013347E+03  0.12500000000E+03 0.  0.
         25    1    1    2    0    0  0.11286115201E+02 -0.13701531533E+03  0.46544188727E+03  0.50116037698E+03  0.12500000000E+03 0.  0.
</event>
<event>
 5    0  0.5829567E-005  0.3041952E+03  0.7546771E-02  0.1083162E+00
         21   -1    0    0  502  501  0.00000000000E+00  0.00000000000E+00  0.18592620474E+04  0.18592620474E+04  0.00000000000E+00 0. -1.
         21   -1    0    0  501  502 -0.00000000000E+00 -0.00000000000E+00 -0.49769590718E+02  0.49769590718E+02  0.00000000000E+00 0. -1.
         25    1    1    2    0    0  0.16096765528E+03 -0.98859695629E+02  0.37025098877E+03  0.43404449098E+03  0.12500000000E+03 0.  0.
         25    1    1    2    0    0 -0.11453339773E+03  0.75102326389E+02  0.90898709774E+03  0.92770728276E+03  0.12500000000E+03 0.  0.
         25    1    1    2    0    0 -0.46434257546E+02  0.23757369240E+02  0.53025437017E+03  0.54727986438E+03  0.12500000000E+03 0.  0.
</event>
<event>
 5    0  0.5829567E-005  0.2405714E+03  0.7546771E-02  0.1119413E+00
         21   -1    0    0  502  501  0.00000000000E+00  0.00000000000E+00  0.69134441927E+03  0.69134441927E+03  0.00000000000E+00 0. -1.
         21   -1    0    0  501  502 -0.00000000000E+00 -0.00000000000E+00 -0.83713107079E+02  0.83713107079E+02  0.00000000000E+00 0. -1.
         25    1    1    2    0    0 -0.83033494588E+02  0.95972348418E+02  0.18898591663E+03  0.25970354169E+03  0.12500000000E+03 0.  0.
         25    1    1    2    0    0  0.77537208930E+02 -0.34802602135E+02  0.15109040120E+03  0.21372072716E+03  0.12500000000E+03 0.  0.
         25    1    1    2    0    0  0.54962856578E+01 -0.61169746283E+02  0.26755499437E+03  0.30163325749E+03  0.12500000000E+03 0.  0.
</event>
<event>
 5    0  0.5829567E-005  0.3883607E+03  0.7546771E-02  0.1047886E+00
         21   -1    0    0  502  501  0.00000000000E+00  0.00000000000E+00  0.88710761451E+03  0.88710761451E+03  0.00000000000E+00 0. -1.
         21   -1    0    0  501  502 -0.00000000000E+00 -0.00000000000E+00 -0.17001772350E+03  0.17001772350E+03  0.00000000000E+00 0.  1.
         25    1    1    2    0    0  0.16093108015E+03  0.25126003086E+03  0.52827229262E+03  0.61945704517E+03  0.12500000000E+03 0.  0.
         25    1    1    2    0    0 -0.71218790948E+02 -0.80741718737E+02  0.85757986020E+02  0.18593217445E+03  0.12500000000E+03 0.  0.
         25    1    1    2    0    0 -0.89712289199E+02 -0.17051831212E+03  0.10305961237E+03  0.25173611840E+03  0.12500000000E+03 0.  0.
</event>
<event>
 5    0  0.5829567E-005  0.2603975E+03  0.7546771E-02  0.1106905E+00
         21   -1    0    0  502  501  0.00000000000E+00  0.00000000000E+00  0.21196007071E+03  0.21196007071E+03  0.00000000000E+00 0. -1.
         21   -1    0    0  501  502 -0.00000000000E+00 -0.00000000000E+00 -0.31990385119E+03  0.31990385119E+03  0.00000000000E+00 0. -1.
         25    1    1    2    0    0 -0.44972511632E+02 -0.68269824169E+02 -0.31646680778E+02  0.15267549934E+03  0.12500000000E+03 0.  0.
         25    1    1    2    0    0  0.99829806608E+02 -0.42962878094E+02  0.37102514368E+02  0.16974509052E+03  0.12500000000E+03 0.  0.
         25    1    1    2    0    0 -0.54857294976E+02  0.11123270226E+03 -0.11339961407E+03  0.20944333204E+03  0.12500000000E+03 0.  0.
</event>
<event>
 5    0  0.5829567E-005  0.2817247E+03  0.7546771E-02  0.1094751E+00
         21   -1    0    0  502  501  0.00000000000E+00  0.00000000000E+00  0.24171688927E+04  0.24171688927E+04  0.00000000000E+00 0.  1.
         21   -1    0    0  501  502 -0.00000000000E+00 -0.00000000000E+00 -0.32835441020E+02  0.32835441020E+02  0.00000000000E+00 0.  1.
         25    1    1    2    0    0 -0.91860295539E+02  0.34298028446E+02  0.44882952082E+03  0.47611722024E+03  0.12500000000E+03 0.  0.
         25    1    1    2    0    0  0.15972944666E+03 -0.93493371831E+02  0.91748423946E+03  0.94427582642E+03  0.12500000000E+03 0.  0.
         25    1    1    2    0    0 -0.67869151125E+02  0.59195343385E+02  0.10180196914E+04  0.10296112870E+04  0.12500000000E+03 0.  0.
</event>
<event>
 5    0  0.5829567E-005  0.3950086E+03  0.7546771E-02  0.1045522E+00
         21   -1    0    0  502  501  0.00000000000E+00  0.00000000000E+00  0.14558947714E+03  0.14558947714E+03  0.00000000000E+00 0. -1.
         21   -1    0    0  501  502 -0.00000000000E+00 -0.00000000000E+00 -0.10717242484E+04  0.10717242484E+04  0.00000000000E+00 0. -1.
         25    1    1    2    0    0  0.14681667028E+03  0.81116357952E+02 -0.20836665082E+02  0.21022408237E+03  0.12500000000E+03 0.  0.
         25    1    1    2    0    0  0.79346664578E+02  0.41116832502E+02 -0.27555280509E+03  0.31550092787E+03  0.12500000000E+03 0.  0.
         25    1    1    2    0    0 -0.22616333485E+03 -0.12223319045E+03 -0.62974530111E+03  0.69158871531E+03  0.12500000000E+03 0.  0.
</event>
<event>
 5    0  0.5829567E-005  0.3602254E+03  0.7546771E-02  0.1058495E+00
         21   -1    0    0  502  501  0.00000000000E+00  0.00000000000E+00  0.23119356327E+03  0.23119356327E+03  0.00000000000E+00 0.  1.
         21   -1    0    0  501  502 -0.00000000000E+00 -0.00000000000E+00 -0.56127151248E+03  0.56127151248E+03  0.00000000000E+00 0.  1.
         25    1    1    2    0    0 -0.18052506433E+03 -0.18737769125E+03 -0.17430877745E+02  0.28918598432E+03  0.12500000000E+03 0.  0.
         25    1    1    2    0    0  0.17088661933E+03  0.94589292452E+02 -0.14119767029E+03  0.27149797975E+03  0.12500000000E+03 0.  0.
         25    1    1    2    0    0  0.96384450031E+01  0.92788398793E+02 -0.17144940116E+03  0.23178111168E+03  0.12500000000E+03 0.  0.
</event>
<event>
 5    0  0.5829567E-005  0.2682803E+03  0.7546771E-02  0.1102268E+00
         21   -1    0    0  502  501  0.00000000000E+00  0.00000000000E+00  0.97789893871E+03  0.97789893871E+03  0.00000000000E+00 0. -1.
         21   -1    0    0  501  502 -0.00000000000E+00 -0.00000000000E+00 -0.73600996500E+02  0.73600996500E+02  0.00000000000E+00 0. -1.
         25    1    1    2    0    0  0.67307497746E+02 -0.39955151256E+02  0.25582310368E+03  0.29529167571E+03  0.12500000000E+03 0.  0.
         25    1    1    2    0    0  0.49830551191E+02 -0.78651600647E+02  0.41486693106E+03  0.44318024392E+03  0.12500000000E+03 0.  0.
         25    1    1    2    0    0 -0.11713804894E+03  0.11860675190E+03  0.23360790747E+03  0.31302801558E+03  0.12500000000E+03 0.  0.
</event>
<event>
 5    0  0.5829567E-005  0.2852076E+03  0.7546771E-02  0.1092878E+00
         21   -1    0    0  502  501  0.00000000000E+00  0.00000000000E+00  0.13508702177E+03  0.13508702177E+03  0.00000000000E+00 0.  1.
         21   -1    0    0  501  502 -0.00000000000E+00 -0.00000000000E+00 -0.60215516427E+03  0.60215516427E+03  0.00000000000E+00 0.  1.
         25    1    1    2    0    0  0.71434409140E+02  0.70650082120E+02 -0.26387586387E+03  0.30878759762E+03  0.12500000000E+03 0.  0.
         25    1    1    2    0    0 -0.42980436291E+02 -0.16115681798E+03 -0.62257777585E+02  0.21753130523E+03  0.12500000000E+03 0.  0.
         25    1    1    2    0    0 -0.28453972849E+02  0.90506735863E+02 -0.14093450105E+03  0.21092328319E+03  0.12500000000E+03 0.  0.
</event>
<event>
 5    0  0.5829567E-005  0.3309747E+03  0.7546771E-02  0.1070706E+00
         21   -1    0    0  502  501  0.00000000000E+00  0.00000000000E+00  0.16783270046E+03  0.16783270046E+03  0.00000000000E+00 0.  1.
         21   -1    0    0  501  502 -0.00000000000E+00 -0.00000000000E+00 -0.65269914044E+03  0.65269914044E+03  0.00000000000E+00 0.  1.
         25    1    1    2    0    0  0.46360431240E+01 -0.51880912965E+02 -0.89241475719E+02  0.16217941612E+03  0.12500000000E+03 0.  0.
         25    1    1    2    0    0 -0.12944768212E+03  0.49493377281E+02  0.37699289594E+02  0.19040098013E+03  0.12500000000E+03 0.  0.
         25    1    1    2    0    0  0.12481163899E+03  0.23875356843E+01 -0.43332425386E+03  0.46795144464E+03  0.12500000000E+03 0.  0.
</event>
<event>
 5    0  0.6008150E-005  0.2924229E+03  0.7546771E-02  0.1089091E+00
         21   -1    0    0  502  501  0.00000000000E+00  0.00000000000E+00  0.43509143375E+03  0.43509143375E+03  0.00000000000E+00 0.  1.
         21   -1    0    0  501  502 -0.00000000000E+00 -0.00000000000E+00 -0.19653600698E+03  0.19653600698E+03  0.00000000000E+00 0.  1.
         25    1    1    2    0    0 -0.91808241527E+02  0.76515942513E+02 -0.59725045023E+02  0.18296317573E+03  0.12500000000E+03 0.  0.
         25    1    1    2    0    0  0.11223131286E+03 -0.49632481590E+01  0.79460253049E+02  0.18590167625E+03  0.12500000000E+03 0.  0.
         25    1    1    2    0    0 -0.20423071336E+02 -0.71552694354E+02  0.21882021874E+03  0.26276258874E+03  0.12500000000E+03 0.  0.
</event>
<event>
 5    0  0.5829567E-005  0.4234857E+03  0.7546771E-02  0.1035938E+00
         21   -1    0    0  502  501  0.00000000000E+00  0.00000000000E+00  0.24760013659E+03  0.24760013659E+03  0.00000000000E+00 0. -1.
         21   -1    0    0  501  502 -0.00000000000E+00 -0.00000000000E+00 -0.72431369904E+03  0.72431369904E+03  0.00000000000E+00 0. -1.
         25    1    1    2    0    0 -0.93212929620E+02  0.21713829855E+03 -0.17128939181E+03  0.31749448294E+03  0.12500000000E+03 0.  0.
         25    1    1    2    0    0 -0.14129929796E+03  0.44949716969E+02 -0.44384963410E+02  0.19894972640E+03  0.12500000000E+03 0.  0.
         25    1    1    2    0    0  0.23451222758E+03 -0.26208801552E+03 -0.26103920723E+03  0.45546962629E+03  0.12500000000E+03 0.  0.
</event>
<event>
 5    0  0.5829567E-005  0.2949304E+03  0.7546771E-02  0.1087803E+00
         21   -1    0    0  502  501  0.00000000000E+00  0.00000000000E+00  0.15541525044E+03  0.15541525044E+03  0.00000000000E+00 0. -1.
         21   -1    0    0  501  502 -0.00000000000E+00 -0.00000000000E+00 -0.55968737526E+03  0.55968737526E+03  0.00000000000E+00 0. -1.
         25    1    1    2    0    0 -0.95553777911E-01  0.17316189825E+03 -0.13252902105E+03  0.25134437244E+03  0.12500000000E+03 0.  0.
         25    1    1    2    0    0  0.84922991583E+02 -0.74588897745E+02 -0.45788272445E+02  0.17463385714E+03  0.12500000000E+03 0.  0.
         25    1    1    2    0    0 -0.84827437805E+02 -0.98573000505E+02 -0.22595483133E+03  0.28912439612E+03  0.12500000000E+03 0.  0.
</event>
<event>
 5    0  0.5829567E-005  0.2735223E+03  0.7546771E-02  0.1099280E+00
         21   -1    0    0  502  501  0.00000000000E+00  0.00000000000E+00  0.90654515159E+03  0.90654515159E+03  0.00000000000E+00 0.  1.
         21   -1    0    0  501  502 -0.00000000000E+00 -0.00000000000E+00 -0.82527003649E+02  0.82527003649E+02  0.00000000000E+00 0.  1.
         25    1    1    2    0    0 -0.24859821135E+02  0.14640590383E+02  0.12411114827E+03  0.17849631570E+03  0.12500000000E+03 0.  0.
         25    1    1    2    0    0 -0.11498877110E+03 -0.37043447803E+02  0.15165407880E+03  0.23069155625E+03  0.12500000000E+03 0.  0.
         25    1    1    2    0    0  0.13984859224E+03  0.22402857420E+02  0.54825292087E+03  0.57988428329E+03  0.12500000000E+03 0.  0.
</event>
<event>
 5    0  0.5829567E-005  0.2210870E+03  0.7546771E-02  0.1133075E+00
         21   -1    0    0  502  501  0.00000000000E+00  0.00000000000E+00  0.68348718084E+02  0.68348718084E+02  0.00000000000E+00 0.  1.
         21   -1    0    0  501  502 -0.00000000000E+00 -0.00000000000E+00 -0.71514813442E+03  0.71514813442E+03  0.00000000000E+00 0.  1.
         25    1    1    2    0    0 -0.57525394058E+01 -0.10363950855E+03 -0.23626890793E+03  0.28674420011E+03  0.12500000000E+03 0.  0.
         25    1    1    2    0    0 -0.23426166110E+02  0.33597941942E+02 -0.22362254543E+03  0.25944103335E+03  0.12500000000E+03 0.  0.
         25    1    1    2    0    0  0.29178705516E+02  0.70041566611E+02 -0.18690796298E+03  0.23731161905E+03  0.12500000000E+03 0.  0.
</event>
<event>
 5    0  0.5829567E-005  0.3133044E+03  0.7546771E-02  0.1078773E+00
         21   -1    0    0  502  501  0.00000000000E+00  0.00000000000E+00  0.61108283223E+03  0.61108283223E+03  0.00000000000E+00 0. -1.
         21   -1    0    0  501  502 -0.00000000000E+00 -0.00000000000E+00 -0.16063227649E+03  0.16063227649E+03  0.00000000000E+00 0. -1.
         25    1    1    2    0    0 -0.26815730760E+02 -0.14278998254E+03  0.84009012534E+02  0.20926198106E+03  0.12500000000E+03 0.  0.
         25    1    1    2    0    0  0.16998849350E+02 -0.20053032457E+02  0.32982402848E+03  0.35369474799E+03  0.12500000000E+03 0.  0.
         25    1    1    2    0    0  0.98168814100E+01  0.16284301500E+03  0.36617514725E+02  0.20875837966E+03  0.12500000000E+03 0.  0.
</event>
<event>
 5    0  0.7538208E-005  0.3266532E+03  0.7546771E-02  0.1072627E+00
         21   -1    0    0  502  501  0.00000000000E+00  0.00000000000E+00  0.37901188357E+03  0.37901188357E+03  0.00000000000E+00 0.  1.
         21   -1    0    0  501  502 -0.00000000000E+00 -0.00000000000E+00 -0.28152763390E+03  0.28152763390E+03  0.00000000000E+00 0.  1.
         25    1    1    2    0    0  0.31528025538E+02 -0.94323124403E+02  0.26235895941E+02  0.16187708432E+03  0.12500000000E+03 0.  0.
         25    1    1    2    0    0 -0.52924228238E+02  0.20437631670E+03  0.17492557311E+03  0.30132143782E+03  0.12500000000E+03 0.  0.
         25    1    1    2    0    0  0.21396202700E+02 -0.11005319229E+03 -0.10367721938E+03  0.19734099534E+03  0.12500000000E+03 0.  0.
</event>
<event>
 5    0  0.5829567E-005  0.3072336E+03  0.7546771E-02  0.1081680E+00
         21   -1    0    0  502  501  0.00000000000E+00  0.00000000000E+00  0.78231206355E+03  0.78231206355E+03  0.00000000000E+00 0. -1.
         21   -1    0    0  501  502 -0.00000000000E+00 -0.00000000000E+00 -0.12065831404E+03  0.12065831404E+03  0.00000000000E+00 0. -1.
         25    1    1    2    0    0  0.17929992906E+02  0.19893489540E+03  0.15293723690E+03  0.28091168662E+03  0.12500000000E+03 0.  0.
         25    1    1    2    0    0 -0.21596835243E+02 -0.16501670014E+03  0.40772105597E+03  0.45777548438E+03  0.12500000000E+03 0.  0.
         25    1    1    2    0    0  0.36668423367E+01 -0.33918195252E+02  0.10099545665E+03  0.16428320659E+03  0.12500000000E+03 0.  0.
</event>
<event>
 5    0  0.5829567E-005  0.2199093E+03  0.7546771E-02  0.1133951E+00
         21   -1    0    0  502  501  0.00000000000E+00  0.00000000000E+00  0.41768965439E+03  0.41768965439E+03  0.00000000000E+00 0.  1.
         21   -1    0    0  501  502 -0.00000000000E+00 -0.00000000000E+00 -0.11577994215E+03  0.11577994215E+03  0.00000000000E+00 0.  1.
         25    1    1    2    0    0  0.15677501467E+02  0.14215103895E+02  0.30290943479E+02  0.13034720744E+03  0.12500000000E+03 0.  0.
         25    1    1    2    0    0 -0.86535389309E+02  0.43429377264E+01  0.12339782923E+03  0.19585519898E+03  0.12500000000E+03 0.  0.
         25    1    1    2    0    0  0.70857887842E+02 -0.18558041621E+02  0.14822093954E+03  0.20726719011E+03  0.12500000000E+03 0.  0.
</event>
<event>
 5    0  0.5829567E-005  0.3074753E+03  0.7546771E-02  0.1081562E+00
         21   -1    0    0  502  501  0.00000000000E+00  0.00000000000E+00  0.20108706394E+04  0.20108706394E+04  0.00000000000E+00 0.  1.
         21   -1    0    0  501  502 -0.00000000000E+00 -0.00000000000E+00 -0.47015002720E+02  0.47015002720E+02  0.00000000000E+00 0.  1.
         25    1    1    2    0    0 -0.99223206991E+02 -0.13473611321E+03  0.44893079199E+03  0.49513929454E+03  0.12500000000E+03 0.  0.
         25    1    1    2    0    0 -0.21444138454E+02 -0.48490888047E+01  0.89547173247E+03  0.90442135555E+03  0.12500000000E+03 0.  0.
         25    1    1    2    0    0  0.12066734545E+03  0.13958520201E+03  0.61945311227E+03  0.65832499206E+03  0.12500000000E+03 0.  0.
</event>
<event>
 5    0  0.5829567E-005  0.3874010E+03  0.7546771E-02  0.1048232E+00
         21   -1    0    0  502  501  0.00000000000E+00  0.00000000000E+00  0.28504742547E+03  0.28504742547E+03  0.00000000000E+00 0. -1.
         21   -1    0    0  501  502 -0.00000000000E+00 -0.00000000000E+00 -0.52650711791E+03  0.52650711791E+03  0.00000000000E+00 0. -1.
         25    1    1    2    0    0  0.15162226313E+03 -0.97012466652E+02  0.15542893255E+03  0.26867058349E+03  0.12500000000E+03 0.  0.
         25    1    1    2    0    0 -0.17535721910E+03  0.11006955133E+03 -0.27477889784E+03  0.36605177656E+03  0.12500000000E+03 0.  0.
         25    1    1    2    0    0  0.23734955977E+02 -0.13057084676E+02 -0.12210972715E+03  0.17683218333E+03  0.12500000000E+03 0.  0.
</event>
<event>
 5    0  0.5829567E-005  0.4265679E+03  0.7546771E-02  0.1034950E+00
         21   -1    0    0  502  501  0.00000000000E+00  0.00000000000E+00  0.14103340340E+03  0.14103340340E+03  0.00000000000E+00 0. -1.
         21   -1    0    0  501  502 -0.00000000000E+00 -0.00000000000E+00 -0.12901917550E+04  0.12901917550E+04  0.00000000000E+00 0. -1.
         25    1    1    2    0    0  0.90669384353E+01  0.54080897141E+02 -0.64266048461E+02  0.15087106347E+03  0.12500000000E+03 0.  0.
         25    1    1    2    0    0 -0.13559871107E+03  0.24923198332E+03 -0.36302274469E+03  0.47740350345E+03  0.12500000000E+03 0.  0.
         25    1    1    2    0    0  0.12653177264E+03 -0.30331288046E+03 -0.72186955845E+03  0.80295059148E+03  0.12500000000E+03 0.  0.
</event>
<event>
 5    0  0.5829567E-005  0.3432262E+03  0.7546771E-02  0.1065430E+00
         21   -1    0    0  502  501  0.00000000000E+00  0.00000000000E+00  0.20858195060E+03  0.20858195060E+03  0.00000000000E+00 0. -1.
         21   -1    0    0  501  502 -0.00000000000E+00 -0.00000000000E+00 -0.56478632448E+03  0.56478632448E+03  0.00000000000E+00 0. -1.
         25    1    1    2    0    0 -0.55857230755E+02 -0.10580119358E+02 -0.60239611290E+02  0.14995259225E+03  0.12500000000E+03 0.  0.
         25    1    1    2    0    0 -0.11982813956E+02 -0.16099760556E+03  0.51545683949E+02  0.21058436400E+03  0.12500000000E+03 0.  0.
         25    1    1    2    0    0  0.67840044711E+02  0.17157772492E+03 -0.34751044654E+03  0.41283131883E+03  0.12500000000E+03 0.  0.
</event>
<event>
 5    0  0.5829567E-005  0.3138955E+03  0.7546771E-02  0.1078494E+00
         21   -1    0    0  502  501  0.00000000000E+00  0.00000000000E+00  0.12898154806E+03  0.12898154806E+03  0.00000000000E+00 0.  1.
         21   -1    0    0  501  502 -0.00000000000E+00 -0.00000000000E+00 -0.76391083683E+03  0.76391083683E+03  0.00000000000E+00 0.  1.
         25    1    1    2    0    0 -0.34101295187E+02 -0.16789703045E+03 -0.45638315517E+03  0.50325231792E+03  0.12500000000E+03 0.  0.
         25    1    1    2    0    0  0.98703980174E+02  0.10793948124E+03 -0.11391839656E+03  0.22359742482E+03  0.12500000000E+03 0.  0.
         25    1    1    2    0    0 -0.64602684988E+02  0.59957549213E+02 -0.64627737045E+02  0.16604264215E+03  0.12500000000E+03 0.  0.
</event>
<event>
 5    0  0.5829567E-005  0.4175962E+03  0.7546771E-02  0.1037852E+00
         21   -1    0    0  502  501  0.00000000000E+00  0.00000000000E+00  0.90345501800E+02  0.90345501800E+02  0.00000000000E+00 0.  1.
         21   -1    0    0  501  502 -0.00000000000E+00 -0.00000000000E+00 -0.19302186932E+04  0.19302186932E+04  0.00000000000E+00 0.  1.
         25    1    1    2    0    0 -0.19642795931E+02  0.18904067689E+03 -0.39863060736E+03  0.45897012765E+03  0.12500000000E+03 0.  0.
         25    1    1    2    0    0 -0.20124794832E+03  0.41701424971E+02 -0.41660982088E+03  0.48107014915E+03  0.12500000000E+03 0.  0.
         25    1    1    2    0    0  0.22089074425E+03 -0.23074210186E+03 -0.10246327631E+04  0.10805239182E+04  0.12500000000E+03 0.  0.
</event>
<event>
 5    0  0.5829567E-005  0.3736566E+03  0.7546771E-02  0.1053304E+00
         21   -1    0    0  502  501  0.00000000000E+00  0.00000000000E+00  0.13597330863E+04  0.13597330863E+04  0.00000000000E+00 0.  1.
         21   -1    0    0  501  502 -0.00000000000E+00 -0.00000000000E+00 -0.10268136605E+03  0.10268136605E+03  0.00000000000E+00 0.  1.
         25    1    1    2    0    0 -0.18220317540E+03  0.34762538990E+02  0.37230683527E+03  0.43433145273E+03  0.12500000000E+03 0.  0.
         25    1    1    2    0    0  0.17831919681E+03  0.66949777528E+02  0.82546607417E+03  0.85632893695E+03  0.12500000000E+03 0.  0.
         25    1    1    2    0    0  0.38839785912E+01 -0.10171231652E+03  0.59278810768E+02  0.17175406262E+03  0.12500000000E+03 0.  0.
</event>
<event>
 5    0  0.5829567E-005  0.2656444E+03  0.7546771E-02  0.1103799E+00
         21   -1    0    0  502  501  0.00000000000E+00  0.00000000000E+00  0.74442147867E+02  0.74442147867E+02  0.00000000000E+00 0.  1.
         21   -1    0    0  501  502 -0.00000000000E+00 -0.00000000000E+00 -0.94794345435E+03  0.94794345435E+03  0.00000000000E+00 0.  1.
         25    1    1    2    0    0  0.12449660529E+03  0.63217537464E+02 -0.44744776657E+03  0.48510861215E+03  0.12500000000E+03 0.  0.
         25    1    1    2    0    0  0.25769862293E+01  0.24610783938E+02 -0.18915881218E+03  0.22807539930E+03  0.12500000000E+03 0.  0.
         25    1    1    2    0    0 -0.12707359152E+03 -0.87828321402E+02 -0.23689472773E+03  0.30920159076E+03  0.12500000000E+03 0.  0.
</event>
<event>
 5    0  0.5829567E-005  0.3351332E+03  0.7546771E-02  0.1068888E+00
         21   -1    0    0  502  501  0.00000000000E+00  0.00000000000E+00  0.33719329459E+03  0.33719329459E+03  0.00000000000E+00 0. -1.
         21   -1    0    0  501  502 -0.00000000000E+00 -0.00000000000E+00 -0.33308576305E+03  0.33308576305E+03  0.00000000000E+00 0. -1.
         25    1    1    2    0    0  0.12699807080E+03 -0.13263714462E+02  0.21259195893E+02  0.17994829679E+03  0.12500000000E+03 0.  0.
         25    1    1    2    0    0 -0.96245357032E+02  0.19468253758E+03  0.54865741558E+02  0.25651453913E+03  0.12500000000E+03 0.  0.
         25    1    1    2    0    0 -0.30752713767E+02 -0.18141882312E+03 -0.72017405908E+02  0.23381622172E+03  0.12500000000E+03 0.  0.
</event>
<event>
 5    0  0.5829567E-005  0.2634913E+03  0.7546771E-02  0.1105064E+00
         21   -1    0    0  502  501  0.00000000000E+00  0.00000000000E+00  0.14729442103E+03  0.14729442103E+03  0.00000000000E+00 0. -1.
         21   -1    0    0  501  502 -0.00000000000E+00 -0.00000000000E+00 -0.47135291357E+03  0.47135291357E+03  0.00000000000E+00 0. -1.
         25    1    1    2    0    0  0.88505675532E+02  0.49760615458E+02 -0.23755057968E+03  0.28699242387E+03  0.12500000000E+03 0.  0.
         25    1    1    2    0    0  0.40441210611E+02  0.51018400332E+01 -0.23346999231E+02  0.13353502410E+03  0.12500000000E+03 0.  0.
         25    1    1    2    0    0 -0.12894688614E+03 -0.54862455492E+02 -0.63160913637E+02  0.19811988663E+03  0.12500000000E+03 0.  0.
</event>
<event>
 5    0  0.5829567E-005  0.3272112E+03  0.7546771E-02  0.1072378E+00
         21   -1    0    0  502  501  0.00000000000E+00  0.00000000000E+00  0.90006827937E+02  0.90006827937E+02  0.00000000000E+00 0.  1.
         21   -1    0    0  501  502 -0.00000000000E+00 -0.00000000000E+00 -0.11895450787E+04  0.11895450787E+04  0.00000000000E+00 0.  1.
         25    1    1    2    0    0 -0.15841802889E+03 -0.29318310155E+02 -0.16846905071E+03  0.26450454861E+03  0.12500000000E+03 0.  0.
         25    1    1    2    0    0  0.11214961079E+03  0.13311524976E+03 -0.67560809761E+03  0.70877958949E+03  0.12500000000E+03 0.  0.
         25    1    1    2    0    0  0.46268418094E+02 -0.10379693960E+03 -0.25546110242E+03  0.30626776852E+03  0.12500000000E+03 0.  0.
</event>
<event>
 5    0  0.5829567E-005  0.2468241E+03  0.7546771E-02  0.1115329E+00
         21   -1    0    0  502  501  0.00000000000E+00  0.00000000000E+00  0.18759449582E+03  0.18759449582E+03  0.00000000000E+00 0. -1.
         21   -1    0    0  501  502 -0.00000000000E+00 -0.00000000000E+00 -0.32475429006E+03  0.32475429006E+03  0.00000000000E+00 0. -1.
         25    1    1    2    0    0 -0.18765995396E+01 -0.73473127577E+02  0.68531118767E+02  0.16038496295E+03  0.12500000000E+03 0.  0.
         25    1    1    2    0    0  0.57394527054E+02  0.25589076309E+02 -0.11406892248E+03  0.18051496236E+03  0.12500000000E+03 0.  0.
         25    1    1    2    0    0 -0.55517927514E+02  0.47884051268E+02 -0.91621990530E+02  0.17144886057E+03  0.12500000000E+03 0.  0.
</event>
<event>
 5    0  0.5829567E-005  0.4353286E+03  0.7546771E-02  0.1032190E+00
         21   -1    0    0  502  501  0.00000000000E+00  0.00000000000E+00  0.48282739729E+03  0.48282739729E+03  0.00000000000E+00 0. -1.
         21   -1    0    0  501  502 -0.00000000000E+00 -0.00000000000E+00 -0.39250259447E+03  0.39250259447E+03  0.00000000000E+00 0. -1.
         25    1    1    2    0    0  0.24625008155E+03 -0.69712564115E+02 -0.50731845578E+02  0.28930548632E+03  0.12500000000E+03 0.  0.
         25    1    1    2    0    0 -0.93145113173E+02  0.46581505438E+02 -0.15801052246E+03  0.22679985442E+03  0.12500000000E+03 0.  0.
         25    1    1    2    0    0 -0.15310496838E+03  0.23131058678E+02  0.29906717085E+03  0.35922465102E+03  0.12500000000E+03 0.  0.
</event>
<event>
 5    0  0.5829567E-005  0.2652177E+03  0.7546771E-02  0.1104048E+00
         21   -1    0    0  502  501  0.00000000000E+00  0.00000000000E+00  0.26775140917E+03  0.26775140917E+03  0.00000000000E+00 0.  1.
         21   -1    0    0  501  502 -0.00000000000E+00 -0.00000000000E+00 -0.26270800667E+03  0.26270800667E+03  0.00000000000E+00 0.  1.
         25    1    1    2    0    0  0.22047537335E+02  0.59482270977E+02  0.21167892612E+02  0.14176499618E+03  0.12500000000E+03 0.  0.
         25    1    1    2    0    0  0.92251001423E+02  0.57476244253E+02  0.49102140366E+02  0.17277090642E+03  0.12500000000E+03 0.  0.
         25    1    1    2    0    0 -0.11429853876E+03 -0.11695851523E+03 -0.65226630474E+02  0.21592351324E+03  0.12500000000E+03 0.  0.
</event>
<event>
 5    0  0.5829567E-005  0.2504311E+03  0.7546771E-02  0.1113033E+00
         21   -1    0    0  502  501  0.00000000000E+00  0.00000000000E+00  0.50150784027E+03  0.50150784027E+03  0.00000000000E+00 0.  1.
         21   -1    0    0  501  502 -0.00000000000E+00 -0.00000000000E+00 -0.12505434072E+03  0.12505434072E+03  0.00000000000E+00 0.  1.
         25    1    1    2    0    0 -0.13364050828E+02 -0.65464392800E+02  0.18804603717E+03  0.23547929139E+03  0.12500000000E+03 0.  0.
         25    1    1    2    0    0  0.43519537881E+02 -0.26119194893E+02 -0.12594047785E+02  0.13549823821E+03  0.12500000000E+03 0.  0.
         25    1    1    2    0    0 -0.30155487053E+02  0.91583587693E+02  0.20100151016E+03  0.25558465138E+03  0.12500000000E+03 0.  0.
</event>
<event>
 5    0  0.5829567E-005  0.2528156E+03  0.7546771E-02  0.1111538E+00
         21   -1    0    0  502  501  0.00000000000E+00  0.00000000000E+00  0.90354397172E+03  0.90354397172E+03  0.00000000000E+00 0.  1.
         21   -1    0    0  501  502 -0.00000000000E+00 -0.00000000000E+00 -0.70738927159E+02  0.70738927159E+02  0.00000000000E+00 0.  1.
         25    1    1    2    0    0  0.37574491619E+02 -0.62290285067E+02  0.14699186544E+03  0.20621234332E+03  0.12500000000E+03 0.  0.
         25    1    1    2    0    0  0.94555151131E+02  0.16245286289E+02  0.33609780881E+03  0.37120253638E+03  0.12500000000E+03 0.  0.
         25    1    1    2    0    0 -0.13212964275E+03  0.46044998778E+02  0.34971537032E+03  0.39686801918E+03  0.12500000000E+03 0.  0.
</event>
<event>
 5    0  0.5829567E-005  0.3705349E+03  0.7546771E-02  0.1054489E+00
         21   -1    0    0  502  501  0.00000000000E+00  0.00000000000E+00  0.39103774084E+03  0.39103774084E+03  0.00000000000E+00 0.  1.
         21   -1    0    0  501  502 -0.00000000000E+00 -0.00000000000E+00 -0.35110703129E+03  0.35110703129E+03  0.00000000000E+00 0.  1.
         25    1    1    2    0    0 -0.16840486737E+03  0.17232313305E+03 -0.15181950049E+03  0.31101386186E+03  0.12500000000E+03 0.  0.
         25    1    1    2    0    0  0.13642461217E+03 -0.80173870902E+02  0.18303996203E+03  0.27233830447E+03  0.12500000000E+03 0.  0.
         25    1    1    2    0    0  0.31980255200E+02 -0.92149262144E+02  0.87102480035E+01  0.15879260580E+03  0.12500000000E+03 0.  0.
</event>
<event>
 5    0  0.6106443E-005  0.3599021E+03  0.7546771E-02  0.1058623E+00
         21   -1    0    0  502  501  0.00000000000E+00  0.00000000000E+00  0.19424172478E+03  0.19424172478E+03  0.00000000000E+00 0.  1.
         21   -1    0    0  501  502 -0.00000000000E+00 -0.00000000000E+00 -0.66684699175E+03  0.66684699175E+03  0.00000000000E+00 0.  1.
         25    1    1    2    0    0 -0.96701492398E+02 -0.46600356722E+02 -0.25388981473E+03  0.30266782106E+03  0.12500000000E+03 0.  0.
         25    1    1    2    0    0  0.21829300393E+02 -0.11832826085E+03  0.76984050259E+02  0.18981475091E+03  0.12500000000E+03 0.  0.
         25    1    1    2    0    0  0.74872192005E+02  0.16492861757E+03 -0.29569950250E+03  0.36860614456E+03  0.12500000000E+03 0.  0.
</event>
<event>
 5    0  0.5829567E-005  0.3332468E+03  0.7546771E-02  0.1069709E+00
         21   -1    0    0  502  501  0.00000000000E+00  0.00000000000E+00  0.22509226061E+03  0.22509226061E+03  0.00000000000E+00 0. -1.
         21   -1    0    0  501  502 -0.00000000000E+00 -0.00000000000E+00 -0.49336835146E+03  0.49336835146E+03  0.00000000000E+00 0. -1.
         25    1    1    2    0    0 -0.87051562327E+02  0.96765390404E+02 -0.20309458769E+03  0.27168718562E+03  0.12500000000E+03 0.  0.
         25    1    1    2    0    0  0.20157831962E+03 -0.11877868425E+03 -0.74599657729E+02  0.27555816756E+03  0.12500000000E+03 0.  0.
         25    1    1    2    0    0 -0.11452675730E+03  0.22013293842E+02  0.94181545670E+01  0.17121525889E+03  0.12500000000E+03 0.  0.
</event>
<event>
 5    0  0.5829567E-005  0.3530001E+03  0.7546771E-02  0.1061390E+00
         21   -1    0    0  502  501  0.00000000000E+00  0.00000000000E+00  0.75209958351E+02  0.75209958351E+02  0.00000000000E+00 0.  1.
         21   -1    0    0  501  502 -0.00000000000E+00 -0.00000000000E+00 -0.16568163351E+04  0.16568163351E+04  0.00000000000E+00 0.  1.
         25    1    1    2    0    0 -0.21228896284E+03  0.87336616564E+02 -0.50765780411E+03  0.57099538913E+03  0.12500000000E+03 0.  0.
         25    1    1    2    0    0  0.13293889636E+03 -0.15710816601E+03 -0.39479106174E+03  0.46242913881E+03  0.12500000000E+03 0.  0.
         25    1    1    2    0    0  0.79350066481E+02  0.69771549441E+02 -0.67915751094E+03  0.69860176555E+03  0.12500000000E+03 0.  0.
</event>
<event>
 5    0  0.5829567E-005  0.2513885E+03  0.7546771E-02  0.1112430E+00
         21   -1    0    0  502  501  0.00000000000E+00  0.00000000000E+00  0.32479951515E+02  0.32479951515E+02  0.00000000000E+00 0.  1.
         21   -1    0    0  501  502 -0.00000000000E+00 -0.00000000000E+00 -0.19456983263E+04  0.19456983263E+04  0.00000000000E+00 0.  1.
         25    1    1    2    0    0  0.27010964025E+02 -0.74289993498E+01 -0.37565564563E+03  0.39689664436E+03  0.12500000000E+03 0.  0.
         25    1    1    2    0    0 -0.60920927411E+02 -0.10972125691E+03 -0.10141572456E+04  0.10295096077E+04  0.12500000000E+03 0.  0.
         25    1    1    2    0    0  0.33909963387E+02  0.11715025626E+03 -0.52340548363E+03  0.55177202579E+03  0.12500000000E+03 0.  0.
</event>
<event>
 5    0  0.5829567E-005  0.2542891E+03  0.7546771E-02  0.1110624E+00
         21   -1    0    0  502  501  0.00000000000E+00  0.00000000000E+00  0.72991824239E+03  0.72991824239E+03  0.00000000000E+00 0.  1.
         21   -1    0    0  501  502 -0.00000000000E+00 -0.00000000000E+00 -0.88589307766E+02  0.88589307766E+02  0.00000000000E+00 0.  1.
         25    1    1    2    0    0 -0.36146385803E+02  0.55791734681E+02  0.72095755317E+02  0.15887755285E+03  0.12500000000E+03 0.  0.
         25    1    1    2    0    0  0.54146150708E+02  0.59827948498E+02  0.17421978369E+03  0.22910417300E+03  0.12500000000E+03 0.  0.
         25    1    1    2    0    0 -0.17999764906E+02 -0.11561968318E+03  0.39501339562E+03  0.43052582431E+03  0.12500000000E+03 0.  0.
</event>
<event>
 5    0  0.5829567E-005  0.4727115E+03  0.7546771E-02  0.1021158E+00
         21   -1    0    0  502  501  0.00000000000E+00  0.00000000000E+00  0.13736424631E+04  0.13736424631E+04  0.00000000000E+00 0.  1.
         21   -1    0    0  501  502 -0.00000000000E+00 -0.00000000000E+00 -0.16267421011E+03  0.16267421011E+03  0.00000000000E+00 0.  1.
         25    1    1    2    0    0 -0.72490644654E+01  0.56583719146E+01  0.46288217090E+03  0.47955132181E+03  0.12500000000E+03 0.  0.
         25    1    1    2    0    0  0.20928047481E+01  0.32784589249E+03  0.54077375938E+03  0.64463056698E+03  0.12500000000E+03 0.  0.
         25    1    1    2    0    0  0.51562597173E+01 -0.33350426441E+03  0.20731232275E+03  0.41213478445E+03  0.12500000000E+03 0.  0.
</event>
<event>
 5    0  0.5829567E-005  0.3235065E+03  0.7546771E-02  0.1074047E+00
         21   -1    0    0  502  501  0.00000000000E+00  0.00000000000E+00  0.10444427149E+03  0.10444427149E+03  0.00000000000E+00 0. -1.
         21   -1    0    0  501  502 -0.00000000000E+00 -0.00000000000E+00 -0.10020314138E+04  0.10020314138E+04  0.00000000000E+00 0. -1.
         25    1    1    2    0    0  0.14436016379E+02  0.24457596004E+03 -0.28255820161E+03  0.39432212225E+03  0.12500000000E+03 0.  0.
         25    1    1    2    0    0 -0.27651583518E+02 -0.11706048784E+03 -0.23535988472E+03  0.29238167387E+03  0.12500000000E+03 0.  0.
         25    1    1    2    0    0  0.13215567140E+02 -0.12751547220E+03 -0.37966905602E+03  0.41977188920E+03  0.12500000000E+03 0.  0.
</event>
<event>
 5    0  0.5829567E-005  0.4283373E+03  0.7546771E-02  0.1034386E+00
         21   -1    0    0  502  501  0.00000000000E+00  0.00000000000E+00  0.14577375360E+04  0.14577375360E+04  0.00000000000E+00 0.  1.
         21   -1    0    0  501  502 -0.00000000000E+00 -0.00000000000E+00 -0.12586139010E+03  0.12586139010E+03  0.00000000000E+00 0.  1.
         25    1    1    2    0    0  0.13589509542E+03 -0.12616977501E+03  0.26735135755E+03  0.34855134122E+03  0.12500000000E+03 0.  0.
         25    1    1    2    0    0 -0.40370624126E+02 -0.28971778642E+02 -0.12964290900E+02  0.13513779667E+03  0.12500000000E+03 0.  0.
         25    1    1    2    0    0 -0.95524471292E+02  0.15514155365E+03  0.10774890793E+04  0.10999097882E+04  0.12500000000E+03 0.  0.
</event>
<event>
 5    0  0.5829567E-005  0.2993657E+03  0.7546771E-02  0.1085558E+00
         21   -1    0    0  502  501  0.00000000000E+00  0.00000000000E+00  0.67909243699E+02  0.67909243699E+02  0.00000000000E+00 0.  1.
         21   -1    0    0  501  502 -0.00000000000E+00 -0.00000000000E+00 -0.13196999353E+04  0.13196999353E+04  0.00000000000E+00 0.  1.
         25    1    1    2    0    0 -0.14108947854E+03  0.47837875704E+02 -0.25926115149E+03  0.32409265339E+03  0.12500000000E+03 0.  0.
         25    1    1    2    0    0  0.58882707203E+02 -0.95372537352E+02 -0.22862977358E+03  0.28365413351E+03  0.12500000000E+03 0.  0.
         25    1    1    2    0    0  0.82206771340E+02  0.47534661649E+02 -0.76389976649E+03  0.77986239207E+03  0.12500000000E+03 0.  0.
</event>
<event>
 5    0  0.5829567E-005  0.4109333E+03  0.7546771E-02  0.1040058E+00
         21   -1    0    0  502  501  0.00000000000E+00  0.00000000000E+00  0.18550909592E+03  0.18550909592E+03  0.00000000000E+00 0. -1.
         21   -1    0    0  501  502 -0.00000000000E+00 -0.00000000000E+00 -0.91028530473E+03  0.91028530473E+03  0.00000000000E+00 0. -1.
         25    1    1    2    0    0  0.55352787585E+02  0.22088912858E+03 -0.17991297493E+03  0.31598989979E+03  0.12500000000E+03 0.  0.
         25    1    1    2    0    0 -0.86053793638E+02  0.14166240297E+02 -0.48063817632E+03  0.50422613409E+03  0.12500000000E+03 0.  0.
         25    1    1    2    0    0  0.30701006052E+02 -0.23505536888E+03 -0.64225057553E+02  0.27557836676E+03  0.12500000000E+03 0.  0.
</event>
<event>
 5    0  0.5829567E-005  0.3227329E+03  0.7546771E-02  0.1074398E+00
         21   -1    0    0  502  501  0.00000000000E+00  0.00000000000E+00  0.84897430321E+02  0.84897430321E+02  0.00000000000E+00 0.  1.
         21   -1    0    0  501  502 -0.00000000000E+00 -0.00000000000E+00 -0.12268509655E+04  0.12268509655E+04  0.00000000000E+00 0.  1.
         25    1    1    2    0    0 -0.19162965359E+02  0.57319070007E+02 -0.12555398135E+03  0.18719374258E+03  0.12500000000E+03 0.  0.
         25    1    1    2    0    0 -0.15089120645E+03  0.64137182257E+02 -0.67091811557E+03  0.70188165108E+03  0.12500000000E+03 0.  0.
         25    1    1    2    0    0  0.17005417181E+03 -0.12145625226E+03 -0.34548143822E+03  0.42267300211E+03  0.12500000000E+03 0.  0.
</event>
<event>
 5    0  0.5829567E-005  0.2767399E+03  0.7546771E-02  0.1097483E+00
         21   -1    0    0  502  501  0.00000000000E+00  0.00000000000E+00  0.16285492089E+03  0.16285492089E+03  0.00000000000E+00 0. -1.
         21   -1    0    0  501  502 -0.00000000000E+00 -0.00000000000E+00 -0.47026485530E+03  0.47026485530E+03  0.00000000000E+00 0. -1.
         25    1    1    2    0    0  0.24592430178E+02 -0.15851457323E+03 -0.38360481398E+02  0.20694971389E+03  0.12500000000E+03 0.  0.
         25    1    1    2    0    0 -0.30077199393E+02  0.13401813668E+03 -0.90023109363E+02  0.20638473563E+03  0.12500000000E+03 0.  0.
         25    1    1    2    0    0  0.54847692153E+01  0.24496436542E+02 -0.17902634364E+03  0.21978532666E+03  0.12500000000E+03 0.  0.
</event>
<event>
 5    0  0.5829567E-005  0.2434753E+03  0.7546771E-02  0.1117499E+00
         21   -1    0    0  502  501  0.00000000000E+00  0.00000000000E+00  0.12962668322E+03  0.12962668322E+03  0.00000000000E+00 0. -1.
         21   -1    0    0  501  502 -0.00000000000E+00 -0.00000000000E+00 -0.45731482264E+03  0.45731482264E+03  0.00000000000E+00 0. -1.
         25    1    1    2    0    0 -0.56064277154E+02 -0.94586693569E+02 -0.11282057466E+03  0.20110526557E+03  0.12500000000E+03 0.  0.
         25    1    1    2    0    0  0.92643251970E+02  0.17587897452E+02 -0.55596761400E+02  0.16615687211E+03  0.12500000000E+03 0.  0.
         25    1    1    2    0    0 -0.36578974816E+02  0.76998796116E+02 -0.15927080335E+03  0.21967936818E+03  0.12500000000E+03 0.  0.
</event>
<event>
 5    0  0.5829567E-005  0.2460596E+03  0.7546771E-02  0.1115821E+00
         21   -1    0    0  502  501  0.00000000000E+00  0.00000000000E+00  0.16400066298E+04  0.16400066298E+04  0.00000000000E+00 0. -1.
         21   -1    0    0  501  502 -0.00000000000E+00 -0.00000000000E+00 -0.36917733399E+02  0.36917733399E+02  0.00000000000E+00 0. -1.
         25    1    1    2    0    0 -0.10784047954E+03 -0.11988268906E+01  0.86197736073E+03  0.87764513137E+03  0.12500000000E+03 0.  0.
         25    1    1    2    0    0  0.10635177158E+02  0.46245174746E+02  0.29992885540E+03  0.32838093958E+03  0.12500000000E+03 0.  0.
         25    1    1    2    0    0  0.97205302386E+02 -0.45046347856E+02  0.44118268032E+03  0.47089829229E+03  0.12500000000E+03 0.  0.
</event>
<event>
 5    0  0.5829567E-005  0.5359499E+03  0.7546771E-02  0.1004799E+00
         21   -1    0    0  502  501  0.00000000000E+00  0.00000000000E+00  0.48960481885E+03  0.48960481885E+03  0.00000000000E+00 0. -1.
         21   -1    0    0  501  502 -0.00000000000E+00 -0.00000000000E+00 -0.58668202359E+03  0.58668202359E+03  0.00000000000E+00 0. -1.
         25    1    1    2    0    0 -0.24718064667E+02  0.17333098373E+03 -0.32422412800E+03  0.38910268288E+03  0.12500000000E+03 0.  0.
         25    1    1    2    0    0  0.28026311793E+03 -0.14435787360E+03  0.21384261885E+03  0.40092427786E+03  0.12500000000E+03 0.  0.
         25    1    1    2    0    0 -0.25554505326E+03 -0.28973110131E+02  0.13304304408E+02  0.28625988170E+03  0.12500000000E+03 0.  0.
</event>
<event>
 5    0  0.5829567E-005  0.2382332E+03  0.7546771E-02  0.1120975E+00
         21   -1    0    0  502  501  0.00000000000E+00  0.00000000000E+00  0.26571627854E+02  0.26571627854E+02  0.00000000000E+00 0.  1.
         21   -1    0    0  501  502 -0.00000000000E+00 -0.00000000000E+00 -0.21359264254E+04  0.21359264254E+04  0.00000000000E+00 0.  1.
         25    1    1    2    0    0  0.43845944678E+02 -0.11478068953E+03 -0.68102312214E+03  0.70321729675E+03  0.12500000000E+03 0.  0.
         25    1    1    2    0    0  0.36085289414E+01  0.18479592060E+02 -0.78870658645E+03  0.79877255605E+03  0.12500000000E+03 0.  0.
         25    1    1    2    0    0 -0.47454473619E+02  0.96301097466E+02 -0.63962508898E+03  0.66050820048E+03  0.12500000000E+03 0.  0.
</event>
<event>
 5    0  0.5829567E-005  0.3225828E+03  0.7546771E-02  0.1074467E+00
         21   -1    0    0  502  501  0.00000000000E+00  0.00000000000E+00  0.61400507691E+03  0.61400507691E+03  0.00000000000E+00 0.  1.
         21   -1    0    0  501  502 -0.00000000000E+00 -0.00000000000E+00 -0.16947687153E+03  0.16947687153E+03  0.00000000000E+00 0.  1.
         25    1    1    2    0    0  0.11686589638E+02 -0.68569279145E+02  0.21669440768E+02  0.14468202059E+03  0.12500000000E+03 0.  0.
         25    1    1    2    0    0 -0.10546974360E+03  0.13226770096E+03  0.42033585963E+03  0.47002749539E+03  0.12500000000E+03 0.  0.
         25    1    1    2    0    0  0.93783153961E+02 -0.63698421817E+02  0.25229049796E+01  0.16877243246E+03  0.12500000000E+03 0.  0.
</event>
<event>
 5    0  0.5829567E-005  0.3802116E+03  0.7546771E-02  0.1050856E+00
         21   -1    0    0  502  501  0.00000000000E+00  0.00000000000E+00  0.48370433238E+02  0.48370433238E+02  0.00000000000E+00 0. -1.
         21   -1    0    0  501  502 -0.00000000000E+00 -0.00000000000E+00 -0.29886210969E+04  0.29886210969E+04  0.00000000000E+00 0. -1.
         25    1    1    2    0    0 -0.13481828949E+02  0.17480329229E+03 -0.69848837461E+03  0.73092336136E+03  0.12500000000E+03 0.  0.
         25    1    1    2    0    0 -0.63483936241E+02 -0.20426310788E+03 -0.50130346263E+03  0.55918135614E+03  0.12500000000E+03 0.  0.
         25    1    1    2    0    0  0.76965765190E+02  0.29459815587E+02 -0.17404588264E+04  0.17468868126E+04  0.12500000000E+03 0.  0.
</event>
<event>
 5    0  0.5829567E-005  0.4360019E+03  0.7546771E-02  0.1031981E+00
         21   -1    0    0  502  501  0.00000000000E+00  0.00000000000E+00  0.45402865020E+03  0.45402865020E+03  0.00000000000E+00 0.  1.
         21   -1    0    0  501  502 -0.00000000000E+00 -0.00000000000E+00 -0.41869096666E+03  0.41869096666E+03  0.00000000000E+00 0.  1.
         25    1    1    2    0    0  0.49982506829E+02 -0.43681219434E+02  0.21406563448E+03  0.25662306168E+03  0.12500000000E+03 0.  0.
         25    1    1    2    0    0  0.35865358095E+02 -0.17330662804E+03 -0.26068758913E+03  0.33897570762E+03  0.12500000000E+03 0.  0.
         25    1    1    2    0    0 -0.85847864924E+02  0.21698784747E+03  0.81959638181E+02  0.27712084756E+03  0.12500000000E+03 0.  0.
</event>
<event>
 5    0  0.5829567E-005  0.4547479E+03  0.7546771E-02  0.1026316E+00
         21   -1    0    0  502  501  0.00000000000E+00  0.00000000000E+00  0.10495948524E+04  0.10495948524E+04  0.00000000000E+00 0.  1.
         21   -1    0    0  501  502 -0.00000000000E+00 -0.00000000000E+00 -0.19702429376E+03  0.19702429376E+03  0.00000000000E+00 0.  1.
         25    1    1    2    0    0 -0.51076190063E+01  0.17555420992E+03  0.15766852965E+03  0.26707626932E+03  0.12500000000E+03 0.  0.
         25    1    1    2    0    0 -0.23196007444E+03 -0.43677845666E+02  0.54057927698E+02  0.27250777949E+03  0.12500000000E+03 0.  0.
         25    1    1    2    0    0  0.23706769345E+03 -0.13187636425E+03  0.64084410126E+03  0.70703509732E+03  0.12500000000E+03 0.  0.
</event>
<event>
 5    0  0.5829567E-005  0.2283303E+03  0.7546771E-02  0.1127821E+00
         21   -1    0    0  502  501  0.00000000000E+00  0.00000000000E+00  0.21346749506E+03  0.21346749506E+03  0.00000000000E+00 0. -1.
         21   -1    0    0  501  502 -0.00000000000E+00 -0.00000000000E+00 -0.24422795298E+03  0.24422795298E+03  0.00000000000E+00 0. -1.
         25    1    1    2    0    0  0.77492723536E+02 -0.47697298219E+02 -0.44957286693E+02  0.16101649631E+03  0.12500000000E+03 0.  0.
         25    1    1    2    0    0 -0.54259306065E+02  0.57134253794E+00  0.66145168138E+02  0.15147469094E+03  0.12500000000E+03 0.  0.
         25    1    1    2    0    0 -0.23233417471E+02  0.47125955681E+02 -0.51948339364E+02  0.14520426078E+03  0.12500000000E+03 0.  0.
</event>
<event>
 5    0  0.6042259E-005  0.2793746E+03  0.7546771E-02  0.1096031E+00
         21   -1    0    0  502  501  0.00000000000E+00  0.00000000000E+00  0.62692546933E+03  0.62692546933E+03  0.00000000000E+00 0. -1.
         21   -1    0    0  501  502 -0.00000000000E+00 -0.00000000000E+00 -0.12449670850E+03  0.12449670850E+03  0.00000000000E+00 0. -1.
         25    1    1    2    0    0  0.79382421459E+02 -0.75912356669E+02  0.83702683659E+02  0.18626699650E+03  0.12500000000E+03 0.  0.
         25    1    1    2    0    0 -0.66535494491E+02  0.76813651673E+02  0.39806543113E+02  0.16594236947E+03  0.12500000000E+03 0.  0.
         25    1    1    2    0    0 -0.12846926968E+02 -0.90129500331E+00  0.37891953406E+03  0.39921281187E+03  0.12500000000E+03 0.  0.
</event>
<event>
 5    0  0.5829567E-005  0.5281457E+03  0.7546771E-02  0.1006683E+00
         21   -1    0    0  502  501  0.00000000000E+00  0.00000000000E+00  0.59508840326E+03  0.59508840326E+03  0.00000000000E+00 0.  1.
         21   -1    0    0  501  502 -0.00000000000E+00 -0.00000000000E+00 -0.46873355182E+03  0.46873355182E+03  0.00000000000E+00 0.  1.
         25    1    1    2    0    0 -0.17837769899E+03 -0.70421009096E+02  0.10603531966E+02  0.22916185745E+03  0.12500000000E+03 0.  0.
         25    1    1    2    0    0 -0.23915726200E+03  0.23250927897E+03  0.31769110154E+01  0.35621882817E+03  0.12500000000E+03 0.  0.
         25    1    1    2    0    0  0.41753496100E+03 -0.16208826988E+03  0.11257440847E+03  0.47844126946E+03  0.12500000000E+03 0.  0.
</event>
<event>
 5    0  0.5829567E-005  0.5020153E+03  0.7546771E-02  0.1013254E+00
         21   -1    0    0  502  501  0.00000000000E+00  0.00000000000E+00  0.97103897802E+03  0.97103897802E+03  0.00000000000E+00 0.  1.
         21   -1    0    0  501  502 -0.00000000000E+00 -0.00000000000E+00 -0.25953575727E+03  0.25953575727E+03  0.00000000000E+00 0.  1.
         25    1    1    2    0    0  0.33367699959E+03 -0.28825290565E+03  0.29212519967E+03  0.54349996315E+03  0.12500000000E+03 0.  0.
         25    1    1    2    0    0 -0.78163667012E+02  0.18798256173E+03  0.14579138483E+03  0.27986984519E+03  0.12500000000E+03 0.  0.
         25    1    1    2    0    0 -0.25551333257E+03  0.10027034392E+03  0.27358663625E+03  0.40720492695E+03  0.12500000000E+03 0.  0.
</event>
<event>
 5    0  0.5829567E-005  0.2198594E+03  0.7546771E-02  0.1133988E+00
         21   -1    0    0  502  501  0.00000000000E+00  0.00000000000E+00  0.14937193703E+04  0.14937193703E+04  0.00000000000E+00 0. -1.
         21   -1    0    0  501  502 -0.00000000000E+00 -0.00000000000E+00 -0.32360925799E+02  0.32360925799E+02  0.00000000000E+00 0. -1.
         25    1    1    2    0    0  0.44664872890E+02 -0.35088152958E+02  0.36895783272E+03  0.39367627776E+03  0.12500000000E+03 0.  0.
         25    1    1    2    0    0 -0.24267666362E+02 -0.36958503672E+02  0.32002603800E+03  0.34640513221E+03  0.12500000000E+03 0.  0.
         25    1    1    2    0    0 -0.20397206528E+02  0.72046656630E+02  0.77237457383E+03  0.78599888617E+03  0.12500000000E+03 0.  0.
</event>
<event>
 5    0  0.5829567E-005  0.2539246E+03  0.7546771E-02  0.1110849E+00
         21   -1    0    0  502  501  0.00000000000E+00  0.00000000000E+00  0.11052986286E+03  0.11052986286E+03  0.00000000000E+00 0. -1.
         21   -1    0    0  501  502 -0.00000000000E+00 -0.00000000000E+00 -0.58335092823E+03  0.58335092823E+03  0.00000000000E+00 0. -1.
         25    1    1    2    0    0 -0.46525692082E+02 -0.39866030006E+02 -0.18835074312E+03  0.23421132084E+03  0.12500000000E+03 0.  0.
         25    1    1    2    0    0 -0.13679485587E+02  0.10122557087E+03 -0.31162282342E+02  0.16440751919E+03  0.12500000000E+03 0.  0.
         25    1    1    2    0    0  0.60205177668E+02 -0.61359540864E+02 -0.25330803990E+03  0.29526195107E+03  0.12500000000E+03 0.  0.
</event>
<event>
 5    0  0.5829567E-005  0.3875940E+03  0.7546771E-02  0.1048162E+00
         21   -1    0    0  502  501  0.00000000000E+00  0.00000000000E+00  0.12837932828E+03  0.12837932828E+03  0.00000000000E+00 0.  1.
         21   -1    0    0  501  502 -0.00000000000E+00 -0.00000000000E+00 -0.11701972315E+04  0.11701972315E+04  0.00000000000E+00 0.  1.
         25    1    1    2    0    0  0.91419080990E+02  0.18942456498E+03 -0.40565980555E+03  0.47373409422E+03  0.12500000000E+03 0.  0.
         25    1    1    2    0    0  0.55996300724E+02 -0.20822684257E+03 -0.12662324161E+03  0.27955759509E+03  0.12500000000E+03 0.  0.
         25    1    1    2    0    0 -0.14741538171E+03  0.18802277582E+02 -0.50953485611E+03  0.54528487050E+03  0.12500000000E+03 0.  0.
</event>
<event>
 5    0  0.5829567E-005  0.2764386E+03  0.7546771E-02  0.1097650E+00
         21   -1    0    0  502  501  0.00000000000E+00  0.00000000000E+00  0.81117042913E+03  0.81117042913E+03  0.00000000000E+00 0. -1.
         21   -1    0    0  501  502 -0.00000000000E+00 -0.00000000000E+00 -0.94207435006E+02  0.94207435006E+02  0.00000000000E+00 0. -1.
         25    1    1    2    0    0  0.13876364494E+02  0.34815412363E+02  0.76130083081E+02  0.15108095836E+03  0.12500000000E+03 0.  0.
         25    1    1    2    0    0  0.13608200079E+03 -0.34767110818E+02  0.21354679203E+03  0.28452468315E+03  0.12500000000E+03 0.  0.
         25    1    1    2    0    0 -0.14995836528E+03 -0.48301544402E-01  0.42728611901E+03  0.46977222262E+03  0.12500000000E+03 0.  0.
</event>
<event>
 5    0  0.5829567E-005  0.5430382E+03  0.7546771E-02  0.1003118E+00
         21   -1    0    0  502  501  0.00000000000E+00  0.00000000000E+00  0.37243098280E+03  0.37243098280E+03  0.00000000000E+00 0. -1.
         21   -1    0    0  501  502 -0.00000000000E+00 -0.00000000000E+00 -0.79179905784E+03  0.79179905784E+03  0.00000000000E+00 0. -1.
         25    1    1    2    0    0 -0.27595741487E+03 -0.20491721590E+03  0.20817890908E+02  0.36633583605E+03  0.12500000000E+03 0.  0.
         25    1    1    2    0    0  0.19860991038E+02  0.11966669047E+03  0.85387196207E+02  0.19398595065E+03  0.12500000000E+03 0.  0.
         25    1    1    2    0    0  0.25609642383E+03  0.85250525433E+02 -0.52557316216E+03  0.60390825393E+03  0.12500000000E+03 0.  0.
</event>
<event>
 5    0  0.5878244E-005  0.3041097E+03  0.7546771E-02  0.1083204E+00
         21   -1    0    0  502  501  0.00000000000E+00  0.00000000000E+00  0.55092261476E+03  0.55092261476E+03  0.00000000000E+00 0.  1.
         21   -1    0    0  501  502 -0.00000000000E+00 -0.00000000000E+00 -0.16786877658E+03  0.16786877658E+03  0.00000000000E+00 0.  1.
         25    1    1    2    0    0  0.13747787636E+03 -0.14355344397E+03  0.31562948571E+02  0.23691554927E+03  0.12500000000E+03 0.  0.
         25    1    1    2    0    0 -0.68698734676E+02  0.56993128004E+02  0.11251403394E+03  0.19039994910E+03  0.12500000000E+03 0.  0.
         25    1    1    2    0    0 -0.68779141684E+02  0.86560315970E+02  0.23897685567E+03  0.29147589296E+03  0.12500000000E+03 0.  0.
</event>
<event>
 5    0  0.5829567E-005  0.3580442E+03  0.7546771E-02  0.1059361E+00
         21   -1    0    0  502  501  0.00000000000E+00  0.00000000000E+00  0.36150218741E+03  0.36150218741E+03  0.00000000000E+00 0. -1.
         21   -1    0    0  501  502 -0.00000000000E+00 -0.00000000000E+00 -0.35461920988E+03  0.35461920988E+03  0.00000000000E+00 0. -1.
         25    1    1    2    0    0 -0.61307110313E+02  0.27013055398E+03 -0.57609570879E+02  0.30931042760E+03  0.12500000000E+03 0.  0.
         25    1    1    2    0    0  0.10039284222E+03 -0.17049387533E+03  0.62510956574E+02  0.24223852705E+03  0.12500000000E+03 0.  0.
         25    1    1    2    0    0 -0.39085731902E+02 -0.99636678645E+02  0.19815918410E+01  0.16457244264E+03  0.12500000000E+03 0.  0.
</event>
<event>
 5    0  0.5829567E-005  0.3420547E+03  0.7546771E-02  0.1065924E+00
         21   -1    0    0  502  501  0.00000000000E+00  0.00000000000E+00  0.10119095958E+04  0.10119095958E+04  0.00000000000E+00 0. -1.
         21   -1    0    0  501  502 -0.00000000000E+00 -0.00000000000E+00 -0.11562439867E+03  0.11562439867E+03  0.00000000000E+00 0. -1.
         25    1    1    2    0    0  0.11083522568E+03 -0.19193427722E+03  0.27728114861E+03  0.37634166577E+03  0.12500000000E+03 0.  0.
         25    1    1    2    0    0 -0.15294237552E+03  0.17924867353E+03  0.52452468590E+03  0.58844932094E+03  0.12500000000E+03 0.  0.
         25    1    1    2    0    0  0.42107149843E+02  0.12685603684E+02  0.94479362585E+02  0.16274300772E+03  0.12500000000E+03 0.  0.
</event>
<event>
 5    0  0.5829567E-005  0.2780438E+03  0.7546771E-02  0.1096762E+00
         21   -1    0    0  502  501  0.00000000000E+00  0.00000000000E+00  0.12925715615E+03  0.12925715615E+03  0.00000000000E+00 0. -1.
         21   -1    0    0  501  502 -0.00000000000E+00 -0.00000000000E+00 -0.59809739512E+03  0.59809739512E+03  0.00000000000E+00 0. -1.
         25    1    1    2    0    0 -0.34651057324E+02 -0.12290558358E+03 -0.27047209354E+03  0.32417068288E+03  0.12500000000E+03 0.  0.
         25    1    1    2    0    0  0.18943510593E+00 -0.50142906160E+02 -0.71712060026E+02  0.15258429302E+03  0.12500000000E+03 0.  0.
         25    1    1    2    0    0  0.34461622218E+02  0.17304848974E+03 -0.12665608540E+03  0.25059957537E+03  0.12500000000E+03 0.  0.
</event>
<event>
 5    0  0.5829567E-005  0.2520569E+03  0.7546771E-02  0.1112012E+00
         21   -1    0    0  502  501  0.00000000000E+00  0.00000000000E+00  0.12923474937E+03  0.12923474937E+03  0.00000000000E+00 0. -1.
         21   -1    0    0  501  502 -0.00000000000E+00 -0.00000000000E+00 -0.49160694180E+03  0.49160694180E+03  0.00000000000E+00 0. -1.
         25    1    1    2    0    0 -0.45669692489E+02 -0.22774336933E+02 -0.14806843322E+03  0.20038376219E+03  0.12500000000E+03 0.  0.
         25    1    1    2    0    0  0.12868526523E+03  0.85894058040E+02 -0.12132685494E+03  0.23298689324E+03  0.12500000000E+03 0.  0.
         25    1    1    2    0    0 -0.83015572736E+02 -0.63119721107E+02 -0.92976904275E+02  0.18747103573E+03  0.12500000000E+03 0.  0.
</event>
<event>
 5    0  0.5829567E-005  0.2973231E+03  0.7546771E-02  0.1086586E+00
         21   -1    0    0  502  501  0.00000000000E+00  0.00000000000E+00  0.18519714856E+03  0.18519714856E+03  0.00000000000E+00 0. -1.
         21   -1    0    0  501  502 -0.00000000000E+00 -0.00000000000E+00 -0.47733459942E+03  0.47733459942E+03  0.00000000000E+00 0. -1.
         25    1    1    2    0    0  0.15630534245E+02 -0.12872149157E+03 -0.11305547749E+03  0.21265012810E+03  0.12500000000E+03 0.  0.
         25    1    1    2    0    0 -0.11217678673E+03  0.82348277831E+02 -0.21124308254E+03  0.28215866151E+03  0.12500000000E+03 0.  0.
         25    1    1    2    0    0  0.96546252489E+02  0.46373213737E+02  0.32161109169E+02  0.16772295837E+03  0.12500000000E+03 0.  0.
</event>
<event>
 5    0  0.5829567E-005  0.2842427E+03  0.7546771E-02  0.1093394E+00
         21   -1    0    0  502  501  0.00000000000E+00  0.00000000000E+00  0.88634174602E+03  0.88634174602E+03  0.00000000000E+00 0. -1.
         21   -1    0    0  501  502 -0.00000000000E+00 -0.00000000000E+00 -0.91154367596E+02  0.91154367596E+02  0.00000000000E+00 0. -1.
         25    1    1    2    0    0 -0.43632320253E+02 -0.12192303134E+03  0.57035732084E+03  0.59808149810E+03  0.12500000000E+03 0.  0.
         25    1    1    2    0    0  0.18862531673E+02  0.12165118468E+03  0.10482599774E+03  0.20437293274E+03  0.12500000000E+03 0.  0.
         25    1    1    2    0    0  0.24769788580E+02  0.27184666176E+00  0.12000405984E+03  0.17504168277E+03  0.12500000000E+03 0.  0.
</event>
<event>
 5    0  0.5829567E-005  0.2283494E+03  0.7546771E-02  0.1127807E+00
         21   -1    0    0  502  501  0.00000000000E+00  0.00000000000E+00  0.80837035216E+03  0.80837035216E+03  0.00000000000E+00 0. -1.
         21   -1    0    0  501  502 -0.00000000000E+00 -0.00000000000E+00 -0.64504433075E+02  0.64504433075E+02  0.00000000000E+00 0. -1.
         25    1    1    2    0    0  0.59782701139E+02  0.71286688352E+02  0.28836944253E+03  0.32777690381E+03  0.12500000000E+03 0.  0.
         25    1    1    2    0    0 -0.39071360831E+02  0.84614484740E+01  0.12048827546E+03  0.17815889501E+03  0.12500000000E+03 0.  0.
         25    1    1    2    0    0 -0.20711340307E+02 -0.79748136826E+02  0.33500820110E+03  0.36693898641E+03  0.12500000000E+03 0.  0.
</event>
<event>
 5    0  0.5829567E-005  0.4456730E+03  0.7546771E-02  0.1029020E+00
         21   -1    0    0  502  501  0.00000000000E+00  0.00000000000E+00  0.20609340230E+03  0.20609340230E+03  0.00000000000E+00 0. -1.
         21   -1    0    0  501  502 -0.00000000000E+00 -0.00000000000E+00 -0.96375940449E+03  0.96375940449E+03  0.00000000000E+00 0. -1.
         25    1    1    2    0    0  0.15060582681E+03 -0.77809729958E+02 -0.59654471633E+03  0.63263501937E+03  0.12500000000E+03 0.  0.
         25    1    1    2    0    0  0.13899841606E+03  0.48470190276E+02 -0.35108533248E+02  0.19628430432E+03  0.12500000000E+03 0.  0.
         25    1    1    2    0    0 -0.28960424288E+03  0.29339539682E+02 -0.12601275261E+03  0.34093348311E+03  0.12500000000E+03 0.  0.
</event>
<event>
 5    0  0.5829567E-005  0.2496497E+03  0.7546771E-02  0.1113526E+00
         21   -1    0    0  502  501  0.00000000000E+00  0.00000000000E+00  0.29898975040E+03  0.29898975040E+03  0.00000000000E+00 0.  1.
         21   -1    0    0  501  502 -0.00000000000E+00 -0.00000000000E+00 -0.20845187327E+03  0.20845187327E+03  0.00000000000E+00 0.  1.
         25    1    1    2    0    0 -0.75170017613E+01 -0.13257152437E+03  0.64723674916E+02  0.19350934986E+03  0.12500000000E+03 0.  0.
         25    1    1    2    0    0  0.37458580713E+02  0.79508671541E+02 -0.43052772559E+02  0.15875552067E+03  0.12500000000E+03 0.  0.
         25    1    1    2    0    0 -0.29941578952E+02  0.53062852827E+02  0.68866974767E+02  0.15517675314E+03  0.12500000000E+03 0.  0.
</event>
<event>
 5    0  0.5829567E-005  0.2097587E+03  0.7546771E-02  0.1141757E+00
         21   -1    0    0  502  501  0.00000000000E+00  0.00000000000E+00  0.89769065276E+02  0.89769065276E+02  0.00000000000E+00 0.  1.
         21   -1    0    0  501  502 -0.00000000000E+00 -0.00000000000E+00 -0.49013222885E+03  0.49013222885E+03  0.00000000000E+00 0.  1.
         25    1    1    2    0    0  0.14792662453E+02 -0.48606228466E+02 -0.13316943181E+03  0.18957976125E+03  0.12500000000E+03 0.  0.
         25    1    1    2    0    0  0.44799158305E+02  0.17223268907E+02 -0.82191646137E+02  0.15711165543E+03  0.12500000000E+03 0.  0.
         25    1    1    2    0    0 -0.59591820758E+02  0.31382959559E+02 -0.18500208563E+03  0.23320987745E+03  0.12500000000E+03 0.  0.
</event>
<event>
 5    0  0.5829567E-005  0.2939515E+03  0.7546771E-02  0.1088304E+00
         21   -1    0    0  502  501  0.00000000000E+00  0.00000000000E+00  0.38445032313E+04  0.38445032313E+04  0.00000000000E+00 0.  1.
         21   -1    0    0  501  502 -0.00000000000E+00 -0.00000000000E+00 -0.22475596483E+02  0.22475596483E+02  0.00000000000E+00 0.  1.
         25    1    1    2    0    0 -0.13907649751E+03 -0.37218594640E+02  0.20318234729E+04  0.20407496468E+04  0.12500000000E+03 0.  0.
         25    1    1    2    0    0  0.11820607588E+03  0.61616251975E+02  0.55521735431E+03  0.58451736451E+03  0.12500000000E+03 0.  0.
         25    1    1    2    0    0  0.20870421631E+02 -0.24397657335E+02  0.12349868076E+04  0.12417118165E+04  0.12500000000E+03 0.  0.
</event>
<event>
 5    0  0.5829567E-005  0.2384374E+03  0.7546771E-02  0.1120838E+00
         21   -1    0    0  502  501  0.00000000000E+00  0.00000000000E+00  0.13194804704E+03  0.13194804704E+03  0.00000000000E+00 0. -1.
         21   -1    0    0  501  502 -0.00000000000E+00 -0.00000000000E+00 -0.43086965833E+03  0.43086965833E+03  0.00000000000E+00 0. -1.
         25    1    1    2    0    0  0.43219450087E+02  0.49935573912E+02 -0.98204626835E+02  0.17213550226E+03  0.12500000000E+03 0.  0.
         25    1    1    2    0    0 -0.75062168476E+02 -0.87317375350E+02 -0.19154107296E+03  0.25606959172E+03  0.12500000000E+03 0.  0.
         25    1    1    2    0    0  0.31842718389E+02  0.37381801438E+02 -0.91759114921E+01  0.13461261139E+03  0.12500000000E+03 0.  0.
</event>
<event>
 5    0  0.5931013E-005  0.3693892E+03  0.7546771E-02  0.1054927E+00
         21   -1    0    0  502  501  0.00000000000E+00  0.00000000000E+00  0.26097945990E+03  0.26097945990E+03  0.00000000000E+00 0. -1.
         21   -1    0    0  501  502 -0.00000000000E+00 -0.00000000000E+00 -0.52283192341E+03  0.52283192341E+03  0.00000000000E+00 0. -1.
         25    1    1    2    0    0  0.49835268525E+02 -0.82497242353E+02  0.50989039683E+02  0.16587414251E+03  0.12500000000E+03 0.  0.
         25    1    1    2    0    0 -0.91801068940E+02 -0.13617450464E+03 -0.29756137574E+03  0.36213078343E+03  0.12500000000E+03 0.  0.
         25    1    1    2    0    0  0.41965800415E+02  0.21867174699E+03 -0.15280127453E+02  0.25580645737E+03  0.12500000000E+03 0.  0.
</event>
<event>
 5    0  0.5829567E-005  0.2868216E+03  0.7546771E-02  0.1092020E+00
         21   -1    0    0  502  501  0.00000000000E+00  0.00000000000E+00  0.70951860939E+02  0.70951860939E+02  0.00000000000E+00 0. -1.
         21   -1    0    0  501  502 -0.00000000000E+00 -0.00000000000E+00 -0.11594707618E+04  0.11594707618E+04  0.00000000000E+00 0. -1.
         25    1    1    2    0    0 -0.97482323136E+02 -0.76139057138E+02 -0.59612632640E+03  0.62152357668E+03  0.12500000000E+03 0.  0.
         25    1    1    2    0    0  0.41312081127E+02 -0.65802010042E+02 -0.13042959760E+03  0.19665572074E+03  0.12500000000E+03 0.  0.
         25    1    1    2    0    0  0.56170242009E+02  0.14194106718E+03 -0.36196297684E+03  0.41224332529E+03  0.12500000000E+03 0.  0.
</event>
<event>
 5    0  0.5829567E-005  0.3404607E+03  0.7546771E-02  0.1066600E+00
         21   -1    0    0  502  501  0.00000000000E+00  0.00000000000E+00  0.63011550586E+03  0.63011550586E+03  0.00000000000E+00 0. -1.
         21   -1    0    0  501  502 -0.00000000000E+00 -0.00000000000E+00 -0.18395593926E+03  0.18395593926E+03  0.00000000000E+00 0. -1.
         25    1    1    2    0    0  0.56034847013E+02 -0.64516686318E+02  0.43940637145E+03  0.46476366700E+03  0.12500000000E+03 0.  0.
         25    1    1    2    0    0 -0.11891881809E+03  0.24318805061E+02  0.73557481026E+02  0.18912639316E+03  0.12500000000E+03 0.  0.
         25    1    1    2    0    0  0.62883971077E+02  0.40197881257E+02 -0.66804285873E+02  0.16018138496E+03  0.12500000000E+03 0.  0.
</event>
<event>
 5    0  0.5829567E-005  0.2723193E+03  0.7546771E-02  0.1099959E+00
         21   -1    0    0  502  501  0.00000000000E+00  0.00000000000E+00  0.95860296803E+03  0.95860296803E+03  0.00000000000E+00 0. -1.
         21   -1    0    0  501  502 -0.00000000000E+00 -0.00000000000E+00 -0.77360314985E+02  0.77360314985E+02  0.00000000000E+00 0. -1.
         25    1    1    2    0    0 -0.30262296506E+02  0.67802684617E+02  0.40011050449E+03  0.42570697250E+03  0.12500000000E+03 0.  0.
         25    1    1    2    0    0  0.10240004022E+03  0.39611544670E+02  0.11481324896E+03  0.20214332748E+03  0.12500000000E+03 0.  0.
         25    1    1    2    0    0 -0.72137743716E+02 -0.10741422929E+03  0.36631889959E+03  0.40811298303E+03  0.12500000000E+03 0.  0.
</event>
<event>
 5    0  0.5829567E-005  0.3277602E+03  0.7546771E-02  0.1072132E+00
         21   -1    0    0  502  501  0.00000000000E+00  0.00000000000E+00  0.11515249257E+04  0.11515249257E+04  0.00000000000E+00 0. -1.
         21   -1    0    0  501  502 -0.00000000000E+00 -0.00000000000E+00 -0.93290863671E+02  0.93290863671E+02  0.00000000000E+00 0. -1.
         25    1    1    2    0    0 -0.13069687396E+03 -0.10705885946E+03  0.31544443509E+03  0.37904282592E+03  0.12500000000E+03 0.  0.
         25    1    1    2    0    0  0.15520479359E+03  0.19771316636E+03  0.55050454105E+03  0.61794763032E+03  0.12500000000E+03 0.  0.
         25    1    1    2    0    0 -0.24507919629E+02 -0.90654306896E+02  0.19228508588E+03  0.24782533312E+03  0.12500000000E+03 0.  0.
</event>
<event>
 5    0  0.5829567E-005  0.2999488E+03  0.7546771E-02  0.1085266E+00
         21   -1    0    0  502  501  0.00000000000E+00  0.00000000000E+00  0.49515484070E+03  0.49515484070E+03  0.00000000000E+00 0.  1.
         21   -1    0    0  501  502 -0.00000000000E+00 -0.00000000000E+00 -0.18169933339E+03  0.18169933339E+03  0.00000000000E+00 0.  1.
         25    1    1    2    0    0 -0.64781094524E+02 -0.36134134831E+02 -0.41226311422E+02  0.15108565339E+03  0.12500000000E+03 0.  0.
         25    1    1    2    0    0 -0.11067040098E+03  0.39135264984E+02  0.13686451795E+03  0.21940009775E+03  0.12500000000E+03 0.  0.
         25    1    1    2    0    0  0.17545149551E+03 -0.30011301529E+01  0.21781730079E+03  0.30636842295E+03  0.12500000000E+03 0.  0.
</event>
<event>
 5    0  0.5829567E-005  0.2272532E+03  0.7546771E-02  0.1128588E+00
         21   -1    0    0  502  501  0.00000000000E+00  0.00000000000E+00  0.22546762545E+03  0.22546762545E+03  0.00000000000E+00 0.  1.
         21   -1    0    0  501  502 -0.00000000000E+00 -0.00000000000E+00 -0.22905301462E+03  0.22905301462E+03  0.00000000000E+00 0.  1.
         25    1    1    2    0    0 -0.21236666165E+02 -0.11723666552E+02 -0.66582946403E+02  0.14368969726E+03  0.12500000000E+03 0.  0.
         25    1    1    2    0    0 -0.65670465993E+02 -0.31866894900E+02  0.44252354097E+02  0.15136505521E+03  0.12500000000E+03 0.  0.
         25    1    1    2    0    0  0.86907132158E+02  0.43590561452E+02  0.18745203139E+02  0.15946588760E+03  0.12500000000E+03 0.  0.
</event>
<event>
 5    0  0.5829567E-005  0.4628940E+03  0.7546771E-02  0.1023945E+00
         21   -1    0    0  502  501  0.00000000000E+00  0.00000000000E+00  0.37434142364E+03  0.37434142364E+03  0.00000000000E+00 0. -1.
         21   -1    0    0  501  502 -0.00000000000E+00 -0.00000000000E+00 -0.57239425680E+03  0.57239425680E+03  0.00000000000E+00 0. -1.
         25    1    1    2    0    0  0.99516267212E+02  0.12378562769E+03  0.89860772380E+02  0.22119296435E+03  0.12500000000E+03 0.  0.
         25    1    1    2    0    0 -0.11174266455E+03  0.23291443410E+03 -0.14210205190E+03  0.32023983176E+03  0.12500000000E+03 0.  0.
         25    1    1    2    0    0  0.12226397337E+02 -0.35670006179E+03 -0.14581155365E+03  0.40530288433E+03  0.12500000000E+03 0.  0.
</event>
<event>
 5    0  0.5829567E-005  0.4190501E+03  0.7546771E-02  0.1037376E+00
         21   -1    0    0  502  501  0.00000000000E+00  0.00000000000E+00  0.29838309817E+03  0.29838309817E+03  0.00000000000E+00 0.  1.
         21   -1    0    0  501  502 -0.00000000000E+00 -0.00000000000E+00 -0.58851527364E+03  0.58851527364E+03  0.00000000000E+00 0.  1.
         25    1    1    2    0    0  0.83059044652E+02 -0.76668998680E+02  0.67946137162E+02  0.18171025786E+03  0.12500000000E+03 0.  0.
         25    1    1    2    0    0 -0.47944655543E+02  0.18087394518E+03  0.78193971491E+02  0.23822966066E+03  0.12500000000E+03 0.  0.
         25    1    1    2    0    0 -0.35114389109E+02 -0.10420494650E+03 -0.43627228412E+03  0.46695845328E+03  0.12500000000E+03 0.  0.
</event>
<event>
 5    0  0.5829567E-005  0.2409607E+03  0.7546771E-02  0.1119154E+00
         21   -1    0    0  502  501  0.00000000000E+00  0.00000000000E+00  0.47919639355E+02  0.47919639355E+02  0.00000000000E+00 0.  1.
         21   -1    0    0  501  502 -0.00000000000E+00 -0.00000000000E+00 -0.12116545707E+04  0.12116545707E+04  0.00000000000E+00 0.  1.
         25    1    1    2    0    0 -0.78565029838E+02  0.63940666126E+02 -0.59476656978E+03  0.61614376994E+03  0.12500000000E+03 0.  0.
         25    1    1    2    0    0  0.52695612128E+02  0.14035882583E+01 -0.15847540283E+03  0.20861028474E+03  0.12500000000E+03 0.  0.
         25    1    1    2    0    0  0.25869417709E+02 -0.65344254384E+02 -0.41049295869E+03  0.43482015534E+03  0.12500000000E+03 0.  0.
</event>
<event>
 5    0  0.5829567E-005  0.5718798E+03  0.7546771E-02  0.9965527E-01
         21   -1    0    0  502  501  0.00000000000E+00  0.00000000000E+00  0.18953015661E+04  0.18953015661E+04  0.00000000000E+00 0.  1.
         21   -1    0    0  501  502 -0.00000000000E+00 -0.00000000000E+00 -0.17255645204E+03  0.17255645204E+03  0.00000000000E+00 0.  1.
         25    1    1    2    0    0  0.39625956320E+03 -0.36735038135E+02  0.72668051081E+03  0.83789060697E+03  0.12500000000E+03 0.  0.
         25    1    1    2    0    0 -0.12606470890E+03  0.17853038976E+03  0.81662110849E+03  0.85455277527E+03  0.12500000000E+03 0.  0.
         25    1    1    2    0    0 -0.27019485430E+03 -0.14179535162E+03  0.17944349475E+03  0.37541463589E+03  0.12500000000E+03 0.  0.
</event>
<event>
 5    0  0.5829567E-005  0.2812947E+03  0.7546771E-02  0.1094984E+00
         21   -1    0    0  502  501  0.00000000000E+00  0.00000000000E+00  0.28072647104E+04  0.28072647104E+04  0.00000000000E+00 0. -1.
         21   -1    0    0  501  502 -0.00000000000E+00 -0.00000000000E+00 -0.28186413631E+02  0.28186413631E+02  0.00000000000E+00 0. -1.
         25    1    1    2    0    0  0.10142312843E+03 -0.72139016037E+02  0.77393282216E+03  0.79378063836E+03  0.12500000000E+03 0.  0.
         25    1    1    2    0    0  0.44141936686E+02 -0.43451237882E+02  0.11185598186E+04  0.11272256156E+04  0.12500000000E+03 0.  0.
         25    1    1    2    0    0 -0.14556506512E+03  0.11559025392E+03  0.88658565598E+03  0.91444487006E+03  0.12500000000E+03 0.  0.
</event>
<event>
 5    0  0.6529174E-005  0.3186647E+03  0.7546771E-02  0.1076266E+00
         21   -1    0    0  502  501  0.00000000000E+00  0.00000000000E+00  0.69970607027E+03  0.69970607027E+03  0.00000000000E+00 0.  1.
         21   -1    0    0  501  502 -0.00000000000E+00 -0.00000000000E+00 -0.14512832634E+03  0.14512832634E+03  0.00000000000E+00 0.  1.
         25    1    1    2    0    0  0.54280458764E+02 -0.11495445178E+03  0.96696160223E+02  0.20282021988E+03  0.12500000000E+03 0.  0.
         25    1    1    2    0    0 -0.11545186876E+03  0.78485182809E+02  0.28964187632E+02  0.18961271605E+03  0.12500000000E+03 0.  0.
         25    1    1    2    0    0  0.61171409999E+02  0.36469268976E+02  0.42891739607E+03  0.45240146069E+03  0.12500000000E+03 0.  0.
</event>
<event>
 5    0  0.5829567E-005  0.4756802E+03  0.7546771E-02  0.1020329E+00
         21   -1    0    0  502  501  0.00000000000E+00  0.00000000000E+00  0.41894041196E+03  0.41894041196E+03  0.00000000000E+00 0.  1.
         21   -1    0    0  501  502 -0.00000000000E+00 -0.00000000000E+00 -0.54010469957E+03  0.54010469957E+03  0.00000000000E+00 0.  1.
         25    1    1    2    0    0 -0.22735673057E+03 -0.21906074501E+03  0.14479091920E+03  0.36914509779E+03  0.12500000000E+03 0.  0.
         25    1    1    2    0    0 -0.74251827900E+02  0.81359334140E+02 -0.45980099885E+02  0.17283473257E+03  0.12500000000E+03 0.  0.
         25    1    1    2    0    0  0.30160855847E+03  0.13770141087E+03 -0.21997510693E+03  0.41706528118E+03  0.12500000000E+03 0.  0.
</event>
<event>
 5    0  0.5829567E-005  0.2930146E+03  0.7546771E-02  0.1088786E+00
         21   -1    0    0  502  501  0.00000000000E+00  0.00000000000E+00  0.47838007365E+03  0.47838007365E+03  0.00000000000E+00 0.  1.
         21   -1    0    0  501  502 -0.00000000000E+00 -0.00000000000E+00 -0.17947559241E+03  0.17947559241E+03  0.00000000000E+00 0.  1.
         25    1    1    2    0    0  0.83863954666E+02 -0.10119197115E+03  0.21524311328E+03  0.28147393437E+03  0.12500000000E+03 0.  0.
         25    1    1    2    0    0 -0.50371986695E+02  0.17266496359E+03  0.45677169448E+02  0.22374523571E+03  0.12500000000E+03 0.  0.
         25    1    1    2    0    0 -0.33491967971E+02 -0.71472992438E+02  0.37984198516E+02  0.15263649598E+03  0.12500000000E+03 0.  0.
</event>
<event>
 5    0  0.6192300E-005  0.2561352E+03  0.7546771E-02  0.1109488E+00
         21   -1    0    0  502  501  0.00000000000E+00  0.00000000000E+00  0.62928367997E+03  0.62928367997E+03  0.00000000000E+00 0. -1.
         21   -1    0    0  501  502 -0.00000000000E+00 -0.00000000000E+00 -0.10425384294E+03  0.10425384294E+03  0.00000000000E+00 0. -1.
         25    1    1    2    0    0  0.53880038616E+02 -0.26355416468E+02  0.23237145184E+03  0.27059038817E+03  0.12500000000E+03 0.  0.
         25    1    1    2    0    0  0.67903349958E+02 -0.93180861054E+01  0.30151829229E+02  0.14571144248E+03  0.12500000000E+03 0.  0.
         25    1    1    2    0    0 -0.12178338857E+03  0.35673502574E+02  0.26250655597E+03  0.31723569226E+03  0.12500000000E+03 0.  0.
</event>
<event>
 5    0  0.5829567E-005  0.4554518E+03  0.7546771E-02  0.1026109E+00
         21   -1    0    0  502  501  0.00000000000E+00  0.00000000000E+00  0.16486588290E+03  0.16486588290E+03  0.00000000000E+00 0. -1.
         21   -1    0    0  501  502 -0.00000000000E+00 -0.00000000000E+00 -0.12582127369E+04  0.12582127369E+04  0.00000000000E+00 0. -1.
         25    1    1    2    0    0  0.33668036698E+03  0.47910116221E+02 -0.33967038607E+03  0.49663872173E+03  0.12500000000E+03 0.  0.
         25    1    1    2    0    0 -0.13387953290E+03 -0.11499424067E+03 -0.12267975461E+03  0.24864176420E+03  0.12500000000E+03 0.  0.
         25    1    1    2    0    0 -0.20280083408E+03  0.67084124448E+02 -0.63099671330E+03  0.67779813385E+03  0.12500000000E+03 0.  0.
</event>
<event>
 5    0  0.6476381E-005  0.2851356E+03  0.7546771E-02  0.1092917E+00
         21   -1    0    0  502  501  0.00000000000E+00  0.00000000000E+00  0.95332325143E+02  0.95332325143E+02  0.00000000000E+00 0.  1.
         21   -1    0    0  501  502 -0.00000000000E+00 -0.00000000000E+00 -0.85283020706E+03  0.85283020706E+03  0.00000000000E+00 0.  1.
         25    1    1    2    0    0  0.25989367761E+02  0.58643429052E+01 -0.56224980547E+03  0.57659316811E+03  0.12500000000E+03 0.  0.
         25    1    1    2    0    0  0.73622480456E+02  0.51592194719E+01 -0.45132476292E+02  0.15201587940E+03  0.12500000000E+03 0.  0.
         25    1    1    2    0    0 -0.99611848217E+02 -0.11023562377E+02 -0.15011560015E+03  0.21955348470E+03  0.12500000000E+03 0.  0.
</event>
<event>
 5    0  0.5829567E-005  0.2327074E+03  0.7546771E-02  0.1124749E+00
         21   -1    0    0  502  501  0.00000000000E+00  0.00000000000E+00  0.76398671147E+02  0.76398671147E+02  0.00000000000E+00 0. -1.
         21   -1    0    0  501  502 -0.00000000000E+00 -0.00000000000E+00 -0.70881802842E+03  0.70881802842E+03  0.00000000000E+00 0. -1.
         25    1    1    2    0    0 -0.64379773781E+01  0.53890437322E+02 -0.40488012069E+03  0.42719847720E+03  0.12500000000E+03 0.  0.
         25    1    1    2    0    0 -0.37321133099E+02 -0.10625761259E+02 -0.14805832308E+03  0.19761589210E+03  0.12500000000E+03 0.  0.
         25    1    1    2    0    0  0.43759110478E+02 -0.43264676063E+02 -0.79480913502E+02  0.16040233027E+03  0.12500000000E+03 0.  0.
</event>
<event>
 5    0  0.5829567E-005  0.2953001E+03  0.7546771E-02  0.1087614E+00
         21   -1    0    0  502  501  0.00000000000E+00  0.00000000000E+00  0.80802800989E+03  0.80802800989E+03  0.00000000000E+00 0.  1.
         21   -1    0    0  501  502 -0.00000000000E+00 -0.00000000000E+00 -0.10791968488E+03  0.10791968488E+03  0.00000000000E+00 0.  1.
         25    1    1    2    0    0 -0.16978752175E+02  0.17882395512E+03  0.11595369235E+03  0.24766215642E+03  0.12500000000E+03 0.  0.
         25    1    1    2    0    0  0.25516836119E+02 -0.14256270018E+03  0.30289319717E+03  0.35825203600E+03  0.12500000000E+03 0.  0.
         25    1    1    2    0    0 -0.85380839442E+01 -0.36261254944E+02  0.28126143548E+03  0.31003350235E+03  0.12500000000E+03 0.  0.
</event>
<event>
 5    0  0.5829567E-005  0.2708775E+03  0.7546771E-02  0.1100778E+00
         21   -1    0    0  502  501  0.00000000000E+00  0.00000000000E+00  0.24608093325E+03  0.24608093325E+03  0.00000000000E+00 0. -1.
         21   -1    0    0  501  502 -0.00000000000E+00 -0.00000000000E+00 -0.29817278725E+03  0.29817278725E+03  0.00000000000E+00 0. -1.
         25    1    1    2    0    0 -0.52169930052E+02  0.11150128067E+03  0.15486621086E+02  0.17612232291E+03  0.12500000000E+03 0.  0.
         25    1    1    2    0    0  0.21356788459E+01 -0.65626113330E+02  0.80721887152E+02  0.16264184867E+03  0.12500000000E+03 0.  0.
         25    1    1    2    0    0  0.50034251206E+02 -0.45875167341E+02 -0.14830036224E+03  0.20548954892E+03  0.12500000000E+03 0.  0.
</event>
<event>
 5    0  0.5829567E-005  0.3456422E+03  0.7546771E-02  0.1064418E+00
         21   -1    0    0  502  501  0.00000000000E+00  0.00000000000E+00  0.85322383636E+03  0.85322383636E+03  0.00000000000E+00 0. -1.
         21   -1    0    0  501  502 -0.00000000000E+00 -0.00000000000E+00 -0.14002016415E+03  0.14002016415E+03  0.00000000000E+00 0. -1.
         25    1    1    2    0    0 -0.44958190688E+02  0.11309456149E+03  0.79592128840E+02  0.19175903036E+03  0.12500000000E+03 0.  0.
         25    1    1    2    0    0 -0.17789056998E+03 -0.17953465234E+02  0.27777743317E+03  0.35320346003E+03  0.12500000000E+03 0.  0.
         25    1    1    2    0    0  0.22284876067E+03 -0.95141096260E+02  0.35583411021E+03  0.44828151012E+03  0.12500000000E+03 0.  0.
</event>
<event>
 5    0  0.5829567E-005  0.4280816E+03  0.7546771E-02  0.1034468E+00
         21   -1    0    0  502  501  0.00000000000E+00  0.00000000000E+00  0.91581658020E+03  0.91581658020E+03  0.00000000000E+00 0. -1.
         21   -1    0    0  501  502 -0.00000000000E+00 -0.00000000000E+00 -0.20009884770E+03  0.20009884770E+03  0.00000000000E+00 0. -1.
         25    1    1    2    0    0  0.25255006369E+03  0.23909900192E+02  0.79866288093E+02  0.29386534667E+03  0.12500000000E+03 0.  0.
         25    1    1    2    0    0 -0.86717207765E+02  0.83988798688E+02  0.35048969749E+02  0.17727781223E+03  0.12500000000E+03 0.  0.
         25    1    1    2    0    0 -0.16583285593E+03 -0.10789869888E+03  0.60080247466E+03  0.64477226901E+03  0.12500000000E+03 0.  0.
</event>
<event>
 5    0  0.5829567E-005  0.3845605E+03  0.7546771E-02  0.1049261E+00
         21   -1    0    0  502  501  0.00000000000E+00  0.00000000000E+00  0.32872886391E+03  0.32872886391E+03  0.00000000000E+00 0. -1.
         21   -1    0    0  501  502 -0.00000000000E+00 -0.00000000000E+00 -0.44987461986E+03  0.44987461986E+03  0.00000000000E+00 0. -1.
         25    1    1    2    0    0  0.12427614015E+03  0.18119044058E+03  0.15236797898E+02  0.25324236371E+03  0.12500000000E+03 0.  0.
         25    1    1    2    0    0  0.47922276041E+02 -0.24934871626E+03 -0.60628471744E+02  0.28943416942E+03  0.12500000000E+03 0.  0.
         25    1    1    2    0    0 -0.17219841619E+03  0.68158275680E+02 -0.75754082105E+02  0.23592695064E+03  0.12500000000E+03 0.  0.
</event>
<event>
 5    0  0.6152700E-005  0.3404916E+03  0.7546771E-02  0.1066587E+00
         21   -1    0    0  502  501  0.00000000000E+00  0.00000000000E+00  0.40124718556E+03  0.40124718556E+03  0.00000000000E+00 0. -1.
         21   -1    0    0  501  502 -0.00000000000E+00 -0.00000000000E+00 -0.28893545405E+03  0.28893545405E+03  0.00000000000E+00 0. -1.
         25    1    1    2    0    0  0.13437150660E+02 -0.14270630611E+03  0.96152862435E+01  0.19042872827E+03  0.12500000000E+03 0.  0.
         25    1    1    2    0    0 -0.19616148519E+03  0.11345208263E+03  0.96968583365E+02  0.27636680243E+03  0.12500000000E+03 0.  0.
         25    1    1    2    0    0  0.18272433453E+03  0.29254223473E+02  0.57278618956E+01  0.22338710890E+03  0.12500000000E+03 0.  0.
</event>
<event>
 5    0  0.5829567E-005  0.3093532E+03  0.7546771E-02  0.1080656E+00
         21   -1    0    0  502  501  0.00000000000E+00  0.00000000000E+00  0.33185527395E+03  0.33185527395E+03  0.00000000000E+00 0. -1.
         21   -1    0    0  501  502 -0.00000000000E+00 -0.00000000000E+00 -0.28837687140E+03  0.28837687140E+03  0.00000000000E+00 0. -1.
         25    1    1    2    0    0 -0.60605109260E+02 -0.10564344331E+03  0.35833819718E+02  0.17816447182E+03  0.12500000000E+03 0.  0.
         25    1    1    2    0    0  0.94777321786E+02  0.38089037955E+02  0.16256403169E+03  0.22909731543E+03  0.12500000000E+03 0.  0.
         25    1    1    2    0    0 -0.34172212526E+02  0.67554405355E+02 -0.15491944887E+03  0.21297035810E+03  0.12500000000E+03 0.  0.
</event>
<event>
 5    0  0.5829567E-005  0.3078308E+03  0.7546771E-02  0.1081390E+00
         21   -1    0    0  502  501  0.00000000000E+00  0.00000000000E+00  0.87811626415E+03  0.87811626415E+03  0.00000000000E+00 0. -1.
         21   -1    0    0  501  502 -0.00000000000E+00 -0.00000000000E+00 -0.10791257674E+03  0.10791257674E+03  0.00000000000E+00 0. -1.
         25    1    1    2    0    0  0.14228029356E+03 -0.63464871017E+02  0.36290004676E+03  0.41423775266E+03  0.12500000000E+03 0.  0.
         25    1    1    2    0    0 -0.54966300947E+02  0.66532219834E+02  0.38971867384E+03  0.41827440186E+03  0.12500000000E+03 0.  0.
         25    1    1    2    0    0 -0.87313992616E+02 -0.30673488167E+01  0.17584966805E+02  0.15351668637E+03  0.12500000000E+03 0.  0.
</event>
<event>
 5    0  0.5829567E-005  0.2646280E+03  0.7546771E-02  0.1104394E+00
         21   -1    0    0  502  501  0.00000000000E+00  0.00000000000E+00  0.23822793936E+03  0.23822793936E+03  0.00000000000E+00 0. -1.
         21   -1    0    0  501  502 -0.00000000000E+00 -0.00000000000E+00 -0.29395367112E+03  0.29395367112E+03  0.00000000000E+00 0. -1.
         25    1    1    2    0    0  0.18581121329E+01 -0.66487435957E+02 -0.19938563643E+02  0.14299153136E+03  0.12500000000E+03 0.  0.
         25    1    1    2    0    0  0.59520526723E+02 -0.99772061999E+02 -0.14085629219E+02  0.17123248059E+03  0.12500000000E+03 0.  0.
         25    1    1    2    0    0 -0.61378638856E+02  0.16625949796E+03 -0.21701538900E+02  0.21795759853E+03  0.12500000000E+03 0.  0.
</event>
<event>
 5    0  0.5829567E-005  0.2804087E+03  0.7546771E-02  0.1095466E+00
         21   -1    0    0  502  501  0.00000000000E+00  0.00000000000E+00  0.87916769478E+03  0.87916769478E+03  0.00000000000E+00 0.  1.
         21   -1    0    0  501  502 -0.00000000000E+00 -0.00000000000E+00 -0.89435741164E+02  0.89435741164E+02  0.00000000000E+00 0.  1.
         25    1    1    2    0    0 -0.13768413994E+03  0.52589067141E+02  0.13459955105E+03  0.23550917502E+03  0.12500000000E+03 0.  0.
         25    1    1    2    0    0  0.52055950737E+02  0.44623911643E+02  0.36243050896E+03  0.38946372017E+03  0.12500000000E+03 0.  0.
         25    1    1    2    0    0  0.85628189198E+02 -0.97212978785E+02  0.29270189360E+03  0.34363054076E+03  0.12500000000E+03 0.  0.
</event>
<event>
 5    0  0.5829567E-005  0.5522541E+03  0.7546771E-02  0.1000974E+00
         21   -1    0    0  502  501  0.00000000000E+00  0.00000000000E+00  0.15908327080E+04  0.15908327080E+04  0.00000000000E+00 0. -1.
         21   -1    0    0  501  502 -0.00000000000E+00 -0.00000000000E+00 -0.19171380235E+03  0.19171380235E+03  0.00000000000E+00 0. -1.
         25    1    1    2    0    0  0.10858322466E+03  0.16473349461E+03  0.49887100951E+03  0.55084001765E+03  0.12500000000E+03 0.  0.
         25    1    1    2    0    0  0.33527233774E+03 -0.65708670137E+02  0.46052853711E+03  0.58688730033E+03  0.12500000000E+03 0.  0.
         25    1    1    2    0    0 -0.44385556240E+03 -0.99024824468E+02  0.43971935901E+03  0.64481919235E+03  0.12500000000E+03 0.  0.
</event>
<event>
 5    0  0.5913315E-005  0.3540416E+03  0.7546771E-02  0.1060968E+00
         21   -1    0    0  502  501  0.00000000000E+00  0.00000000000E+00  0.76349771573E+03  0.76349771573E+03  0.00000000000E+00 0.  1.
         21   -1    0    0  501  502 -0.00000000000E+00 -0.00000000000E+00 -0.16417262146E+03  0.16417262146E+03  0.00000000000E+00 0.  1.
         25    1    1    2    0    0 -0.39634785258E+02 -0.61705036705E+02  0.14713412814E+03  0.20652331447E+03  0.12500000000E+03 0.  0.
         25    1    1    2    0    0 -0.15092009258E+03  0.13453266366E+03  0.35054873516E+02  0.24027017313E+03  0.12500000000E+03 0.  0.
         25    1    1    2    0    0  0.19055487784E+03 -0.72827626957E+02  0.41713609260E+03  0.48087684959E+03  0.12500000000E+03 0.  0.
</event>
<event>
 5    0  0.5829567E-005  0.4298088E+03  0.7546771E-02  0.1033920E+00
         21   -1    0    0  502  501  0.00000000000E+00  0.00000000000E+00  0.45547756123E+03  0.45547756123E+03  0.00000000000E+00 0. -1.
         21   -1    0    0  501  502 -0.00000000000E+00 -0.00000000000E+00 -0.40558665705E+03  0.40558665705E+03  0.00000000000E+00 0. -1.
         25    1    1    2    0    0 -0.12178648029E+03 -0.28406713555E+02 -0.17209990868E+03  0.24674332154E+03  0.12500000000E+03 0.  0.
         25    1    1    2    0    0  0.19532391660E+03  0.86054834976E+01 -0.10602313654E+03  0.25513014762E+03  0.12500000000E+03 0.  0.
         25    1    1    2    0    0 -0.73537436305E+02  0.19801230057E+02  0.32801394940E+03  0.35919074912E+03  0.12500000000E+03 0.  0.
</event>
<event>
 5    0  0.5829567E-005  0.3124653E+03  0.7546771E-02  0.1079170E+00
         21   -1    0    0  502  501  0.00000000000E+00  0.00000000000E+00  0.20511816614E+03  0.20511816614E+03  0.00000000000E+00 0. -1.
         21   -1    0    0  501  502 -0.00000000000E+00 -0.00000000000E+00 -0.47599187137E+03  0.47599187137E+03  0.00000000000E+00 0. -1.
         25    1    1    2    0    0  0.11263790638E+03  0.34913443579E-01 -0.26395225484E+03  0.31302251039E+03  0.12500000000E+03 0.  0.
         25    1    1    2    0    0  0.81232263753E+01  0.69783815948E+02 -0.83275933120E+02  0.16581811967E+03  0.12500000000E+03 0.  0.
         25    1    1    2    0    0 -0.12076113275E+03 -0.69818729391E+02  0.76354482734E+02  0.20226940745E+03  0.12500000000E+03 0.  0.
</event>
<event>
 5    0  0.5829567E-005  0.3641744E+03  0.7546771E-02  0.1056943E+00
         21   -1    0    0  502  501  0.00000000000E+00  0.00000000000E+00  0.77399630528E+03  0.77399630528E+03  0.00000000000E+00 0.  1.
         21   -1    0    0  501  502 -0.00000000000E+00 -0.00000000000E+00 -0.17134835839E+03  0.17134835839E+03  0.00000000000E+00 0.  1.
         25    1    1    2    0    0  0.28885500938E+02  0.38147551302E+02  0.19399704144E+03  0.23568932925E+03  0.12500000000E+03 0.  0.
         25    1    1    2    0    0  0.70717530204E+01  0.80570156386E+02  0.49257085193E+03  0.51458002678E+03  0.12500000000E+03 0.  0.
         25    1    1    2    0    0 -0.35957253959E+02 -0.11871770769E+03 -0.83919946480E+02  0.19507530763E+03  0.12500000000E+03 0.  0.
</event>
<event>
 5    0  0.5829567E-005  0.2440399E+03  0.7546771E-02  0.1117130E+00
         21   -1    0    0  502  501  0.00000000000E+00  0.00000000000E+00  0.16979960990E+03  0.16979960990E+03  0.00000000000E+00 0.  1.
         21   -1    0    0  501  502 -0.00000000000E+00 -0.00000000000E+00 -0.35073971779E+03  0.35073971779E+03  0.00000000000E+00 0.  1.
         25    1    1    2    0    0  0.12901717472E+02 -0.53127062019E+02 -0.90583473018E+02  0.16376600568E+03  0.12500000000E+03 0.  0.
         25    1    1    2    0    0 -0.11245636203E+03  0.26236817976E+02 -0.94538607977E+02  0.19467242326E+03  0.12500000000E+03 0.  0.
         25    1    1    2    0    0  0.99554644556E+02  0.26890244043E+02  0.41819731127E+01  0.16210089875E+03  0.12500000000E+03 0.  0.
</event>
<event>
 5    0  0.5829567E-005  0.3281470E+03  0.7546771E-02  0.1071960E+00
         21   -1    0    0  502  501  0.00000000000E+00  0.00000000000E+00  0.68318074936E+03  0.68318074936E+03  0.00000000000E+00 0.  1.
         21   -1    0    0  501  502 -0.00000000000E+00 -0.00000000000E+00 -0.15761634275E+03  0.15761634275E+03  0.00000000000E+00 0.  1.
         25    1    1    2    0    0  0.18630487367E+03  0.12021532465E+03  0.16512876504E+03  0.30340359141E+03  0.12500000000E+03 0.  0.
         25    1    1    2    0    0 -0.19249245655E+03 -0.12205023185E+03  0.17389863990E+03  0.31275444342E+03  0.12500000000E+03 0.  0.
         25    1    1    2    0    0  0.61875828731E+01  0.18349072059E+01  0.18653700167E+03  0.22463905728E+03  0.12500000000E+03 0.  0.
</event>
<event>
 5    0  0.5829567E-005  0.3192344E+03  0.7546771E-02  0.1076002E+00
         21   -1    0    0  502  501  0.00000000000E+00  0.00000000000E+00  0.12896693168E+04  0.12896693168E+04  0.00000000000E+00 0. -1.
         21   -1    0    0  501  502 -0.00000000000E+00 -0.00000000000E+00 -0.79020721741E+02  0.79020721741E+02  0.00000000000E+00 0. -1.
         25    1    1    2    0    0  0.69808550684E+02 -0.16021007149E+03  0.74614680607E+03  0.77646671336E+03  0.12500000000E+03 0.  0.
         25    1    1    2    0    0 -0.12882973672E+03  0.40035408457E+02  0.22086789133E+03  0.28741530999E+03  0.12500000000E+03 0.  0.
         25    1    1    2    0    0  0.59021186032E+02  0.12017466303E+03  0.24363389764E+03  0.30480801517E+03  0.12500000000E+03 0.  0.
</event>
<event>
 5    0  0.5829567E-005  0.4018012E+03  0.7546771E-02  0.1043158E+00
         21   -1    0    0  502  501  0.00000000000E+00  0.00000000000E+00  0.58058328058E+03  0.58058328058E+03  0.00000000000E+00 0. -1.
         21   -1    0    0  501  502 -0.00000000000E+00 -0.00000000000E+00 -0.27807249203E+03  0.27807249203E+03  0.00000000000E+00 0. -1.
         25    1    1    2    0    0  0.83875578145E+02  0.18796908745E+03  0.34143956140E+03  0.41781989485E+03  0.12500000000E+03 0.  0.
         25    1    1    2    0    0 -0.46158242239E+02 -0.14803729428E+03  0.11904134704E+03  0.23203763947E+03  0.12500000000E+03 0.  0.
         25    1    1    2    0    0 -0.37717335906E+02 -0.39931793171E+02 -0.15797011989E+03  0.20879823829E+03  0.12500000000E+03 0.  0.
</event>
<event>
 5    0  0.5829567E-005  0.3050282E+03  0.7546771E-02  0.1082754E+00
         21   -1    0    0  502  501  0.00000000000E+00  0.00000000000E+00  0.59078369349E+02  0.59078369349E+02  0.00000000000E+00 0. -1.
         21   -1    0    0  501  502 -0.00000000000E+00 -0.00000000000E+00 -0.15748950658E+04  0.15748950658E+04  0.00000000000E+00 0. -1.
         25    1    1    2    0    0  0.34938431599E+02 -0.17168675402E+03 -0.70066738564E+03  0.73297804933E+03  0.12500000000E+03 0.  0.
         25    1    1    2    0    0 -0.64530079807E+02  0.15883921034E+03 -0.28472818954E+03  0.35509036577E+03  0.12500000000E+03 0.  0.
         25    1    1    2    0    0  0.29591648208E+02  0.12847543679E+02 -0.53042112126E+03  0.54590502003E+03  0.12500000000E+03 0.  0.
</event>
<event>
 5    0  0.5829567E-005  0.3558855E+03  0.7546771E-02  0.1060225E+00
         21   -1    0    0  502  501  0.00000000000E+00  0.00000000000E+00  0.10744059284E+04  0.10744059284E+04  0.00000000000E+00 0. -1.
         21   -1    0    0  501  502 -0.00000000000E+00 -0.00000000000E+00 -0.11788324462E+03  0.11788324462E+03  0.00000000000E+00 0. -1.
         25    1    1    2    0    0 -0.38158309731E+02  0.33873969904E+02  0.36240846270E+02  0.13979235092E+03  0.12500000000E+03 0.  0.
         25    1    1    2    0    0 -0.11431001332E+03  0.44744617090E+02  0.92861279564E+02  0.19828534274E+03  0.12500000000E+03 0.  0.
         25    1    1    2    0    0  0.15246832305E+03 -0.78618586994E+02  0.82742055798E+03  0.85421147939E+03  0.12500000000E+03 0.  0.
</event>
<event>
 5    0  0.6289573E-005  0.2698065E+03  0.7546771E-02  0.1101390E+00
         21   -1    0    0  502  501  0.00000000000E+00  0.00000000000E+00  0.51243886767E+02  0.51243886767E+02  0.00000000000E+00 0.  1.
         21   -1    0    0  501  502 -0.00000000000E+00 -0.00000000000E+00 -0.14205708831E+04  0.14205708831E+04  0.00000000000E+00 0.  1.
         25    1    1    2    0    0  0.13178492318E+03  0.12445242584E+03 -0.66373499869E+03  0.69930309649E+03  0.12500000000E+03 0.  0.
         25    1    1    2    0    0 -0.62755128589E+02 -0.63506542619E+02 -0.27816803919E+03  0.31776366240E+03  0.12500000000E+03 0.  0.
         25    1    1    2    0    0 -0.69029794596E+02 -0.60945883217E+02 -0.42742395850E+03  0.45474801102E+03  0.12500000000E+03 0.  0.
</event>
<event>
 5    0  0.5829567E-005  0.3228720E+03  0.7546771E-02  0.1074335E+00
         21   -1    0    0  502  501  0.00000000000E+00  0.00000000000E+00  0.64432739845E+02  0.64432739845E+02  0.00000000000E+00 0.  1.
         21   -1    0    0  501  502 -0.00000000000E+00 -0.00000000000E+00 -0.16179091181E+04  0.16179091181E+04  0.00000000000E+00 0.  1.
         25    1    1    2    0    0  0.84798372218E+02  0.34754858619E+02 -0.16998440692E+03  0.23003991550E+03  0.12500000000E+03 0.  0.
         25    1    1    2    0    0 -0.24065688427E+02 -0.36707665266E+01 -0.10265206648E+03  0.16356979746E+03  0.12500000000E+03 0.  0.
         25    1    1    2    0    0 -0.60732683790E+02 -0.31084092093E+02 -0.12808399049E+04  0.12887321450E+04  0.12500000000E+03 0.  0.
</event>
<event>
 5    0  0.5829567E-005  0.3127833E+03  0.7546771E-02  0.1079019E+00
         21   -1    0    0  502  501  0.00000000000E+00  0.00000000000E+00  0.75220323789E+02  0.75220323789E+02  0.00000000000E+00 0. -1.
         21   -1    0    0  501  502 -0.00000000000E+00 -0.00000000000E+00 -0.13006243065E+04  0.13006243065E+04  0.00000000000E+00 0. -1.
         25    1    1    2    0    0 -0.17641052677E+03  0.43879771684E+02 -0.75547734772E+03  0.78703057834E+03  0.12500000000E+03 0.  0.
         25    1    1    2    0    0  0.11071813104E+03 -0.90837950952E+02 -0.34757256247E+03  0.39615871069E+03  0.12500000000E+03 0.  0.
         25    1    1    2    0    0  0.65692395725E+02  0.46958179268E+02 -0.12235407253E+03  0.19265534128E+03  0.12500000000E+03 0.  0.
</event>
<event>
 5    0  0.5829567E-005  0.3165493E+03  0.7546771E-02  0.1077248E+00
         21   -1    0    0  502  501  0.00000000000E+00  0.00000000000E+00  0.27916202017E+03  0.27916202017E+03  0.00000000000E+00 0. -1.
         21   -1    0    0  501  502 -0.00000000000E+00 -0.00000000000E+00 -0.35894382129E+03  0.35894382129E+03  0.00000000000E+00 0. -1.
         25    1    1    2    0    0  0.12705430862E+03  0.33054329985E+02 -0.18228521360E+03  0.25707641892E+03  0.12500000000E+03 0.  0.
         25    1    1    2    0    0 -0.44991983187E+01 -0.28109724029E+01  0.15175461962E+03  0.19667894887E+03  0.12500000000E+03 0.  0.
         25    1    1    2    0    0 -0.12255511030E+03 -0.30243357582E+02 -0.49251207139E+02  0.18435047367E+03  0.12500000000E+03 0.  0.
</event>
<event>
 5    0  0.5829567E-005  0.2347274E+03  0.7546771E-02  0.1123356E+00
         21   -1    0    0  502  501  0.00000000000E+00  0.00000000000E+00  0.21321512781E+04  0.21321512781E+04  0.00000000000E+00 0.  1.
         21   -1    0    0  501  502 -0.00000000000E+00 -0.00000000000E+00 -0.25841012603E+02  0.25841012603E+02  0.00000000000E+00 0.  1.
         25    1    1    2    0    0 -0.13767670527E+02  0.59453235036E+02  0.54507197694E+03  0.56254128378E+03  0.12500000000E+03 0.  0.
         25    1    1    2    0    0 -0.86057775481E+02  0.73801398783E+01  0.84316245508E+03  0.85674286273E+03  0.12500000000E+03 0.  0.
         25    1    1    2    0    0  0.99825446009E+02 -0.66833374914E+02  0.71807583344E+03  0.73870814416E+03  0.12500000000E+03 0.  0.
</event>
<event>
 5    0  0.5829567E-005  0.2538198E+03  0.7546771E-02  0.1110914E+00
         21   -1    0    0  502  501  0.00000000000E+00  0.00000000000E+00  0.19671126389E+03  0.19671126389E+03  0.00000000000E+00 0. -1.
         21   -1    0    0  501  502 -0.00000000000E+00 -0.00000000000E+00 -0.32750794172E+03  0.32750794172E+03  0.00000000000E+00 0. -1.
         25    1    1    2    0    0 -0.52829138432E+02 -0.99341159677E+02 -0.67655932080E+02  0.18127853987E+03  0.12500000000E+03 0.  0.
         25    1    1    2    0    0 -0.60363360833E+02 -0.14829814918E+01 -0.43545588667E+02  0.14548935651E+03  0.12500000000E+03 0.  0.
         25    1    1    2    0    0  0.11319249927E+03  0.10082414117E+03 -0.19595157077E+02  0.19745130922E+03  0.12500000000E+03 0.  0.
</event>
<event>
 5    0  0.5829567E-005  0.4338006E+03  0.7546771E-02  0.1032666E+00
         21   -1    0    0  502  501  0.00000000000E+00  0.00000000000E+00  0.15675900191E+03  0.15675900191E+03  0.00000000000E+00 0.  1.
         21   -1    0    0  501  502 -0.00000000000E+00 -0.00000000000E+00 -0.12004603363E+04  0.12004603363E+04  0.00000000000E+00 0.  1.
         25    1    1    2    0    0 -0.88070631764E+02 -0.68103846832E+02 -0.36623563307E+03  0.40267618388E+03  0.12500000000E+03 0.  0.
         25    1    1    2    0    0  0.15205075332E+03  0.11674052899E+03  0.30746814041E+02  0.23090723087E+03  0.12500000000E+03 0.  0.
         25    1    1    2    0    0 -0.63980121552E+02 -0.48636682162E+02 -0.70821251534E+03  0.72363592344E+03  0.12500000000E+03 0.  0.
</event>
<event>
 5    0  0.5829567E-005  0.6603780E+03  0.7546771E-02  0.9787498E-01
         21   -1    0    0  502  501  0.00000000000E+00  0.00000000000E+00  0.70988361042E+03  0.70988361042E+03  0.00000000000E+00 0. -1.
         21   -1    0    0  501  502 -0.00000000000E+00 -0.00000000000E+00 -0.61432487722E+03  0.61432487722E+03  0.00000000000E+00 0. -1.
         25    1    1    2    0    0 -0.20447723062E+03 -0.15867702759E+03  0.13351983120E+03  0.31692567307E+03  0.12500000000E+03 0.  0.
         25    1    1    2    0    0 -0.26301012164E+03  0.24694706914E+03  0.23140337860E+03  0.44646355134E+03  0.12500000000E+03 0.  0.
         25    1    1    2    0    0  0.46748735226E+03 -0.88270041558E+02 -0.26936447659E+03  0.56081926323E+03  0.12500000000E+03 0.  0.
</event>
<event>
 5    0  0.5829567E-005  0.2511863E+03  0.7546771E-02  0.1112557E+00
         21   -1    0    0  502  501  0.00000000000E+00  0.00000000000E+00  0.14438826567E+03  0.14438826567E+03  0.00000000000E+00 0.  1.
         21   -1    0    0  501  502 -0.00000000000E+00 -0.00000000000E+00 -0.43697834010E+03  0.43697834010E+03  0.00000000000E+00 0.  1.
         25    1    1    2    0    0  0.68354686713E+02  0.75588434113E+02 -0.14901991237E+03  0.21958576650E+03  0.12500000000E+03 0.  0.
         25    1    1    2    0    0 -0.56527374302E+02 -0.17270739494E+02 -0.17175946831E+03  0.22049929125E+03  0.12500000000E+03 0.  0.
         25    1    1    2    0    0 -0.11827312411E+02 -0.58317694619E+02  0.28189306250E+02  0.14128154802E+03  0.12500000000E+03 0.  0.
</event>
<event>
 5    0  0.5829567E-005  0.3923344E+03  0.7546771E-02  0.1046467E+00
         21   -1    0    0  502  501  0.00000000000E+00  0.00000000000E+00  0.48680708892E+03  0.48680708892E+03  0.00000000000E+00 0. -1.
         21   -1    0    0  501  502 -0.00000000000E+00 -0.00000000000E+00 -0.31619567120E+03  0.31619567120E+03  0.00000000000E+00 0. -1.
         25    1    1    2    0    0 -0.19865114201E+03 -0.11427589876E+03  0.61061306201E+02  0.26809464817E+03  0.12500000000E+03 0.  0.
         25    1    1    2    0    0  0.10282335997E+02  0.15859135204E+03  0.20280416618E+03  0.28637645363E+03  0.12500000000E+03 0.  0.
         25    1    1    2    0    0  0.18836880602E+03 -0.44315453275E+02 -0.93254054663E+02  0.24853165833E+03  0.12500000000E+03 0.  0.
</event>
<event>
 5    0  0.5829567E-005  0.2275845E+03  0.7546771E-02  0.1128352E+00
         21   -1    0    0  502  501  0.00000000000E+00  0.00000000000E+00  0.60628753981E+02  0.60628753981E+02  0.00000000000E+00 0. -1.
         21   -1    0    0  501  502 -0.00000000000E+00 -0.00000000000E+00 -0.85429246574E+03  0.85429246574E+03  0.00000000000E+00 0. -1.
         25    1    1    2    0    0 -0.23680723649E+02 -0.66232295544E+02 -0.21033268705E+03  0.25458266416E+03  0.12500000000E+03 0.  0.
         25    1    1    2    0    0 -0.71940277224E+02  0.35960135947E+02 -0.30068709219E+03  0.33541953174E+03  0.12500000000E+03 0.  0.
         25    1    1    2    0    0  0.95621000872E+02  0.30272159597E+02 -0.28264393252E+03  0.32491902383E+03  0.12500000000E+03 0.  0.
</event>
<event>
 5    0  0.5829567E-005  0.2828070E+03  0.7546771E-02  0.1094166E+00
         21   -1    0    0  502  501  0.00000000000E+00  0.00000000000E+00  0.40174581671E+03  0.40174581671E+03  0.00000000000E+00 0. -1.
         21   -1    0    0  501  502 -0.00000000000E+00 -0.00000000000E+00 -0.19908062863E+03  0.19908062863E+03  0.00000000000E+00 0. -1.
         25    1    1    2    0    0 -0.43670808341E+02 -0.50552742375E+02  0.82317835806E+02  0.16390224329E+03  0.12500000000E+03 0.  0.
         25    1    1    2    0    0  0.16902604194E+03 -0.33874822079E+02  0.12987893503E+02  0.21333305371E+03  0.12500000000E+03 0.  0.
         25    1    1    2    0    0 -0.12535523360E+03  0.84427564454E+02  0.10735945877E+03  0.22359114835E+03  0.12500000000E+03 0.  0.
</event>
<event>
 5    0  0.5829567E-005  0.3053044E+03  0.7546771E-02  0.1082619E+00
         21   -1    0    0  502  501  0.00000000000E+00  0.00000000000E+00  0.78271044847E+03  0.78271044847E+03  0.00000000000E+00 0.  1.
         21   -1    0    0  501  502 -0.00000000000E+00 -0.00000000000E+00 -0.11908716255E+03  0.11908716255E+03  0.00000000000E+00 0.  1.
         25    1    1    2    0    0 -0.66668933076E+02 -0.15739726041E+03  0.20532182819E+03  0.29495880620E+03  0.12500000000E+03 0.  0.
         25    1    1    2    0    0  0.54734134173E+02  0.20291135255E+00  0.39246724245E+02  0.14199004184E+03  0.12500000000E+03 0.  0.
         25    1    1    2    0    0  0.11934798903E+02  0.15719434906E+03  0.41905473348E+03  0.46484876299E+03  0.12500000000E+03 0.  0.
</event>
<event>
 5    0  0.5832628E-005  0.3374092E+03  0.7546771E-02  0.1067905E+00
         21   -1    0    0  502  501  0.00000000000E+00  0.00000000000E+00  0.53353998196E+03  0.53353998196E+03  0.00000000000E+00 0.  1.
         21   -1    0    0  501  502 -0.00000000000E+00 -0.00000000000E+00 -0.21337666450E+03  0.21337666450E+03  0.00000000000E+00 0.  1.
         25    1    1    2    0    0 -0.98625878297E+02 -0.92381077670E+02  0.36809350452E+02  0.18772654491E+03  0.12500000000E+03 0.  0.
         25    1    1    2    0    0 -0.26555009962E+02 -0.48435921831E+00 -0.75527027004E+02  0.14844101511E+03  0.12500000000E+03 0.  0.
         25    1    1    2    0    0  0.12518088826E+03  0.92865436889E+02  0.35888099401E+03  0.41074908644E+03  0.12500000000E+03 0.  0.
</event>
<event>
 5    0  0.5829567E-005  0.2222078E+03  0.7546771E-02  0.1132248E+00
         21   -1    0    0  502  501  0.00000000000E+00  0.00000000000E+00  0.12859159991E+03  0.12859159991E+03  0.00000000000E+00 0.  1.
         21   -1    0    0  501  502 -0.00000000000E+00 -0.00000000000E+00 -0.38397754820E+03  0.38397754820E+03  0.00000000000E+00 0.  1.
         25    1    1    2    0    0  0.58866570007E+02 -0.86808629816E+02 -0.13141390765E+03  0.20951283111E+03  0.12500000000E+03 0.  0.
         25    1    1    2    0    0 -0.52687758328E+02  0.38302146569E+02 -0.48474157958E+02  0.14905635947E+03  0.12500000000E+03 0.  0.
         25    1    1    2    0    0 -0.61788116788E+01  0.48506483247E+02 -0.75497882679E+02  0.15399995753E+03  0.12500000000E+03 0.  0.
</event>
<event>
 5    0  0.5829567E-005  0.2627776E+03  0.7546771E-02  0.1105486E+00
         21   -1    0    0  502  501  0.00000000000E+00  0.00000000000E+00  0.43921385693E+03  0.43921385693E+03  0.00000000000E+00 0. -1.
         21   -1    0    0  501  502 -0.00000000000E+00 -0.00000000000E+00 -0.15721746018E+03  0.15721746018E+03  0.00000000000E+00 0. -1.
         25    1    1    2    0    0  0.68049032845E+02 -0.37242795459E+02 -0.44263772433E+02  0.15362935343E+03  0.12500000000E+03 0.  0.
         25    1    1    2    0    0  0.70165745278E-01  0.12640570978E+02  0.58574529509E+02  0.13862093805E+03  0.12500000000E+03 0.  0.
         25    1    1    2    0    0 -0.68119198591E+02  0.24602224481E+02  0.26768563967E+03  0.30418102563E+03  0.12500000000E+03 0.  0.
</event>
<event>
 5    0  0.5829567E-005  0.4051173E+03  0.7546771E-02  0.1042022E+00
         21   -1    0    0  502  501  0.00000000000E+00  0.00000000000E+00  0.13582307088E+04  0.13582307088E+04  0.00000000000E+00 0.  1.
         21   -1    0    0  501  502 -0.00000000000E+00 -0.00000000000E+00 -0.12083368713E+03  0.12083368713E+03  0.00000000000E+00 0.  1.
         25    1    1    2    0    0  0.64083675308E+02  0.70433862639E+02  0.70189520433E+02  0.17210233940E+03  0.12500000000E+03 0.  0.
         25    1    1    2    0    0  0.18412266674E+03  0.78858030877E+02  0.28527475336E+03  0.37030586054E+03  0.12500000000E+03 0.  0.
         25    1    1    2    0    0 -0.24820634205E+03 -0.14929189352E+03  0.88193274786E+03  0.93665619597E+03  0.12500000000E+03 0.  0.
</event>
<event>
 5    0  0.5829567E-005  0.2577181E+03  0.7546771E-02  0.1108522E+00
         21   -1    0    0  502  501  0.00000000000E+00  0.00000000000E+00  0.10750436140E+04  0.10750436140E+04  0.00000000000E+00 0.  1.
         21   -1    0    0  501  502 -0.00000000000E+00 -0.00000000000E+00 -0.61782246181E+02  0.61782246181E+02  0.00000000000E+00 0.  1.
         25    1    1    2    0    0 -0.17073791221E+02 -0.41170428064E+02  0.15549162640E+03  0.20442398190E+03  0.12500000000E+03 0.  0.
         25    1    1    2    0    0 -0.81469389254E+02  0.11426698828E+03  0.39013075332E+03  0.43303719319E+03  0.12500000000E+03 0.  0.
         25    1    1    2    0    0  0.98543180475E+02 -0.73096560220E+02  0.46763898812E+03  0.49936468511E+03  0.12500000000E+03 0.  0.
</event>
<event>
 5    0  0.5829567E-005  0.3249952E+03  0.7546771E-02  0.1073373E+00
         21   -1    0    0  502  501  0.00000000000E+00  0.00000000000E+00  0.21909865771E+03  0.21909865771E+03  0.00000000000E+00 0.  1.
         21   -1    0    0  501  502 -0.00000000000E+00 -0.00000000000E+00 -0.48207463594E+03  0.48207463594E+03  0.00000000000E+00 0.  1.
         25    1    1    2    0    0 -0.85974234679E+02 -0.74915907121E+02 -0.31689675164E+02  0.17214295710E+03  0.12500000000E+03 0.  0.
         25    1    1    2    0    0  0.21672579218E+03  0.11509556240E+03 -0.71928873233E+02  0.28463278147E+03  0.12500000000E+03 0.  0.
         25    1    1    2    0    0 -0.13075155750E+03 -0.40179655283E+02 -0.15935742983E+03  0.24439755508E+03  0.12500000000E+03 0.  0.
</event>
<event>
 5    0  0.5829567E-005  0.2468664E+03  0.7546771E-02  0.1115301E+00
         21   -1    0    0  502  501  0.00000000000E+00  0.00000000000E+00  0.29123890691E+03  0.29123890691E+03  0.00000000000E+00 0. -1.
         21   -1    0    0  501  502 -0.00000000000E+00 -0.00000000000E+00 -0.20925441386E+03  0.20925441386E+03  0.00000000000E+00 0. -1.
         25    1    1    2    0    0 -0.10677410037E+03 -0.42706396842E+02  0.89707012000E+02  0.19208563935E+03  0.12500000000E+03 0.  0.
         25    1    1    2    0    0  0.43607610531E+02 -0.47905057519E+02 -0.13976025784E+02  0.14148090871E+03  0.12500000000E+03 0.  0.
         25    1    1    2    0    0  0.63166489842E+02  0.90611454361E+02  0.62535068277E+01  0.16692677271E+03  0.12500000000E+03 0.  0.
</event>
<event>
 5    0  0.5829567E-005  0.3579399E+03  0.7546771E-02  0.1059403E+00
         21   -1    0    0  502  501  0.00000000000E+00  0.00000000000E+00  0.11536136486E+04  0.11536136486E+04  0.00000000000E+00 0. -1.
         21   -1    0    0  501  502 -0.00000000000E+00 -0.00000000000E+00 -0.11106054673E+03  0.11106054673E+03  0.00000000000E+00 0. -1.
         25    1    1    2    0    0  0.57888791929E+02  0.15391325212E+03  0.64937987578E+03  0.68143937696E+03  0.12500000000E+03 0.  0.
         25    1    1    2    0    0 -0.14932636613E+03  0.11763016566E+01  0.26654573642E+03  0.33010812912E+03  0.12500000000E+03 0.  0.
         25    1    1    2    0    0  0.91437574200E+02 -0.15508955378E+03  0.12662748965E+03  0.25312668924E+03  0.12500000000E+03 0.  0.
</event>
<event>
 5    0  0.5829567E-005  0.4044322E+03  0.7546771E-02  0.1042256E+00
         21   -1    0    0  502  501  0.00000000000E+00  0.00000000000E+00  0.29696401037E+03  0.29696401037E+03  0.00000000000E+00 0. -1.
         21   -1    0    0  501  502 -0.00000000000E+00 -0.00000000000E+00 -0.55079203506E+03  0.55079203506E+03  0.00000000000E+00 0.  1.
         25    1    1    2    0    0 -0.24746814446E+03 -0.19143255422E+03 -0.13442519024E+03  0.36274238394E+03  0.12500000000E+03 0.  0.
         25    1    1    2    0    0  0.14338793665E+03  0.23336531172E+03 -0.92014128531E+02  0.31481910511E+03  0.12500000000E+03 0.  0.
         25    1    1    2    0    0  0.10408020781E+03 -0.41932757498E+02 -0.27388705929E+02  0.17019455638E+03  0.12500000000E+03 0.  0.
</event>
<event>
 5    0  0.6145367E-005  0.3533499E+03  0.7546771E-02  0.1061248E+00
         21   -1    0    0  502  501  0.00000000000E+00  0.00000000000E+00  0.17411664582E+03  0.17411664582E+03  0.00000000000E+00 0. -1.
         21   -1    0    0  501  502 -0.00000000000E+00 -0.00000000000E+00 -0.71708323671E+03  0.71708323671E+03  0.00000000000E+00 0. -1.
         25    1    1    2    0    0  0.11005199178E+03  0.10167779090E+03  0.16982729304E+02  0.19586532912E+03  0.12500000000E+03 0.  0.
         25    1    1    2    0    0  0.22798001809E+02 -0.14581826011E+03 -0.15099289877E+03  0.24537026989E+03  0.12500000000E+03 0.  0.
         25    1    1    2    0    0 -0.13284999359E+03  0.44140469206E+02 -0.40895642143E+03  0.44996428352E+03  0.12500000000E+03 0.  0.
</event>
<event>
 5    0  0.5829567E-005  0.2523335E+03  0.7546771E-02  0.1111839E+00
         21   -1    0    0  502  501  0.00000000000E+00  0.00000000000E+00  0.55476694006E+03  0.55476694006E+03  0.00000000000E+00 0. -1.
         21   -1    0    0  501  502 -0.00000000000E+00 -0.00000000000E+00 -0.11477288223E+03  0.11477288223E+03  0.00000000000E+00 0. -1.
         25    1    1    2    0    0 -0.40708247005E+02 -0.56367524030E+02  0.29703674463E+03  0.32968209960E+03  0.12500000000E+03 0.  0.
         25    1    1    2    0    0  0.14815793325E+01  0.16833930432E+02 -0.19292528381E+02  0.12760398874E+03  0.12500000000E+03 0.  0.
         25    1    1    2    0    0  0.39226667673E+02  0.39533593598E+02  0.16224984158E+03  0.21225373394E+03  0.12500000000E+03 0.  0.
</event>
<event>
 5    0  0.5829567E-005  0.3123195E+03  0.7546771E-02  0.1079239E+00
         21   -1    0    0  502  501  0.00000000000E+00  0.00000000000E+00  0.81358451392E+02  0.81358451392E+02  0.00000000000E+00 0. -1.
         21   -1    0    0  501  502 -0.00000000000E+00 -0.00000000000E+00 -0.11989348606E+04  0.11989348606E+04  0.00000000000E+00 0. -1.
         25    1    1    2    0    0 -0.40106098311E+02  0.79384545376E+02 -0.13475374329E+03  0.20419102942E+03  0.12500000000E+03 0.  0.
         25    1    1    2    0    0 -0.28194798440E+02 -0.18819653516E+03 -0.34332834802E+03  0.41196145094E+03  0.12500000000E+03 0.  0.
         25    1    1    2    0    0  0.68300896751E+02  0.10881198978E+03 -0.63949431791E+03  0.66414083164E+03  0.12500000000E+03 0.  0.
</event>
<event>
 5    0  0.5829567E-005  0.3375182E+03  0.7546771E-02  0.1067858E+00
         21   -1    0    0  502  501  0.00000000000E+00  0.00000000000E+00  0.12089183999E+03  0.12089183999E+03  0.00000000000E+00 0.  1.
         21   -1    0    0  501  502 -0.00000000000E+00 -0.00000000000E+00 -0.94231762218E+03  0.94231762218E+03  0.00000000000E+00 0.  1.
         25    1    1    2    0    0  0.17101696242E+03  0.52339192626E+02 -0.31537038061E+03  0.38349663556E+03  0.12500000000E+03 0.  0.
         25    1    1    2    0    0 -0.22068117762E+03  0.15644942326E+02 -0.45398460123E+03  0.52026143863E+03  0.12500000000E+03 0.  0.
         25    1    1    2    0    0  0.49664215204E+02 -0.67984134953E+02 -0.52070800348E+02  0.15945138797E+03  0.12500000000E+03 0.  0.
</event>
<event>
 5    0  0.5829567E-005  0.3391458E+03  0.7546771E-02  0.1067160E+00
         21   -1    0    0  502  501  0.00000000000E+00  0.00000000000E+00  0.84794524354E+03  0.84794524354E+03  0.00000000000E+00 0.  1.
         21   -1    0    0  501  502 -0.00000000000E+00 -0.00000000000E+00 -0.13564540906E+03  0.13564540906E+03  0.00000000000E+00 0.  1.
         25    1    1    2    0    0 -0.33323115717E+02 -0.15403364072E+03  0.15795576201E+03  0.25575733668E+03  0.12500000000E+03 0.  0.
         25    1    1    2    0    0  0.48649304595E+02 -0.11360245922E+03  0.21306245751E+03  0.27621166590E+03  0.12500000000E+03 0.  0.
         25    1    1    2    0    0 -0.15326188878E+02  0.26763609994E+03  0.34128161496E+03  0.45162165002E+03  0.12500000000E+03 0.  0.
</event>
<event>
 5    0  0.7089751E-005  0.2789249E+03  0.7546771E-02  0.1096278E+00
         21   -1    0    0  502  501  0.00000000000E+00  0.00000000000E+00  0.47199704067E+03  0.47199704067E+03  0.00000000000E+00 0. -1.
         21   -1    0    0  501  502 -0.00000000000E+00 -0.00000000000E+00 -0.16482958485E+03  0.16482958485E+03  0.00000000000E+00 0. -1.
         25    1    1    2    0    0 -0.10519531247E+03  0.12858025791E+03  0.83320170703E+02  0.22397809566E+03  0.12500000000E+03 0.  0.
         25    1    1    2    0    0  0.38319004893E+02 -0.62101809633E+02  0.63862790101E+01  0.14488190175E+03  0.12500000000E+03 0.  0.
         25    1    1    2    0    0  0.66876307575E+02 -0.66478448274E+02  0.21746100611E+03  0.26796662810E+03  0.12500000000E+03 0.  0.
</event>
<event>
 5    0  0.5829567E-005  0.3583718E+03  0.7546771E-02  0.1059230E+00
         21   -1    0    0  502  501  0.00000000000E+00  0.00000000000E+00  0.75618907439E+02  0.75618907439E+02  0.00000000000E+00 0. -1.
         21   -1    0    0  501  502 -0.00000000000E+00 -0.00000000000E+00 -0.16983893399E+04  0.16983893399E+04  0.00000000000E+00 0. -1.
         25    1    1    2    0    0  0.52793003132E+02 -0.15237637989E+03 -0.74732688707E+03  0.77467937785E+03  0.12500000000E+03 0.  0.
         25    1    1    2    0    0 -0.11647561512E+03  0.25444035670E+03 -0.60131228157E+03  0.67491327147E+03  0.12500000000E+03 0.  0.
         25    1    1    2    0    0  0.63682611989E+02 -0.10206397681E+03 -0.27413126380E+03  0.32441559800E+03  0.12500000000E+03 0.  0.
</event>
<event>
 5    0  0.5829567E-005  0.3784744E+03  0.7546771E-02  0.1051499E+00
         21   -1    0    0  502  501  0.00000000000E+00  0.00000000000E+00  0.12381656185E+03  0.12381656185E+03  0.00000000000E+00 0. -1.
         21   -1    0    0  501  502 -0.00000000000E+00 -0.00000000000E+00 -0.11568958901E+04  0.11568958901E+04  0.00000000000E+00 0. -1.
         25    1    1    2    0    0  0.10381173269E+02 -0.75084395933E+02 -0.15767338768E+02  0.14703416012E+03  0.12500000000E+03 0.  0.
         25    1    1    2    0    0  0.12156956234E+02 -0.33306176203E+02 -0.94127994413E+03  0.95020525476E+03  0.12500000000E+03 0.  0.
         25    1    1    2    0    0 -0.22538129504E+02  0.10839057214E+03 -0.76032045343E+02  0.18347303706E+03  0.12500000000E+03 0.  0.
</event>
<event>
 5    0  0.5829567E-005  0.2241034E+03  0.7546771E-02  0.1130860E+00
         21   -1    0    0  502  501  0.00000000000E+00  0.00000000000E+00  0.10116166861E+03  0.10116166861E+03  0.00000000000E+00 0.  1.
         21   -1    0    0  501  502 -0.00000000000E+00 -0.00000000000E+00 -0.49645617299E+03  0.49645617299E+03  0.00000000000E+00 0.  1.
         25    1    1    2    0    0 -0.21779326780E+01 -0.70953562478E+02 -0.10730784248E+03  0.17938540765E+03  0.12500000000E+03 0.  0.
         25    1    1    2    0    0 -0.28674051606E+00  0.69103264567E+02 -0.53556008860E+02  0.15254045194E+03  0.12500000000E+03 0.  0.
         25    1    1    2    0    0  0.24646731941E+01  0.18502979109E+01 -0.23443065304E+03  0.26569198201E+03  0.12500000000E+03 0.  0.
</event>
<event>
 5    0  0.5829567E-005  0.3464516E+03  0.7546771E-02  0.1064081E+00
         21   -1    0    0  502  501  0.00000000000E+00  0.00000000000E+00  0.15301623372E+03  0.15301623372E+03  0.00000000000E+00 0. -1.
         21   -1    0    0  501  502 -0.00000000000E+00 -0.00000000000E+00 -0.78441827677E+03  0.78441827677E+03  0.00000000000E+00 0. -1.
         25    1    1    2    0    0  0.10729196128E+03 -0.53232930763E+02 -0.46083909438E+03  0.49228343542E+03  0.12500000000E+03 0.  0.
         25    1    1    2    0    0 -0.13007797802E+03  0.11290365474E+02 -0.23513409378E+03  0.29658185173E+03  0.12500000000E+03 0.  0.
         25    1    1    2    0    0  0.22786016738E+02  0.41942565289E+02  0.64571145122E+02  0.14856922334E+03  0.12500000000E+03 0.  0.
</event>
<event>
 5    0  0.5829567E-005  0.2800689E+03  0.7546771E-02  0.1095651E+00
         21   -1    0    0  502  501  0.00000000000E+00  0.00000000000E+00  0.83073421959E+02  0.83073421959E+02  0.00000000000E+00 0.  1.
         21   -1    0    0  501  502 -0.00000000000E+00 -0.00000000000E+00 -0.94420777702E+03  0.94420777702E+03  0.00000000000E+00 0.  1.
         25    1    1    2    0    0  0.10228500975E+03  0.29462662407E+02 -0.69327901153E+02  0.17821792719E+03  0.12500000000E+03 0.  0.
         25    1    1    2    0    0 -0.27034699015E+02 -0.75537795437E+02 -0.46640439934E+03  0.48948431764E+03  0.12500000000E+03 0.  0.
         25    1    1    2    0    0 -0.75250310731E+02  0.46075133030E+02 -0.32540205457E+03  0.35957895415E+03  0.12500000000E+03 0.  0.
</event>
<event>
 5    0  0.5829567E-005  0.3385897E+03  0.7546771E-02  0.1067398E+00
         21   -1    0    0  502  501  0.00000000000E+00  0.00000000000E+00  0.17368991426E+03  0.17368991426E+03  0.00000000000E+00 0. -1.
         21   -1    0    0  501  502 -0.00000000000E+00 -0.00000000000E+00 -0.66004399707E+03  0.66004399707E+03  0.00000000000E+00 0. -1.
         25    1    1    2    0    0 -0.10467762621E+03  0.10118432426E+03 -0.42063731099E+03  0.46233799358E+03  0.12500000000E+03 0.  0.
         25    1    1    2    0    0  0.13827686448E+03 -0.10637242424E+03  0.20796376269E+02  0.21562252469E+03  0.12500000000E+03 0.  0.
         25    1    1    2    0    0 -0.33599238267E+02  0.51880999811E+01 -0.86513148086E+02  0.15577339306E+03  0.12500000000E+03 0.  0.
</event>
<event>
 5    0  0.5834890E-005  0.2550376E+03  0.7546771E-02  0.1110162E+00
         21   -1    0    0  502  501  0.00000000000E+00  0.00000000000E+00  0.54343855305E+03  0.54343855305E+03  0.00000000000E+00 0. -1.
         21   -1    0    0  501  502 -0.00000000000E+00 -0.00000000000E+00 -0.11969006488E+03  0.11969006488E+03  0.00000000000E+00 0. -1.
         25    1    1    2    0    0  0.14032103330E+02  0.15105643640E+02  0.18754642648E+03  0.22632662786E+03  0.12500000000E+03 0.  0.
         25    1    1    2    0    0  0.10199549363E+03 -0.77195872954E+02  0.15992815862E+03  0.23992561231E+03  0.12500000000E+03 0.  0.
         25    1    1    2    0    0 -0.11602759696E+03  0.62090229314E+02  0.76273903073E+02  0.19687637776E+03  0.12500000000E+03 0.  0.
</event>
<event>
 5    0  0.5829567E-005  0.3150422E+03  0.7546771E-02  0.1077954E+00
         21   -1    0    0  502  501  0.00000000000E+00  0.00000000000E+00  0.15037338021E+04  0.15037338021E+04  0.00000000000E+00 0. -1.
         21   -1    0    0  501  502 -0.00000000000E+00 -0.00000000000E+00 -0.66003443598E+02  0.66003443598E+02  0.00000000000E+00 0. -1.
         25    1    1    2    0    0 -0.63504765766E+02  0.10229812071E+03  0.26944667817E+03  0.32050627630E+03  0.12500000000E+03 0.  0.
         25    1    1    2    0    0  0.14994130118E+03 -0.21308819991E+02  0.95561408810E+03  0.97558174695E+03  0.12500000000E+03 0.  0.
         25    1    1    2    0    0 -0.86436535415E+02 -0.80989300717E+02  0.21266959226E+03  0.27364922247E+03  0.12500000000E+03 0.  0.
</event>
<event>
 5    0  0.5829567E-005  0.2613265E+03  0.7546771E-02  0.1106349E+00
         21   -1    0    0  502  501  0.00000000000E+00  0.00000000000E+00  0.39924968854E+02  0.39924968854E+02  0.00000000000E+00 0.  1.
         21   -1    0    0  501  502 -0.00000000000E+00 -0.00000000000E+00 -0.17104974326E+04  0.17104974326E+04  0.00000000000E+00 0.  1.
         25    1    1    2    0    0  0.35011635278E+02 -0.47622983367E+02 -0.46832671310E+03  0.48831206554E+03  0.12500000000E+03 0.  0.
         25    1    1    2    0    0 -0.11295595189E+03 -0.16565103221E+01 -0.95765589079E+03  0.97236392172E+03  0.12500000000E+03 0.  0.
         25    1    1    2    0    0  0.77944316611E+02  0.49279493689E+02 -0.24458985981E+03  0.28974641415E+03  0.12500000000E+03 0.  0.
</event>
<event>
 5    0  0.5829567E-005  0.2853287E+03  0.7546771E-02  0.1092814E+00
         21   -1    0    0  502  501  0.00000000000E+00  0.00000000000E+00  0.10390743655E+03  0.10390743655E+03  0.00000000000E+00 0. -1.
         21   -1    0    0  501  502 -0.00000000000E+00 -0.00000000000E+00 -0.78350957607E+03  0.78350957607E+03  0.00000000000E+00 0. -1.
         25    1    1    2    0    0 -0.36627919901E+02 -0.61991289580E+02 -0.19731661361E+03  0.24442457018E+03  0.12500000000E+03 0.  0.
         25    1    1    2    0    0 -0.37510131150E+02 -0.71808368260E+02 -0.33535781465E+02  0.15268628075E+03  0.12500000000E+03 0.  0.
         25    1    1    2    0    0  0.74138051051E+02  0.13379965784E+03 -0.44874974445E+03  0.49030616169E+03  0.12500000000E+03 0.  0.
</event>
<event>
 5    0  0.5829567E-005  0.6292323E+03  0.7546771E-02  0.9846548E-01
         21   -1    0    0  502  501  0.00000000000E+00  0.00000000000E+00  0.13406925645E+04  0.13406925645E+04  0.00000000000E+00 0. -1.
         21   -1    0    0  501  502 -0.00000000000E+00 -0.00000000000E+00 -0.29531995568E+03  0.29531995568E+03  0.00000000000E+00 0. -1.
         25    1    1    2    0    0 -0.15284171841E+02  0.34190568006E+03  0.36135304443E+01  0.36437776767E+03  0.12500000000E+03 0.  0.
         25    1    1    2    0    0 -0.11116603775E+03 -0.39640522530E+03  0.98867233657E+03  0.10782360501E+04  0.12500000000E+03 0.  0.
         25    1    1    2    0    0  0.12645020959E+03  0.54499545236E+02  0.53086741753E+02  0.19339870239E+03  0.12500000000E+03 0.  0.
</event>
<event>
 5    0  0.5829567E-005  0.4125462E+03  0.7546771E-02  0.1039520E+00
         21   -1    0    0  502  501  0.00000000000E+00  0.00000000000E+00  0.11714305091E+03  0.11714305091E+03  0.00000000000E+00 0.  1.
         21   -1    0    0  501  502 -0.00000000000E+00 -0.00000000000E+00 -0.14528763658E+04  0.14528763658E+04  0.00000000000E+00 0.  1.
         25    1    1    2    0    0 -0.21344092254E+03 -0.13495248386E+03 -0.54247210446E+03  0.61128568152E+03  0.12500000000E+03 0.  0.
         25    1    1    2    0    0  0.23573267036E+03  0.25104589167E+03 -0.54413855585E+03  0.65597690475E+03  0.12500000000E+03 0.  0.
         25    1    1    2    0    0 -0.22291747814E+02 -0.11609340781E+03 -0.24912265461E+03  0.30275683047E+03  0.12500000000E+03 0.  0.
</event>
<event>
 5    0  0.5829567E-005  0.2965164E+03  0.7546771E-02  0.1086995E+00
         21   -1    0    0  502  501  0.00000000000E+00  0.00000000000E+00  0.89493362157E+02  0.89493362157E+02  0.00000000000E+00 0.  1.
         21   -1    0    0  501  502 -0.00000000000E+00 -0.00000000000E+00 -0.98244162774E+03  0.98244162774E+03  0.00000000000E+00 0.  1.
         25    1    1    2    0    0 -0.14079758880E+03 -0.11837532825E+03 -0.30474222766E+03  0.37726582759E+03  0.12500000000E+03 0.  0.
         25    1    1    2    0    0  0.27710519460E+02  0.14490809751E+03 -0.37182094356E+03  0.41909669968E+03  0.12500000000E+03 0.  0.
         25    1    1    2    0    0  0.11308706934E+03 -0.26532769254E+02 -0.21638509436E+03  0.27557246263E+03  0.12500000000E+03 0.  0.
</event>
<event>
 5    0  0.5829567E-005  0.4092098E+03  0.7546771E-02  0.1040637E+00
         21   -1    0    0  502  501  0.00000000000E+00  0.00000000000E+00  0.26427722189E+04  0.26427722189E+04  0.00000000000E+00 0.  1.
         21   -1    0    0  501  502 -0.00000000000E+00 -0.00000000000E+00 -0.63362501825E+02  0.63362501825E+02  0.00000000000E+00 0.  1.
         25    1    1    2    0    0  0.30851972030E+02 -0.19322414420E+03  0.13608002892E+04  0.13804672546E+04  0.12500000000E+03 0.  0.
         25    1    1    2    0    0 -0.60784521709E+02  0.27640243562E+03  0.47791698039E+03  0.56931775367E+03  0.12500000000E+03 0.  0.
         25    1    1    2    0    0  0.29932549679E+02 -0.83178291422E+02  0.74069244747E+03  0.75634971239E+03  0.12500000000E+03 0.  0.
</event>
<event>
 5    0  0.6624056E-005  0.2927436E+03  0.7546771E-02  0.1088925E+00
         21   -1    0    0  502  501  0.00000000000E+00  0.00000000000E+00  0.67367554460E+03  0.67367554460E+03  0.00000000000E+00 0. -1.
         21   -1    0    0  501  502 -0.00000000000E+00 -0.00000000000E+00 -0.12721079493E+03  0.12721079493E+03  0.00000000000E+00 0. -1.
         25    1    1    2    0    0  0.48500333295E+02  0.12048029485E+03  0.23260034771E+02  0.18175206462E+03  0.12500000000E+03 0.  0.
         25    1    1    2    0    0 -0.10767235754E+03 -0.68741173676E+02  0.23434668341E+03  0.29472369019E+03  0.12500000000E+03 0.  0.
         25    1    1    2    0    0  0.59172024249E+02 -0.51739121173E+02  0.28885803149E+03  0.32441058471E+03  0.12500000000E+03 0.  0.
</event>
<event>
 5    0  0.5829567E-005  0.3600310E+03  0.7546771E-02  0.1058572E+00
         21   -1    0    0  502  501  0.00000000000E+00  0.00000000000E+00  0.40167703685E+03  0.40167703685E+03  0.00000000000E+00 0. -1.
         21   -1    0    0  501  502 -0.00000000000E+00 -0.00000000000E+00 -0.32270278401E+03  0.32270278401E+03  0.00000000000E+00 0. -1.
         25    1    1    2    0    0 -0.17642121016E+03 -0.14877966884E+03  0.43443182663E+02  0.26603034296E+03  0.12500000000E+03 0.  0.
         25    1    1    2    0    0  0.12353068079E+03  0.14639693428E+03 -0.11469520718E+03  0.25587473891E+03  0.12500000000E+03 0.  0.
         25    1    1    2    0    0  0.52890529371E+02  0.23827345652E+01  0.15022627735E+03  0.20247473899E+03  0.12500000000E+03 0.  0.
</event>
<event>
 5    0  0.5829567E-005  0.2514633E+03  0.7546771E-02  0.1112384E+00
         21   -1    0    0  502  501  0.00000000000E+00  0.00000000000E+00  0.81981410638E+02  0.81981410638E+02  0.00000000000E+00 0.  1.
         21   -1    0    0  501  502 -0.00000000000E+00 -0.00000000000E+00 -0.77131842846E+03  0.77131842846E+03  0.00000000000E+00 0.  1.
         25    1    1    2    0    0 -0.11497832665E+03  0.45406297268E+02 -0.23599590885E+03  0.29428016655E+03  0.12500000000E+03 0.  0.
         25    1    1    2    0    0 -0.18114350140E+02 -0.53586433973E+01 -0.26526763310E+03  0.29385159845E+03  0.12500000000E+03 0.  0.
         25    1    1    2    0    0  0.13309267679E+03 -0.40047653871E+02 -0.18807347588E+03  0.26516807410E+03  0.12500000000E+03 0.  0.
</event>
<event>
 5    0  0.5829567E-005  0.3540143E+03  0.7546771E-02  0.1060979E+00
         21   -1    0    0  502  501  0.00000000000E+00  0.00000000000E+00  0.35371347489E+03  0.35371347489E+03  0.00000000000E+00 0. -1.
         21   -1    0    0  501  502 -0.00000000000E+00 -0.00000000000E+00 -0.35431534675E+03  0.35431534675E+03  0.00000000000E+00 0. -1.
         25    1    1    2    0    0  0.12727206597E+03 -0.11977728698E+03 -0.74045503203E+02  0.22727189399E+03  0.12500000000E+03 0.  0.
         25    1    1    2    0    0 -0.12345828996E+03  0.24203314972E+03  0.62419426744E+02  0.30552116090E+03  0.12500000000E+03 0.  0.
         25    1    1    2    0    0 -0.38137760186E+01 -0.12225586274E+03  0.11024204596E+02  0.17523576675E+03  0.12500000000E+03 0.  0.
</event>
<event>
 5    0  0.5829567E-005  0.3908543E+03  0.7546771E-02  0.1046993E+00
         21   -1    0    0  502  501  0.00000000000E+00  0.00000000000E+00  0.58013191214E+03  0.58013191214E+03  0.00000000000E+00 0.  1.
         21   -1    0    0  501  502 -0.00000000000E+00 -0.00000000000E+00 -0.26333167871E+03  0.26333167871E+03  0.00000000000E+00 0.  1.
         25    1    1    2    0    0 -0.19672471941E+03 -0.71425823394E+02 -0.90259317694E+02  0.25995001040E+03  0.12500000000E+03 0.  0.
         25    1    1    2    0    0  0.46787657727E+02 -0.28349866862E+02  0.31955388541E+03  0.34746580486E+03  0.12500000000E+03 0.  0.
         25    1    1    2    0    0  0.14993706169E+03  0.99775690255E+02  0.87505665715E+02  0.23604777560E+03  0.12500000000E+03 0.  0.
</event>
<event>
 5    0  0.5829567E-005  0.3104950E+03  0.7546771E-02  0.1080109E+00
         21   -1    0    0  502  501  0.00000000000E+00  0.00000000000E+00  0.22322132988E+04  0.22322132988E+04  0.00000000000E+00 0. -1.
         21   -1    0    0  501  502 -0.00000000000E+00 -0.00000000000E+00 -0.43189034054E+02  0.43189034054E+02  0.00000000000E+00 0. -1.
         25    1    1    2    0    0 -0.11119411096E+03 -0.19884668628E+02  0.50972137107E+03  0.53684299985E+03  0.12500000000E+03 0.  0.
         25    1    1    2    0    0 -0.64018559500E+02  0.12401831984E+03  0.10239929915E+04  0.10409925870E+04  0.12500000000E+03 0.  0.
         25    1    1    2    0    0  0.17521267046E+03 -0.10413365121E+03  0.65530990224E+03  0.69756674604E+03  0.12500000000E+03 0.  0.
</event>
<event>
 5    0  0.5829567E-005  0.2540521E+03  0.7546771E-02  0.1110770E+00
         21   -1    0    0  502  501  0.00000000000E+00  0.00000000000E+00  0.46743587441E+02  0.46743587441E+02  0.00000000000E+00 0.  1.
         21   -1    0    0  501  502 -0.00000000000E+00 -0.00000000000E+00 -0.13807769817E+04  0.13807769817E+04  0.00000000000E+00 0.  1.
         25    1    1    2    0    0  0.17466598318E+02 -0.60777272658E+02 -0.35641664074E+03  0.38295793598E+03  0.12500000000E+03 0.  0.
         25    1    1    2    0    0  0.77604395702E+02  0.89401759241E+02 -0.27822137474E+03  0.32718076066E+03  0.12500000000E+03 0.  0.
         25    1    1    2    0    0 -0.95070994020E+02 -0.28624486582E+02 -0.69939537873E+03  0.71738187245E+03  0.12500000000E+03 0.  0.
</event>
<event>
 5    0  0.5829567E-005  0.4202609E+03  0.7546771E-02  0.1036981E+00
         21   -1    0    0  502  501  0.00000000000E+00  0.00000000000E+00  0.28842306243E+03  0.28842306243E+03  0.00000000000E+00 0. -1.
         21   -1    0    0  501  502 -0.00000000000E+00 -0.00000000000E+00 -0.61236178735E+03  0.61236178735E+03  0.00000000000E+00 0. -1.
         25    1    1    2    0    0  0.10666461068E+03  0.19468907488E+02 -0.13692004210E+03  0.21477540702E+03  0.12500000000E+03 0.  0.
         25    1    1    2    0    0  0.18414089932E+03 -0.13393736311E+03 -0.22966401905E+03  0.34672416946E+03  0.12500000000E+03 0.  0.
         25    1    1    2    0    0 -0.29080551000E+03  0.11446845562E+03  0.42645336231E+02  0.33928527330E+03  0.12500000000E+03 0.  0.
</event>
<event>
 5    0  0.5829567E-005  0.3405167E+03  0.7546771E-02  0.1066576E+00
         21   -1    0    0  502  501  0.00000000000E+00  0.00000000000E+00  0.25450814759E+03  0.25450814759E+03  0.00000000000E+00 0.  1.
         21   -1    0    0  501  502 -0.00000000000E+00 -0.00000000000E+00 -0.45559110736E+03  0.45559110736E+03  0.00000000000E+00 0.  1.
         25    1    1    2    0    0  0.65312388331E+02  0.10371531549E+03 -0.33540552184E+02  0.17824854383E+03  0.12500000000E+03 0.  0.
         25    1    1    2    0    0 -0.20574058503E+02  0.97166023607E+02 -0.23288147787E+03  0.28235316673E+03  0.12500000000E+03 0.  0.
         25    1    1    2    0    0 -0.44738329828E+02 -0.20088133909E+03  0.65339070291E+02  0.24949754439E+03  0.12500000000E+03 0.  0.
</event>
<event>
 5    0  0.5829567E-005  0.3334824E+03  0.7546771E-02  0.1069606E+00
         21   -1    0    0  502  501  0.00000000000E+00  0.00000000000E+00  0.78466291625E+03  0.78466291625E+03  0.00000000000E+00 0.  1.
         21   -1    0    0  501  502 -0.00000000000E+00 -0.00000000000E+00 -0.14173030499E+03  0.14173030499E+03  0.00000000000E+00 0.  1.
         25    1    1    2    0    0 -0.38524002906E+02 -0.14191695900E+03  0.13943108279E+03  0.23809777172E+03  0.12500000000E+03 0.  0.
         25    1    1    2    0    0  0.45463790855E+02 -0.96773734401E+02  0.72057797856E+02  0.17958128572E+03  0.12500000000E+03 0.  0.
         25    1    1    2    0    0 -0.69397879489E+01  0.23869069340E+03  0.43144373061E+03  0.50871416380E+03  0.12500000000E+03 0.  0.
</event>
<event>
 5    0  0.5829567E-005  0.3116563E+03  0.7546771E-02  0.1079555E+00
         21   -1    0    0  502  501  0.00000000000E+00  0.00000000000E+00  0.97388146215E+03  0.97388146215E+03  0.00000000000E+00 0. -1.
         21   -1    0    0  501  502 -0.00000000000E+00 -0.00000000000E+00 -0.99734592236E+02  0.99734592236E+02  0.00000000000E+00 0. -1.
         25    1    1    2    0    0  0.58576238540E+02 -0.11947654841E+03  0.34818891339E+03  0.39314926014E+03  0.12500000000E+03 0.  0.
         25    1    1    2    0    0  0.50172060388E+02  0.16860712538E+03  0.13905633033E+03  0.25672409582E+03  0.12500000000E+03 0.  0.
         25    1    1    2    0    0 -0.10874829893E+03 -0.49130576961E+02  0.38690162620E+03  0.42374269843E+03  0.12500000000E+03 0.  0.
</event>
<event>
 5    0  0.5829567E-005  0.2914130E+03  0.7546771E-02  0.1089614E+00
         21   -1    0    0  502  501  0.00000000000E+00  0.00000000000E+00  0.32204600604E+02  0.32204600604E+02  0.00000000000E+00 0. -1.
         21   -1    0    0  501  502 -0.00000000000E+00 -0.00000000000E+00 -0.26369379146E+04  0.26369379146E+04  0.00000000000E+00 0. -1.
         25    1    1    2    0    0  0.49634611911E+02  0.77286225522E+02 -0.11658828263E+04  0.11761566733E+04  0.12500000000E+03 0.  0.
         25    1    1    2    0    0 -0.56517862218E+01  0.10285475371E+03 -0.42631475354E+03  0.45604858528E+03  0.12500000000E+03 0.  0.
         25    1    1    2    0    0 -0.43982825689E+02 -0.18014097923E+03 -0.10125357342E+04  0.10369372567E+04  0.12500000000E+03 0.  0.
</event>
<event>
 5    0  0.5829567E-005  0.4127223E+03  0.7546771E-02  0.1039461E+00
         21   -1    0    0  502  501  0.00000000000E+00  0.00000000000E+00  0.95401243812E+03  0.95401243812E+03  0.00000000000E+00 0. -1.
         21   -1    0    0  501  502 -0.00000000000E+00 -0.00000000000E+00 -0.17855081396E+03  0.17855081396E+03  0.00000000000E+00 0.  1.
         25    1    1    2    0    0  0.12711148965E+03 -0.25542793426E+03  0.26871367195E+03  0.41137914129E+03  0.12500000000E+03 0.  0.
         25    1    1    2    0    0  0.10356068482E+02 -0.65253936524E+02  0.11900681752E+03  0.18480515957E+03  0.12500000000E+03 0.  0.
         25    1    1    2    0    0 -0.13746755813E+03  0.32068187078E+03  0.38774113469E+03  0.53637895122E+03  0.12500000000E+03 0.  0.
</event>
<event>
 5    0  0.5829567E-005  0.2556657E+03  0.7546771E-02  0.1109776E+00
         21   -1    0    0  502  501  0.00000000000E+00  0.00000000000E+00  0.11295528837E+04  0.11295528837E+04  0.00000000000E+00 0. -1.
         21   -1    0    0  501  502 -0.00000000000E+00 -0.00000000000E+00 -0.57867985360E+02  0.57867985360E+02  0.00000000000E+00 0. -1.
         25    1    1    2    0    0 -0.40545398650E+02  0.40650016009E+01  0.16304154963E+03  0.20944689183E+03  0.12500000000E+03 0.  0.
         25    1    1    2    0    0 -0.43222947162E+02 -0.78226391659E+02  0.21458924995E+03  0.26393396467E+03  0.12500000000E+03 0.  0.
         25    1    1    2    0    0  0.83768345813E+02  0.74161390058E+02  0.69405409879E+03  0.71404001259E+03  0.12500000000E+03 0.  0.
</event>
<event>
 5    0  0.5829567E-005  0.4567521E+03  0.7546771E-02  0.1025727E+00
         21   -1    0    0  502  501  0.00000000000E+00  0.00000000000E+00  0.25509400931E+03  0.25509400931E+03  0.00000000000E+00 0.  1.
         21   -1    0    0  501  502 -0.00000000000E+00 -0.00000000000E+00 -0.81782577366E+03  0.81782577366E+03  0.00000000000E+00 0.  1.
         25    1    1    2    0    0 -0.51712304043E+02 -0.93177768765E+02 -0.27977802485E+03  0.32443335551E+03  0.12500000000E+03 0.  0.
         25    1    1    2    0    0  0.16715355975E+03  0.30086585787E+03 -0.30846840734E+03  0.47878840346E+03  0.12500000000E+03 0.  0.
         25    1    1    2    0    0 -0.11544125571E+03 -0.20768808910E+03  0.25514667841E+02  0.26969802400E+03  0.12500000000E+03 0.  0.
</event>
<event>
 5    0  0.5829567E-005  0.2779694E+03  0.7546771E-02  0.1096803E+00
         21   -1    0    0  502  501  0.00000000000E+00  0.00000000000E+00  0.25114726785E+03  0.25114726785E+03  0.00000000000E+00 0. -1.
         21   -1    0    0  501  502 -0.00000000000E+00 -0.00000000000E+00 -0.30765615612E+03  0.30765615612E+03  0.00000000000E+00 0. -1.
         25    1    1    2    0    0 -0.86845493178E+02 -0.10715162931E+03 -0.13610314150E+03  0.23059201304E+03  0.12500000000E+03 0.  0.
         25    1    1    2    0    0  0.73475222590E+02  0.11949490443E+03  0.73476001380E+02  0.20174578880E+03  0.12500000000E+03 0.  0.
         25    1    1    2    0    0  0.13370270589E+02 -0.12343275115E+02  0.61182518548E+01  0.12646562213E+03  0.12500000000E+03 0.  0.
</event>
<event>
 5    0  0.5829567E-005  0.2495475E+03  0.7546771E-02  0.1113591E+00
         21   -1    0    0  502  501  0.00000000000E+00  0.00000000000E+00  0.57800687420E+02  0.57800687420E+02  0.00000000000E+00 0.  1.
         21   -1    0    0  501  502 -0.00000000000E+00 -0.00000000000E+00 -0.10773908834E+04  0.10773908834E+04  0.00000000000E+00 0.  1.
         25    1    1    2    0    0  0.11588539158E+03 -0.20579717289E+02 -0.33580943838E+03  0.37715504458E+03  0.12500000000E+03 0.  0.
         25    1    1    2    0    0 -0.24588167347E+02 -0.14530575184E+02 -0.13258863221E+03  0.18444636342E+03  0.12500000000E+03 0.  0.
         25    1    1    2    0    0 -0.91297224234E+02  0.35110292474E+02 -0.55119212538E+03  0.57359016281E+03  0.12500000000E+03 0.  0.
</event>
<event>
 5    0  0.5829567E-005  0.2417653E+03  0.7546771E-02  0.1118622E+00
         21   -1    0    0  502  501  0.00000000000E+00  0.00000000000E+00  0.19019391363E+03  0.19019391363E+03  0.00000000000E+00 0. -1.
         21   -1    0    0  501  502 -0.00000000000E+00 -0.00000000000E+00 -0.30732038009E+03  0.30732038009E+03  0.00000000000E+00 0. -1.
         25    1    1    2    0    0 -0.63857437782E+02 -0.73957223392E+01  0.63667452618E+02  0.15430817733E+03  0.12500000000E+03 0.  0.
         25    1    1    2    0    0  0.19364605758E+02  0.28109552795E+02 -0.16225045567E+03  0.20764234944E+03  0.12500000000E+03 0.  0.
         25    1    1    2    0    0  0.44492832024E+02 -0.20713830456E+02 -0.18543463413E+02  0.13556376695E+03  0.12500000000E+03 0.  0.
</event>
<event>
 5    0  0.5829567E-005  0.2714992E+03  0.7546771E-02  0.1100425E+00
         21   -1    0    0  502  501  0.00000000000E+00  0.00000000000E+00  0.22570239975E+03  0.22570239975E+03  0.00000000000E+00 0. -1.
         21   -1    0    0  501  502 -0.00000000000E+00 -0.00000000000E+00 -0.32658856484E+03  0.32658856484E+03  0.00000000000E+00 0. -1.
         25    1    1    2    0    0  0.10748699633E+03 -0.12330503318E+02 -0.39696100534E+02  0.17001845808E+03  0.12500000000E+03 0.  0.
         25    1    1    2    0    0 -0.15243118294E+03  0.90999422336E+02 -0.68637856021E+02  0.22771103548E+03  0.12500000000E+03 0.  0.
         25    1    1    2    0    0  0.44944186611E+02 -0.78668919018E+02  0.74477914697E+01  0.15456147103E+03  0.12500000000E+03 0.  0.
</event>
<event>
 5    0  0.6091356E-005  0.2983440E+03  0.7546771E-02  0.1086071E+00
         21   -1    0    0  502  501  0.00000000000E+00  0.00000000000E+00  0.22798615198E+03  0.22798615198E+03  0.00000000000E+00 0.  1.
         21   -1    0    0  501  502 -0.00000000000E+00 -0.00000000000E+00 -0.39041465658E+03  0.39041465658E+03  0.00000000000E+00 0.  1.
         25    1    1    2    0    0 -0.13225565544E+03  0.45823218794E+02 -0.76899265336E+02  0.20280488846E+03  0.12500000000E+03 0.  0.
         25    1    1    2    0    0 -0.67331817437E+02 -0.18761235736E+02 -0.10524549599E+03  0.17772780321E+03  0.12500000000E+03 0.  0.
         25    1    1    2    0    0  0.19958747287E+03 -0.27061983057E+02  0.19716256735E+02  0.23786811689E+03  0.12500000000E+03 0.  0.
</event>
<event>
 5    0  0.5829567E-005  0.4102337E+03  0.7546771E-02  0.1040293E+00
         21   -1    0    0  502  501  0.00000000000E+00  0.00000000000E+00  0.16596665812E+04  0.16596665812E+04  0.00000000000E+00 0.  1.
         21   -1    0    0  501  502 -0.00000000000E+00 -0.00000000000E+00 -0.10140088856E+03  0.10140088856E+03  0.00000000000E+00 0.  1.
         25    1    1    2    0    0  0.19851212001E+03 -0.25237239209E+03  0.58651055893E+03  0.68023416690E+03  0.12500000000E+03 0.  0.
         25    1    1    2    0    0 -0.88152942729E+02  0.22498393320E+03  0.77559752757E+03  0.82192775612E+03  0.12500000000E+03 0.  0.
         25    1    1    2    0    0 -0.11035917728E+03  0.27388458896E+02  0.19615760613E+03  0.25890554674E+03  0.12500000000E+03 0.  0.
</event>
<event>
 5    0  0.5829567E-005  0.2495684E+03  0.7546771E-02  0.1113578E+00
         21   -1    0    0  502  501  0.00000000000E+00  0.00000000000E+00  0.67399397243E+02  0.67399397243E+02  0.00000000000E+00 0. -1.
         21   -1    0    0  501  502 -0.00000000000E+00 -0.00000000000E+00 -0.92410900073E+03  0.92410900073E+03  0.00000000000E+00 0. -1.
         25    1    1    2    0    0 -0.35071009376E+02  0.37654907588E+02 -0.47411619657E+03  0.49301017800E+03  0.12500000000E+03 0.  0.
         25    1    1    2    0    0 -0.55055015410E+01  0.31431647763E+02 -0.30458335702E+03  0.33077829494E+03  0.12500000000E+03 0.  0.
         25    1    1    2    0    0  0.40576510917E+02 -0.69086555350E+02 -0.78010049899E+02  0.16771992503E+03  0.12500000000E+03 0.  0.
</event>
<event>
 5    0  0.5829567E-005  0.2252372E+03  0.7546771E-02  0.1130038E+00
         21   -1    0    0  502  501  0.00000000000E+00  0.00000000000E+00  0.66408057087E+03  0.66408057087E+03  0.00000000000E+00 0. -1.
         21   -1    0    0  501  502 -0.00000000000E+00 -0.00000000000E+00 -0.76394049608E+02  0.76394049608E+02  0.00000000000E+00 0. -1.
         25    1    1    2    0    0 -0.12718093904E+02  0.42465035899E+02  0.10769844447E+03  0.17084783911E+03  0.12500000000E+03 0.  0.
         25    1    1    2    0    0 -0.61325336899E+02  0.17678199831E+02  0.29608944577E+03  0.32766946088E+03  0.12500000000E+03 0.  0.
         25    1    1    2    0    0  0.74043430804E+02 -0.60143235730E+02  0.18389863102E+03  0.24195732049E+03  0.12500000000E+03 0.  0.
</event>
<event>
 5    0  0.5829567E-005  0.3365517E+03  0.7546771E-02  0.1068274E+00
         21   -1    0    0  502  501  0.00000000000E+00  0.00000000000E+00  0.75161642532E+02  0.75161642532E+02  0.00000000000E+00 0. -1.
         21   -1    0    0  501  502 -0.00000000000E+00 -0.00000000000E+00 -0.15069797399E+04  0.15069797399E+04  0.00000000000E+00 0. -1.
         25    1    1    2    0    0 -0.17732457970E+03 -0.65870419856E+02 -0.46072996281E+03  0.51349782610E+03  0.12500000000E+03 0.  0.
         25    1    1    2    0    0 -0.22423949744E+02  0.64515509053E+01 -0.92973362679E+02  0.15752302117E+03  0.12500000000E+03 0.  0.
         25    1    1    2    0    0  0.19974852944E+03  0.59418868951E+02 -0.87811477187E+03  0.91112053515E+03  0.12500000000E+03 0.  0.
</event>
<event>
 5    0  0.5829567E-005  0.2546421E+03  0.7546771E-02  0.1110406E+00
         21   -1    0    0  502  501  0.00000000000E+00  0.00000000000E+00  0.27326387567E+02  0.27326387567E+02  0.00000000000E+00 0. -1.
         21   -1    0    0  501  502 -0.00000000000E+00 -0.00000000000E+00 -0.23728923075E+04  0.23728923075E+04  0.00000000000E+00 0. -1.
         25    1    1    2    0    0  0.49260250039E+02 -0.89308330414E+02 -0.46340305029E+03  0.49068313313E+03  0.12500000000E+03 0.  0.
         25    1    1    2    0    0 -0.11035583549E+03  0.49100175776E+02 -0.88477409885E+03  0.90168699874E+03  0.12500000000E+03 0.  0.
         25    1    1    2    0    0  0.61095585448E+02  0.40208154639E+02 -0.99738877078E+03  0.10078485632E+04  0.12500000000E+03 0.  0.
</event>
<event>
 5    0  0.5829567E-005  0.2774740E+03  0.7546771E-02  0.1097077E+00
         21   -1    0    0  502  501  0.00000000000E+00  0.00000000000E+00  0.34653242248E+03  0.34653242248E+03  0.00000000000E+00 0.  1.
         21   -1    0    0  501  502 -0.00000000000E+00 -0.00000000000E+00 -0.22217776041E+03  0.22217776041E+03  0.00000000000E+00 0.  1.
         25    1    1    2    0    0  0.41512571642E+02  0.68778288576E+01  0.58377714993E+02  0.14423437781E+03  0.12500000000E+03 0.  0.
         25    1    1    2    0    0 -0.17771688643E+03  0.16734921171E+02  0.91531971291E+02  0.23636084929E+03  0.12500000000E+03 0.  0.
         25    1    1    2    0    0  0.13620431479E+03 -0.23612750029E+02 -0.25555024211E+02  0.18811495579E+03  0.12500000000E+03 0.  0.
</event>
<event>
 5    0  0.5829567E-005  0.3437776E+03  0.7546771E-02  0.1065198E+00
         21   -1    0    0  502  501  0.00000000000E+00  0.00000000000E+00  0.96519332928E+03  0.96519332928E+03  0.00000000000E+00 0. -1.
         21   -1    0    0  501  502 -0.00000000000E+00 -0.00000000000E+00 -0.12244490417E+03  0.12244490417E+03  0.00000000000E+00 0. -1.
         25    1    1    2    0    0  0.11675477902E+03  0.11776558060E+03  0.33642506425E+03  0.39535709713E+03  0.12500000000E+03 0.  0.
         25    1    1    2    0    0 -0.72477690421E+02  0.16475894957E+01 -0.11121679145E+02  0.14492902369E+03  0.12500000000E+03 0.  0.
         25    1    1    2    0    0 -0.44277088600E+02 -0.11941317009E+03  0.51744504002E+03  0.54735211263E+03  0.12500000000E+03 0.  0.
</event>
<event>
 5    0  0.5829567E-005  0.5083082E+03  0.7546771E-02  0.1011633E+00
         21   -1    0    0  502  501  0.00000000000E+00  0.00000000000E+00  0.12963543717E+03  0.12963543717E+03  0.00000000000E+00 0. -1.
         21   -1    0    0  501  502 -0.00000000000E+00 -0.00000000000E+00 -0.19931061737E+04  0.19931061737E+04  0.00000000000E+00 0. -1.
         25    1    1    2    0    0  0.21220190006E+03  0.25490604006E+03 -0.26885799531E+03  0.44487791279E+03  0.12500000000E+03 0.  0.
         25    1    1    2    0    0 -0.60106603043E+02 -0.28909748445E+03 -0.91974489807E+03  0.97403584983E+03  0.12500000000E+03 0.  0.
         25    1    1    2    0    0 -0.15209529701E+03  0.34191444393E+02 -0.67486784315E+03  0.70382784824E+03  0.12500000000E+03 0.  0.
</event>
<event>
 5    0  0.5829567E-005  0.2723600E+03  0.7546771E-02  0.1099936E+00
         21   -1    0    0  502  501  0.00000000000E+00  0.00000000000E+00  0.23994403456E+03  0.23994403456E+03  0.00000000000E+00 0. -1.
         21   -1    0    0  501  502 -0.00000000000E+00 -0.00000000000E+00 -0.30915526109E+03  0.30915526109E+03  0.00000000000E+00 0. -1.
         25    1    1    2    0    0 -0.16354913350E+03  0.73169226751E+02 -0.80865088629E+02  0.23295110510E+03  0.12500000000E+03 0.  0.
         25    1    1    2    0    0  0.74830363347E+02 -0.21030221699E+02 -0.27088808347E+02  0.14966849047E+03  0.12500000000E+03 0.  0.
         25    1    1    2    0    0  0.88718770149E+02 -0.52139005052E+02  0.38742670446E+02  0.16647970008E+03  0.12500000000E+03 0.  0.
</event>
<event>
 5    0  0.5829567E-005  0.3550326E+03  0.7546771E-02  0.1060568E+00
         21   -1    0    0  502  501  0.00000000000E+00  0.00000000000E+00  0.32692668640E+03  0.32692668640E+03  0.00000000000E+00 0. -1.
         21   -1    0    0  501  502 -0.00000000000E+00 -0.00000000000E+00 -0.38555486419E+03  0.38555486419E+03  0.00000000000E+00 0. -1.
         25    1    1    2    0    0 -0.10457621312E+03  0.45759326134E+02  0.11714183629E+03  0.20585749947E+03  0.12500000000E+03 0.  0.
         25    1    1    2    0    0  0.56185082737E+02  0.83046688614E+02  0.88853518381E+02  0.18323062992E+03  0.12500000000E+03 0.  0.
         25    1    1    2    0    0  0.48391130383E+02 -0.12880601475E+03 -0.26462353246E+03  0.32339342119E+03  0.12500000000E+03 0.  0.
</event>
<event>
 5    0  0.5829567E-005  0.4278297E+03  0.7546771E-02  0.1034548E+00
         21   -1    0    0  502  501  0.00000000000E+00  0.00000000000E+00  0.30592896572E+03  0.30592896572E+03  0.00000000000E+00 0.  1.
         21   -1    0    0  501  502 -0.00000000000E+00 -0.00000000000E+00 -0.59830301294E+03  0.59830301294E+03  0.00000000000E+00 0.  1.
         25    1    1    2    0    0 -0.39069232793E+02  0.16726171766E+03 -0.99623391179E+02  0.23463313324E+03  0.12500000000E+03 0.  0.
         25    1    1    2    0    0 -0.15176869380E+02 -0.37326732146E+03 -0.10801291760E+03  0.40847352547E+03  0.12500000000E+03 0.  0.
         25    1    1    2    0    0  0.54246102172E+02  0.20600560380E+03 -0.84737738437E+02  0.26112531994E+03  0.12500000000E+03 0.  0.
</event>
<event>
 5    0  0.5829567E-005  0.7762898E+03  0.7546771E-02  0.9594985E-01
         21   -1    0    0  502  501  0.00000000000E+00  0.00000000000E+00  0.17341422646E+04  0.17341422646E+04  0.00000000000E+00 0.  1.
         21   -1    0    0  501  502 -0.00000000000E+00 -0.00000000000E+00 -0.34750659339E+03  0.34750659339E+03  0.00000000000E+00 0.  1.
         25    1    1    2    0    0 -0.11300384299E+03 -0.14764298937E+03  0.43863170873E+03  0.49253537614E+03  0.12500000000E+03 0.  0.
         25    1    1    2    0    0  0.14690860199E+03  0.54474370748E+03  0.27805761716E+02  0.57855510072E+03  0.12500000000E+03 0.  0.
         25    1    1    2    0    0 -0.33904759001E+02 -0.39710071812E+03  0.92019820079E+03  0.10105583812E+04  0.12500000000E+03 0.  0.
</event>
<event>
 5    0  0.5829567E-005  0.2660723E+03  0.7546771E-02  0.1103549E+00
         21   -1    0    0  502  501  0.00000000000E+00  0.00000000000E+00  0.10450375890E+03  0.10450375890E+03  0.00000000000E+00 0.  1.
         21   -1    0    0  501  502 -0.00000000000E+00 -0.00000000000E+00 -0.67743466225E+03  0.67743466225E+03  0.00000000000E+00 0.  1.
         25    1    1    2    0    0  0.59469522061E+01 -0.15726780508E+03 -0.29313622546E+03  0.35541859185E+03  0.12500000000E+03 0.  0.
         25    1    1    2    0    0  0.42786666913E+02  0.12911925183E+03 -0.16588739864E+03  0.24828634494E+03  0.12500000000E+03 0.  0.
         25    1    1    2    0    0 -0.48733619119E+02  0.28148553245E+02 -0.11390727925E+03  0.17823348436E+03  0.12500000000E+03 0.  0.
</event>
<event>
 5    0  0.5829567E-005  0.2634165E+03  0.7546771E-02  0.1105108E+00
         21   -1    0    0  502  501  0.00000000000E+00  0.00000000000E+00  0.92463414396E+03  0.92463414396E+03  0.00000000000E+00 0. -1.
         21   -1    0    0  501  502 -0.00000000000E+00 -0.00000000000E+00 -0.75043994476E+02  0.75043994476E+02  0.00000000000E+00 0. -1.
         25    1    1    2    0    0  0.87314448025E+02  0.14119731033E+03  0.29501261600E+03  0.36085722506E+03  0.12500000000E+03 0.  0.
         25    1    1    2    0    0 -0.63679790258E+02 -0.22458136208E+02  0.27444049251E+03  0.30903408792E+03  0.12500000000E+03 0.  0.
         25    1    1    2    0    0 -0.23634657767E+02 -0.11873917412E+03  0.28013704098E+03  0.32978682546E+03  0.12500000000E+03 0.  0.
</event>
<event>
 5    0  0.5829567E-005  0.5032973E+03  0.7546771E-02  0.1012922E+00
         21   -1    0    0  502  501  0.00000000000E+00  0.00000000000E+00  0.67333465913E+03  0.67333465913E+03  0.00000000000E+00 0.  1.
         21   -1    0    0  501  502 -0.00000000000E+00 -0.00000000000E+00 -0.37619946984E+03  0.37619946984E+03  0.00000000000E+00 0.  1.
         25    1    1    2    0    0  0.36212331090E+02 -0.64037909737E+02 -0.22000986110E+03  0.26351760053E+03  0.12500000000E+03 0.  0.
         25    1    1    2    0    0  0.75343934413E+02  0.39692411564E+02  0.58454280630E+03  0.60379424342E+03  0.12500000000E+03 0.  0.
         25    1    1    2    0    0 -0.11155626550E+03  0.24345498173E+02 -0.67397755915E+02  0.18222228502E+03  0.12500000000E+03 0.  0.
</event>
<event>
 5    0  0.5829567E-005  0.2988598E+03  0.7546771E-02  0.1085812E+00
         21   -1    0    0  502  501  0.00000000000E+00  0.00000000000E+00  0.58362088223E+03  0.58362088223E+03  0.00000000000E+00 0. -1.
         21   -1    0    0  501  502 -0.00000000000E+00 -0.00000000000E+00 -0.15303973758E+03  0.15303973758E+03  0.00000000000E+00 0. -1.
         25    1    1    2    0    0 -0.17235499919E+03 -0.30939283748E+02  0.21880073304E+03  0.30685867400E+03  0.12500000000E+03 0.  0.
         25    1    1    2    0    0 -0.27245829192E+02 -0.27345562721E+02  0.63040876211E+02  0.14522144154E+03  0.12500000000E+03 0.  0.
         25    1    1    2    0    0  0.19960082839E+03  0.58284846469E+02  0.14873953540E+03  0.28458050427E+03  0.12500000000E+03 0.  0.
</event>
<event>
 5    0  0.5829567E-005  0.3243624E+03  0.7546771E-02  0.1073659E+00
         21   -1    0    0  502  501  0.00000000000E+00  0.00000000000E+00  0.45538742578E+03  0.45538742578E+03  0.00000000000E+00 0.  1.
         21   -1    0    0  501  502 -0.00000000000E+00 -0.00000000000E+00 -0.23103616502E+03  0.23103616502E+03  0.00000000000E+00 0.  1.
         25    1    1    2    0    0  0.71094236203E+01 -0.29717706972E+02  0.12690395279E+03  0.18072990689E+03  0.12500000000E+03 0.  0.
         25    1    1    2    0    0 -0.20761053170E+03 -0.45522552255E+02  0.69345727111E+02  0.25614110468E+03  0.12500000000E+03 0.  0.
         25    1    1    2    0    0  0.20050110808E+03  0.75240259226E+02  0.28101580864E+02  0.24955257923E+03  0.12500000000E+03 0.  0.
</event>
<event>
 5    0  0.5829567E-005  0.3594687E+03  0.7546771E-02  0.1058794E+00
         21   -1    0    0  502  501  0.00000000000E+00  0.00000000000E+00  0.15951649533E+04  0.15951649533E+04  0.00000000000E+00 0.  1.
         21   -1    0    0  501  502 -0.00000000000E+00 -0.00000000000E+00 -0.81005893076E+02  0.81005893076E+02  0.00000000000E+00 0.  1.
         25    1    1    2    0    0 -0.18566284797E+03 -0.80051794084E+02  0.36001267787E+03  0.43140828814E+03  0.12500000000E+03 0.  0.
         25    1    1    2    0    0  0.23088872339E+03  0.47159573443E+02  0.10152600264E+04  0.10497197479E+04  0.12500000000E+03 0.  0.
         25    1    1    2    0    0 -0.45225875413E+02  0.32892220641E+02  0.13888635596E+03  0.19504281032E+03  0.12500000000E+03 0.  0.
</event>
<event>
 5    0  0.5829567E-005  0.2222956E+03  0.7546771E-02  0.1132183E+00
         21   -1    0    0  502  501  0.00000000000E+00  0.00000000000E+00  0.29460925240E+03  0.29460925240E+03  0.00000000000E+00 0.  1.
         21   -1    0    0  501  502 -0.00000000000E+00 -0.00000000000E+00 -0.16773176021E+03  0.16773176021E+03  0.00000000000E+00 0.  1.
         25    1    1    2    0    0 -0.32850369105E+02 -0.35497418513E+02  0.14601360922E+03  0.19820239037E+03  0.12500000000E+03 0.  0.
         25    1    1    2    0    0  0.78758675104E+01 -0.76458774339E+01  0.11863720509E+02  0.12604061486E+03  0.12500000000E+03 0.  0.
         25    1    1    2    0    0  0.24974501595E+02  0.43143295947E+02 -0.30999837533E+02  0.13809800738E+03  0.12500000000E+03 0.  0.
</event>
<event>
 5    0  0.5829567E-005  0.2874724E+03  0.7546771E-02  0.1091676E+00
         21   -1    0    0  502  501  0.00000000000E+00  0.00000000000E+00  0.10751974880E+04  0.10751974880E+04  0.00000000000E+00 0. -1.
         21   -1    0    0  501  502 -0.00000000000E+00 -0.00000000000E+00 -0.76860629502E+02  0.76860629502E+02  0.00000000000E+00 0. -1.
         25    1    1    2    0    0 -0.35308695605E+02  0.19525040328E+03  0.48241972926E+03  0.53639837728E+03  0.12500000000E+03 0.  0.
         25    1    1    2    0    0  0.90634011224E+01 -0.11631144718E+03  0.18299854321E+03  0.25044752904E+03  0.12500000000E+03 0.  0.
         25    1    1    2    0    0  0.26245294482E+02 -0.78938956104E+02  0.33291858600E+03  0.36521221116E+03  0.12500000000E+03 0.  0.
</event>
<event>
 5    0  0.5829567E-005  0.2513194E+03  0.7546771E-02  0.1112474E+00
         21   -1    0    0  502  501  0.00000000000E+00  0.00000000000E+00  0.53833621758E+02  0.53833621758E+02  0.00000000000E+00 0.  1.
         21   -1    0    0  501  502 -0.00000000000E+00 -0.00000000000E+00 -0.11732713438E+04  0.11732713438E+04  0.00000000000E+00 0.  1.
         25    1    1    2    0    0  0.89393402110E+02  0.11697776211E+02 -0.53751868590E+03  0.55917739225E+03  0.12500000000E+03 0.  0.
         25    1    1    2    0    0 -0.11339697577E+03 -0.15296595628E+02 -0.18407530229E+03  0.25020307125E+03  0.12500000000E+03 0.  0.
         25    1    1    2    0    0  0.24003573665E+02  0.35988194171E+01 -0.39784373383E+03  0.41772450204E+03  0.12500000000E+03 0.  0.
</event>
<event>
 5    0  0.5829567E-005  0.5230487E+03  0.7546771E-02  0.1007932E+00
         21   -1    0    0  502  501  0.00000000000E+00  0.00000000000E+00  0.16442557924E+03  0.16442557924E+03  0.00000000000E+00 0. -1.
         21   -1    0    0  501  502 -0.00000000000E+00 -0.00000000000E+00 -0.16638529905E+04  0.16638529905E+04  0.00000000000E+00 0. -1.
         25    1    1    2    0    0  0.10254382937E+03 -0.69207746870E+02 -0.61367439329E+02  0.18626838642E+03  0.12500000000E+03 0.  0.
         25    1    1    2    0    0  0.98051998954E+02  0.29823692510E+03 -0.28233773241E+03  0.44033970197E+03  0.12500000000E+03 0.  0.
         25    1    1    2    0    0 -0.20059582832E+03 -0.22902917823E+03 -0.11557222395E+04  0.12016704814E+04  0.12500000000E+03 0.  0.
</event>
<event>
 5    0  0.5829567E-005  0.2720585E+03  0.7546771E-02  0.1100107E+00
         21   -1    0    0  502  501  0.00000000000E+00  0.00000000000E+00  0.45892012994E+03  0.45892012994E+03  0.00000000000E+00 0. -1.
         21   -1    0    0  501  502 -0.00000000000E+00 -0.00000000000E+00 -0.16128259193E+03  0.16128259193E+03  0.00000000000E+00 0. -1.
         25    1    1    2    0    0  0.58170663093E+02 -0.59332781935E+02  0.15703819732E+03  0.21723305567E+03  0.12500000000E+03 0.  0.
         25    1    1    2    0    0  0.69700256824E+02  0.59456746836E+02  0.16042344029E+03  0.22305584669E+03  0.12500000000E+03 0.  0.
         25    1    1    2    0    0 -0.12787091992E+03 -0.12396490075E+00 -0.19824099610E+02  0.17991381952E+03  0.12500000000E+03 0.  0.
</event>
<event>
 5    0  0.5829567E-005  0.4834650E+03  0.7546771E-02  0.1018187E+00
         21   -1    0    0  502  501  0.00000000000E+00  0.00000000000E+00  0.52561408801E+03  0.52561408801E+03  0.00000000000E+00 0.  1.
         21   -1    0    0  501  502 -0.00000000000E+00 -0.00000000000E+00 -0.44469587066E+03  0.44469587066E+03  0.00000000000E+00 0.  1.
         25    1    1    2    0    0 -0.23194762483E+03  0.13682567810E+03  0.34138724479E+03  0.45242813546E+03  0.12500000000E+03 0.  0.
         25    1    1    2    0    0  0.37271678663E+02 -0.87635240869E+02 -0.23120748364E+03  0.27955502851E+03  0.12500000000E+03 0.  0.
         25    1    1    2    0    0  0.19467594617E+03 -0.49190437226E+02 -0.29261543798E+02  0.23832679471E+03  0.12500000000E+03 0.  0.
</event>
<event>
 5    0  0.5829567E-005  0.3901223E+03  0.7546771E-02  0.1047255E+00
         21   -1    0    0  502  501  0.00000000000E+00  0.00000000000E+00  0.48891790772E+03  0.48891790772E+03  0.00000000000E+00 0.  1.
         21   -1    0    0  501  502 -0.00000000000E+00 -0.00000000000E+00 -0.31129025429E+03  0.31129025429E+03  0.00000000000E+00 0.  1.
         25    1    1    2    0    0  0.54591557644E+02 -0.17098474682E+03 -0.14623395894E+03  0.26310718834E+03  0.12500000000E+03 0.  0.
         25    1    1    2    0    0  0.82240398452E+02 -0.21787708273E+02  0.17415046109E+03  0.23063297784E+03  0.12500000000E+03 0.  0.
         25    1    1    2    0    0 -0.13683195610E+03  0.19277245509E+03  0.14971115128E+03  0.30646799583E+03  0.12500000000E+03 0.  0.
</event>
<event>
 5    0  0.6426293E-005  0.2778246E+03  0.7546771E-02  0.1096883E+00
         21   -1    0    0  502  501  0.00000000000E+00  0.00000000000E+00  0.63933400987E+03  0.63933400987E+03  0.00000000000E+00 0.  1.
         21   -1    0    0  501  502 -0.00000000000E+00 -0.00000000000E+00 -0.12072952894E+03  0.12072952894E+03  0.00000000000E+00 0.  1.
         25    1    1    2    0    0  0.84677883912E+02  0.18491694527E+02  0.22952593118E+03  0.27535330010E+03  0.12500000000E+03 0.  0.
         25    1    1    2    0    0  0.41135006885E+01  0.87263043930E+02  0.25236773114E+03  0.29486646375E+03  0.12500000000E+03 0.  0.
         25    1    1    2    0    0 -0.88791384601E+02 -0.10575473846E+03  0.36710818609E+02  0.18984377495E+03  0.12500000000E+03 0.  0.
</event>
<event>
 5    0  0.5829567E-005  0.3076747E+03  0.7546771E-02  0.1081466E+00
         21   -1    0    0  502  501  0.00000000000E+00  0.00000000000E+00  0.10810230495E+04  0.10810230495E+04  0.00000000000E+00 0.  1.
         21   -1    0    0  501  502 -0.00000000000E+00 -0.00000000000E+00 -0.87568642841E+02  0.87568642841E+02  0.00000000000E+00 0.  1.
         25    1    1    2    0    0 -0.70992145755E+01  0.14091156712E+02  0.22937480265E+03  0.26169975093E+03  0.12500000000E+03 0.  0.
         25    1    1    2    0    0 -0.15318533498E+03 -0.10542731239E+03  0.19981943508E+03  0.30022237039E+03  0.12500000000E+03 0.  0.
         25    1    1    2    0    0  0.16028454955E+03  0.91336155676E+02  0.56426016892E+03  0.60666957101E+03  0.12500000000E+03 0.  0.
</event>
<event>
 5    0  0.5829567E-005  0.3395443E+03  0.7546771E-02  0.1066990E+00
         21   -1    0    0  502  501  0.00000000000E+00  0.00000000000E+00  0.14316443849E+04  0.14316443849E+04  0.00000000000E+00 0.  1.
         21   -1    0    0  501  502 -0.00000000000E+00 -0.00000000000E+00 -0.80530010449E+02  0.80530010449E+02  0.00000000000E+00 0.  1.
         25    1    1    2    0    0 -0.21403446915E+02  0.79289034102E+02  0.26692085940E+03  0.30596830498E+03  0.12500000000E+03 0.  0.
         25    1    1    2    0    0 -0.21097100648E+02 -0.26653783102E+03  0.68607431263E+03  0.74686710028E+03  0.12500000000E+03 0.  0.
         25    1    1    2    0    0  0.42500547564E+02  0.18724879692E+03  0.39811920245E+03  0.45933899013E+03  0.12500000000E+03 0.  0.
</event>
<event>
 5    0  0.5829567E-005  0.7589371E+03  0.7546771E-02  0.9621433E-01
         21   -1    0    0  502  501  0.00000000000E+00  0.00000000000E+00  0.76714155011E+03  0.76714155011E+03  0.00000000000E+00 0. -1.
         21   -1    0    0  501  502 -0.00000000000E+00 -0.00000000000E+00 -0.75082033652E+03  0.75082033652E+03  0.00000000000E+00 0. -1.
         25    1    1    2    0    0 -0.16105947069E+03  0.50993320069E+03  0.33250931491E+03  0.64199646943E+03  0.12500000000E+03 0.  0.
         25    1    1    2    0    0  0.79432000432E+02 -0.35038170224E+01  0.12036917037E+03  0.19088073921E+03  0.12500000000E+03 0.  0.
         25    1    1    2    0    0  0.81627470253E+02 -0.50642938366E+03 -0.43655727169E+03  0.68508467798E+03  0.12500000000E+03 0.  0.
</event>
<event>
 5    0  0.5829567E-005  0.3783385E+03  0.7546771E-02  0.1051550E+00
         21   -1    0    0  502  501  0.00000000000E+00  0.00000000000E+00  0.87172025383E+03  0.87172025383E+03  0.00000000000E+00 0.  1.
         21   -1    0    0  501  502 -0.00000000000E+00 -0.00000000000E+00 -0.16420407717E+03  0.16420407717E+03  0.00000000000E+00 0.  1.
         25    1    1    2    0    0 -0.12436750398E+02 -0.67961292266E+02  0.24053600536E+03  0.27974270300E+03  0.12500000000E+03 0.  0.
         25    1    1    2    0    0 -0.10701438628E+02 -0.89607378641E+02  0.52370728098E+03  0.54592885914E+03  0.12500000000E+03 0.  0.
         25    1    1    2    0    0  0.23138189025E+02  0.15756867091E+03 -0.56727109679E+02  0.21025276886E+03  0.12500000000E+03 0.  0.
</event>
<event>
 5    0  0.5829567E-005  0.3616305E+03  0.7546771E-02  0.1057940E+00
         21   -1    0    0  502  501  0.00000000000E+00  0.00000000000E+00  0.76667896967E+02  0.76667896967E+02  0.00000000000E+00 0. -1.
         21   -1    0    0  501  502 -0.00000000000E+00 -0.00000000000E+00 -0.17057541513E+04  0.17057541513E+04  0.00000000000E+00 0. -1.
         25    1    1    2    0    0 -0.11194861316E+03 -0.24954091767E+02 -0.13038006025E+03  0.21396064777E+03  0.12500000000E+03 0.  0.
         25    1    1    2    0    0  0.49128918546E+02  0.32799306910E+02 -0.13738419074E+04  0.13807809500E+04  0.12500000000E+03 0.  0.
         25    1    1    2    0    0  0.62819694611E+02 -0.78452151433E+01 -0.12486428665E+03  0.18768045054E+03  0.12500000000E+03 0.  0.
</event>
<event>
 5    0  0.5829567E-005  0.2871390E+03  0.7546771E-02  0.1091852E+00
         21   -1    0    0  502  501  0.00000000000E+00  0.00000000000E+00  0.17480205329E+03  0.17480205329E+03  0.00000000000E+00 0. -1.
         21   -1    0    0  501  502 -0.00000000000E+00 -0.00000000000E+00 -0.47166949259E+03  0.47166949259E+03  0.00000000000E+00 0. -1.
         25    1    1    2    0    0 -0.45478401820E+02 -0.63289756055E+02 -0.25934406631E+02  0.14957095875E+03  0.12500000000E+03 0.  0.
         25    1    1    2    0    0 -0.10007395897E+03 -0.64224515834E+02 -0.17973113673E+03  0.24913423532E+03  0.12500000000E+03 0.  0.
         25    1    1    2    0    0  0.14555236079E+03  0.12751427189E+03 -0.91201895935E+02  0.24776635181E+03  0.12500000000E+03 0.  0.
</event>
<event>
 5    0  0.5829567E-005  0.3109309E+03  0.7546771E-02  0.1079901E+00
         21   -1    0    0  502  501  0.00000000000E+00  0.00000000000E+00  0.26662600912E+03  0.26662600912E+03  0.00000000000E+00 0.  1.
         21   -1    0    0  501  502 -0.00000000000E+00 -0.00000000000E+00 -0.36259791437E+03  0.36259791437E+03  0.00000000000E+00 0.  1.
         25    1    1    2    0    0 -0.13009381353E+03  0.64481503904E+02 -0.13579750147E+03  0.23483659440E+03  0.12500000000E+03 0.  0.
         25    1    1    2    0    0  0.80086317201E+02 -0.10805201427E+03 -0.88074898738E+02  0.20364489627E+03  0.12500000000E+03 0.  0.
         25    1    1    2    0    0  0.50007496333E+02  0.43570510368E+02  0.12790049496E+03  0.19074243281E+03  0.12500000000E+03 0.  0.
</event>
<event>
 5    0  0.5829567E-005  0.2669692E+03  0.7546771E-02  0.1103027E+00
         21   -1    0    0  502  501  0.00000000000E+00  0.00000000000E+00  0.12945636420E+03  0.12945636420E+03  0.00000000000E+00 0.  1.
         21   -1    0    0  501  502 -0.00000000000E+00 -0.00000000000E+00 -0.55055264671E+03  0.55055264671E+03  0.00000000000E+00 0.  1.
         25    1    1    2    0    0 -0.65185319772E+02  0.11764961915E+03 -0.21791468536E+03  0.28496029354E+03  0.12500000000E+03 0.  0.
         25    1    1    2    0    0  0.20578352524E+02 -0.15382998129E+03 -0.14079946491E+03  0.24400127265E+03  0.12500000000E+03 0.  0.
         25    1    1    2    0    0  0.44606967248E+02  0.36180362134E+02 -0.62382132241E+02  0.15104744471E+03  0.12500000000E+03 0.  0.
</event>
<event>
 5    0  0.5829567E-005  0.2605255E+03  0.7546771E-02  0.1106828E+00
         21   -1    0    0  502  501  0.00000000000E+00  0.00000000000E+00  0.33297936715E+03  0.33297936715E+03  0.00000000000E+00 0. -1.
         21   -1    0    0  501  502 -0.00000000000E+00 -0.00000000000E+00 -0.20383708135E+03  0.20383708135E+03  0.00000000000E+00 0. -1.
         25    1    1    2    0    0 -0.35910074076E+02  0.10008668026E+03  0.10411516310E+03  0.19434979849E+03  0.12500000000E+03 0.  0.
         25    1    1    2    0    0 -0.84835103865E+02 -0.61628271625E+02  0.37348282645E+01  0.16319922688E+03  0.12500000000E+03 0.  0.
         25    1    1    2    0    0  0.12074517794E+03 -0.38458408639E+02  0.21292294437E+02  0.17926742312E+03  0.12500000000E+03 0.  0.
</event>
<event>
 5    0  0.5829567E-005  0.3150225E+03  0.7546771E-02  0.1077963E+00
         21   -1    0    0  502  501  0.00000000000E+00  0.00000000000E+00  0.80639060585E+03  0.80639060585E+03  0.00000000000E+00 0.  1.
         21   -1    0    0  501  502 -0.00000000000E+00 -0.00000000000E+00 -0.12306590291E+03  0.12306590291E+03  0.00000000000E+00 0.  1.
         25    1    1    2    0    0 -0.36664988888E+02 -0.16879490843E+03  0.36151848594E+03  0.41971020741E+03  0.12500000000E+03 0.  0.
         25    1    1    2    0    0 -0.22574244861E+02  0.13780529918E+03  0.36178032290E+02  0.19087626105E+03  0.12500000000E+03 0.  0.
         25    1    1    2    0    0  0.59239233749E+02  0.30989609254E+02  0.28562818472E+03  0.31887004030E+03  0.12500000000E+03 0.  0.
</event>
<event>
 5    0  0.8115364E-005  0.3281700E+03  0.7546771E-02  0.1071949E+00
         21   -1    0    0  502  501  0.00000000000E+00  0.00000000000E+00  0.20214698427E+03  0.20214698427E+03  0.00000000000E+00 0.  1.
         21   -1    0    0  501  502 -0.00000000000E+00 -0.00000000000E+00 -0.53275859102E+03  0.53275859102E+03  0.00000000000E+00 0.  1.
         25    1    1    2    0    0 -0.11126981849E+03 -0.14458045954E+03 -0.83100697961E+02  0.23625242388E+03  0.12500000000E+03 0.  0.
         25    1    1    2    0    0  0.85358589497E+02  0.80803568391E+02  0.41325320157E+02  0.17648820797E+03  0.12500000000E+03 0.  0.
         25    1    1    2    0    0  0.25911228991E+02  0.63776891148E+02 -0.28883622894E+03  0.32216494344E+03  0.12500000000E+03 0.  0.
</event>
<event>
 5    0  0.5829567E-005  0.2514307E+03  0.7546771E-02  0.1112404E+00
         21   -1    0    0  502  501  0.00000000000E+00  0.00000000000E+00  0.46793684268E+02  0.46793684268E+02  0.00000000000E+00 0. -1.
         21   -1    0    0  501  502 -0.00000000000E+00 -0.00000000000E+00 -0.13509815353E+04  0.13509815353E+04  0.00000000000E+00 0. -1.
         25    1    1    2    0    0  0.10470257725E+03  0.12131519074E+03 -0.58711739465E+03  0.62129851142E+03  0.12500000000E+03 0.  0.
         25    1    1    2    0    0 -0.42443386927E+02 -0.66146900247E+02 -0.36367893472E+03  0.39251015409E+03  0.12500000000E+03 0.  0.
         25    1    1    2    0    0 -0.62259190320E+02 -0.55168290495E+02 -0.35339152167E+03  0.38396655407E+03  0.12500000000E+03 0.  0.
</event>
<event>
 5    0  0.5829567E-005  0.5634567E+03  0.7546771E-02  0.9984264E-01
         21   -1    0    0  502  501  0.00000000000E+00  0.00000000000E+00  0.77193690920E+03  0.77193690920E+03  0.00000000000E+00 0.  1.
         21   -1    0    0  501  502 -0.00000000000E+00 -0.00000000000E+00 -0.41128153934E+03  0.41128153934E+03  0.00000000000E+00 0.  1.
         25    1    1    2    0    0 -0.24697486999E+03 -0.38555864059E+03  0.15452355383E+03  0.49915386448E+03  0.12500000000E+03 0.  0.
         25    1    1    2    0    0  0.32295892104E+03  0.30828680256E+03  0.22889290675E+03  0.51706883495E+03  0.12500000000E+03 0.  0.
         25    1    1    2    0    0 -0.75984051055E+02  0.77271838029E+02 -0.22761090726E+02  0.16699574910E+03  0.12500000000E+03 0.  0.
</event>
<event>
 5    0  0.5829567E-005  0.2548156E+03  0.7546771E-02  0.1110299E+00
         21   -1    0    0  502  501  0.00000000000E+00  0.00000000000E+00  0.30775654507E+03  0.30775654507E+03  0.00000000000E+00 0.  1.
         21   -1    0    0  501  502 -0.00000000000E+00 -0.00000000000E+00 -0.21098167359E+03  0.21098167359E+03  0.00000000000E+00 0.  1.
         25    1    1    2    0    0  0.24208714667E+02  0.43728412632E+02 -0.87839181636E+02  0.16074500853E+03  0.12500000000E+03 0.  0.
         25    1    1    2    0    0 -0.32337434486E+02 -0.36696702266E+02  0.18974960437E+03  0.23242691321E+03  0.12500000000E+03 0.  0.
         25    1    1    2    0    0  0.81287198189E+01 -0.70317103651E+01 -0.51355512522E+01  0.12556629692E+03  0.12500000000E+03 0.  0.
</event>
<event>
 5    0  0.5829567E-005  0.3009157E+03  0.7546771E-02  0.1084784E+00
         21   -1    0    0  502  501  0.00000000000E+00  0.00000000000E+00  0.75034720692E+02  0.75034720692E+02  0.00000000000E+00 0.  1.
         21   -1    0    0  501  502 -0.00000000000E+00 -0.00000000000E+00 -0.12067778685E+04  0.12067778685E+04  0.00000000000E+00 0.  1.
         25    1    1    2    0    0 -0.12255858762E+03  0.88788540105E+01 -0.35636988022E+03  0.39714472548E+03  0.12500000000E+03 0.  0.
         25    1    1    2    0    0 -0.73110823033E+02  0.38903568741E+02 -0.49653799338E+03  0.51868454669E+03  0.12500000000E+03 0.  0.
         25    1    1    2    0    0  0.19566941065E+03 -0.47782422751E+02 -0.27883527416E+03  0.36598331698E+03  0.12500000000E+03 0.  0.
</event>
<event>
 5    0  0.5829567E-005  0.2471531E+03  0.7546771E-02  0.1115117E+00
         21   -1    0    0  502  501  0.00000000000E+00  0.00000000000E+00  0.63259045735E+03  0.63259045735E+03  0.00000000000E+00 0. -1.
         21   -1    0    0  501  502 -0.00000000000E+00 -0.00000000000E+00 -0.96562697858E+02  0.96562697858E+02  0.00000000000E+00 0. -1.
         25    1    1    2    0    0  0.12795113382E+02 -0.12194904443E+03  0.17116813227E+03  0.24486488901E+03  0.12500000000E+03 0.  0.
         25    1    1    2    0    0  0.58049672352E+02  0.10593017435E+03  0.19467940982E+03  0.26099049582E+03  0.12500000000E+03 0.  0.
         25    1    1    2    0    0 -0.70844785734E+02  0.16018870077E+02  0.17018021740E+03  0.22329777038E+03  0.12500000000E+03 0.  0.
</event>
<event>
 5    0  0.5829567E-005  0.3413053E+03  0.7546771E-02  0.1066241E+00
         21   -1    0    0  502  501  0.00000000000E+00  0.00000000000E+00  0.48311925404E+03  0.48311925404E+03  0.00000000000E+00 0.  1.
         21   -1    0    0  501  502 -0.00000000000E+00 -0.00000000000E+00 -0.24111910466E+03  0.24111910466E+03  0.00000000000E+00 0.  1.
         25    1    1    2    0    0  0.24610310324E+03  0.11467810646E+03  0.11076202569E+03  0.31876485355E+03  0.12500000000E+03 0.  0.
         25    1    1    2    0    0 -0.83765563485E+02 -0.89180737603E+01  0.30181686281E+02  0.15372747267E+03  0.12500000000E+03 0.  0.
         25    1    1    2    0    0 -0.16233753975E+03 -0.10576003270E+03  0.10105643742E+03  0.25174603249E+03  0.12500000000E+03 0.  0.
</event>
<event>
 5    0  0.5829567E-005  0.4989709E+03  0.7546771E-02  0.1014048E+00
         21   -1    0    0  502  501  0.00000000000E+00  0.00000000000E+00  0.46588647818E+03  0.46588647818E+03  0.00000000000E+00 0.  1.
         21   -1    0    0  501  502 -0.00000000000E+00 -0.00000000000E+00 -0.53440487364E+03  0.53440487364E+03  0.00000000000E+00 0.  1.
         25    1    1    2    0    0  0.14700350342E+03 -0.14455603492E+02 -0.31584857561E+03  0.37041101118E+03  0.12500000000E+03 0.  0.
         25    1    1    2    0    0 -0.61588388430E+02  0.19599904984E+03  0.30318740294E+03  0.38698366688E+03  0.12500000000E+03 0.  0.
         25    1    1    2    0    0 -0.85415114992E+02 -0.18154344635E+03 -0.55857222802E+02  0.24289667376E+03  0.12500000000E+03 0.  0.
</event>
<event>
 5    0  0.5829567E-005  0.3684541E+03  0.7546771E-02  0.1055286E+00
         21   -1    0    0  502  501  0.00000000000E+00  0.00000000000E+00  0.17005061664E+04  0.17005061664E+04  0.00000000000E+00 0. -1.
         21   -1    0    0  501  502 -0.00000000000E+00 -0.00000000000E+00 -0.79834123707E+02  0.79834123707E+02  0.00000000000E+00 0. -1.
         25    1    1    2    0    0  0.24729749915E+02  0.58673862048E+02  0.96721708022E+03  0.97733723089E+03  0.12500000000E+03 0.  0.
         25    1    1    2    0    0  0.14018290139E+03  0.92194274858E+02  0.26327548034E+03  0.33628857951E+03  0.12500000000E+03 0.  0.
         25    1    1    2    0    0 -0.16491265130E+03 -0.15086813691E+03  0.39017948214E+03  0.46671447971E+03  0.12500000000E+03 0.  0.
</event>
<event>
 5    0  0.5829567E-005  0.4635093E+03  0.7546771E-02  0.1023768E+00
         21   -1    0    0  502  501  0.00000000000E+00  0.00000000000E+00  0.11731973416E+03  0.11731973416E+03  0.00000000000E+00 0. -1.
         21   -1    0    0  501  502 -0.00000000000E+00 -0.00000000000E+00 -0.18312423136E+04  0.18312423136E+04  0.00000000000E+00 0. -1.
         25    1    1    2    0    0  0.57772758683E+02 -0.10525736684E+03 -0.29053899421E+03  0.33831156066E+03  0.12500000000E+03 0.  0.
         25    1    1    2    0    0 -0.32421871025E+03  0.23403702392E+03 -0.65635346048E+03  0.77866293461E+03  0.12500000000E+03 0.  0.
         25    1    1    2    0    0  0.26644595157E+03 -0.12877965708E+03 -0.76703012470E+03  0.83158755244E+03  0.12500000000E+03 0.  0.
</event>
<event>
 5    0  0.5829567E-005  0.2702689E+03  0.7546771E-02  0.1101126E+00
         21   -1    0    0  502  501  0.00000000000E+00  0.00000000000E+00  0.14769860534E+03  0.14769860534E+03  0.00000000000E+00 0. -1.
         21   -1    0    0  501  502 -0.00000000000E+00 -0.00000000000E+00 -0.49455625148E+03  0.49455625148E+03  0.00000000000E+00 0. -1.
         25    1    1    2    0    0 -0.79317643928E+02  0.75849451112E+02  0.69028666316E+01  0.16648446606E+03  0.12500000000E+03 0.  0.
         25    1    1    2    0    0  0.86660799854E+02  0.66412568914E+01 -0.25245821734E+03  0.29481240141E+03  0.12500000000E+03 0.  0.
         25    1    1    2    0    0 -0.73431559256E+01 -0.82490708003E+02 -0.10130229544E+03  0.18095798934E+03  0.12500000000E+03 0.  0.
</event>
<event>
 5    0  0.6624808E-005  0.3297842E+03  0.7546771E-02  0.1071232E+00
         21   -1    0    0  502  501  0.00000000000E+00  0.00000000000E+00  0.63245522312E+03  0.63245522312E+03  0.00000000000E+00 0. -1.
         21   -1    0    0  501  502 -0.00000000000E+00 -0.00000000000E+00 -0.17196095566E+03  0.17196095566E+03  0.00000000000E+00 0. -1.
         25    1    1    2    0    0 -0.10286661877E+02 -0.11071842276E+03 -0.11752050284E+02  0.16771253751E+03  0.12500000000E+03 0.  0.
         25    1    1    2    0    0 -0.14447795648E+03  0.10744169419E+03  0.31165451291E+03  0.38101329764E+03  0.12500000000E+03 0.  0.
         25    1    1    2    0    0  0.15476461835E+03  0.32767285716E+01  0.16059180483E+03  0.25569034363E+03  0.12500000000E+03 0.  0.
</event>
<event>
 5    0  0.5829567E-005  0.2474956E+03  0.7546771E-02  0.1114898E+00
         21   -1    0    0  502  501  0.00000000000E+00  0.00000000000E+00  0.31348112935E+03  0.31348112935E+03  0.00000000000E+00 0. -1.
         21   -1    0    0  501  502 -0.00000000000E+00 -0.00000000000E+00 -0.19539960950E+03  0.19539960950E+03  0.00000000000E+00 0. -1.
         25    1    1    2    0    0 -0.10279717398E+02  0.28338409815E+01  0.10591913067E+00  0.12545403327E+03  0.12500000000E+03 0.  0.
         25    1    1    2    0    0 -0.33441420584E+02  0.93178262339E+02  0.14750080680E+03  0.21721419196E+03  0.12500000000E+03 0.  0.
         25    1    1    2    0    0  0.43721137983E+02 -0.96012103320E+02 -0.29525206075E+02  0.16621251362E+03  0.12500000000E+03 0.  0.
</event>
<event>
 5    0  0.5829567E-005  0.2254767E+03  0.7546771E-02  0.1129865E+00
         21   -1    0    0  502  501  0.00000000000E+00  0.00000000000E+00  0.65505034308E+03  0.65505034308E+03  0.00000000000E+00 0. -1.
         21   -1    0    0  501  502 -0.00000000000E+00 -0.00000000000E+00 -0.77611927854E+02  0.77611927854E+02  0.00000000000E+00 0. -1.
         25    1    1    2    0    0  0.48283978231E+02  0.54647178005E+02  0.18384787866E+03  0.23397157756E+03  0.12500000000E+03 0.  0.
         25    1    1    2    0    0 -0.85896693129E+02 -0.43755764763E+02  0.29558825305E+03  0.33509733538E+03  0.12500000000E+03 0.  0.
         25    1    1    2    0    0  0.37612714898E+02 -0.10891413243E+02  0.98002283517E+02  0.16359335799E+03  0.12500000000E+03 0.  0.
</event>
<event>
 5    0  0.5829567E-005  0.3201178E+03  0.7546771E-02  0.1075595E+00
         21   -1    0    0  502  501  0.00000000000E+00  0.00000000000E+00  0.10926976929E+03  0.10926976929E+03  0.00000000000E+00 0. -1.
         21   -1    0    0  501  502 -0.00000000000E+00 -0.00000000000E+00 -0.93782009766E+03  0.93782009766E+03  0.00000000000E+00 0. -1.
         25    1    1    2    0    0 -0.16781155266E+03 -0.11033531063E+03 -0.40522960547E+03  0.46922343412E+03  0.12500000000E+03 0.  0.
         25    1    1    2    0    0  0.40974700477E+02  0.99528482660E+02 -0.64454955148E+02  0.17709965043E+03  0.12500000000E+03 0.  0.
         25    1    1    2    0    0  0.12683685219E+03  0.10806827973E+02 -0.35886576777E+03  0.40076678240E+03  0.12500000000E+03 0.  0.
</event>
<event>
 5    0  0.5829567E-005  0.2238833E+03  0.7546771E-02  0.1131021E+00
         21   -1    0    0  502  501  0.00000000000E+00  0.00000000000E+00  0.86386365467E+03  0.86386365467E+03  0.00000000000E+00 0. -1.
         21   -1    0    0  501  502 -0.00000000000E+00 -0.00000000000E+00 -0.58022747391E+02  0.58022747391E+02  0.00000000000E+00 0. -1.
         25    1    1    2    0    0 -0.28383121010E+02 -0.24755108116E+02  0.27265883914E+03  0.30230160353E+03  0.12500000000E+03 0.  0.
         25    1    1    2    0    0  0.54719619254E+02 -0.49037429185E+02  0.38088783278E+03  0.40755299944E+03  0.12500000000E+03 0.  0.
         25    1    1    2    0    0 -0.26336498244E+02  0.73792537300E+02  0.15229423535E+03  0.21203179908E+03  0.12500000000E+03 0.  0.
</event>
<event>
 5    0  0.5829567E-005  0.3198791E+03  0.7546771E-02  0.1075705E+00
         21   -1    0    0  502  501  0.00000000000E+00  0.00000000000E+00  0.12526281888E+04  0.12526281888E+04  0.00000000000E+00 0. -1.
         21   -1    0    0  501  502 -0.00000000000E+00 -0.00000000000E+00 -0.81686360206E+02  0.81686360206E+02  0.00000000000E+00 0. -1.
         25    1    1    2    0    0 -0.92365718765E+02 -0.40081925794E+02  0.74444667775E+03  0.76155357184E+03  0.12500000000E+03 0.  0.
         25    1    1    2    0    0  0.37952360710E+01 -0.96785282493E+02  0.10028256249E+03  0.18725220176E+03  0.12500000000E+03 0.  0.
         25    1    1    2    0    0  0.88570482694E+02  0.13686720829E+03  0.32621258833E+03  0.38550877538E+03  0.12500000000E+03 0.  0.
</event>
<event>
 5    0  0.5829567E-005  0.2961886E+03  0.7546771E-02  0.1087162E+00
         21   -1    0    0  502  501  0.00000000000E+00  0.00000000000E+00  0.19487511973E+03  0.19487511973E+03  0.00000000000E+00 0.  1.
         21   -1    0    0  501  502 -0.00000000000E+00 -0.00000000000E+00 -0.45017376191E+03  0.45017376191E+03  0.00000000000E+00 0.  1.
         25    1    1    2    0    0 -0.42917670415E+02  0.14641867574E+03 -0.14570562741E+03  0.24522537572E+03  0.12500000000E+03 0.  0.
         25    1    1    2    0    0 -0.50899439542E+02 -0.16057986071E+03 -0.24036980472E+01  0.20977946128E+03  0.12500000000E+03 0.  0.
         25    1    1    2    0    0  0.93817109957E+02  0.14161184976E+02 -0.10718931672E+03  0.19004404463E+03  0.12500000000E+03 0.  0.
</event>
<event>
 5    0  0.5829567E-005  0.4531012E+03  0.7546771E-02  0.1026801E+00
         21   -1    0    0  502  501  0.00000000000E+00  0.00000000000E+00  0.39514705771E+03  0.39514705771E+03  0.00000000000E+00 0. -1.
         21   -1    0    0  501  502 -0.00000000000E+00 -0.00000000000E+00 -0.51955511201E+03  0.51955511201E+03  0.00000000000E+00 0. -1.
         25    1    1    2    0    0  0.26862427283E+02  0.15428794210E+03 -0.10016729496E+03  0.22401974479E+03  0.12500000000E+03 0.  0.
         25    1    1    2    0    0 -0.11782553649E+03 -0.33895482543E+02 -0.30299782256E+03  0.34994919812E+03  0.12500000000E+03 0.  0.
         25    1    1    2    0    0  0.90963109206E+02 -0.12039245955E+03  0.27875706323E+03  0.34073322681E+03  0.12500000000E+03 0.  0.
</event>
<event>
 5    0  0.5829567E-005  0.2252014E+03  0.7546771E-02  0.1130064E+00
         21   -1    0    0  502  501  0.00000000000E+00  0.00000000000E+00  0.26142728217E+03  0.26142728217E+03  0.00000000000E+00 0. -1.
         21   -1    0    0  501  502 -0.00000000000E+00 -0.00000000000E+00 -0.19399530562E+03  0.19399530562E+03  0.00000000000E+00 0. -1.
         25    1    1    2    0    0  0.45421560447E+02 -0.66911892735E+02  0.70928005532E+02  0.16491240557E+03  0.12500000000E+03 0.  0.
         25    1    1    2    0    0 -0.82473854643E+02  0.45503515079E+02  0.14417596198E+02  0.15717943143E+03  0.12500000000E+03 0.  0.
         25    1    1    2    0    0  0.37052294196E+02  0.21408377656E+02 -0.17913625178E+02  0.13333075079E+03  0.12500000000E+03 0.  0.
</event>
<event>
 5    0  0.5829567E-005  0.3286363E+03  0.7546771E-02  0.1071742E+00
         21   -1    0    0  502  501  0.00000000000E+00  0.00000000000E+00  0.19354615477E+03  0.19354615477E+03  0.00000000000E+00 0. -1.
         21   -1    0    0  501  502 -0.00000000000E+00 -0.00000000000E+00 -0.55801574828E+03  0.55801574828E+03  0.00000000000E+00 0. -1.
         25    1    1    2    0    0 -0.33565190626E+02 -0.11092792807E+03 -0.13970820890E+03  0.22039739309E+03  0.12500000000E+03 0.  0.
         25    1    1    2    0    0  0.20957182146E+03  0.97894045978E+02 -0.14773401732E+03  0.30158569671E+03  0.12500000000E+03 0.  0.
         25    1    1    2    0    0 -0.17600663083E+03  0.13033882090E+02 -0.77027367292E+02  0.22957881324E+03  0.12500000000E+03 0.  0.
</event>
<event>
 5    0  0.5829567E-005  0.2406350E+03  0.7546771E-02  0.1119371E+00
         21   -1    0    0  502  501  0.00000000000E+00  0.00000000000E+00  0.27145205664E+03  0.27145205664E+03  0.00000000000E+00 0.  1.
         21   -1    0    0  501  502 -0.00000000000E+00 -0.00000000000E+00 -0.21331655667E+03  0.21331655667E+03  0.00000000000E+00 0.  1.
         25    1    1    2    0    0 -0.28745947527E+02 -0.51902591165E+01  0.39206786079E+02  0.13422160915E+03  0.12500000000E+03 0.  0.
         25    1    1    2    0    0  0.88262291454E+02 -0.62970119798E+02  0.80980651809E+02  0.18422359797E+03  0.12500000000E+03 0.  0.
         25    1    1    2    0    0 -0.59516343927E+02  0.68160378914E+02 -0.62051937921E+02  0.16632340619E+03  0.12500000000E+03 0.  0.
</event>
<event>
 5    0  0.5829567E-005  0.3675698E+03  0.7546771E-02  0.1055626E+00
         21   -1    0    0  502  501  0.00000000000E+00  0.00000000000E+00  0.16253203446E+03  0.16253203446E+03  0.00000000000E+00 0.  1.
         21   -1    0    0  501  502 -0.00000000000E+00 -0.00000000000E+00 -0.83126724850E+03  0.83126724850E+03  0.00000000000E+00 0.  1.
         25    1    1    2    0    0 -0.75327303395E+02 -0.18656139120E+03 -0.33266545496E+03  0.40837563621E+03  0.12500000000E+03 0.  0.
         25    1    1    2    0    0 -0.24644129371E+02  0.13198992431E+03 -0.36996741234E+03  0.41295224836E+03  0.12500000000E+03 0.  0.
         25    1    1    2    0    0  0.99971432766E+02  0.54571466892E+02  0.33897653251E+02  0.17247139839E+03  0.12500000000E+03 0.  0.
</event>
<event>
 5    0  0.5829567E-005  0.3434581E+03  0.7546771E-02  0.1065333E+00
         21   -1    0    0  502  501  0.00000000000E+00  0.00000000000E+00  0.40667894723E+03  0.40667894723E+03  0.00000000000E+00 0. -1.
         21   -1    0    0  501  502 -0.00000000000E+00 -0.00000000000E+00 -0.29006541415E+03  0.29006541415E+03  0.00000000000E+00 0. -1.
         25    1    1    2    0    0 -0.28213931705E+02 -0.27171673588E+03  0.91037349363E+01  0.30055596566E+03  0.12500000000E+03 0.  0.
         25    1    1    2    0    0  0.46763671892E+02  0.18075480464E+03  0.77080743933E+02  0.23754069440E+03  0.12500000000E+03 0.  0.
         25    1    1    2    0    0 -0.18549740188E+02  0.90961931244E+02  0.30429054217E+02  0.15864770133E+03  0.12500000000E+03 0.  0.
</event>
<event>
 5    0  0.5829567E-005  0.2724121E+03  0.7546771E-02  0.1099907E+00
         21   -1    0    0  502  501  0.00000000000E+00  0.00000000000E+00  0.12299730202E+04  0.12299730202E+04  0.00000000000E+00 0. -1.
         21   -1    0    0  501  502 -0.00000000000E+00 -0.00000000000E+00 -0.60333305797E+02  0.60333305797E+02  0.00000000000E+00 0. -1.
         25    1    1    2    0    0 -0.45885163709E+02 -0.36764696563E+02  0.10222885786E+03  0.17185118720E+03  0.12500000000E+03 0.  0.
         25    1    1    2    0    0  0.63345546892E+02  0.17137166249E+01  0.21907765595E+03  0.26006848035E+03  0.12500000000E+03 0.  0.
         25    1    1    2    0    0 -0.17460383182E+02  0.35050979938E+02  0.84833320063E+03  0.85838665848E+03  0.12500000000E+03 0.  0.
</event>
<event>
 5    0  0.5829567E-005  0.3475020E+03  0.7546771E-02  0.1063645E+00
         21   -1    0    0  502  501  0.00000000000E+00  0.00000000000E+00  0.42912309386E+03  0.42912309386E+03  0.00000000000E+00 0.  1.
         21   -1    0    0  501  502 -0.00000000000E+00 -0.00000000000E+00 -0.28140565325E+03  0.28140565325E+03  0.00000000000E+00 0.  1.
         25    1    1    2    0    0  0.38439659334E+02  0.13678558588E+03  0.11836811813E+02  0.18961280027E+03  0.12500000000E+03 0.  0.
         25    1    1    2    0    0 -0.21561646435E+03 -0.78955963524E+02  0.57441590269E+01  0.26150047655E+03  0.12500000000E+03 0.  0.
         25    1    1    2    0    0  0.17717680501E+03 -0.57829622355E+02  0.13013646977E+03  0.25941547028E+03  0.12500000000E+03 0.  0.
</event>
<event>
 5    0  0.5829567E-005  0.4837685E+03  0.7546771E-02  0.1018105E+00
         21   -1    0    0  502  501  0.00000000000E+00  0.00000000000E+00  0.14898706498E+04  0.14898706498E+04  0.00000000000E+00 0. -1.
         21   -1    0    0  501  502 -0.00000000000E+00 -0.00000000000E+00 -0.15708204253E+03  0.15708204253E+03  0.00000000000E+00 0. -1.
         25    1    1    2    0    0 -0.43409904377E+02  0.15106292545E+02  0.64007113577E+01  0.13333637530E+03  0.12500000000E+03 0.  0.
         25    1    1    2    0    0 -0.29244776948E+03  0.52982345438E+02  0.37419264879E+03  0.49394125684E+03  0.12500000000E+03 0.  0.
         25    1    1    2    0    0  0.33585767386E+03 -0.68088637983E+02  0.95219524711E+03  0.10196750602E+04  0.12500000000E+03 0.  0.
</event>
<event>
 5    0  0.5829567E-005  0.4506769E+03  0.7546771E-02  0.1027520E+00
         21   -1    0    0  502  501  0.00000000000E+00  0.00000000000E+00  0.22834710739E+04  0.22834710739E+04  0.00000000000E+00 0. -1.
         21   -1    0    0  501  502 -0.00000000000E+00 -0.00000000000E+00 -0.88947770274E+02  0.88947770274E+02  0.00000000000E+00 0. -1.
         25    1    1    2    0    0 -0.17570423279E+02  0.44347365304E+02  0.16636359118E+03  0.21348829723E+03  0.12500000000E+03 0.  0.
         25    1    1    2    0    0  0.90316799622E+02 -0.15444165642E+03  0.13407683197E+03  0.25614633787E+03  0.12500000000E+03 0.  0.
         25    1    1    2    0    0 -0.72746376342E+02  0.11009429111E+03  0.18940828805E+04  0.19027842091E+04  0.12500000000E+03 0.  0.
</event>
<event>
 5    0  0.5829567E-005  0.3408896E+03  0.7546771E-02  0.1066418E+00
         21   -1    0    0  502  501  0.00000000000E+00  0.00000000000E+00  0.32048012107E+03  0.32048012107E+03  0.00000000000E+00 0.  1.
         21   -1    0    0  501  502 -0.00000000000E+00 -0.00000000000E+00 -0.36259881568E+03  0.36259881568E+03  0.00000000000E+00 0.  1.
         25    1    1    2    0    0  0.74997325727E+01 -0.25789214738E+02 -0.18057010145E+02  0.12912159076E+03  0.12500000000E+03 0.  0.
         25    1    1    2    0    0 -0.19888742289E+03 -0.12355136048E+03 -0.75841692477E+02  0.27604004778E+03  0.12500000000E+03 0.  0.
         25    1    1    2    0    0  0.19138769032E+03  0.14934057522E+03  0.51780008019E+02  0.27791729821E+03  0.12500000000E+03 0.  0.
</event>
<event>
 5    0  0.5829567E-005  0.3383854E+03  0.7546771E-02  0.1067486E+00
         21   -1    0    0  502  501  0.00000000000E+00  0.00000000000E+00  0.95024017622E+03  0.95024017622E+03  0.00000000000E+00 0.  1.
         21   -1    0    0  501  502 -0.00000000000E+00 -0.00000000000E+00 -0.12050079766E+03  0.12050079766E+03  0.00000000000E+00 0.  1.
         25    1    1    2    0    0 -0.19141814099E+03  0.68655642858E+02  0.19236053644E+03  0.30656496534E+03  0.12500000000E+03 0.  0.
         25    1    1    2    0    0  0.24762162207E+03 -0.29181069134E+02  0.41812282762E+03  0.50261287438E+03  0.12500000000E+03 0.  0.
         25    1    1    2    0    0 -0.56203481084E+02 -0.39474573724E+02  0.21925601450E+03  0.26156313416E+03  0.12500000000E+03 0.  0.
</event>
