<event>
 4    0  0.2170991E-002  0.2389432E+03  0.7546771E-02  0.1120499E+00
         21   -1    0    0  502  501  0.00000000000E+00  0.00000000000E+00  0.15360820639E+03  0.15360820639E+03  0.00000000000E+00 0.  1.
         21   -1    0    0  501  502 -0.00000000000E+00 -0.00000000000E+00 -0.37168486054E+03  0.37168486054E+03  0.00000000000E+00 0.  1.
         25    1    1    2    0    0 -0.33034517890E+02 -0.19335592559E+03 -0.16915417386E+03  0.28760376887E+03  0.12500000000E+03 0.  0.
         25    1    1    2    0    0  0.33034517890E+02  0.19335592559E+03 -0.48922480283E+02  0.23768929805E+03  0.12500000000E+03 0.  0.
</event>
<event>
 4    0  0.2170991E-002  0.1691151E+03  0.7546771E-02  0.1178774E+00
         21   -1    0    0  502  501  0.00000000000E+00  0.00000000000E+00  0.36337912971E+03  0.36337912971E+03  0.00000000000E+00 0. -1.
         21   -1    0    0  501  502 -0.00000000000E+00 -0.00000000000E+00 -0.78705485071E+02  0.78705485071E+02  0.00000000000E+00 0. -1.
         25    1    1    2    0    0  0.54609138234E+02  0.84482031225E+02  0.21218233201E+03  0.26601825801E+03  0.12500000000E+03 0.  0.
         25    1    1    2    0    0 -0.54609138234E+02 -0.84482031225E+02  0.72491312627E+02  0.17606635677E+03  0.12500000000E+03 0.  0.
</event>
<event>
 4    0  0.2170991E-002  0.1679010E+03  0.7546771E-02  0.1180055E+00
         21   -1    0    0  502  501  0.00000000000E+00  0.00000000000E+00  0.51872703716E+03  0.51872703716E+03  0.00000000000E+00 0.  1.
         21   -1    0    0  501  502 -0.00000000000E+00 -0.00000000000E+00 -0.54346003458E+02  0.54346003458E+02  0.00000000000E+00 0.  1.
         25    1    1    2    0    0  0.10104951358E+03  0.38931495275E+02  0.28162469762E+03  0.32659475781E+03  0.12500000000E+03 0.  0.
         25    1    1    2    0    0 -0.10104951358E+03 -0.38931495275E+02  0.18275633608E+03  0.24647828281E+03  0.12500000000E+03 0.  0.
</event>
<event>
 4    0  0.2170991E-002  0.3008253E+03  0.7546771E-02  0.1084829E+00
         21   -1    0    0  502  501  0.00000000000E+00  0.00000000000E+00  0.10936321005E+03  0.10936321005E+03  0.00000000000E+00 0.  1.
         21   -1    0    0  501  502 -0.00000000000E+00 -0.00000000000E+00 -0.82747990879E+03  0.82747990879E+03  0.00000000000E+00 0.  1.
         25    1    1    2    0    0  0.14042444767E+03 -0.13116018281E+03 -0.66239282612E+03  0.70093599933E+03  0.12500000000E+03 0.  0.
         25    1    1    2    0    0 -0.14042444767E+03  0.13116018281E+03 -0.55723872622E+02  0.23590711952E+03  0.12500000000E+03 0.  0.
</event>
<event>
 4    0  0.2170991E-002  0.2122464E+03  0.7546771E-02  0.1139799E+00
         21   -1    0    0  502  501  0.00000000000E+00  0.00000000000E+00  0.15841240513E+04  0.15841240513E+04  0.00000000000E+00 0.  1.
         21   -1    0    0  501  502 -0.00000000000E+00 -0.00000000000E+00 -0.28437504172E+02  0.28437504172E+02  0.00000000000E+00 0.  1.
         25    1    1    2    0    0 -0.71735669551E+02  0.42994286702E+02  0.13467631618E+04  0.13551348748E+04  0.12500000000E+03 0.  0.
         25    1    1    2    0    0  0.71735669551E+02 -0.42994286702E+02  0.20892338533E+03  0.25742668066E+03  0.12500000000E+03 0.  0.
</event>
<event>
 4    0  0.2170991E-002  0.1984592E+03  0.7546771E-02  0.1151046E+00
         21   -1    0    0  502  501  0.00000000000E+00  0.00000000000E+00  0.36228933028E+02  0.36228933028E+02  0.00000000000E+00 0.  1.
         21   -1    0    0  501  502 -0.00000000000E+00 -0.00000000000E+00 -0.10871431466E+04  0.10871431466E+04  0.00000000000E+00 0.  1.
         25    1    1    2    0    0  0.71037319478E+02 -0.20756261423E+02 -0.90815587657E+03  0.91970061395E+03  0.12500000000E+03 0.  0.
         25    1    1    2    0    0 -0.71037319478E+02  0.20756261423E+02 -0.14275833698E+03  0.20367146566E+03  0.12500000000E+03 0.  0.
</event>
<event>
 4    0  0.2170991E-002  0.1646898E+03  0.7546771E-02  0.1183502E+00
         21   -1    0    0  502  501  0.00000000000E+00  0.00000000000E+00  0.47660068043E+03  0.47660068043E+03  0.00000000000E+00 0.  1.
         21   -1    0    0  501  502 -0.00000000000E+00 -0.00000000000E+00 -0.56908678911E+02  0.56908678911E+02  0.00000000000E+00 0.  1.
         25    1    1    2    0    0 -0.57879548794E+02  0.13183440633E+02  0.65208790547E+02  0.15297395739E+03  0.12500000000E+03 0.  0.
         25    1    1    2    0    0  0.57879548794E+02 -0.13183440633E+02  0.35448321097E+03  0.38053540195E+03  0.12500000000E+03 0.  0.
</event>
<event>
 4    0  0.2170991E-002  0.2792941E+03  0.7546771E-02  0.1096075E+00
         21   -1    0    0  502  501  0.00000000000E+00  0.00000000000E+00  0.21189066241E+03  0.21189066241E+03  0.00000000000E+00 0. -1.
         21   -1    0    0  501  502 -0.00000000000E+00 -0.00000000000E+00 -0.36813887256E+03  0.36813887256E+03  0.00000000000E+00 0. -1.
         25    1    1    2    0    0 -0.22437011712E+03  0.38343147631E+02 -0.18487109882E+03  0.31877024580E+03  0.12500000000E+03 0.  0.
         25    1    1    2    0    0  0.22437011712E+03 -0.38343147631E+02  0.28622888672E+02  0.26125928918E+03  0.12500000000E+03 0.  0.
</event>
<event>
 4    0  0.2170991E-002  0.1890953E+03  0.7546771E-02  0.1159280E+00
         21   -1    0    0  502  501  0.00000000000E+00  0.00000000000E+00  0.69657781933E+03  0.69657781933E+03  0.00000000000E+00 0. -1.
         21   -1    0    0  501  502 -0.00000000000E+00 -0.00000000000E+00 -0.51332455614E+02  0.51332455614E+02  0.00000000000E+00 0. -1.
         25    1    1    2    0    0  0.51432937563E+02 -0.13206664066E+03  0.33590435225E+03  0.38541364597E+03  0.12500000000E+03 0.  0.
         25    1    1    2    0    0 -0.51432937563E+02  0.13206664066E+03  0.30934101146E+03  0.36249662897E+03  0.12500000000E+03 0.  0.
</event>
<event>
 4    0  0.2170991E-002  0.2880041E+03  0.7546771E-02  0.1091396E+00
         21   -1    0    0  502  501  0.00000000000E+00  0.00000000000E+00  0.78692861493E+03  0.78692861493E+03  0.00000000000E+00 0.  1.
         21   -1    0    0  501  502 -0.00000000000E+00 -0.00000000000E+00 -0.10540520418E+03  0.10540520418E+03  0.00000000000E+00 0.  1.
         25    1    1    2    0    0 -0.24024827627E+03  0.95895351764E+02  0.37198498791E+03  0.47001381253E+03  0.12500000000E+03 0.  0.
         25    1    1    2    0    0  0.24024827627E+03 -0.95895351764E+02  0.30953842284E+03  0.42232000658E+03  0.12500000000E+03 0.  0.
</event>
<event>
 4    0  0.2170991E-002  0.1981960E+03  0.7546771E-02  0.1151270E+00
         21   -1    0    0  502  501  0.00000000000E+00  0.00000000000E+00  0.76352928993E+03  0.76352928993E+03  0.00000000000E+00 0.  1.
         21   -1    0    0  501  502 -0.00000000000E+00 -0.00000000000E+00 -0.51447496919E+02  0.51447496919E+02  0.00000000000E+00 0.  1.
         25    1    1    2    0    0  0.32059893197E+02  0.11373373342E+03  0.55846393784E+03  0.58435448894E+03  0.12500000000E+03 0.  0.
         25    1    1    2    0    0 -0.32059893197E+02 -0.11373373342E+03  0.15361785517E+03  0.23062229791E+03  0.12500000000E+03 0.  0.
</event>
<event>
 4    0  0.2170991E-002  0.2297517E+03  0.7546771E-02  0.1126815E+00
         21   -1    0    0  502  501  0.00000000000E+00  0.00000000000E+00  0.84491884823E+03  0.84491884823E+03  0.00000000000E+00 0.  1.
         21   -1    0    0  501  502 -0.00000000000E+00 -0.00000000000E+00 -0.62474443729E+02  0.62474443729E+02  0.00000000000E+00 0.  1.
         25    1    1    2    0    0 -0.50838345310E+02 -0.77751128180E+02  0.72477594813E+03  0.74131973553E+03  0.12500000000E+03 0.  0.
         25    1    1    2    0    0  0.50838345310E+02  0.77751128180E+02  0.57668456371E+02  0.16607355644E+03  0.12500000000E+03 0.  0.
</event>
<event>
 4    0  0.2170991E-002  0.1583966E+03  0.7546771E-02  0.1190519E+00
         21   -1    0    0  502  501  0.00000000000E+00  0.00000000000E+00  0.14428213734E+02  0.14428213734E+02  0.00000000000E+00 0. -1.
         21   -1    0    0  501  502 -0.00000000000E+00 -0.00000000000E+00 -0.17389184831E+04  0.17389184831E+04  0.00000000000E+00 0. -1.
         25    1    1    2    0    0  0.95843929471E+02 -0.68668432677E+01 -0.94641496075E+03  0.95945791480E+03  0.12500000000E+03 0.  0.
         25    1    1    2    0    0 -0.95843929471E+02  0.68668432677E+01 -0.77807530864E+03  0.79388878205E+03  0.12500000000E+03 0.  0.
</event>
<event>
 4    0  0.2170991E-002  0.2841227E+03  0.7546771E-02  0.1093458E+00
         21   -1    0    0  502  501  0.00000000000E+00  0.00000000000E+00  0.61315353029E+03  0.61315353029E+03  0.00000000000E+00 0.  1.
         21   -1    0    0  501  502 -0.00000000000E+00 -0.00000000000E+00 -0.13165655379E+03  0.13165655379E+03  0.00000000000E+00 0.  1.
         25    1    1    2    0    0  0.16448518883E+03  0.18796431190E+03  0.17245610265E+03  0.32825610007E+03  0.12500000000E+03 0.  0.
         25    1    1    2    0    0 -0.16448518883E+03 -0.18796431190E+03  0.30904087385E+03  0.41655398402E+03  0.12500000000E+03 0.  0.
</event>
<event>
 4    0  0.2170991E-002  0.5018641E+03  0.7546771E-02  0.1013294E+00
         21   -1    0    0  502  501  0.00000000000E+00  0.00000000000E+00  0.16542182983E+03  0.16542182983E+03  0.00000000000E+00 0.  1.
         21   -1    0    0  501  502 -0.00000000000E+00 -0.00000000000E+00 -0.15225776112E+04  0.15225776112E+04  0.00000000000E+00 0.  1.
         25    1    1    2    0    0  0.15367191358E+03 -0.45848320213E+03 -0.76131951523E+03  0.91052419404E+03  0.12500000000E+03 0.  0.
         25    1    1    2    0    0 -0.15367191358E+03  0.45848320213E+03 -0.59583626616E+03  0.77747524702E+03  0.12500000000E+03 0.  0.
</event>
<event>
 4    0  0.2170991E-002  0.2097328E+03  0.7546771E-02  0.1141778E+00
         21   -1    0    0  502  501  0.00000000000E+00  0.00000000000E+00  0.26205494217E+03  0.26205494217E+03  0.00000000000E+00 0.  1.
         21   -1    0    0  501  502 -0.00000000000E+00 -0.00000000000E+00 -0.16785736057E+03  0.16785736057E+03  0.00000000000E+00 0.  1.
         25    1    1    2    0    0 -0.14238068636E+03 -0.26789556352E+02 -0.40905326993E+02  0.19567367210E+03  0.12500000000E+03 0.  0.
         25    1    1    2    0    0  0.14238068636E+03  0.26789556352E+02  0.13510290859E+03  0.23423863065E+03  0.12500000000E+03 0.  0.
</event>
<event>
 4    0  0.2170991E-002  0.2817863E+03  0.7546771E-02  0.1094717E+00
         21   -1    0    0  502  501  0.00000000000E+00  0.00000000000E+00  0.70977311878E+02  0.70977311878E+02  0.00000000000E+00 0. -1.
         21   -1    0    0  501  502 -0.00000000000E+00 -0.00000000000E+00 -0.11187169534E+04  0.11187169534E+04  0.00000000000E+00 0. -1.
         25    1    1    2    0    0 -0.59891780543E+02 -0.14809753720E+03 -0.11096484357E+03  0.23121008285E+03  0.12500000000E+03 0.  0.
         25    1    1    2    0    0  0.59891780543E+02  0.14809753720E+03 -0.93677479799E+03  0.95848418247E+03  0.12500000000E+03 0.  0.
</event>
<event>
 4    0  0.2170991E-002  0.2905846E+03  0.7546771E-02  0.1090044E+00
         21   -1    0    0  502  501  0.00000000000E+00  0.00000000000E+00  0.10921337462E+03  0.10921337462E+03  0.00000000000E+00 0. -1.
         21   -1    0    0  501  502 -0.00000000000E+00 -0.00000000000E+00 -0.77315975040E+03  0.77315975040E+03  0.00000000000E+00 0.  1.
         25    1    1    2    0    0  0.23316621314E+03  0.47718106731E+02 -0.16447472716E+03  0.31515145015E+03  0.12500000000E+03 0.  0.
         25    1    1    2    0    0 -0.23316621314E+03 -0.47718106731E+02 -0.49947164863E+03  0.56722167487E+03  0.12500000000E+03 0.  0.
</event>
<event>
 4    0  0.2170991E-002  0.2218593E+03  0.7546771E-02  0.1132504E+00
         21   -1    0    0  502  501  0.00000000000E+00  0.00000000000E+00  0.10003926297E+04  0.10003926297E+04  0.00000000000E+00 0.  1.
         21   -1    0    0  501  502 -0.00000000000E+00 -0.00000000000E+00 -0.49202223798E+02  0.49202223798E+02  0.00000000000E+00 0.  1.
         25    1    1    2    0    0  0.71370041804E+02 -0.11746204849E+03  0.76244488702E+03  0.78475360557E+03  0.12500000000E+03 0.  0.
         25    1    1    2    0    0 -0.71370041804E+02  0.11746204849E+03  0.18874551884E+03  0.26484124789E+03  0.12500000000E+03 0.  0.
</event>
<event>
 4    0  0.2170991E-002  0.2157769E+03  0.7546771E-02  0.1137071E+00
         21   -1    0    0  502  501  0.00000000000E+00  0.00000000000E+00  0.28549436463E+02  0.28549436463E+02  0.00000000000E+00 0. -1.
         21   -1    0    0  501  502 -0.00000000000E+00 -0.00000000000E+00 -0.16308431726E+04  0.16308431726E+04  0.00000000000E+00 0. -1.
         25    1    1    2    0    0  0.12266420855E+03  0.12469594386E+03 -0.73034298335E+03  0.76132874621E+03  0.12500000000E+03 0.  0.
         25    1    1    2    0    0 -0.12266420855E+03 -0.12469594386E+03 -0.87195075275E+03  0.89806386282E+03  0.12500000000E+03 0.  0.
</event>
<event>
 4    0  0.2170991E-002  0.1841683E+03  0.7546771E-02  0.1163829E+00
         21   -1    0    0  502  501  0.00000000000E+00  0.00000000000E+00  0.74461217555E+03  0.74461217555E+03  0.00000000000E+00 0.  1.
         21   -1    0    0  501  502 -0.00000000000E+00 -0.00000000000E+00 -0.45551156268E+02  0.45551156268E+02  0.00000000000E+00 0.  1.
         25    1    1    2    0    0 -0.29837985274E+02 -0.12317708957E+03  0.45083504796E+03  0.48470624220E+03  0.12500000000E+03 0.  0.
         25    1    1    2    0    0  0.29837985274E+02  0.12317708957E+03  0.24822597133E+03  0.30545708963E+03  0.12500000000E+03 0.  0.
</event>
<event>
 4    0  0.2170991E-002  0.2111437E+03  0.7546771E-02  0.1140663E+00
         21   -1    0    0  502  501  0.00000000000E+00  0.00000000000E+00  0.59992028621E+02  0.59992028621E+02  0.00000000000E+00 0. -1.
         21   -1    0    0  501  502 -0.00000000000E+00 -0.00000000000E+00 -0.74312675921E+03  0.74312675921E+03  0.00000000000E+00 0. -1.
         25    1    1    2    0    0  0.46230074524E+02 -0.16067852027E+03 -0.40176485294E+03  0.45276351854E+03  0.12500000000E+03 0.  0.
         25    1    1    2    0    0 -0.46230074524E+02  0.16067852027E+03 -0.28136987765E+03  0.35035526929E+03  0.12500000000E+03 0.  0.
</event>
<event>
 4    0  0.2170991E-002  0.2237149E+03  0.7546771E-02  0.1131143E+00
         21   -1    0    0  502  501  0.00000000000E+00  0.00000000000E+00  0.20904913884E+03  0.20904913884E+03  0.00000000000E+00 0. -1.
         21   -1    0    0  501  502 -0.00000000000E+00 -0.00000000000E+00 -0.23940945682E+03  0.23940945682E+03  0.00000000000E+00 0. -1.
         25    1    1    2    0    0 -0.46010860193E+02 -0.16350717524E+03 -0.89995926828E+02  0.22929427044E+03  0.12500000000E+03 0.  0.
         25    1    1    2    0    0  0.46010860193E+02  0.16350717524E+03  0.59635608851E+02  0.21916432523E+03  0.12500000000E+03 0.  0.
</event>
<event>
 4    0  0.2170991E-002  0.2307015E+03  0.7546771E-02  0.1126147E+00
         21   -1    0    0  502  501  0.00000000000E+00  0.00000000000E+00  0.16109328708E+04  0.16109328708E+04  0.00000000000E+00 0. -1.
         21   -1    0    0  501  502 -0.00000000000E+00 -0.00000000000E+00 -0.33038734507E+02  0.33038734507E+02  0.00000000000E+00 0. -1.
         25    1    1    2    0    0  0.90667462771E+02  0.47867862483E+00  0.13996363756E+04  0.14081291851E+04  0.12500000000E+03 0.  0.
         25    1    1    2    0    0 -0.90667462771E+02 -0.47867862483E+00  0.17825776071E+03  0.23584242025E+03  0.12500000000E+03 0.  0.
</event>
<event>
 4    0  0.2170991E-002  0.4939142E+03  0.7546771E-02  0.1015380E+00
         21   -1    0    0  502  501  0.00000000000E+00  0.00000000000E+00  0.10959335171E+04  0.10959335171E+04  0.00000000000E+00 0.  1.
         21   -1    0    0  501  502 -0.00000000000E+00 -0.00000000000E+00 -0.22259674165E+03  0.22259674165E+03  0.00000000000E+00 0.  1.
         25    1    1    2    0    0  0.18689605152E+03 -0.40056346095E+03  0.67894049595E+03  0.81973557771E+03  0.12500000000E+03 0.  0.
         25    1    1    2    0    0 -0.18689605152E+03  0.40056346095E+03  0.19439627945E+03  0.49879468099E+03  0.12500000000E+03 0.  0.
</event>
<event>
 4    0  0.2170991E-002  0.2144945E+03  0.7546771E-02  0.1138055E+00
         21   -1    0    0  502  501  0.00000000000E+00  0.00000000000E+00  0.32302523187E+03  0.32302523187E+03  0.00000000000E+00 0. -1.
         21   -1    0    0  501  502 -0.00000000000E+00 -0.00000000000E+00 -0.14242809959E+03  0.14242809959E+03  0.00000000000E+00 0. -1.
         25    1    1    2    0    0  0.66268166131E+02  0.11842179637E+03  0.20899427968E+03  0.27878091871E+03  0.12500000000E+03 0.  0.
         25    1    1    2    0    0 -0.66268166131E+02 -0.11842179637E+03 -0.28397147406E+02  0.18667241274E+03  0.12500000000E+03 0.  0.
</event>
<event>
 4    0  0.2170991E-002  0.1969204E+03  0.7546771E-02  0.1152364E+00
         21   -1    0    0  502  501  0.00000000000E+00  0.00000000000E+00  0.65856124096E+02  0.65856124096E+02  0.00000000000E+00 0.  1.
         21   -1    0    0  501  502 -0.00000000000E+00 -0.00000000000E+00 -0.58882366720E+03  0.58882366720E+03  0.00000000000E+00 0.  1.
         25    1    1    2    0    0 -0.10604532093E+03  0.23266932168E+02 -0.84266510113E+02  0.18577622278E+03  0.12500000000E+03 0.  0.
         25    1    1    2    0    0  0.10604532093E+03 -0.23266932168E+02 -0.43870103299E+03  0.46890356851E+03  0.12500000000E+03 0.  0.
</event>
<event>
 4    0  0.2170991E-002  0.2487474E+03  0.7546771E-02  0.1114099E+00
         21   -1    0    0  502  501  0.00000000000E+00  0.00000000000E+00  0.11117138327E+03  0.11117138327E+03  0.00000000000E+00 0.  1.
         21   -1    0    0  501  502 -0.00000000000E+00 -0.00000000000E+00 -0.55657571641E+03  0.55657571641E+03  0.00000000000E+00 0.  1.
         25    1    1    2    0    0  0.15448078747E+02 -0.54519491720E+02 -0.50115769984E+03  0.51961048702E+03  0.12500000000E+03 0.  0.
         25    1    1    2    0    0 -0.15448078747E+02  0.54519491720E+02  0.55753366696E+02  0.14813661267E+03  0.12500000000E+03 0.  0.
</event>
<event>
 4    0  0.2170991E-002  0.2001158E+03  0.7546771E-02  0.1149641E+00
         21   -1    0    0  502  501  0.00000000000E+00  0.00000000000E+00  0.10248372742E+03  0.10248372742E+03  0.00000000000E+00 0. -1.
         21   -1    0    0  501  502 -0.00000000000E+00 -0.00000000000E+00 -0.39075791301E+03  0.39075791301E+03  0.00000000000E+00 0. -1.
         25    1    1    2    0    0  0.86151966166E+02 -0.12892381870E+03 -0.12018253981E+03  0.23262062501E+03  0.12500000000E+03 0.  0.
         25    1    1    2    0    0 -0.86151966166E+02  0.12892381870E+03 -0.16809164578E+03  0.26062101543E+03  0.12500000000E+03 0.  0.
</event>
<event>
 4    0  0.2170991E-002  0.3672832E+03  0.7546771E-02  0.1055737E+00
         21   -1    0    0  502  501  0.00000000000E+00  0.00000000000E+00  0.88464673432E+03  0.88464673432E+03  0.00000000000E+00 0. -1.
         21   -1    0    0  501  502 -0.00000000000E+00 -0.00000000000E+00 -0.15248682513E+03  0.15248682513E+03  0.00000000000E+00 0. -1.
         25    1    1    2    0    0 -0.28539861101E+03 -0.11672408969E+03  0.14646231146E+03  0.36352866319E+03  0.12500000000E+03 0.  0.
         25    1    1    2    0    0  0.28539861101E+03  0.11672408969E+03  0.58569759773E+03  0.67360489626E+03  0.12500000000E+03 0.  0.
</event>
<event>
 4    0  0.2170991E-002  0.2074014E+03  0.7546771E-02  0.1143640E+00
         21   -1    0    0  502  501  0.00000000000E+00  0.00000000000E+00  0.17132321006E+04  0.17132321006E+04  0.00000000000E+00 0.  1.
         21   -1    0    0  501  502 -0.00000000000E+00 -0.00000000000E+00 -0.25107711171E+02  0.25107711171E+02  0.00000000000E+00 0.  1.
         25    1    1    2    0    0 -0.40645191315E+02  0.14881457727E+03  0.59287758661E+03  0.62524126759E+03  0.12500000000E+03 0.  0.
         25    1    1    2    0    0  0.40645191315E+02 -0.14881457727E+03  0.10952468028E+04  0.11130985442E+04  0.12500000000E+03 0.  0.
</event>
<event>
 4    0  0.2170991E-002  0.2269977E+03  0.7546771E-02  0.1128771E+00
         21   -1    0    0  502  501  0.00000000000E+00  0.00000000000E+00  0.25521906662E+02  0.25521906662E+02  0.00000000000E+00 0. -1.
         21   -1    0    0  501  502 -0.00000000000E+00 -0.00000000000E+00 -0.20189697917E+04  0.20189697917E+04  0.00000000000E+00 0. -1.
         25    1    1    2    0    0 -0.44094659177E+02 -0.15795329198E+03 -0.56927792864E+03  0.60547166858E+03  0.12500000000E+03 0.  0.
         25    1    1    2    0    0  0.44094659177E+02  0.15795329198E+03 -0.14241699564E+04  0.14390200298E+04  0.12500000000E+03 0.  0.
</event>
<event>
 4    0  0.2170991E-002  0.2210919E+03  0.7546771E-02  0.1133072E+00
         21   -1    0    0  502  501  0.00000000000E+00  0.00000000000E+00  0.12772865756E+03  0.12772865756E+03  0.00000000000E+00 0.  1.
         21   -1    0    0  501  502 -0.00000000000E+00 -0.00000000000E+00 -0.38269911257E+03  0.38269911257E+03  0.00000000000E+00 0.  1.
         25    1    1    2    0    0  0.32604603479E+02  0.17919825598E+03 -0.13791064329E+03  0.26042162093E+03  0.12500000000E+03 0.  0.
         25    1    1    2    0    0 -0.32604603479E+02 -0.17919825598E+03 -0.11705981173E+03  0.25000614920E+03  0.12500000000E+03 0.  0.
</event>
<event>
 4    0  0.2170991E-002  0.2428779E+03  0.7546771E-02  0.1117890E+00
         21   -1    0    0  502  501  0.00000000000E+00  0.00000000000E+00  0.59293998485E+02  0.59293998485E+02  0.00000000000E+00 0. -1.
         21   -1    0    0  501  502 -0.00000000000E+00 -0.00000000000E+00 -0.99486775760E+03  0.99486775760E+03  0.00000000000E+00 0. -1.
         25    1    1    2    0    0 -0.74824888546E+02  0.12778411603E+03 -0.78552744698E+03  0.80907719917E+03  0.12500000000E+03 0.  0.
         25    1    1    2    0    0  0.74824888546E+02 -0.12778411603E+03 -0.15004631214E+03  0.24508455692E+03  0.12500000000E+03 0.  0.
</event>
<event>
 4    0  0.2170991E-002  0.1654960E+03  0.7546771E-02  0.1182628E+00
         21   -1    0    0  502  501  0.00000000000E+00  0.00000000000E+00  0.38059079874E+02  0.38059079874E+02  0.00000000000E+00 0. -1.
         21   -1    0    0  501  502 -0.00000000000E+00 -0.00000000000E+00 -0.71964213526E+03  0.71964213526E+03  0.00000000000E+00 0. -1.
         25    1    1    2    0    0 -0.42542393225E+02 -0.18722490205E+02 -0.56512600150E+03  0.58064858945E+03  0.12500000000E+03 0.  0.
         25    1    1    2    0    0  0.42542393225E+02  0.18722490205E+02 -0.11645705388E+03  0.17705262568E+03  0.12500000000E+03 0.  0.
</event>
<event>
 4    0  0.2170991E-002  0.3342879E+03  0.7546771E-02  0.1069255E+00
         21   -1    0    0  502  501  0.00000000000E+00  0.00000000000E+00  0.24593943812E+03  0.24593943812E+03  0.00000000000E+00 0. -1.
         21   -1    0    0  501  502 -0.00000000000E+00 -0.00000000000E+00 -0.45437359654E+03  0.45437359654E+03  0.00000000000E+00 0. -1.
         25    1    1    2    0    0  0.20670231275E+03  0.22386263472E+03 -0.44199136345E+02  0.33229337786E+03  0.12500000000E+03 0.  0.
         25    1    1    2    0    0 -0.20670231275E+03 -0.22386263472E+03 -0.16423502207E+03  0.36801965680E+03  0.12500000000E+03 0.  0.
</event>
<event>
 4    0  0.2170991E-002  0.1530696E+03  0.7546771E-02  0.1196751E+00
         21   -1    0    0  502  501  0.00000000000E+00  0.00000000000E+00  0.86865998443E+02  0.86865998443E+02  0.00000000000E+00 0.  1.
         21   -1    0    0  501  502 -0.00000000000E+00 -0.00000000000E+00 -0.26972933944E+03  0.26972933944E+03  0.00000000000E+00 0.  1.
         25    1    1    2    0    0 -0.73073303548E+02 -0.35035316831E+02 -0.13241802634E+03  0.19931561609E+03  0.12500000000E+03 0.  0.
         25    1    1    2    0    0  0.73073303548E+02  0.35035316831E+02 -0.50445314658E+02  0.15727972179E+03  0.12500000000E+03 0.  0.
</event>
<event>
 4    0  0.2170991E-002  0.2346782E+03  0.7546771E-02  0.1123390E+00
         21   -1    0    0  502  501  0.00000000000E+00  0.00000000000E+00  0.29807783565E+03  0.29807783565E+03  0.00000000000E+00 0. -1.
         21   -1    0    0  501  502 -0.00000000000E+00 -0.00000000000E+00 -0.18476335634E+03  0.18476335634E+03  0.00000000000E+00 0. -1.
         25    1    1    2    0    0 -0.37476058917E+02  0.29481956732E+02  0.25500547060E+03  0.28796949631E+03  0.12500000000E+03 0.  0.
         25    1    1    2    0    0  0.37476058917E+02 -0.29481956732E+02 -0.14169099129E+03  0.19487169568E+03  0.12500000000E+03 0.  0.
</event>
<event>
 4    0  0.2170991E-002  0.2855053E+03  0.7546771E-02  0.1092719E+00
         21   -1    0    0  502  501  0.00000000000E+00  0.00000000000E+00  0.11707524177E+04  0.11707524177E+04  0.00000000000E+00 0.  1.
         21   -1    0    0  501  502 -0.00000000000E+00 -0.00000000000E+00 -0.69624702226E+02  0.69624702226E+02  0.00000000000E+00 0.  1.
         25    1    1    2    0    0  0.63744579455E+02 -0.24569850767E+03  0.46764310772E+03  0.54657680547E+03  0.12500000000E+03 0.  0.
         25    1    1    2    0    0 -0.63744579455E+02  0.24569850767E+03  0.63348460774E+03  0.69380031445E+03  0.12500000000E+03 0.  0.
</event>
<event>
 4    0  0.2170991E-002  0.2022966E+03  0.7546771E-02  0.1147816E+00
         21   -1    0    0  502  501  0.00000000000E+00  0.00000000000E+00  0.67044275109E+02  0.67044275109E+02  0.00000000000E+00 0. -1.
         21   -1    0    0  501  502 -0.00000000000E+00 -0.00000000000E+00 -0.61040158340E+03  0.61040158340E+03  0.00000000000E+00 0. -1.
         25    1    1    2    0    0 -0.74634411210E+02  0.48159919058E+02 -0.49260426193E+03  0.51592017989E+03  0.12500000000E+03 0.  0.
         25    1    1    2    0    0  0.74634411210E+02 -0.48159919058E+02 -0.50753046362E+02  0.16152567863E+03  0.12500000000E+03 0.  0.
</event>
<event>
 4    0  0.2170991E-002  0.1997708E+03  0.7546771E-02  0.1149932E+00
         21   -1    0    0  502  501  0.00000000000E+00  0.00000000000E+00  0.51159570144E+02  0.51159570144E+02  0.00000000000E+00 0.  1.
         21   -1    0    0  501  502 -0.00000000000E+00 -0.00000000000E+00 -0.78007677451E+03  0.78007677451E+03  0.00000000000E+00 0.  1.
         25    1    1    2    0    0 -0.71338258177E+02 -0.13019116711E+03 -0.46302360470E+03  0.50205054086E+03  0.12500000000E+03 0.  0.
         25    1    1    2    0    0  0.71338258177E+02  0.13019116711E+03 -0.26589359967E+03  0.32918580379E+03  0.12500000000E+03 0.  0.
</event>
<event>
 4    0  0.2170991E-002  0.5010443E+03  0.7546771E-02  0.1013507E+00
         21   -1    0    0  502  501  0.00000000000E+00  0.00000000000E+00  0.81847907797E+03  0.81847907797E+03  0.00000000000E+00 0. -1.
         21   -1    0    0  501  502 -0.00000000000E+00 -0.00000000000E+00 -0.30672183010E+03  0.30672183010E+03  0.00000000000E+00 0. -1.
         25    1    1    2    0    0  0.33559516434E+03 -0.85670006746E+02 -0.12565600207E+03  0.38907312326E+03  0.12500000000E+03 0.  0.
         25    1    1    2    0    0 -0.33559516434E+03  0.85670006746E+02  0.63741324994E+03  0.73612778482E+03  0.12500000000E+03 0.  0.
</event>
<event>
 4    0  0.2170991E-002  0.2177141E+03  0.7546771E-02  0.1135599E+00
         21   -1    0    0  502  501  0.00000000000E+00  0.00000000000E+00  0.17107360950E+03  0.17107360950E+03  0.00000000000E+00 0.  1.
         21   -1    0    0  501  502 -0.00000000000E+00 -0.00000000000E+00 -0.27707049745E+03  0.27707049745E+03  0.00000000000E+00 0.  1.
         25    1    1    2    0    0  0.27378465109E+02 -0.16883287274E+03 -0.10466741556E+03  0.23629301121E+03  0.12500000000E+03 0.  0.
         25    1    1    2    0    0 -0.27378465109E+02  0.16883287274E+03 -0.13294723928E+01  0.21185109574E+03  0.12500000000E+03 0.  0.
</event>
<event>
 4    0  0.2170991E-002  0.1810518E+03  0.7546771E-02  0.1166789E+00
         21   -1    0    0  502  501  0.00000000000E+00  0.00000000000E+00  0.30501046621E+03  0.30501046621E+03  0.00000000000E+00 0. -1.
         21   -1    0    0  501  502 -0.00000000000E+00 -0.00000000000E+00 -0.10747090531E+03  0.10747090531E+03  0.00000000000E+00 0. -1.
         25    1    1    2    0    0  0.10626977741E+03 -0.71656975756E+02  0.12947894305E+03  0.22094746991E+03  0.12500000000E+03 0.  0.
         25    1    1    2    0    0 -0.10626977741E+03  0.71656975756E+02  0.68060617850E+02  0.19153390161E+03  0.12500000000E+03 0.  0.
</event>
<event>
 4    0  0.2170991E-002  0.1976822E+03  0.7546771E-02  0.1151709E+00
         21   -1    0    0  502  501  0.00000000000E+00  0.00000000000E+00  0.22448804616E+03  0.22448804616E+03  0.00000000000E+00 0. -1.
         21   -1    0    0  501  502 -0.00000000000E+00 -0.00000000000E+00 -0.17407723753E+03  0.17407723753E+03  0.00000000000E+00 0. -1.
         25    1    1    2    0    0 -0.12702949686E+03 -0.54196709296E+02 -0.41508025603E+02  0.19084468177E+03  0.12500000000E+03 0.  0.
         25    1    1    2    0    0  0.12702949686E+03  0.54196709296E+02  0.91918834228E+02  0.20772060191E+03  0.12500000000E+03 0.  0.
</event>
<event>
 4    0  0.2170991E-002  0.2905479E+03  0.7546771E-02  0.1090063E+00
         21   -1    0    0  502  501  0.00000000000E+00  0.00000000000E+00  0.34784749449E+03  0.34784749449E+03  0.00000000000E+00 0.  1.
         21   -1    0    0  501  502 -0.00000000000E+00 -0.00000000000E+00 -0.24268699031E+03  0.24268699031E+03  0.00000000000E+00 0.  1.
         25    1    1    2    0    0  0.40782066024E+01 -0.38493506652E+02  0.31620607329E+03  0.34221289077E+03  0.12500000000E+03 0.  0.
         25    1    1    2    0    0 -0.40782066024E+01  0.38493506652E+02 -0.21104556910E+03  0.24832159403E+03  0.12500000000E+03 0.  0.
</event>
<event>
 4    0  0.2170991E-002  0.3095056E+03  0.7546771E-02  0.1080583E+00
         21   -1    0    0  502  501  0.00000000000E+00  0.00000000000E+00  0.52476546615E+03  0.52476546615E+03  0.00000000000E+00 0. -1.
         21   -1    0    0  501  502 -0.00000000000E+00 -0.00000000000E+00 -0.18254581422E+03  0.18254581422E+03  0.00000000000E+00 0. -1.
         25    1    1    2    0    0 -0.21112219146E+02  0.71273697004E+02  0.48329105260E+03  0.50469882822E+03  0.12500000000E+03 0.  0.
         25    1    1    2    0    0  0.21112219146E+02 -0.71273697004E+02 -0.14107140067E+03  0.20261245216E+03  0.12500000000E+03 0.  0.
</event>
<event>
 4    0  0.2170991E-002  0.3760959E+03  0.7546771E-02  0.1052386E+00
         21   -1    0    0  502  501  0.00000000000E+00  0.00000000000E+00  0.37055281688E+03  0.37055281688E+03  0.00000000000E+00 0.  1.
         21   -1    0    0  501  502 -0.00000000000E+00 -0.00000000000E+00 -0.38172192703E+03  0.38172192703E+03  0.00000000000E+00 0.  1.
         25    1    1    2    0    0 -0.20161950721E+03 -0.29053440177E+03  0.22031366824E+02  0.37572735517E+03  0.12500000000E+03 0.  0.
         25    1    1    2    0    0  0.20161950721E+03  0.29053440177E+03 -0.33200476975E+02  0.37654738874E+03  0.12500000000E+03 0.  0.
</event>
<event>
 4    0  0.2170991E-002  0.1842770E+03  0.7546771E-02  0.1163727E+00
         21   -1    0    0  502  501  0.00000000000E+00  0.00000000000E+00  0.38396201747E+03  0.38396201747E+03  0.00000000000E+00 0. -1.
         21   -1    0    0  501  502 -0.00000000000E+00 -0.00000000000E+00 -0.88441115390E+02  0.88441115390E+02  0.00000000000E+00 0. -1.
         25    1    1    2    0    0 -0.11897321498E+01  0.83805686946E+02  0.28406447236E+03  0.32146917906E+03  0.12500000000E+03 0.  0.
         25    1    1    2    0    0  0.11897321498E+01 -0.83805686946E+02  0.11456429714E+02  0.15093395380E+03  0.12500000000E+03 0.  0.
</event>
<event>
 4    0  0.2170991E-002  0.2821605E+03  0.7546771E-02  0.1094515E+00
         21   -1    0    0  502  501  0.00000000000E+00  0.00000000000E+00  0.79265846668E+03  0.79265846668E+03  0.00000000000E+00 0. -1.
         21   -1    0    0  501  502 -0.00000000000E+00 -0.00000000000E+00 -0.10043989590E+03  0.10043989590E+03  0.00000000000E+00 0. -1.
         25    1    1    2    0    0 -0.18492797068E+03 -0.16032536310E+03  0.44728427745E+03  0.52496742875E+03  0.12500000000E+03 0.  0.
         25    1    1    2    0    0  0.18492797068E+03  0.16032536310E+03  0.24493429333E+03  0.36813093383E+03  0.12500000000E+03 0.  0.
</event>
<event>
 4    0  0.2170991E-002  0.2689665E+03  0.7546771E-02  0.1101873E+00
         21   -1    0    0  502  501  0.00000000000E+00  0.00000000000E+00  0.48755637229E+03  0.48755637229E+03  0.00000000000E+00 0.  1.
         21   -1    0    0  501  502 -0.00000000000E+00 -0.00000000000E+00 -0.14837874961E+03  0.14837874961E+03  0.00000000000E+00 0.  1.
         25    1    1    2    0    0 -0.20664916139E+03 -0.18016194582E+02  0.31270696327E+02  0.24419524078E+03  0.12500000000E+03 0.  0.
         25    1    1    2    0    0  0.20664916139E+03  0.18016194582E+02  0.30790692635E+03  0.39173988113E+03  0.12500000000E+03 0.  0.
</event>
<event>
 4    0  0.2170991E-002  0.3384264E+03  0.7546771E-02  0.1067468E+00
         21   -1    0    0  502  501  0.00000000000E+00  0.00000000000E+00  0.16275092028E+04  0.16275092028E+04  0.00000000000E+00 0. -1.
         21   -1    0    0  501  502 -0.00000000000E+00 -0.00000000000E+00 -0.70372847633E+02  0.70372847633E+02  0.00000000000E+00 0. -1.
         25    1    1    2    0    0  0.30185609078E+03  0.34863152143E+02  0.98197167240E+03  0.10354834158E+04  0.12500000000E+03 0.  0.
         25    1    1    2    0    0 -0.30185609078E+03 -0.34863152143E+02  0.57516468278E+03  0.66239863469E+03  0.12500000000E+03 0.  0.
</event>
<event>
 4    0  0.2170991E-002  0.2709450E+03  0.7546771E-02  0.1100740E+00
         21   -1    0    0  502  501  0.00000000000E+00  0.00000000000E+00  0.46668571226E+03  0.46668571226E+03  0.00000000000E+00 0. -1.
         21   -1    0    0  501  502 -0.00000000000E+00 -0.00000000000E+00 -0.15730330440E+03  0.15730330440E+03  0.00000000000E+00 0. -1.
         25    1    1    2    0    0 -0.19716546819E+03  0.87447903231E+02  0.32475103203E+02  0.25139807071E+03  0.12500000000E+03 0.  0.
         25    1    1    2    0    0  0.19716546819E+03 -0.87447903231E+02  0.27690730466E+03  0.37259094595E+03  0.12500000000E+03 0.  0.
</event>
<event>
 4    0  0.2170991E-002  0.2186762E+03  0.7546771E-02  0.1134874E+00
         21   -1    0    0  502  501  0.00000000000E+00  0.00000000000E+00  0.30979584406E+02  0.30979584406E+02  0.00000000000E+00 0.  1.
         21   -1    0    0  501  502 -0.00000000000E+00 -0.00000000000E+00 -0.15435746563E+04  0.15435746563E+04  0.00000000000E+00 0.  1.
         25    1    1    2    0    0 -0.18050992711E+01 -0.17798721122E+03 -0.83772847104E+03  0.86550372439E+03  0.12500000000E+03 0.  0.
         25    1    1    2    0    0  0.18050992711E+01  0.17798721122E+03 -0.67486660085E+03  0.70905051632E+03  0.12500000000E+03 0.  0.
</event>
<event>
 4    0  0.2170991E-002  0.3606361E+03  0.7546771E-02  0.1058332E+00
         21   -1    0    0  502  501  0.00000000000E+00  0.00000000000E+00  0.13778167868E+03  0.13778167868E+03  0.00000000000E+00 0. -1.
         21   -1    0    0  501  502 -0.00000000000E+00 -0.00000000000E+00 -0.94394533648E+03  0.94394533648E+03  0.00000000000E+00 0. -1.
         25    1    1    2    0    0  0.31777637094E+03  0.10500250870E+03 -0.47695148774E+03  0.59591532152E+03  0.12500000000E+03 0.  0.
         25    1    1    2    0    0 -0.31777637094E+03 -0.10500250870E+03 -0.32921217007E+03  0.48581169364E+03  0.12500000000E+03 0.  0.
</event>
<event>
 4    0  0.2170991E-002  0.2119685E+03  0.7546771E-02  0.1140017E+00
         21   -1    0    0  502  501  0.00000000000E+00  0.00000000000E+00  0.17356535107E+02  0.17356535107E+02  0.00000000000E+00 0. -1.
         21   -1    0    0  501  502 -0.00000000000E+00 -0.00000000000E+00 -0.25886880322E+04  0.25886880322E+04  0.00000000000E+00 0. -1.
         25    1    1    2    0    0 -0.97043328457E+02 -0.12880905277E+03 -0.93272210471E+03  0.95477992454E+03  0.12500000000E+03 0.  0.
         25    1    1    2    0    0  0.97043328457E+02  0.12880905277E+03 -0.16386093924E+04  0.16512646428E+04  0.12500000000E+03 0.  0.
</event>
<event>
 4    0  0.2170991E-002  0.1795279E+03  0.7546771E-02  0.1168261E+00
         21   -1    0    0  502  501  0.00000000000E+00  0.00000000000E+00  0.75915316219E+02  0.75915316219E+02  0.00000000000E+00 0.  1.
         21   -1    0    0  501  502 -0.00000000000E+00 -0.00000000000E+00 -0.42455564356E+03  0.42455564356E+03  0.00000000000E+00 0.  1.
         25    1    1    2    0    0 -0.43214714192E+02 -0.11759968312E+03 -0.13231732163E+03  0.22097527146E+03  0.12500000000E+03 0.  0.
         25    1    1    2    0    0  0.43214714192E+02  0.11759968312E+03 -0.21632300571E+03  0.27949568833E+03  0.12500000000E+03 0.  0.
</event>
<event>
 4    0  0.2170991E-002  0.2496724E+03  0.7546771E-02  0.1113512E+00
         21   -1    0    0  502  501  0.00000000000E+00  0.00000000000E+00  0.18039589915E+03  0.18039589915E+03  0.00000000000E+00 0. -1.
         21   -1    0    0  501  502 -0.00000000000E+00 -0.00000000000E+00 -0.34555269372E+03  0.34555269372E+03  0.00000000000E+00 0. -1.
         25    1    1    2    0    0 -0.11871853566E+03 -0.17956350216E+03 -0.10295181501E+03  0.26937189577E+03  0.12500000000E+03 0.  0.
         25    1    1    2    0    0  0.11871853566E+03  0.17956350216E+03 -0.62204979566E+02  0.25657669711E+03  0.12500000000E+03 0.  0.
</event>
<event>
 4    0  0.2170991E-002  0.2936266E+03  0.7546771E-02  0.1088471E+00
         21   -1    0    0  502  501  0.00000000000E+00  0.00000000000E+00  0.22339007760E+04  0.22339007760E+04  0.00000000000E+00 0. -1.
         21   -1    0    0  501  502 -0.00000000000E+00 -0.00000000000E+00 -0.38594628361E+02  0.38594628361E+02  0.00000000000E+00 0. -1.
         25    1    1    2    0    0  0.13199475714E+03 -0.49567993535E+02  0.19690838237E+04  0.19780787918E+04  0.12500000000E+03 0.  0.
         25    1    1    2    0    0 -0.13199475714E+03  0.49567993535E+02  0.22622232397E+03  0.29441661258E+03  0.12500000000E+03 0.  0.
</event>
<event>
 4    0  0.2170991E-002  0.3268119E+03  0.7546771E-02  0.1072556E+00
         21   -1    0    0  502  501  0.00000000000E+00  0.00000000000E+00  0.83346269160E+03  0.83346269160E+03  0.00000000000E+00 0. -1.
         21   -1    0    0  501  502 -0.00000000000E+00 -0.00000000000E+00 -0.12814732989E+03  0.12814732989E+03  0.00000000000E+00 0. -1.
         25    1    1    2    0    0 -0.10658288037E+03  0.25784986812E+02  0.76657510383E+03  0.78440242589E+03  0.12500000000E+03 0.  0.
         25    1    1    2    0    0  0.10658288037E+03 -0.25784986812E+02 -0.61259742118E+02  0.17720759560E+03  0.12500000000E+03 0.  0.
</event>
<event>
 4    0  0.2170991E-002  0.3364453E+03  0.7546771E-02  0.1068320E+00
         21   -1    0    0  502  501  0.00000000000E+00  0.00000000000E+00  0.83854968373E+03  0.83854968373E+03  0.00000000000E+00 0. -1.
         21   -1    0    0  501  502 -0.00000000000E+00 -0.00000000000E+00 -0.13498954238E+03  0.13498954238E+03  0.00000000000E+00 0. -1.
         25    1    1    2    0    0 -0.28112298674E+03 -0.51306842858E+02  0.53426020444E+03  0.61864488347E+03  0.12500000000E+03 0.  0.
         25    1    1    2    0    0  0.28112298674E+03  0.51306842858E+02  0.16929993691E+03  0.35489434264E+03  0.12500000000E+03 0.  0.
</event>
<event>
 4    0  0.2170991E-002  0.2292718E+03  0.7546771E-02  0.1127153E+00
         21   -1    0    0  502  501  0.00000000000E+00  0.00000000000E+00  0.10763120349E+03  0.10763120349E+03  0.00000000000E+00 0. -1.
         21   -1    0    0  501  502 -0.00000000000E+00 -0.00000000000E+00 -0.48838569711E+03  0.48838569711E+03  0.00000000000E+00 0. -1.
         25    1    1    2    0    0 -0.57723663557E+02  0.57630625952E+02 -0.41658515831E+03  0.44251723639E+03  0.12500000000E+03 0.  0.
         25    1    1    2    0    0  0.57723663557E+02 -0.57630625952E+02  0.35830664687E+02  0.15349966421E+03  0.12500000000E+03 0.  0.
</event>
<event>
 4    0  0.2170991E-002  0.2416438E+03  0.7546771E-02  0.1118703E+00
         21   -1    0    0  502  501  0.00000000000E+00  0.00000000000E+00  0.52705055314E+03  0.52705055314E+03  0.00000000000E+00 0.  1.
         21   -1    0    0  501  502 -0.00000000000E+00 -0.00000000000E+00 -0.11078959695E+03  0.11078959695E+03  0.00000000000E+00 0.  1.
         25    1    1    2    0    0  0.13431642466E+03 -0.83245418632E+02  0.38419328929E+03  0.43382045271E+03  0.12500000000E+03 0.  0.
         25    1    1    2    0    0 -0.13431642466E+03  0.83245418632E+02  0.32067666890E+02  0.20401969738E+03  0.12500000000E+03 0.  0.
</event>
<event>
 4    0  0.2170991E-002  0.1764428E+03  0.7546771E-02  0.1171291E+00
         21   -1    0    0  502  501  0.00000000000E+00  0.00000000000E+00  0.14423343532E+03  0.14423343532E+03  0.00000000000E+00 0. -1.
         21   -1    0    0  501  502 -0.00000000000E+00 -0.00000000000E+00 -0.21584505625E+03  0.21584505625E+03  0.00000000000E+00 0. -1.
         25    1    1    2    0    0 -0.20651781089E+02  0.11272367994E+03 -0.85522125450E+02  0.18992671751E+03  0.12500000000E+03 0.  0.
         25    1    1    2    0    0  0.20651781089E+02 -0.11272367994E+03  0.13910504513E+02  0.17015177406E+03  0.12500000000E+03 0.  0.
</event>
<event>
 4    0  0.2170991E-002  0.2007235E+03  0.7546771E-02  0.1149130E+00
         21   -1    0    0  502  501  0.00000000000E+00  0.00000000000E+00  0.68594783871E+03  0.68594783871E+03  0.00000000000E+00 0. -1.
         21   -1    0    0  501  502 -0.00000000000E+00 -0.00000000000E+00 -0.58736152734E+02  0.58736152734E+02  0.00000000000E+00 0. -1.
         25    1    1    2    0    0  0.93061051296E+01 -0.66896313506E+02  0.50593273175E+02  0.15081909575E+03  0.12500000000E+03 0.  0.
         25    1    1    2    0    0 -0.93061051296E+01  0.66896313506E+02  0.57661841280E+03  0.59386489569E+03  0.12500000000E+03 0.  0.
</event>
<event>
 4    0  0.2170991E-002  0.2224209E+03  0.7546771E-02  0.1132091E+00
         21   -1    0    0  502  501  0.00000000000E+00  0.00000000000E+00  0.15292608986E+04  0.15292608986E+04  0.00000000000E+00 0.  1.
         21   -1    0    0  501  502 -0.00000000000E+00 -0.00000000000E+00 -0.32349652524E+02  0.32349652524E+02  0.00000000000E+00 0.  1.
         25    1    1    2    0    0  0.12799589254E+03 -0.81090460998E+02  0.11147499310E+04  0.11319235929E+04  0.12500000000E+03 0.  0.
         25    1    1    2    0    0 -0.12799589254E+03  0.81090460998E+02  0.38216131504E+03  0.42968695825E+03  0.12500000000E+03 0.  0.
</event>
<event>
 4    0  0.2170991E-002  0.1839449E+03  0.7546771E-02  0.1164039E+00
         21   -1    0    0  502  501  0.00000000000E+00  0.00000000000E+00  0.11444380171E+03  0.11444380171E+03  0.00000000000E+00 0.  1.
         21   -1    0    0  501  502 -0.00000000000E+00 -0.00000000000E+00 -0.29565350187E+03  0.29565350187E+03  0.00000000000E+00 0.  1.
         25    1    1    2    0    0  0.27890565198E+02  0.29707894453E+02  0.52802622976E+02  0.14168119005E+03  0.12500000000E+03 0.  0.
         25    1    1    2    0    0 -0.27890565198E+02 -0.29707894453E+02 -0.23401232314E+03  0.26841611353E+03  0.12500000000E+03 0.  0.
</event>
<event>
 4    0  0.2170991E-002  0.1889217E+03  0.7546771E-02  0.1159437E+00
         21   -1    0    0  502  501  0.00000000000E+00  0.00000000000E+00  0.57484385051E+02  0.57484385051E+02  0.00000000000E+00 0.  1.
         21   -1    0    0  501  502 -0.00000000000E+00 -0.00000000000E+00 -0.62088874153E+03  0.62088874153E+03  0.00000000000E+00 0.  1.
         25    1    1    2    0    0  0.23281982442E+02 -0.13856424870E+03 -0.31403429497E+03  0.36603912379E+03  0.12500000000E+03 0.  0.
         25    1    1    2    0    0 -0.23281982442E+02  0.13856424870E+03 -0.24937006151E+03  0.31233400280E+03  0.12500000000E+03 0.  0.
</event>
<event>
 4    0  0.2170991E-002  0.2714252E+03  0.7546771E-02  0.1100467E+00
         21   -1    0    0  502  501  0.00000000000E+00  0.00000000000E+00  0.32747509291E+03  0.32747509291E+03  0.00000000000E+00 0.  1.
         21   -1    0    0  501  502 -0.00000000000E+00 -0.00000000000E+00 -0.22496865311E+03  0.22496865311E+03  0.00000000000E+00 0.  1.
         25    1    1    2    0    0 -0.36019363232E+02 -0.63256528579E+02  0.28498097955E+03  0.31959027151E+03  0.12500000000E+03 0.  0.
         25    1    1    2    0    0  0.36019363232E+02  0.63256528579E+02 -0.18247453976E+03  0.23285347452E+03  0.12500000000E+03 0.  0.
</event>
<event>
 4    0  0.2170991E-002  0.3887986E+03  0.7546771E-02  0.1047729E+00
         21   -1    0    0  502  501  0.00000000000E+00  0.00000000000E+00  0.86473012930E+03  0.86473012930E+03  0.00000000000E+00 0. -1.
         21   -1    0    0  501  502 -0.00000000000E+00 -0.00000000000E+00 -0.17481099284E+03  0.17481099284E+03  0.00000000000E+00 0.  1.
         25    1    1    2    0    0 -0.70932274726E+02 -0.30661146418E+03  0.60035769530E+03  0.68927232635E+03  0.12500000000E+03 0.  0.
         25    1    1    2    0    0  0.70932274726E+02  0.30661146418E+03  0.89561441161E+02  0.35026879580E+03  0.12500000000E+03 0.  0.
</event>
<event>
 4    0  0.2170991E-002  0.1742907E+03  0.7546771E-02  0.1173446E+00
         21   -1    0    0  502  501  0.00000000000E+00  0.00000000000E+00  0.12091230121E+04  0.12091230121E+04  0.00000000000E+00 0. -1.
         21   -1    0    0  501  502 -0.00000000000E+00 -0.00000000000E+00 -0.25123372003E+02  0.25123372003E+02  0.00000000000E+00 0. -1.
         25    1    1    2    0    0  0.11990944645E+03 -0.19326418180E+02  0.58959458748E+03  0.61481587762E+03  0.12500000000E+03 0.  0.
         25    1    1    2    0    0 -0.11990944645E+03  0.19326418180E+02  0.59440505267E+03  0.61943050654E+03  0.12500000000E+03 0.  0.
</event>
<event>
 4    0  0.2170991E-002  0.3304571E+03  0.7546771E-02  0.1070935E+00
         21   -1    0    0  502  501  0.00000000000E+00  0.00000000000E+00  0.18943521410E+03  0.18943521410E+03  0.00000000000E+00 0. -1.
         21   -1    0    0  501  502 -0.00000000000E+00 -0.00000000000E+00 -0.57646053659E+03  0.57646053659E+03  0.00000000000E+00 0. -1.
         25    1    1    2    0    0  0.11282713003E+03 -0.29908968090E+02  0.13416008195E+03  0.21736705185E+03  0.12500000000E+03 0.  0.
         25    1    1    2    0    0 -0.11282713003E+03  0.29908968090E+02 -0.52118540444E+03  0.54852869883E+03  0.12500000000E+03 0.  0.
</event>
<event>
 4    0  0.2170991E-002  0.2119968E+03  0.7546771E-02  0.1139994E+00
         21   -1    0    0  502  501  0.00000000000E+00  0.00000000000E+00  0.94662657823E+02  0.94662657823E+02  0.00000000000E+00 0.  1.
         21   -1    0    0  501  502 -0.00000000000E+00 -0.00000000000E+00 -0.47476631983E+03  0.47476631983E+03  0.00000000000E+00 0.  1.
         25    1    1    2    0    0 -0.16674819156E+03 -0.64519151528E+00 -0.13782491673E+03  0.24985212293E+03  0.12500000000E+03 0.  0.
         25    1    1    2    0    0  0.16674819156E+03  0.64519151528E+00 -0.24227874527E+03  0.31957685472E+03  0.12500000000E+03 0.  0.
</event>
<event>
 4    0  0.2170991E-002  0.1593246E+03  0.7546771E-02  0.1189461E+00
         21   -1    0    0  502  501  0.00000000000E+00  0.00000000000E+00  0.95458310802E+02  0.95458310802E+02  0.00000000000E+00 0. -1.
         21   -1    0    0  501  502 -0.00000000000E+00 -0.00000000000E+00 -0.26592056942E+03  0.26592056942E+03  0.00000000000E+00 0. -1.
         25    1    1    2    0    0 -0.21452411495E+01  0.28178414758E+02  0.22123550540E+02  0.13005028491E+03  0.12500000000E+03 0.  0.
         25    1    1    2    0    0  0.21452411495E+01 -0.28178414758E+02 -0.19258580916E+03  0.23132859531E+03  0.12500000000E+03 0.  0.
</event>
<event>
 4    0  0.2170991E-002  0.2388458E+03  0.7546771E-02  0.1120564E+00
         21   -1    0    0  502  501  0.00000000000E+00  0.00000000000E+00  0.23264632099E+03  0.23264632099E+03  0.00000000000E+00 0. -1.
         21   -1    0    0  501  502 -0.00000000000E+00 -0.00000000000E+00 -0.24521051528E+03  0.24521051528E+03  0.00000000000E+00 0. -1.
         25    1    1    2    0    0 -0.18596463486E+03  0.95465923520E+01  0.75894601707E+02  0.23676776262E+03  0.12500000000E+03 0.  0.
         25    1    1    2    0    0  0.18596463486E+03 -0.95465923520E+01 -0.88458796004E+02  0.24108907366E+03  0.12500000000E+03 0.  0.
</event>
<event>
 4    0  0.2170991E-002  0.1736643E+03  0.7546771E-02  0.1174080E+00
         21   -1    0    0  502  501  0.00000000000E+00  0.00000000000E+00  0.40603123040E+03  0.40603123040E+03  0.00000000000E+00 0.  1.
         21   -1    0    0  501  502 -0.00000000000E+00 -0.00000000000E+00 -0.74278236776E+02  0.74278236776E+02  0.00000000000E+00 0.  1.
         25    1    1    2    0    0  0.52793491728E+02  0.91769322091E+02  0.24562280598E+03  0.29523604804E+03  0.12500000000E+03 0.  0.
         25    1    1    2    0    0 -0.52793491728E+02 -0.91769322091E+02  0.86130187643E+02  0.18507341913E+03  0.12500000000E+03 0.  0.
</event>
<event>
 4    0  0.2170991E-002  0.3045510E+03  0.7546771E-02  0.1082987E+00
         21   -1    0    0  502  501  0.00000000000E+00  0.00000000000E+00  0.24665566612E+03  0.24665566612E+03  0.00000000000E+00 0.  1.
         21   -1    0    0  501  502 -0.00000000000E+00 -0.00000000000E+00 -0.37603568915E+03  0.37603568915E+03  0.00000000000E+00 0.  1.
         25    1    1    2    0    0  0.27067098050E+03  0.26459800681E+02 -0.71907778220E+01  0.29939874419E+03  0.12500000000E+03 0.  0.
         25    1    1    2    0    0 -0.27067098050E+03 -0.26459800681E+02 -0.12218924521E+03  0.32329261108E+03  0.12500000000E+03 0.  0.
</event>
<event>
 4    0  0.2170991E-002  0.2924238E+03  0.7546771E-02  0.1089090E+00
         21   -1    0    0  502  501  0.00000000000E+00  0.00000000000E+00  0.89393066232E+02  0.89393066232E+02  0.00000000000E+00 0.  1.
         21   -1    0    0  501  502 -0.00000000000E+00 -0.00000000000E+00 -0.95658065825E+03  0.95658065825E+03  0.00000000000E+00 0.  1.
         25    1    1    2    0    0 -0.22208725602E+03  0.96936686486E+02 -0.62258881603E+03  0.67967735310E+03  0.12500000000E+03 0.  0.
         25    1    1    2    0    0  0.22208725602E+03 -0.96936686486E+02 -0.24459877599E+03  0.36629637139E+03  0.12500000000E+03 0.  0.
</event>
<event>
 4    0  0.2170991E-002  0.2174691E+03  0.7546771E-02  0.1135784E+00
         21   -1    0    0  502  501  0.00000000000E+00  0.00000000000E+00  0.67256951676E+02  0.67256951676E+02  0.00000000000E+00 0. -1.
         21   -1    0    0  501  502 -0.00000000000E+00 -0.00000000000E+00 -0.70316602395E+03  0.70316602395E+03  0.00000000000E+00 0. -1.
         25    1    1    2    0    0 -0.47954757806E+02 -0.73332981917E+02 -0.43594651718E+02  0.15875414543E+03  0.12500000000E+03 0.  0.
         25    1    1    2    0    0  0.47954757806E+02  0.73332981917E+02 -0.59231442056E+03  0.61166883020E+03  0.12500000000E+03 0.  0.
</event>
<event>
 4    0  0.2170991E-002  0.2268867E+03  0.7546771E-02  0.1128850E+00
         21   -1    0    0  502  501  0.00000000000E+00  0.00000000000E+00  0.12064267903E+04  0.12064267903E+04  0.00000000000E+00 0. -1.
         21   -1    0    0  501  502 -0.00000000000E+00 -0.00000000000E+00 -0.42669438166E+02  0.42669438166E+02  0.00000000000E+00 0. -1.
         25    1    1    2    0    0  0.91268784951E+01 -0.21184591698E+02  0.10992116592E+04  0.11065366503E+04  0.12500000000E+03 0.  0.
         25    1    1    2    0    0 -0.91268784951E+01  0.21184591698E+02  0.64545692927E+02  0.14255957811E+03  0.12500000000E+03 0.  0.
</event>
<event>
 4    0  0.2170991E-002  0.2710722E+03  0.7546771E-02  0.1100668E+00
         21   -1    0    0  502  501  0.00000000000E+00  0.00000000000E+00  0.27048056126E+03  0.27048056126E+03  0.00000000000E+00 0.  1.
         21   -1    0    0  501  502 -0.00000000000E+00 -0.00000000000E+00 -0.27166506813E+03  0.27166506813E+03  0.00000000000E+00 0.  1.
         25    1    1    2    0    0  0.12540043480E+03  0.22636806361E+02 -0.20459623555E+03  0.27151853279E+03  0.12500000000E+03 0.  0.
         25    1    1    2    0    0 -0.12540043480E+03 -0.22636806361E+02  0.20341172868E+03  0.27062709660E+03  0.12500000000E+03 0.  0.
</event>
<event>
 4    0  0.2170991E-002  0.2266837E+03  0.7546771E-02  0.1128996E+00
         21   -1    0    0  502  501  0.00000000000E+00  0.00000000000E+00  0.30190691860E+03  0.30190691860E+03  0.00000000000E+00 0. -1.
         21   -1    0    0  501  502 -0.00000000000E+00 -0.00000000000E+00 -0.17020314979E+03  0.17020314979E+03  0.00000000000E+00 0. -1.
         25    1    1    2    0    0 -0.15848630813E+03 -0.81513602746E+02  0.70881780914E-02  0.21768641976E+03  0.12500000000E+03 0.  0.
         25    1    1    2    0    0  0.15848630813E+03  0.81513602746E+02  0.13169668063E+03  0.25442364864E+03  0.12500000000E+03 0.  0.
</event>
<event>
 4    0  0.2170991E-002  0.2611500E+03  0.7546771E-02  0.1106454E+00
         21   -1    0    0  502  501  0.00000000000E+00  0.00000000000E+00  0.53895487478E+03  0.53895487478E+03  0.00000000000E+00 0. -1.
         21   -1    0    0  501  502 -0.00000000000E+00 -0.00000000000E+00 -0.12653992110E+03  0.12653992110E+03  0.00000000000E+00 0. -1.
         25    1    1    2    0    0 -0.22819400586E+03 -0.17117268082E+02  0.18779584968E+03  0.32133749600E+03  0.12500000000E+03 0.  0.
         25    1    1    2    0    0  0.22819400586E+03  0.17117268082E+02  0.22461910401E+03  0.34415729988E+03  0.12500000000E+03 0.  0.
</event>
<event>
 4    0  0.2170991E-002  0.2229558E+03  0.7546771E-02  0.1131698E+00
         21   -1    0    0  502  501  0.00000000000E+00  0.00000000000E+00  0.28063742836E+04  0.28063742836E+04  0.00000000000E+00 0. -1.
         21   -1    0    0  501  502 -0.00000000000E+00 -0.00000000000E+00 -0.17712999636E+02  0.17712999636E+02  0.00000000000E+00 0. -1.
         25    1    1    2    0    0 -0.82589993367E+02 -0.63753539515E+02  0.23589610736E+04  0.23645735276E+04  0.12500000000E+03 0.  0.
         25    1    1    2    0    0  0.82589993367E+02  0.63753539515E+02  0.42970021038E+03  0.45951375562E+03  0.12500000000E+03 0.  0.
</event>
<event>
 4    0  0.2170991E-002  0.2454158E+03  0.7546771E-02  0.1116237E+00
         21   -1    0    0  502  501  0.00000000000E+00  0.00000000000E+00  0.25735702972E+03  0.25735702972E+03  0.00000000000E+00 0.  1.
         21   -1    0    0  501  502 -0.00000000000E+00 -0.00000000000E+00 -0.23402865968E+03  0.23402865968E+03  0.00000000000E+00 0.  1.
         25    1    1    2    0    0  0.19919039395E+03 -0.20829220102E+02  0.78771570881E+02  0.24887874524E+03  0.12500000000E+03 0.  0.
         25    1    1    2    0    0 -0.19919039395E+03  0.20829220102E+02 -0.55443200840E+02  0.24250694417E+03  0.12500000000E+03 0.  0.
</event>
<event>
 4    0  0.2170991E-002  0.3220309E+03  0.7546771E-02  0.1074718E+00
         21   -1    0    0  502  501  0.00000000000E+00  0.00000000000E+00  0.21051077442E+03  0.21051077442E+03  0.00000000000E+00 0.  1.
         21   -1    0    0  501  502 -0.00000000000E+00 -0.00000000000E+00 -0.49262990730E+03  0.49262990730E+03  0.00000000000E+00 0.  1.
         25    1    1    2    0    0  0.48440419664E+02 -0.82696386481E+02  0.16558547169E+03  0.22853602567E+03  0.12500000000E+03 0.  0.
         25    1    1    2    0    0 -0.48440419664E+02  0.82696386481E+02 -0.44770460457E+03  0.47460465605E+03  0.12500000000E+03 0.  0.
</event>
<event>
 4    0  0.2170991E-002  0.2808947E+03  0.7546771E-02  0.1095201E+00
         21   -1    0    0  502  501  0.00000000000E+00  0.00000000000E+00  0.49069018977E+03  0.49069018977E+03  0.00000000000E+00 0. -1.
         21   -1    0    0  501  502 -0.00000000000E+00 -0.00000000000E+00 -0.16079761653E+03  0.16079761653E+03  0.00000000000E+00 0. -1.
         25    1    1    2    0    0 -0.23093457765E+03 -0.96671428105E+02  0.13652456752E+03  0.31135205428E+03  0.12500000000E+03 0.  0.
         25    1    1    2    0    0  0.23093457765E+03  0.96671428105E+02  0.19336800572E+03  0.34013575202E+03  0.12500000000E+03 0.  0.
</event>
<event>
 4    0  0.2170991E-002  0.2513827E+03  0.7546771E-02  0.1112434E+00
         21   -1    0    0  502  501  0.00000000000E+00  0.00000000000E+00  0.79784592284E+03  0.79784592284E+03  0.00000000000E+00 0. -1.
         21   -1    0    0  501  502 -0.00000000000E+00 -0.00000000000E+00 -0.79204868710E+02  0.79204868710E+02  0.00000000000E+00 0. -1.
         25    1    1    2    0    0  0.18203676404E+03  0.71763737842E+02  0.52737632497E+03  0.57622756414E+03  0.12500000000E+03 0.  0.
         25    1    1    2    0    0 -0.18203676404E+03 -0.71763737842E+02  0.19126472916E+03  0.30082322742E+03  0.12500000000E+03 0.  0.
</event>
<event>
 4    0  0.2170991E-002  0.1784120E+03  0.7546771E-02  0.1169349E+00
         21   -1    0    0  502  501  0.00000000000E+00  0.00000000000E+00  0.29008409939E+03  0.29008409939E+03  0.00000000000E+00 0.  1.
         21   -1    0    0  501  502 -0.00000000000E+00 -0.00000000000E+00 -0.10972969012E+03  0.10972969012E+03  0.00000000000E+00 0.  1.
         25    1    1    2    0    0  0.17637743371E+02 -0.21081950434E+02  0.22945189092E+03  0.26273315146E+03  0.12500000000E+03 0.  0.
         25    1    1    2    0    0 -0.17637743371E+02  0.21081950434E+02 -0.49097481649E+02  0.13708063805E+03  0.12500000000E+03 0.  0.
</event>
<event>
 4    0  0.2170991E-002  0.2307582E+03  0.7546771E-02  0.1126107E+00
         21   -1    0    0  502  501  0.00000000000E+00  0.00000000000E+00  0.16494568100E+03  0.16494568100E+03  0.00000000000E+00 0.  1.
         21   -1    0    0  501  502 -0.00000000000E+00 -0.00000000000E+00 -0.32282952541E+03  0.32282952541E+03  0.00000000000E+00 0.  1.
         25    1    1    2    0    0  0.42298812024E+02  0.70974982601E+02 -0.26441964602E+03  0.30392332397E+03  0.12500000000E+03 0.  0.
         25    1    1    2    0    0 -0.42298812024E+02 -0.70974982601E+02  0.10653580160E+03  0.18385188244E+03  0.12500000000E+03 0.  0.
</event>
<event>
 4    0  0.2170991E-002  0.1924670E+03  0.7546771E-02  0.1156255E+00
         21   -1    0    0  502  501  0.00000000000E+00  0.00000000000E+00  0.12282743485E+03  0.12282743485E+03  0.00000000000E+00 0.  1.
         21   -1    0    0  501  502 -0.00000000000E+00 -0.00000000000E+00 -0.30159009080E+03  0.30159009080E+03  0.00000000000E+00 0.  1.
         25    1    1    2    0    0  0.68439778061E+02 -0.76867177587E+02 -0.20410169254E+03  0.26052843820E+03  0.12500000000E+03 0.  0.
         25    1    1    2    0    0 -0.68439778061E+02  0.76867177587E+02  0.25339036589E+02  0.16388908745E+03  0.12500000000E+03 0.  0.
</event>
<event>
 4    0  0.2170991E-002  0.2626520E+03  0.7546771E-02  0.1105560E+00
         21   -1    0    0  502  501  0.00000000000E+00  0.00000000000E+00  0.28643637334E+03  0.28643637334E+03  0.00000000000E+00 0.  1.
         21   -1    0    0  501  502 -0.00000000000E+00 -0.00000000000E+00 -0.24084260146E+03  0.24084260146E+03  0.00000000000E+00 0.  1.
         25    1    1    2    0    0  0.95896130120E+02  0.77652935565E+02 -0.17321923750E+03  0.24668998848E+03  0.12500000000E+03 0.  0.
         25    1    1    2    0    0 -0.95896130120E+02 -0.77652935565E+02  0.21881300937E+03  0.28058898632E+03  0.12500000000E+03 0.  0.
</event>
<event>
 4    0  0.2170991E-002  0.2528989E+03  0.7546771E-02  0.1111486E+00
         21   -1    0    0  502  501  0.00000000000E+00  0.00000000000E+00  0.12971781478E+03  0.12971781478E+03  0.00000000000E+00 0. -1.
         21   -1    0    0  501  502 -0.00000000000E+00 -0.00000000000E+00 -0.49305386008E+03  0.49305386008E+03  0.00000000000E+00 0. -1.
         25    1    1    2    0    0  0.11402815466E+03  0.14259512158E+03 -0.30884035074E+02  0.22341578363E+03  0.12500000000E+03 0.  0.
         25    1    1    2    0    0 -0.11402815466E+03 -0.14259512158E+03 -0.33245201023E+03  0.39935589123E+03  0.12500000000E+03 0.  0.
</event>
<event>
 4    0  0.2170991E-002  0.2131948E+03  0.7546771E-02  0.1139061E+00
         21   -1    0    0  502  501  0.00000000000E+00  0.00000000000E+00  0.11407599665E+03  0.11407599665E+03  0.00000000000E+00 0. -1.
         21   -1    0    0  501  502 -0.00000000000E+00 -0.00000000000E+00 -0.39843646301E+03  0.39843646301E+03  0.00000000000E+00 0. -1.
         25    1    1    2    0    0  0.64523429430E+02  0.16018909175E+03 -0.14002383738E+03  0.25505978338E+03  0.12500000000E+03 0.  0.
         25    1    1    2    0    0 -0.64523429430E+02 -0.16018909175E+03 -0.14433662899E+03  0.25745267629E+03  0.12500000000E+03 0.  0.
</event>
<event>
 4    0  0.2170991E-002  0.1950015E+03  0.7546771E-02  0.1154026E+00
         21   -1    0    0  502  501  0.00000000000E+00  0.00000000000E+00  0.88831665681E+02  0.88831665681E+02  0.00000000000E+00 0. -1.
         21   -1    0    0  501  502 -0.00000000000E+00 -0.00000000000E+00 -0.42806359948E+03  0.42806359948E+03  0.00000000000E+00 0. -1.
         25    1    1    2    0    0 -0.57156885649E+02 -0.12575530974E+01 -0.35293854580E+03  0.37875996109E+03  0.12500000000E+03 0.  0.
         25    1    1    2    0    0  0.57156885649E+02  0.12575530974E+01  0.13706612000E+02  0.13813530407E+03  0.12500000000E+03 0.  0.
</event>
<event>
 4    0  0.2170991E-002  0.2252020E+03  0.7546771E-02  0.1130063E+00
         21   -1    0    0  502  501  0.00000000000E+00  0.00000000000E+00  0.20464274799E+03  0.20464274799E+03  0.00000000000E+00 0.  1.
         21   -1    0    0  501  502 -0.00000000000E+00 -0.00000000000E+00 -0.24782682237E+03  0.24782682237E+03  0.00000000000E+00 0.  1.
         25    1    1    2    0    0 -0.52138040337E+02  0.13538667496E+03 -0.14063878516E+03  0.23759670641E+03  0.12500000000E+03 0.  0.
         25    1    1    2    0    0  0.52138040337E+02 -0.13538667496E+03  0.97454710785E+02  0.21487286395E+03  0.12500000000E+03 0.  0.
</event>
<event>
 4    0  0.2170991E-002  0.2131146E+03  0.7546771E-02  0.1139123E+00
         21   -1    0    0  502  501  0.00000000000E+00  0.00000000000E+00  0.88736806494E+03  0.88736806494E+03  0.00000000000E+00 0.  1.
         21   -1    0    0  501  502 -0.00000000000E+00 -0.00000000000E+00 -0.51182632946E+02  0.51182632946E+02  0.00000000000E+00 0.  1.
         25    1    1    2    0    0  0.16983034150E+02 -0.10193736830E+03  0.72251822883E+03  0.74049796859E+03  0.12500000000E+03 0.  0.
         25    1    1    2    0    0 -0.16983034150E+02  0.10193736830E+03  0.11366720317E+03  0.19805272930E+03  0.12500000000E+03 0.  0.
</event>
<event>
 4    0  0.2170991E-002  0.1755853E+03  0.7546771E-02  0.1172145E+00
         21   -1    0    0  502  501  0.00000000000E+00  0.00000000000E+00  0.85644859395E+03  0.85644859395E+03  0.00000000000E+00 0.  1.
         21   -1    0    0  501  502 -0.00000000000E+00 -0.00000000000E+00 -0.35997710722E+02  0.35997710722E+02  0.00000000000E+00 0.  1.
         25    1    1    2    0    0  0.91761329285E+02  0.82174765300E+02  0.42468102344E+03  0.45951257358E+03  0.12500000000E+03 0.  0.
         25    1    1    2    0    0 -0.91761329285E+02 -0.82174765300E+02  0.39576985979E+03  0.43293373110E+03  0.12500000000E+03 0.  0.
</event>
<event>
 4    0  0.2170991E-002  0.2450435E+03  0.7546771E-02  0.1116478E+00
         21   -1    0    0  502  501  0.00000000000E+00  0.00000000000E+00  0.30565498906E+03  0.30565498906E+03  0.00000000000E+00 0. -1.
         21   -1    0    0  501  502 -0.00000000000E+00 -0.00000000000E+00 -0.19645132658E+03  0.19645132658E+03  0.00000000000E+00 0. -1.
         25    1    1    2    0    0 -0.11511977316E+03 -0.16198165106E+03 -0.17339292725E+02  0.23540660255E+03  0.12500000000E+03 0.  0.
         25    1    1    2    0    0  0.11511977316E+03  0.16198165106E+03  0.12654295521E+03  0.26669971310E+03  0.12500000000E+03 0.  0.
</event>
<event>
 4    0  0.2170991E-002  0.2482269E+03  0.7546771E-02  0.1114431E+00
         21   -1    0    0  502  501  0.00000000000E+00  0.00000000000E+00  0.91655062034E+02  0.91655062034E+02  0.00000000000E+00 0.  1.
         21   -1    0    0  501  502 -0.00000000000E+00 -0.00000000000E+00 -0.67226609767E+03  0.67226609767E+03  0.00000000000E+00 0.  1.
         25    1    1    2    0    0  0.17300381626E+02 -0.20905070468E+03 -0.22166095710E+03  0.32978793221E+03  0.12500000000E+03 0.  0.
         25    1    1    2    0    0 -0.17300381626E+02  0.20905070468E+03 -0.35895007853E+03  0.43413322749E+03  0.12500000000E+03 0.  0.
</event>
<event>
 4    0  0.2170991E-002  0.2100376E+03  0.7546771E-02  0.1141536E+00
         21   -1    0    0  502  501  0.00000000000E+00  0.00000000000E+00  0.11267966645E+03  0.11267966645E+03  0.00000000000E+00 0.  1.
         21   -1    0    0  501  502 -0.00000000000E+00 -0.00000000000E+00 -0.39151503103E+03  0.39151503103E+03  0.00000000000E+00 0.  1.
         25    1    1    2    0    0 -0.13376289877E+03 -0.26094471307E+02 -0.25894552223E+03  0.31819996543E+03  0.12500000000E+03 0.  0.
         25    1    1    2    0    0  0.13376289877E+03  0.26094471307E+02 -0.19889842348E+02  0.18599473204E+03  0.12500000000E+03 0.  0.
</event>
<event>
 4    0  0.2170991E-002  0.2013107E+03  0.7546771E-02  0.1148638E+00
         21   -1    0    0  502  501  0.00000000000E+00  0.00000000000E+00  0.27177998296E+04  0.27177998296E+04  0.00000000000E+00 0. -1.
         21   -1    0    0  501  502 -0.00000000000E+00 -0.00000000000E+00 -0.14911318457E+02  0.14911318457E+02  0.00000000000E+00 0. -1.
         25    1    1    2    0    0 -0.79829351868E+02 -0.26344966765E+02  0.22578522870E+04  0.22628717888E+04  0.12500000000E+03 0.  0.
         25    1    1    2    0    0  0.79829351868E+02  0.26344966765E+02  0.44503622411E+03  0.46983935921E+03  0.12500000000E+03 0.  0.
</event>
<event>
 4    0  0.2170991E-002  0.2827872E+03  0.7546771E-02  0.1094176E+00
         21   -1    0    0  502  501  0.00000000000E+00  0.00000000000E+00  0.16869128526E+03  0.16869128526E+03  0.00000000000E+00 0. -1.
         21   -1    0    0  501  502 -0.00000000000E+00 -0.00000000000E+00 -0.47405277972E+03  0.47405277972E+03  0.00000000000E+00 0.  1.
         25    1    1    2    0    0 -0.14581826777E+03 -0.19019436878E+03 -0.24712682807E+03  0.36624245287E+03  0.12500000000E+03 0.  0.
         25    1    1    2    0    0  0.14581826777E+03  0.19019436878E+03 -0.58234666389E+02  0.27650161211E+03  0.12500000000E+03 0.  0.
</event>
<event>
 4    0  0.2170991E-002  0.1894235E+03  0.7546771E-02  0.1158982E+00
         21   -1    0    0  502  501  0.00000000000E+00  0.00000000000E+00  0.22608865661E+03  0.22608865661E+03  0.00000000000E+00 0. -1.
         21   -1    0    0  501  502 -0.00000000000E+00 -0.00000000000E+00 -0.15870438161E+03  0.15870438161E+03  0.00000000000E+00 0. -1.
         25    1    1    2    0    0 -0.51682316473E+02 -0.68994615789E+02  0.14871682527E+03  0.21253943861E+03  0.12500000000E+03 0.  0.
         25    1    1    2    0    0  0.51682316473E+02  0.68994615789E+02 -0.81332550282E+02  0.17225359961E+03  0.12500000000E+03 0.  0.
</event>
<event>
 4    0  0.2170991E-002  0.2376702E+03  0.7546771E-02  0.1121355E+00
         21   -1    0    0  502  501  0.00000000000E+00  0.00000000000E+00  0.10387251764E+04  0.10387251764E+04  0.00000000000E+00 0. -1.
         21   -1    0    0  501  502 -0.00000000000E+00 -0.00000000000E+00 -0.54381179737E+02  0.54381179737E+02  0.00000000000E+00 0. -1.
         25    1    1    2    0    0 -0.73000211517E+02  0.18488443969E+03  0.40765277578E+03  0.47044348494E+03  0.12500000000E+03 0.  0.
         25    1    1    2    0    0  0.73000211517E+02 -0.18488443969E+03  0.57669122088E+03  0.62266287119E+03  0.12500000000E+03 0.  0.
</event>
<event>
 4    0  0.2170991E-002  0.2900823E+03  0.7546771E-02  0.1090306E+00
         21   -1    0    0  502  501  0.00000000000E+00  0.00000000000E+00  0.14526112153E+03  0.14526112153E+03  0.00000000000E+00 0.  1.
         21   -1    0    0  501  502 -0.00000000000E+00 -0.00000000000E+00 -0.57928613876E+03  0.57928613876E+03  0.00000000000E+00 0.  1.
         25    1    1    2    0    0 -0.10216013652E+03 -0.18367595124E+03 -0.41188828432E+03  0.47900992403E+03  0.12500000000E+03 0.  0.
         25    1    1    2    0    0  0.10216013652E+03  0.18367595124E+03 -0.22136732908E+02  0.24553733627E+03  0.12500000000E+03 0.  0.
</event>
<event>
 4    0  0.2170991E-002  0.3235130E+03  0.7546771E-02  0.1074044E+00
         21   -1    0    0  502  501  0.00000000000E+00  0.00000000000E+00  0.96496182446E+03  0.96496182446E+03  0.00000000000E+00 0.  1.
         21   -1    0    0  501  502 -0.00000000000E+00 -0.00000000000E+00 -0.10846092839E+03  0.10846092839E+03  0.00000000000E+00 0.  1.
         25    1    1    2    0    0 -0.11938227536E+03 -0.15595856408E+03  0.80092063621E+03  0.83407078050E+03  0.12500000000E+03 0.  0.
         25    1    1    2    0    0  0.11938227536E+03  0.15595856408E+03  0.55580259867E+02  0.23935197235E+03  0.12500000000E+03 0.  0.
</event>
<event>
 4    0  0.2170991E-002  0.1964612E+03  0.7546771E-02  0.1152760E+00
         21   -1    0    0  502  501  0.00000000000E+00  0.00000000000E+00  0.19685678892E+04  0.19685678892E+04  0.00000000000E+00 0.  1.
         21   -1    0    0  501  502 -0.00000000000E+00 -0.00000000000E+00 -0.19606634298E+02  0.19606634298E+02  0.00000000000E+00 0.  1.
         25    1    1    2    0    0 -0.82790985252E+02  0.12341626735E+03  0.11251002006E+04  0.11417361270E+04  0.12500000000E+03 0.  0.
         25    1    1    2    0    0  0.82790985252E+02 -0.12341626735E+03  0.82386105431E+03  0.84643839651E+03  0.12500000000E+03 0.  0.
</event>
<event>
 4    0  0.2170991E-002  0.4397577E+03  0.7546771E-02  0.1030821E+00
         21   -1    0    0  502  501  0.00000000000E+00  0.00000000000E+00  0.14361105477E+03  0.14361105477E+03  0.00000000000E+00 0.  1.
         21   -1    0    0  501  502 -0.00000000000E+00 -0.00000000000E+00 -0.13466012479E+04  0.13466012479E+04  0.00000000000E+00 0.  1.
         25    1    1    2    0    0 -0.22177407245E+03  0.21907512512E+03 -0.10824779462E+04  0.11333848215E+04  0.12500000000E+03 0.  0.
         25    1    1    2    0    0  0.22177407245E+03 -0.21907512512E+03 -0.12051224698E+03  0.35682748119E+03  0.12500000000E+03 0.  0.
</event>
<event>
 4    0  0.2170991E-002  0.1845447E+03  0.7546771E-02  0.1163476E+00
         21   -1    0    0  502  501  0.00000000000E+00  0.00000000000E+00  0.10176271375E+03  0.10176271375E+03  0.00000000000E+00 0. -1.
         21   -1    0    0  501  502 -0.00000000000E+00 -0.00000000000E+00 -0.33466835500E+03  0.33466835500E+03  0.00000000000E+00 0. -1.
         25    1    1    2    0    0 -0.75283325945E+02 -0.19205112689E+02  0.15194886680E+02  0.14796046803E+03  0.12500000000E+03 0.  0.
         25    1    1    2    0    0  0.75283325945E+02  0.19205112689E+02 -0.24810052793E+03  0.28847060071E+03  0.12500000000E+03 0.  0.
</event>
<event>
 4    0  0.2170991E-002  0.1705702E+03  0.7546771E-02  0.1177255E+00
         21   -1    0    0  502  501  0.00000000000E+00  0.00000000000E+00  0.59509418858E+02  0.59509418858E+02  0.00000000000E+00 0.  1.
         21   -1    0    0  501  502 -0.00000000000E+00 -0.00000000000E+00 -0.48890077280E+03  0.48890077280E+03  0.00000000000E+00 0.  1.
         25    1    1    2    0    0 -0.86190137222E+02  0.57372859553E+02 -0.29897967882E+03  0.34019734437E+03  0.12500000000E+03 0.  0.
         25    1    1    2    0    0  0.86190137222E+02 -0.57372859553E+02 -0.13041167512E+03  0.20821284728E+03  0.12500000000E+03 0.  0.
</event>
<event>
 4    0  0.2170991E-002  0.1890391E+03  0.7546771E-02  0.1159331E+00
         21   -1    0    0  502  501  0.00000000000E+00  0.00000000000E+00  0.25900727839E+03  0.25900727839E+03  0.00000000000E+00 0. -1.
         21   -1    0    0  501  502 -0.00000000000E+00 -0.00000000000E+00 -0.13797204256E+03  0.13797204256E+03  0.00000000000E+00 0. -1.
         25    1    1    2    0    0 -0.66987476584E+02  0.12412494918E+03  0.75964944399E+02  0.20319940405E+03  0.12500000000E+03 0.  0.
         25    1    1    2    0    0  0.66987476584E+02 -0.12412494918E+03  0.45070291430E+02  0.19377991691E+03  0.12500000000E+03 0.  0.
</event>
<event>
 4    0  0.2170991E-002  0.2023912E+03  0.7546771E-02  0.1147737E+00
         21   -1    0    0  502  501  0.00000000000E+00  0.00000000000E+00  0.66071950031E+02  0.66071950031E+02  0.00000000000E+00 0.  1.
         21   -1    0    0  501  502 -0.00000000000E+00 -0.00000000000E+00 -0.61996349857E+03  0.61996349857E+03  0.00000000000E+00 0.  1.
         25    1    1    2    0    0 -0.14776795373E+03  0.46071198939E+02 -0.33988917140E+03  0.39383698703E+03  0.12500000000E+03 0.  0.
         25    1    1    2    0    0  0.14776795373E+03 -0.46071198939E+02 -0.21400237714E+03  0.29219846157E+03  0.12500000000E+03 0.  0.
</event>
<event>
 4    0  0.2170991E-002  0.1878917E+03  0.7546771E-02  0.1160377E+00
         21   -1    0    0  502  501  0.00000000000E+00  0.00000000000E+00  0.14014418546E+03  0.14014418546E+03  0.00000000000E+00 0. -1.
         21   -1    0    0  501  502 -0.00000000000E+00 -0.00000000000E+00 -0.25190682962E+03  0.25190682962E+03  0.00000000000E+00 0. -1.
         25    1    1    2    0    0 -0.60006739222E+02  0.47267477298E+02  0.66869433005E+02  0.16103274273E+03  0.12500000000E+03 0.  0.
         25    1    1    2    0    0  0.60006739222E+02 -0.47267477298E+02 -0.17863207717E+03  0.23101827234E+03  0.12500000000E+03 0.  0.
</event>
<event>
 4    0  0.2170991E-002  0.2052336E+03  0.7546771E-02  0.1145397E+00
         21   -1    0    0  502  501  0.00000000000E+00  0.00000000000E+00  0.31927845834E+03  0.31927845834E+03  0.00000000000E+00 0. -1.
         21   -1    0    0  501  502 -0.00000000000E+00 -0.00000000000E+00 -0.13192504382E+03  0.13192504382E+03  0.00000000000E+00 0. -1.
         25    1    1    2    0    0  0.10792698629E+03  0.11713971307E+03  0.13056084821E+03  0.24091716799E+03  0.12500000000E+03 0.  0.
         25    1    1    2    0    0 -0.10792698629E+03 -0.11713971307E+03  0.56792566313E+02  0.21028633417E+03  0.12500000000E+03 0.  0.
</event>
<event>
 4    0  0.2170991E-002  0.2210602E+03  0.7546771E-02  0.1133095E+00
         21   -1    0    0  502  501  0.00000000000E+00  0.00000000000E+00  0.50203799991E+03  0.50203799991E+03  0.00000000000E+00 0. -1.
         21   -1    0    0  501  502 -0.00000000000E+00 -0.00000000000E+00 -0.97338486721E+02  0.97338486721E+02  0.00000000000E+00 0. -1.
         25    1    1    2    0    0  0.17139161688E+03  0.24148492811E+02  0.28004349573E+03  0.35214712201E+03  0.12500000000E+03 0.  0.
         25    1    1    2    0    0 -0.17139161688E+03 -0.24148492811E+02  0.12465601746E+03  0.24722936462E+03  0.12500000000E+03 0.  0.
</event>
<event>
 4    0  0.2170991E-002  0.3802867E+03  0.7546771E-02  0.1050828E+00
         21   -1    0    0  502  501  0.00000000000E+00  0.00000000000E+00  0.54749963854E+03  0.54749963854E+03  0.00000000000E+00 0.  1.
         21   -1    0    0  501  502 -0.00000000000E+00 -0.00000000000E+00 -0.26414255302E+03  0.26414255302E+03  0.00000000000E+00 0. -1.
         25    1    1    2    0    0  0.29771749638E+03  0.17138299135E+03  0.25352592337E+03  0.44486877975E+03  0.12500000000E+03 0.  0.
         25    1    1    2    0    0 -0.29771749638E+03 -0.17138299135E+03  0.29831162148E+02  0.36677341181E+03  0.12500000000E+03 0.  0.
</event>
<event>
 4    0  0.2170991E-002  0.2179389E+03  0.7546771E-02  0.1135429E+00
         21   -1    0    0  502  501  0.00000000000E+00  0.00000000000E+00  0.28424981108E+03  0.28424981108E+03  0.00000000000E+00 0. -1.
         21   -1    0    0  501  502 -0.00000000000E+00 -0.00000000000E+00 -0.16709724097E+03  0.16709724097E+03  0.00000000000E+00 0. -1.
         25    1    1    2    0    0  0.15668147505E+03 -0.85575394984E+02  0.58208242724E+02  0.22557799620E+03  0.12500000000E+03 0.  0.
         25    1    1    2    0    0 -0.15668147505E+03  0.85575394984E+02  0.58944327382E+02  0.22576905585E+03  0.12500000000E+03 0.  0.
</event>
<event>
 4    0  0.2170991E-002  0.3303985E+03  0.7546771E-02  0.1070961E+00
         21   -1    0    0  502  501  0.00000000000E+00  0.00000000000E+00  0.87095635344E+03  0.87095635344E+03  0.00000000000E+00 0.  1.
         21   -1    0    0  501  502 -0.00000000000E+00 -0.00000000000E+00 -0.12533711275E+03  0.12533711275E+03  0.00000000000E+00 0.  1.
         25    1    1    2    0    0  0.56606598007E+02  0.29389276794E+03  0.27792068665E+03  0.42713250175E+03  0.12500000000E+03 0.  0.
         25    1    1    2    0    0 -0.56606598007E+02 -0.29389276794E+03  0.46769855405E+03  0.56916096444E+03  0.12500000000E+03 0.  0.
</event>
<event>
 4    0  0.2170991E-002  0.2635774E+03  0.7546771E-02  0.1105013E+00
         21   -1    0    0  502  501  0.00000000000E+00  0.00000000000E+00  0.80637946305E+03  0.80637946305E+03  0.00000000000E+00 0.  1.
         21   -1    0    0  501  502 -0.00000000000E+00 -0.00000000000E+00 -0.86154271501E+02  0.86154271501E+02  0.00000000000E+00 0.  1.
         25    1    1    2    0    0  0.22091771251E+03 -0.31815829357E+02  0.25261441334E+03  0.35952179979E+03  0.12500000000E+03 0.  0.
         25    1    1    2    0    0 -0.22091771251E+03  0.31815829357E+02  0.46761077820E+03  0.53301193476E+03  0.12500000000E+03 0.  0.
</event>
<event>
 4    0  0.2170991E-002  0.1867672E+03  0.7546771E-02  0.1161410E+00
         21   -1    0    0  502  501  0.00000000000E+00  0.00000000000E+00  0.40329050841E+03  0.40329050841E+03  0.00000000000E+00 0. -1.
         21   -1    0    0  501  502 -0.00000000000E+00 -0.00000000000E+00 -0.86493432000E+02  0.86493432000E+02  0.00000000000E+00 0. -1.
         25    1    1    2    0    0 -0.19781421856E+02  0.10326448783E+03  0.39647595063E+02  0.16808269063E+03  0.12500000000E+03 0.  0.
         25    1    1    2    0    0  0.19781421856E+02 -0.10326448783E+03  0.27714948134E+03  0.32170124977E+03  0.12500000000E+03 0.  0.
</event>
<event>
 4    0  0.2170991E-002  0.1442726E+03  0.7546771E-02  0.1207693E+00
         21   -1    0    0  502  501  0.00000000000E+00  0.00000000000E+00  0.40508255804E+02  0.40508255804E+02  0.00000000000E+00 0.  1.
         21   -1    0    0  501  502 -0.00000000000E+00 -0.00000000000E+00 -0.51383570872E+03  0.51383570872E+03  0.00000000000E+00 0.  1.
         25    1    1    2    0    0 -0.10462021403E+02 -0.70835341263E+02 -0.22147691022E+03  0.26420469569E+03  0.12500000000E+03 0.  0.
         25    1    1    2    0    0  0.10462021403E+02  0.70835341263E+02 -0.25185054269E+03  0.29013926883E+03  0.12500000000E+03 0.  0.
</event>
<event>
 4    0  0.2170991E-002  0.2255564E+03  0.7546771E-02  0.1129807E+00
         21   -1    0    0  502  501  0.00000000000E+00  0.00000000000E+00  0.95178983099E+03  0.95178983099E+03  0.00000000000E+00 0. -1.
         21   -1    0    0  501  502 -0.00000000000E+00 -0.00000000000E+00 -0.53452634150E+02  0.53452634150E+02  0.00000000000E+00 0. -1.
         25    1    1    2    0    0 -0.42571353690E+02 -0.13147276070E+03  0.16595381065E+03  0.24952569854E+03  0.12500000000E+03 0.  0.
         25    1    1    2    0    0  0.42571353690E+02  0.13147276070E+03  0.73238338619E+03  0.75571676660E+03  0.12500000000E+03 0.  0.
</event>
<event>
 4    0  0.2170991E-002  0.1966917E+03  0.7546771E-02  0.1152561E+00
         21   -1    0    0  502  501  0.00000000000E+00  0.00000000000E+00  0.73339073832E+03  0.73339073832E+03  0.00000000000E+00 0.  1.
         21   -1    0    0  501  502 -0.00000000000E+00 -0.00000000000E+00 -0.52751745759E+02  0.52751745759E+02  0.00000000000E+00 0.  1.
         25    1    1    2    0    0  0.75630171226E+02 -0.11175979336E+02  0.78094444970E+02  0.16603785005E+03  0.12500000000E+03 0.  0.
         25    1    1    2    0    0 -0.75630171226E+02  0.11175979336E+02  0.60254454759E+03  0.62010463403E+03  0.12500000000E+03 0.  0.
</event>
<event>
 4    0  0.2170991E-002  0.2200047E+03  0.7546771E-02  0.1133880E+00
         21   -1    0    0  502  501  0.00000000000E+00  0.00000000000E+00  0.12974031989E+03  0.12974031989E+03  0.00000000000E+00 0. -1.
         21   -1    0    0  501  502 -0.00000000000E+00 -0.00000000000E+00 -0.37306890654E+03  0.37306890654E+03  0.00000000000E+00 0. -1.
         25    1    1    2    0    0  0.11025156305E+02 -0.17692114047E+03 -0.16371955685E+03  0.27175676130E+03  0.12500000000E+03 0.  0.
         25    1    1    2    0    0 -0.11025156305E+02  0.17692114047E+03 -0.79609029792E+02  0.23105246512E+03  0.12500000000E+03 0.  0.
</event>
<event>
 4    0  0.2170991E-002  0.2287137E+03  0.7546771E-02  0.1127548E+00
         21   -1    0    0  502  501  0.00000000000E+00  0.00000000000E+00  0.50978489244E+03  0.50978489244E+03  0.00000000000E+00 0. -1.
         21   -1    0    0  501  502 -0.00000000000E+00 -0.00000000000E+00 -0.10261186659E+03  0.10261186659E+03  0.00000000000E+00 0. -1.
         25    1    1    2    0    0 -0.13470659992E+02 -0.18447735500E+03  0.13702824570E+03  0.26194482875E+03  0.12500000000E+03 0.  0.
         25    1    1    2    0    0  0.13470659992E+02  0.18447735500E+03  0.27014478015E+03  0.35045193027E+03  0.12500000000E+03 0.  0.
</event>
<event>
 4    0  0.2170991E-002  0.1780226E+03  0.7546771E-02  0.1169731E+00
         21   -1    0    0  502  501  0.00000000000E+00  0.00000000000E+00  0.61561826657E+02  0.61561826657E+02  0.00000000000E+00 0. -1.
         21   -1    0    0  501  502 -0.00000000000E+00 -0.00000000000E+00 -0.51480005463E+03  0.51480005463E+03  0.00000000000E+00 0. -1.
         25    1    1    2    0    0  0.15820010934E+02  0.78730820670E+02 -0.67860427915E+02  0.16333662341E+03  0.12500000000E+03 0.  0.
         25    1    1    2    0    0 -0.15820010934E+02 -0.78730820670E+02 -0.38537780006E+03  0.41302525788E+03  0.12500000000E+03 0.  0.
</event>
<event>
 4    0  0.2170991E-002  0.2588678E+03  0.7546771E-02  0.1107825E+00
         21   -1    0    0  502  501  0.00000000000E+00  0.00000000000E+00  0.15175768341E+03  0.15175768341E+03  0.00000000000E+00 0.  1.
         21   -1    0    0  501  502 -0.00000000000E+00 -0.00000000000E+00 -0.44157591004E+03  0.44157591004E+03  0.00000000000E+00 0.  1.
         25    1    1    2    0    0  0.20642259702E+03  0.91560512401E+02 -0.16765461754E+03  0.30777700820E+03  0.12500000000E+03 0.  0.
         25    1    1    2    0    0 -0.20642259702E+03 -0.91560512401E+02 -0.12216360909E+03  0.28555658525E+03  0.12500000000E+03 0.  0.
</event>
<event>
 4    0  0.2170991E-002  0.3658086E+03  0.7546771E-02  0.1056307E+00
         21   -1    0    0  502  501  0.00000000000E+00  0.00000000000E+00  0.10887812378E+04  0.10887812378E+04  0.00000000000E+00 0. -1.
         21   -1    0    0  501  502 -0.00000000000E+00 -0.00000000000E+00 -0.12290430351E+03  0.12290430351E+03  0.00000000000E+00 0. -1.
         25    1    1    2    0    0 -0.20920689192E+03  0.84226146468E+02  0.53196047613E+02  0.26328005405E+03  0.12500000000E+03 0.  0.
         25    1    1    2    0    0  0.20920689192E+03 -0.84226146468E+02  0.91268088667E+03  0.94840548726E+03  0.12500000000E+03 0.  0.
</event>
<event>
 4    0  0.2170991E-002  0.2994733E+03  0.7546771E-02  0.1085504E+00
         21   -1    0    0  502  501  0.00000000000E+00  0.00000000000E+00  0.69674529902E+02  0.69674529902E+02  0.00000000000E+00 0. -1.
         21   -1    0    0  501  502 -0.00000000000E+00 -0.00000000000E+00 -0.12871885568E+04  0.12871885568E+04  0.00000000000E+00 0. -1.
         25    1    1    2    0    0 -0.26697287962E+02 -0.27131461199E+02 -0.12192031180E+04  0.12261851835E+04  0.12500000000E+03 0.  0.
         25    1    1    2    0    0  0.26697287962E+02  0.27131461199E+02  0.16890910140E+01  0.13067790326E+03  0.12500000000E+03 0.  0.
</event>
<event>
 4    0  0.2170991E-002  0.1851254E+03  0.7546771E-02  0.1162933E+00
         21   -1    0    0  502  501  0.00000000000E+00  0.00000000000E+00  0.19602799145E+03  0.19602799145E+03  0.00000000000E+00 0. -1.
         21   -1    0    0  501  502 -0.00000000000E+00 -0.00000000000E+00 -0.17482912820E+03  0.17482912820E+03  0.00000000000E+00 0. -1.
         25    1    1    2    0    0 -0.42902600851E+02  0.93781626728E+02  0.10024895461E+03  0.19055308859E+03  0.12500000000E+03 0.  0.
         25    1    1    2    0    0  0.42902600851E+02 -0.93781626728E+02 -0.79050091358E+02  0.18030403106E+03  0.12500000000E+03 0.  0.
</event>
<event>
 4    0  0.2170991E-002  0.2615164E+03  0.7546771E-02  0.1106236E+00
         21   -1    0    0  502  501  0.00000000000E+00  0.00000000000E+00  0.14883383239E+03  0.14883383239E+03  0.00000000000E+00 0.  1.
         21   -1    0    0  501  502 -0.00000000000E+00 -0.00000000000E+00 -0.45951113340E+03  0.45951113340E+03  0.00000000000E+00 0.  1.
         25    1    1    2    0    0 -0.10361873824E+03  0.47261813188E+02 -0.38736476092E+03  0.42266651145E+03  0.12500000000E+03 0.  0.
         25    1    1    2    0    0  0.10361873824E+03 -0.47261813188E+02  0.76687459906E+02  0.18567845434E+03  0.12500000000E+03 0.  0.
</event>
<event>
 4    0  0.2170991E-002  0.2990295E+03  0.7546771E-02  0.1085727E+00
         21   -1    0    0  502  501  0.00000000000E+00  0.00000000000E+00  0.10823555157E+03  0.10823555157E+03  0.00000000000E+00 0. -1.
         21   -1    0    0  501  502 -0.00000000000E+00 -0.00000000000E+00 -0.82614836185E+03  0.82614836185E+03  0.00000000000E+00 0.  1.
         25    1    1    2    0    0 -0.19091724507E+03 -0.19161579519E+03 -0.39809709154E+03  0.49726482052E+03  0.12500000000E+03 0.  0.
         25    1    1    2    0    0  0.19091724507E+03  0.19161579519E+03 -0.31981571874E+03  0.43711909290E+03  0.12500000000E+03 0.  0.
</event>
<event>
 4    0  0.2170991E-002  0.2090405E+03  0.7546771E-02  0.1142328E+00
         21   -1    0    0  502  501  0.00000000000E+00  0.00000000000E+00  0.57582245144E+03  0.57582245144E+03  0.00000000000E+00 0.  1.
         21   -1    0    0  501  502 -0.00000000000E+00 -0.00000000000E+00 -0.75887825864E+02  0.75887825864E+02  0.00000000000E+00 0.  1.
         25    1    1    2    0    0  0.12749577197E+03 -0.33445763880E+02  0.41120564986E+03  0.44954296510E+03  0.12500000000E+03 0.  0.
         25    1    1    2    0    0 -0.12749577197E+03  0.33445763880E+02  0.88728975712E+02  0.20216731220E+03  0.12500000000E+03 0.  0.
</event>
<event>
 4    0  0.2170991E-002  0.2716007E+03  0.7546771E-02  0.1100367E+00
         21   -1    0    0  502  501  0.00000000000E+00  0.00000000000E+00  0.30117275130E+03  0.30117275130E+03  0.00000000000E+00 0.  1.
         21   -1    0    0  501  502 -0.00000000000E+00 -0.00000000000E+00 -0.24493227809E+03  0.24493227809E+03  0.00000000000E+00 0.  1.
         25    1    1    2    0    0 -0.11240949811E+03  0.16748157651E+03  0.16094747094E+03  0.28673169015E+03  0.12500000000E+03 0.  0.
         25    1    1    2    0    0  0.11240949811E+03 -0.16748157651E+03 -0.10470699773E+03  0.25937333924E+03  0.12500000000E+03 0.  0.
</event>
<event>
 4    0  0.2170991E-002  0.2777636E+03  0.7546771E-02  0.1096917E+00
         21   -1    0    0  502  501  0.00000000000E+00  0.00000000000E+00  0.17865590839E+04  0.17865590839E+04  0.00000000000E+00 0.  1.
         21   -1    0    0  501  502 -0.00000000000E+00 -0.00000000000E+00 -0.43185039735E+02  0.43185039735E+02  0.00000000000E+00 0.  1.
         25    1    1    2    0    0 -0.51767788227E+02 -0.93503621849E+02  0.16089537780E+04  0.16173373461E+04  0.12500000000E+03 0.  0.
         25    1    1    2    0    0  0.51767788227E+02  0.93503621849E+02  0.13442026610E+03  0.21240677752E+03  0.12500000000E+03 0.  0.
</event>
<event>
 4    0  0.2170991E-002  0.1904027E+03  0.7546771E-02  0.1158099E+00
         21   -1    0    0  502  501  0.00000000000E+00  0.00000000000E+00  0.11343540651E+04  0.11343540651E+04  0.00000000000E+00 0.  1.
         21   -1    0    0  501  502 -0.00000000000E+00 -0.00000000000E+00 -0.31959320430E+02  0.31959320430E+02  0.00000000000E+00 0.  1.
         25    1    1    2    0    0  0.85322804926E+02 -0.91076552751E+02  0.76891732980E+03  0.78894472529E+03  0.12500000000E+03 0.  0.
         25    1    1    2    0    0 -0.85322804926E+02  0.91076552751E+02  0.33347741488E+03  0.37736866025E+03  0.12500000000E+03 0.  0.
</event>
<event>
 4    0  0.2170991E-002  0.1953258E+03  0.7546771E-02  0.1153744E+00
         21   -1    0    0  502  501  0.00000000000E+00  0.00000000000E+00  0.38321184766E+03  0.38321184766E+03  0.00000000000E+00 0. -1.
         21   -1    0    0  501  502 -0.00000000000E+00 -0.00000000000E+00 -0.99558987982E+02  0.99558987982E+02  0.00000000000E+00 0. -1.
         25    1    1    2    0    0  0.27919336290E+02 -0.12493592708E+03  0.23865194950E+03  0.29827542342E+03  0.12500000000E+03 0.  0.
         25    1    1    2    0    0 -0.27919336290E+02  0.12493592708E+03  0.45000910178E+02  0.18449541223E+03  0.12500000000E+03 0.  0.
</event>
<event>
 4    0  0.2170991E-002  0.3460062E+03  0.7546771E-02  0.1064266E+00
         21   -1    0    0  502  501  0.00000000000E+00  0.00000000000E+00  0.46363434921E+03  0.46363434921E+03  0.00000000000E+00 0. -1.
         21   -1    0    0  501  502 -0.00000000000E+00 -0.00000000000E+00 -0.25822131583E+03  0.25822131583E+03  0.00000000000E+00 0. -1.
         25    1    1    2    0    0  0.29454592930E+03 -0.12873335669E+03  0.13157095089E+03  0.36914156730E+03  0.12500000000E+03 0.  0.
         25    1    1    2    0    0 -0.29454592930E+03  0.12873335669E+03  0.73842082484E+02  0.35271409773E+03  0.12500000000E+03 0.  0.
</event>
<event>
 4    0  0.2170991E-002  0.1812460E+03  0.7546771E-02  0.1166603E+00
         21   -1    0    0  502  501  0.00000000000E+00  0.00000000000E+00  0.27126437713E+03  0.27126437713E+03  0.00000000000E+00 0. -1.
         21   -1    0    0  501  502 -0.00000000000E+00 -0.00000000000E+00 -0.12109999588E+03  0.12109999588E+03  0.00000000000E+00 0. -1.
         25    1    1    2    0    0  0.98556529893E+02  0.29890334533E+02 -0.12974858460E+02  0.16248128703E+03  0.12500000000E+03 0.  0.
         25    1    1    2    0    0 -0.98556529893E+02 -0.29890334533E+02  0.16313923972E+03  0.22988308598E+03  0.12500000000E+03 0.  0.
</event>
<event>
 4    0  0.2170991E-002  0.1861550E+03  0.7546771E-02  0.1161976E+00
         21   -1    0    0  502  501  0.00000000000E+00  0.00000000000E+00  0.35063377538E+03  0.35063377538E+03  0.00000000000E+00 0. -1.
         21   -1    0    0  501  502 -0.00000000000E+00 -0.00000000000E+00 -0.98831592017E+02  0.98831592017E+02  0.00000000000E+00 0. -1.
         25    1    1    2    0    0  0.22774673628E+02  0.43960897626E+02  0.28133662408E+03  0.31181170973E+03  0.12500000000E+03 0.  0.
         25    1    1    2    0    0 -0.22774673628E+02 -0.43960897626E+02 -0.29534440718E+02  0.13765365766E+03  0.12500000000E+03 0.  0.
</event>
<event>
 4    0  0.2170991E-002  0.4988780E+03  0.7546771E-02  0.1014072E+00
         21   -1    0    0  502  501  0.00000000000E+00  0.00000000000E+00  0.17861301619E+03  0.17861301619E+03  0.00000000000E+00 0. -1.
         21   -1    0    0  501  502 -0.00000000000E+00 -0.00000000000E+00 -0.13933995257E+04  0.13933995257E+04  0.00000000000E+00 0. -1.
         25    1    1    2    0    0 -0.17833213194E+03 -0.43954074360E+03 -0.46423603713E+03  0.67538027269E+03  0.12500000000E+03 0.  0.
         25    1    1    2    0    0  0.17833213194E+03  0.43954074360E+03 -0.75055047239E+03  0.89663226920E+03  0.12500000000E+03 0.  0.
</event>
<event>
 4    0  0.2170991E-002  0.1922830E+03  0.7546771E-02  0.1156418E+00
         21   -1    0    0  502  501  0.00000000000E+00  0.00000000000E+00  0.60347627553E+03  0.60347627553E+03  0.00000000000E+00 0.  1.
         21   -1    0    0  501  502 -0.00000000000E+00 -0.00000000000E+00 -0.61266305926E+02  0.61266305926E+02  0.00000000000E+00 0.  1.
         25    1    1    2    0    0 -0.13977362256E+03  0.40167300539E+02  0.24680148115E+03  0.31254767427E+03  0.12500000000E+03 0.  0.
         25    1    1    2    0    0  0.13977362256E+03 -0.40167300539E+02  0.29540848845E+03  0.35219490718E+03  0.12500000000E+03 0.  0.
</event>
<event>
 4    0  0.2170991E-002  0.2350988E+03  0.7546771E-02  0.1123102E+00
         21   -1    0    0  502  501  0.00000000000E+00  0.00000000000E+00  0.20259204133E+03  0.20259204133E+03  0.00000000000E+00 0. -1.
         21   -1    0    0  501  502 -0.00000000000E+00 -0.00000000000E+00 -0.27282131084E+03  0.27282131084E+03  0.00000000000E+00 0. -1.
         25    1    1    2    0    0  0.96357917039E+02 -0.81255743672E+02 -0.19096429995E+03  0.26072918500E+03  0.12500000000E+03 0.  0.
         25    1    1    2    0    0 -0.96357917039E+02  0.81255743672E+02  0.12073503044E+03  0.21468416716E+03  0.12500000000E+03 0.  0.
</event>
<event>
 4    0  0.2170991E-002  0.2237780E+03  0.7546771E-02  0.1131097E+00
         21   -1    0    0  502  501  0.00000000000E+00  0.00000000000E+00  0.54963633385E+03  0.54963633385E+03  0.00000000000E+00 0. -1.
         21   -1    0    0  501  502 -0.00000000000E+00 -0.00000000000E+00 -0.91108615326E+02  0.91108615326E+02  0.00000000000E+00 0. -1.
         25    1    1    2    0    0 -0.13748149208E+03 -0.11793667356E+03  0.17126184514E+03  0.27886527076E+03  0.12500000000E+03 0.  0.
         25    1    1    2    0    0  0.13748149208E+03  0.11793667356E+03  0.28726587339E+03  0.36187967841E+03  0.12500000000E+03 0.  0.
</event>
<event>
 4    0  0.2170991E-002  0.1698799E+03  0.7546771E-02  0.1177973E+00
         21   -1    0    0  502  501  0.00000000000E+00  0.00000000000E+00  0.10868858523E+03  0.10868858523E+03  0.00000000000E+00 0.  1.
         21   -1    0    0  501  502 -0.00000000000E+00 -0.00000000000E+00 -0.26552166631E+03  0.26552166631E+03  0.00000000000E+00 0.  1.
         25    1    1    2    0    0  0.10926024652E+03 -0.19990229272E+02 -0.11139897455E+03  0.20092820177E+03  0.12500000000E+03 0.  0.
         25    1    1    2    0    0 -0.10926024652E+03  0.19990229272E+02 -0.45434106535E+02  0.17328204977E+03  0.12500000000E+03 0.  0.
</event>
<event>
 4    0  0.2170991E-002  0.2266475E+03  0.7546771E-02  0.1129022E+00
         21   -1    0    0  502  501  0.00000000000E+00  0.00000000000E+00  0.72177586966E+03  0.72177586966E+03  0.00000000000E+00 0.  1.
         21   -1    0    0  501  502 -0.00000000000E+00 -0.00000000000E+00 -0.71170447124E+02  0.71170447124E+02  0.00000000000E+00 0.  1.
         25    1    1    2    0    0 -0.28469959147E+02 -0.89715015563E+02  0.61212710111E+03  0.63181002723E+03  0.12500000000E+03 0.  0.
         25    1    1    2    0    0  0.28469959147E+02  0.89715015563E+02  0.38478321420E+02  0.16113628955E+03  0.12500000000E+03 0.  0.
</event>
<event>
 4    0  0.2170991E-002  0.2131791E+03  0.7546771E-02  0.1139073E+00
         21   -1    0    0  502  501  0.00000000000E+00  0.00000000000E+00  0.65213903628E+02  0.65213903628E+02  0.00000000000E+00 0. -1.
         21   -1    0    0  501  502 -0.00000000000E+00 -0.00000000000E+00 -0.69686536515E+03  0.69686536515E+03  0.00000000000E+00 0. -1.
         25    1    1    2    0    0 -0.96398294038E+02 -0.13139068705E+03 -0.41794596440E+03  0.46568226603E+03  0.12500000000E+03 0.  0.
         25    1    1    2    0    0  0.96398294038E+02  0.13139068705E+03 -0.21370549712E+03  0.29639700275E+03  0.12500000000E+03 0.  0.
</event>
<event>
 4    0  0.2170991E-002  0.1635507E+03  0.7546771E-02  0.1184745E+00
         21   -1    0    0  502  501  0.00000000000E+00  0.00000000000E+00  0.89073038906E+03  0.89073038906E+03  0.00000000000E+00 0.  1.
         21   -1    0    0  501  502 -0.00000000000E+00 -0.00000000000E+00 -0.30030215011E+02  0.30030215011E+02  0.00000000000E+00 0.  1.
         25    1    1    2    0    0 -0.10357522956E+03  0.13714618530E+02  0.38976204924E+03  0.42243978739E+03  0.12500000000E+03 0.  0.
         25    1    1    2    0    0  0.10357522956E+03 -0.13714618530E+02  0.47093812480E+03  0.49832081667E+03  0.12500000000E+03 0.  0.
</event>
<event>
 4    0  0.2170991E-002  0.2374242E+03  0.7546771E-02  0.1121521E+00
         21   -1    0    0  502  501  0.00000000000E+00  0.00000000000E+00  0.20821665656E+03  0.20821665656E+03  0.00000000000E+00 0.  1.
         21   -1    0    0  501  502 -0.00000000000E+00 -0.00000000000E+00 -0.27072872513E+03  0.27072872513E+03  0.00000000000E+00 0.  1.
         25    1    1    2    0    0  0.20823220471E+02 -0.16782901268E+03  0.79899392997E+02  0.22496465724E+03  0.12500000000E+03 0.  0.
         25    1    1    2    0    0 -0.20823220471E+02  0.16782901268E+03 -0.14241146157E+03  0.25398072445E+03  0.12500000000E+03 0.  0.
</event>
<event>
 4    0  0.2170991E-002  0.2411424E+03  0.7546771E-02  0.1119034E+00
         21   -1    0    0  502  501  0.00000000000E+00  0.00000000000E+00  0.15216193288E+03  0.15216193288E+03  0.00000000000E+00 0. -1.
         21   -1    0    0  501  502 -0.00000000000E+00 -0.00000000000E+00 -0.38215635048E+03  0.38215635048E+03  0.00000000000E+00 0. -1.
         25    1    1    2    0    0 -0.20046808336E+03 -0.39078214283E+02 -0.83464372319E+02  0.25358600262E+03  0.12500000000E+03 0.  0.
         25    1    1    2    0    0  0.20046808336E+03  0.39078214283E+02 -0.14653004528E+03  0.28073228074E+03  0.12500000000E+03 0.  0.
</event>
<event>
 4    0  0.2170991E-002  0.1732813E+03  0.7546771E-02  0.1174469E+00
         21   -1    0    0  502  501  0.00000000000E+00  0.00000000000E+00  0.96731518764E+02  0.96731518764E+02  0.00000000000E+00 0. -1.
         21   -1    0    0  501  502 -0.00000000000E+00 -0.00000000000E+00 -0.31040974967E+03  0.31040974967E+03  0.00000000000E+00 0. -1.
         25    1    1    2    0    0 -0.54788265305E+02  0.47806249174E+02 -0.21899526353E+03  0.26243307132E+03  0.12500000000E+03 0.  0.
         25    1    1    2    0    0  0.54788265305E+02 -0.47806249174E+02  0.53170326243E+01  0.14470819711E+03  0.12500000000E+03 0.  0.
</event>
<event>
 4    0  0.2170991E-002  0.2257948E+03  0.7546771E-02  0.1129635E+00
         21   -1    0    0  502  501  0.00000000000E+00  0.00000000000E+00  0.76005240848E+02  0.76005240848E+02  0.00000000000E+00 0. -1.
         21   -1    0    0  501  502 -0.00000000000E+00 -0.00000000000E+00 -0.67078674266E+03  0.67078674266E+03  0.00000000000E+00 0. -1.
         25    1    1    2    0    0  0.57794900521E+01  0.17908358565E+03 -0.39172355359E+03  0.44852722949E+03  0.12500000000E+03 0.  0.
         25    1    1    2    0    0 -0.57794900521E+01 -0.17908358565E+03 -0.20305794822E+03  0.29826475402E+03  0.12500000000E+03 0.  0.
</event>
<event>
 4    0  0.2170991E-002  0.2710599E+03  0.7546771E-02  0.1100675E+00
         21   -1    0    0  502  501  0.00000000000E+00  0.00000000000E+00  0.49547140739E+03  0.49547140739E+03  0.00000000000E+00 0.  1.
         21   -1    0    0  501  502 -0.00000000000E+00 -0.00000000000E+00 -0.14829007402E+03  0.14829007402E+03  0.00000000000E+00 0.  1.
         25    1    1    2    0    0 -0.19562000931E+03  0.13577281935E+03  0.13337271846E+03  0.30019115334E+03  0.12500000000E+03 0.  0.
         25    1    1    2    0    0  0.19562000931E+03 -0.13577281935E+03  0.21380861492E+03  0.34357032807E+03  0.12500000000E+03 0.  0.
</event>
<event>
 4    0  0.2170991E-002  0.2276664E+03  0.7546771E-02  0.1128293E+00
         21   -1    0    0  502  501  0.00000000000E+00  0.00000000000E+00  0.18880525715E+04  0.18880525715E+04  0.00000000000E+00 0.  1.
         21   -1    0    0  501  502 -0.00000000000E+00 -0.00000000000E+00 -0.27452616034E+02  0.27452616034E+02  0.00000000000E+00 0.  1.
         25    1    1    2    0    0 -0.48774247006E+02  0.91168902318E+02  0.16022905210E+04  0.16104814838E+04  0.12500000000E+03 0.  0.
         25    1    1    2    0    0  0.48774247006E+02 -0.91168902318E+02  0.25830943452E+03  0.30502370381E+03  0.12500000000E+03 0.  0.
</event>
<event>
 4    0  0.2170991E-002  0.1930208E+03  0.7546771E-02  0.1155765E+00
         21   -1    0    0  502  501  0.00000000000E+00  0.00000000000E+00  0.18153573449E+04  0.18153573449E+04  0.00000000000E+00 0. -1.
         21   -1    0    0  501  502 -0.00000000000E+00 -0.00000000000E+00 -0.20523238497E+02  0.20523238497E+02  0.00000000000E+00 0. -1.
         25    1    1    2    0    0 -0.91842815389E+02  0.11465437657E+03  0.93147330833E+03  0.95123511969E+03  0.12500000000E+03 0.  0.
         25    1    1    2    0    0  0.91842815389E+02 -0.11465437657E+03  0.86336079810E+03  0.88464546373E+03  0.12500000000E+03 0.  0.
</event>
<event>
 4    0  0.2170991E-002  0.1814998E+03  0.7546771E-02  0.1166359E+00
         21   -1    0    0  502  501  0.00000000000E+00  0.00000000000E+00  0.46154984463E+03  0.46154984463E+03  0.00000000000E+00 0.  1.
         21   -1    0    0  501  502 -0.00000000000E+00 -0.00000000000E+00 -0.71372959162E+02  0.71372959162E+02  0.00000000000E+00 0.  1.
         25    1    1    2    0    0  0.47985155014E+02 -0.42289724018E+02  0.36392846679E+03  0.39007681910E+03  0.12500000000E+03 0.  0.
         25    1    1    2    0    0 -0.47985155014E+02  0.42289724018E+02  0.26248418677E+02  0.14284598469E+03  0.12500000000E+03 0.  0.
</event>
<event>
 4    0  0.2170991E-002  0.2114334E+03  0.7546771E-02  0.1140436E+00
         21   -1    0    0  502  501  0.00000000000E+00  0.00000000000E+00  0.10136408019E+03  0.10136408019E+03  0.00000000000E+00 0. -1.
         21   -1    0    0  501  502 -0.00000000000E+00 -0.00000000000E+00 -0.44102470815E+03  0.44102470815E+03  0.00000000000E+00 0. -1.
         25    1    1    2    0    0 -0.83468874878E+02 -0.11109490586E+03 -0.43049658876E+02  0.19180042834E+03  0.12500000000E+03 0.  0.
         25    1    1    2    0    0  0.83468874878E+02  0.11109490586E+03 -0.29661096909E+03  0.35058835999E+03  0.12500000000E+03 0.  0.
</event>
<event>
 4    0  0.2170991E-002  0.2651194E+03  0.7546771E-02  0.1104106E+00
         21   -1    0    0  502  501  0.00000000000E+00  0.00000000000E+00  0.99503287684E+02  0.99503287684E+02  0.00000000000E+00 0. -1.
         21   -1    0    0  501  502 -0.00000000000E+00 -0.00000000000E+00 -0.70639147818E+03  0.70639147818E+03  0.00000000000E+00 0. -1.
         25    1    1    2    0    0 -0.27159776143E+02 -0.16188175300E+02  0.48640200852E+02  0.13780631190E+03  0.12500000000E+03 0.  0.
         25    1    1    2    0    0  0.27159776143E+02  0.16188175300E+02 -0.65552839135E+03  0.66808845397E+03  0.12500000000E+03 0.  0.
</event>
<event>
 4    0  0.2170991E-002  0.2482439E+03  0.7546771E-02  0.1114420E+00
         21   -1    0    0  502  501  0.00000000000E+00  0.00000000000E+00  0.38868201580E+02  0.38868201580E+02  0.00000000000E+00 0. -1.
         21   -1    0    0  501  502 -0.00000000000E+00 -0.00000000000E+00 -0.15854875961E+04  0.15854875961E+04  0.00000000000E+00 0. -1.
         25    1    1    2    0    0 -0.77167969059E+02 -0.16268563193E+03 -0.11545502380E+04  0.11751735031E+04  0.12500000000E+03 0.  0.
         25    1    1    2    0    0  0.77167969059E+02  0.16268563193E+03 -0.39206915655E+03  0.44918229462E+03  0.12500000000E+03 0.  0.
</event>
<event>
 4    0  0.2170991E-002  0.1527993E+03  0.7546771E-02  0.1197075E+00
         21   -1    0    0  502  501  0.00000000000E+00  0.00000000000E+00  0.56307259472E+02  0.56307259472E+02  0.00000000000E+00 0.  1.
         21   -1    0    0  501  502 -0.00000000000E+00 -0.00000000000E+00 -0.41464686391E+03  0.41464686391E+03  0.00000000000E+00 0.  1.
         25    1    1    2    0    0  0.99149729681E+01 -0.41759416676E+02 -0.29734690807E+03  0.32539566578E+03  0.12500000000E+03 0.  0.
         25    1    1    2    0    0 -0.99149729681E+01  0.41759416676E+02 -0.60992696375E+02  0.14555845761E+03  0.12500000000E+03 0.  0.
</event>
<event>
 4    0  0.2170991E-002  0.2405793E+03  0.7546771E-02  0.1119408E+00
         21   -1    0    0  502  501  0.00000000000E+00  0.00000000000E+00  0.24974939399E+03  0.24974939399E+03  0.00000000000E+00 0. -1.
         21   -1    0    0  501  502 -0.00000000000E+00 -0.00000000000E+00 -0.23174584959E+03  0.23174584959E+03  0.00000000000E+00 0. -1.
         25    1    1    2    0    0  0.11663082511E+03 -0.16915148969E+03  0.27998822810E+01  0.24051572749E+03  0.12500000000E+03 0.  0.
         25    1    1    2    0    0 -0.11663082511E+03  0.16915148969E+03  0.15203662121E+02  0.24097951609E+03  0.12500000000E+03 0.  0.
</event>
<event>
 4    0  0.2170991E-002  0.1530271E+03  0.7546771E-02  0.1196802E+00
         21   -1    0    0  502  501  0.00000000000E+00  0.00000000000E+00  0.23910338524E+03  0.23910338524E+03  0.00000000000E+00 0.  1.
         21   -1    0    0  501  502 -0.00000000000E+00 -0.00000000000E+00 -0.97937969773E+02  0.97937969773E+02  0.00000000000E+00 0.  1.
         25    1    1    2    0    0 -0.84822766489E+02  0.95164144956E+00  0.43686727237E+02  0.15725564369E+03  0.12500000000E+03 0.  0.
         25    1    1    2    0    0  0.84822766489E+02 -0.95164144956E+00  0.97478688233E+02  0.17978571132E+03  0.12500000000E+03 0.  0.
</event>
<event>
 4    0  0.2170991E-002  0.2236569E+03  0.7546771E-02  0.1131186E+00
         21   -1    0    0  502  501  0.00000000000E+00  0.00000000000E+00  0.27784305706E+03  0.27784305706E+03  0.00000000000E+00 0. -1.
         21   -1    0    0  501  502 -0.00000000000E+00 -0.00000000000E+00 -0.18003830242E+03  0.18003830242E+03  0.00000000000E+00 0. -1.
         25    1    1    2    0    0  0.15640123339E+03 -0.40461540375E+02  0.14215289972E+03  0.24885925532E+03  0.12500000000E+03 0.  0.
         25    1    1    2    0    0 -0.15640123339E+03  0.40461540375E+02 -0.44348145086E+02  0.20902210416E+03  0.12500000000E+03 0.  0.
</event>
<event>
 4    0  0.2170991E-002  0.1939222E+03  0.7546771E-02  0.1154971E+00
         21   -1    0    0  502  501  0.00000000000E+00  0.00000000000E+00  0.16866249342E+03  0.16866249342E+03  0.00000000000E+00 0. -1.
         21   -1    0    0  501  502 -0.00000000000E+00 -0.00000000000E+00 -0.22296493907E+03  0.22296493907E+03  0.00000000000E+00 0. -1.
         25    1    1    2    0    0  0.10283195768E+03  0.65275588534E+02  0.58204400114E+02  0.18397843942E+03  0.12500000000E+03 0.  0.
         25    1    1    2    0    0 -0.10283195768E+03 -0.65275588534E+02 -0.11250684577E+03  0.20764899307E+03  0.12500000000E+03 0.  0.
</event>
<event>
 4    0  0.2170991E-002  0.4800409E+03  0.7546771E-02  0.1019124E+00
         21   -1    0    0  502  501  0.00000000000E+00  0.00000000000E+00  0.95656259358E+03  0.95656259358E+03  0.00000000000E+00 0. -1.
         21   -1    0    0  501  502 -0.00000000000E+00 -0.00000000000E+00 -0.24090347269E+03  0.24090347269E+03  0.00000000000E+00 0. -1.
         25    1    1    2    0    0 -0.36877694548E+03 -0.94079240744E+02  0.68774401557E+03  0.79590462369E+03  0.12500000000E+03 0.  0.
         25    1    1    2    0    0  0.36877694548E+03  0.94079240744E+02  0.27915105310E+02  0.40156144258E+03  0.12500000000E+03 0.  0.
</event>
<event>
 4    0  0.2170991E-002  0.2331440E+03  0.7546771E-02  0.1124446E+00
         21   -1    0    0  502  501  0.00000000000E+00  0.00000000000E+00  0.13305225720E+03  0.13305225720E+03  0.00000000000E+00 0.  1.
         21   -1    0    0  501  502 -0.00000000000E+00 -0.00000000000E+00 -0.40853223192E+03  0.40853223192E+03  0.00000000000E+00 0.  1.
         25    1    1    2    0    0 -0.13169324370E+03 -0.13972591151E+03 -0.18789517006E+03  0.29630395832E+03  0.12500000000E+03 0.  0.
         25    1    1    2    0    0  0.13169324370E+03  0.13972591151E+03 -0.87584804660E+02  0.24528053080E+03  0.12500000000E+03 0.  0.
</event>
<event>
 4    0  0.2170991E-002  0.2737498E+03  0.7546771E-02  0.1099152E+00
         21   -1    0    0  502  501  0.00000000000E+00  0.00000000000E+00  0.11600938254E+03  0.11600938254E+03  0.00000000000E+00 0.  1.
         21   -1    0    0  501  502 -0.00000000000E+00 -0.00000000000E+00 -0.64597343355E+03  0.64597343355E+03  0.00000000000E+00 0.  1.
         25    1    1    2    0    0 -0.16860615315E+03  0.11295864216E+03 -0.77605254476E+02  0.25066963366E+03  0.12500000000E+03 0.  0.
         25    1    1    2    0    0  0.16860615315E+03 -0.11295864216E+03 -0.45235879654E+03  0.51131318243E+03  0.12500000000E+03 0.  0.
</event>
<event>
 4    0  0.2170991E-002  0.1848658E+03  0.7546771E-02  0.1163175E+00
         21   -1    0    0  502  501  0.00000000000E+00  0.00000000000E+00  0.10745972484E+04  0.10745972484E+04  0.00000000000E+00 0. -1.
         21   -1    0    0  501  502 -0.00000000000E+00 -0.00000000000E+00 -0.31802937054E+02  0.31802937054E+02  0.00000000000E+00 0. -1.
         25    1    1    2    0    0 -0.90710654108E+02  0.88657405562E+02  0.37292285203E+03  0.41326143287E+03  0.12500000000E+03 0.  0.
         25    1    1    2    0    0  0.90710654108E+02 -0.88657405562E+02  0.66987145933E+03  0.69313875260E+03  0.12500000000E+03 0.  0.
</event>
<event>
 4    0  0.2170991E-002  0.1848353E+03  0.7546771E-02  0.1163204E+00
         21   -1    0    0  502  501  0.00000000000E+00  0.00000000000E+00  0.39108099320E+03  0.39108099320E+03  0.00000000000E+00 0.  1.
         21   -1    0    0  501  502 -0.00000000000E+00 -0.00000000000E+00 -0.87358095359E+02  0.87358095359E+02  0.00000000000E+00 0.  1.
         25    1    1    2    0    0 -0.51780350571E+02 -0.35308782839E+02  0.30830379111E+03  0.33853233592E+03  0.12500000000E+03 0.  0.
         25    1    1    2    0    0  0.51780350571E+02  0.35308782839E+02 -0.45808932697E+01  0.13990675264E+03  0.12500000000E+03 0.  0.
</event>
<event>
 4    0  0.2170991E-002  0.2088102E+03  0.7546771E-02  0.1142512E+00
         21   -1    0    0  502  501  0.00000000000E+00  0.00000000000E+00  0.35094838570E+02  0.35094838570E+02  0.00000000000E+00 0. -1.
         21   -1    0    0  501  502 -0.00000000000E+00 -0.00000000000E+00 -0.12423965597E+04  0.12423965597E+04  0.00000000000E+00 0. -1.
         25    1    1    2    0    0 -0.25717118980E+01 -0.15227014366E+03 -0.81522721268E+03  0.83869733435E+03  0.12500000000E+03 0.  0.
         25    1    1    2    0    0  0.25717118980E+01  0.15227014366E+03 -0.39207450843E+03  0.43879406390E+03  0.12500000000E+03 0.  0.
</event>
<event>
 4    0  0.2170991E-002  0.1968685E+03  0.7546771E-02  0.1152408E+00
         21   -1    0    0  502  501  0.00000000000E+00  0.00000000000E+00  0.11690334562E+03  0.11690334562E+03  0.00000000000E+00 0.  1.
         21   -1    0    0  501  502 -0.00000000000E+00 -0.00000000000E+00 -0.33153221098E+03  0.33153221098E+03  0.00000000000E+00 0.  1.
         25    1    1    2    0    0 -0.15193925723E+03 -0.64841933857E+01 -0.10976827095E+03  0.22539222693E+03  0.12500000000E+03 0.  0.
         25    1    1    2    0    0  0.15193925723E+03  0.64841933857E+01 -0.10486059440E+03  0.22304332967E+03  0.12500000000E+03 0.  0.
</event>
<event>
 4    0  0.2170991E-002  0.2095767E+03  0.7546771E-02  0.1141902E+00
         21   -1    0    0  502  501  0.00000000000E+00  0.00000000000E+00  0.61827463783E+02  0.61827463783E+02  0.00000000000E+00 0. -1.
         21   -1    0    0  501  502 -0.00000000000E+00 -0.00000000000E+00 -0.71040230216E+03  0.71040230216E+03  0.00000000000E+00 0. -1.
         25    1    1    2    0    0 -0.12546684486E+02  0.12010117617E+03 -0.54005292420E+03  0.56733047930E+03  0.12500000000E+03 0.  0.
         25    1    1    2    0    0  0.12546684486E+02 -0.12010117617E+03 -0.10852191418E+03  0.20489928664E+03  0.12500000000E+03 0.  0.
</event>
<event>
 4    0  0.2170991E-002  0.2264982E+03  0.7546771E-02  0.1129129E+00
         21   -1    0    0  502  501  0.00000000000E+00  0.00000000000E+00  0.18665545732E+03  0.18665545732E+03  0.00000000000E+00 0. -1.
         21   -1    0    0  501  502 -0.00000000000E+00 -0.00000000000E+00 -0.27484550248E+03  0.27484550248E+03  0.00000000000E+00 0. -1.
         25    1    1    2    0    0  0.40600724413E+02  0.18249003044E+03 -0.71533601421E+02  0.23599382654E+03  0.12500000000E+03 0.  0.
         25    1    1    2    0    0 -0.40600724413E+02 -0.18249003044E+03 -0.16656443738E+02  0.22550713326E+03  0.12500000000E+03 0.  0.
</event>
<event>
 4    0  0.2170991E-002  0.1785072E+03  0.7546771E-02  0.1169256E+00
         21   -1    0    0  502  501  0.00000000000E+00  0.00000000000E+00  0.11613433347E+04  0.11613433347E+04  0.00000000000E+00 0.  1.
         21   -1    0    0  501  502 -0.00000000000E+00 -0.00000000000E+00 -0.27437895285E+02  0.27437895285E+02  0.00000000000E+00 0.  1.
         25    1    1    2    0    0 -0.53193654099E+02 -0.55592522109E+02  0.22869301898E+03  0.27174545126E+03  0.12500000000E+03 0.  0.
         25    1    1    2    0    0  0.53193654099E+02  0.55592522109E+02  0.90521242045E+03  0.91703577874E+03  0.12500000000E+03 0.  0.
</event>
<event>
 4    0  0.2170991E-002  0.1917733E+03  0.7546771E-02  0.1156872E+00
         21   -1    0    0  502  501  0.00000000000E+00  0.00000000000E+00  0.92347888827E+03  0.92347888827E+03  0.00000000000E+00 0. -1.
         21   -1    0    0  501  502 -0.00000000000E+00 -0.00000000000E+00 -0.39824416564E+02  0.39824416564E+02  0.00000000000E+00 0. -1.
         25    1    1    2    0    0 -0.49273568835E+02 -0.12717976425E+03  0.31501344600E+03  0.36532321057E+03  0.12500000000E+03 0.  0.
         25    1    1    2    0    0  0.49273568835E+02  0.12717976425E+03  0.56864102570E+03  0.59798009426E+03  0.12500000000E+03 0.  0.
</event>
<event>
 4    0  0.2170991E-002  0.2189180E+03  0.7546771E-02  0.1134692E+00
         21   -1    0    0  502  501  0.00000000000E+00  0.00000000000E+00  0.41198865207E+02  0.41198865207E+02  0.00000000000E+00 0.  1.
         21   -1    0    0  501  502 -0.00000000000E+00 -0.00000000000E+00 -0.11632624738E+04  0.11632624738E+04  0.00000000000E+00 0.  1.
         25    1    1    2    0    0 -0.53254291004E+02 -0.16891275904E+03 -0.47702423490E+03  0.52397009491E+03  0.12500000000E+03 0.  0.
         25    1    1    2    0    0  0.53254291004E+02  0.16891275904E+03 -0.64503937370E+03  0.68049124410E+03  0.12500000000E+03 0.  0.
</event>
<event>
 4    0  0.2170991E-002  0.2883838E+03  0.7546771E-02  0.1091196E+00
         21   -1    0    0  502  501  0.00000000000E+00  0.00000000000E+00  0.13734861511E+03  0.13734861511E+03  0.00000000000E+00 0. -1.
         21   -1    0    0  501  502 -0.00000000000E+00 -0.00000000000E+00 -0.60550445914E+03  0.60550445914E+03  0.00000000000E+00 0. -1.
         25    1    1    2    0    0  0.25355245829E+03 -0.55377756207E+02 -0.21657617581E+03  0.36039670491E+03  0.12500000000E+03 0.  0.
         25    1    1    2    0    0 -0.25355245829E+03  0.55377756207E+02 -0.25157966821E+03  0.38245636933E+03  0.12500000000E+03 0.  0.
</event>
<event>
 4    0  0.2170991E-002  0.1949163E+03  0.7546771E-02  0.1154100E+00
         21   -1    0    0  502  501  0.00000000000E+00  0.00000000000E+00  0.53299697535E+03  0.53299697535E+03  0.00000000000E+00 0. -1.
         21   -1    0    0  501  502 -0.00000000000E+00 -0.00000000000E+00 -0.71280606182E+02  0.71280606182E+02  0.00000000000E+00 0. -1.
         25    1    1    2    0    0  0.14663845983E+03  0.28596372801E+02  0.22025876689E+03  0.29403998849E+03  0.12500000000E+03 0.  0.
         25    1    1    2    0    0 -0.14663845983E+03 -0.28596372801E+02  0.24145760227E+03  0.31023759304E+03  0.12500000000E+03 0.  0.
</event>
<event>
 4    0  0.2170991E-002  0.2122064E+03  0.7546771E-02  0.1139831E+00
         21   -1    0    0  502  501  0.00000000000E+00  0.00000000000E+00  0.70326690136E+03  0.70326690136E+03  0.00000000000E+00 0. -1.
         21   -1    0    0  501  502 -0.00000000000E+00 -0.00000000000E+00 -0.64031958074E+02  0.64031958074E+02  0.00000000000E+00 0. -1.
         25    1    1    2    0    0 -0.12338359702E+03  0.71748391832E+02  0.14776915823E+03  0.24048298873E+03  0.12500000000E+03 0.  0.
         25    1    1    2    0    0  0.12338359702E+03 -0.71748391832E+02  0.49146578506E+03  0.52681587071E+03  0.12500000000E+03 0.  0.
</event>
<event>
 4    0  0.2170991E-002  0.1762573E+03  0.7546771E-02  0.1171475E+00
         21   -1    0    0  502  501  0.00000000000E+00  0.00000000000E+00  0.59525694590E+02  0.59525694590E+02  0.00000000000E+00 0. -1.
         21   -1    0    0  501  502 -0.00000000000E+00 -0.00000000000E+00 -0.52190281300E+03  0.52190281300E+03  0.00000000000E+00 0. -1.
         25    1    1    2    0    0 -0.11353506945E+03 -0.12561299620E+02 -0.31188376047E+03  0.35488657101E+03  0.12500000000E+03 0.  0.
         25    1    1    2    0    0  0.11353506945E+03  0.12561299620E+02 -0.15049335795E+03  0.22654193658E+03  0.12500000000E+03 0.  0.
</event>
<event>
 4    0  0.2170991E-002  0.3120442E+03  0.7546771E-02  0.1079370E+00
         21   -1    0    0  502  501  0.00000000000E+00  0.00000000000E+00  0.22747569239E+03  0.22747569239E+03  0.00000000000E+00 0. -1.
         21   -1    0    0  501  502 -0.00000000000E+00 -0.00000000000E+00 -0.42805271700E+03  0.42805271700E+03  0.00000000000E+00 0. -1.
         25    1    1    2    0    0  0.28170591073E+03  0.37799304471E+02 -0.67750866311E+02  0.31780841311E+03  0.12500000000E+03 0.  0.
         25    1    1    2    0    0 -0.28170591073E+03 -0.37799304471E+02 -0.13282615830E+03  0.33771999628E+03  0.12500000000E+03 0.  0.
</event>
<event>
 4    0  0.2170991E-002  0.3224554E+03  0.7546771E-02  0.1074525E+00
         21   -1    0    0  502  501  0.00000000000E+00  0.00000000000E+00  0.10012686045E+04  0.10012686045E+04  0.00000000000E+00 0. -1.
         21   -1    0    0  501  502 -0.00000000000E+00 -0.00000000000E+00 -0.10384575746E+03  0.10384575746E+03  0.00000000000E+00 0. -1.
         25    1    1    2    0    0 -0.19087490430E+02 -0.28624411912E+03  0.58202482895E+03  0.66081610871E+03  0.12500000000E+03 0.  0.
         25    1    1    2    0    0  0.19087490430E+02  0.28624411912E+03  0.31539801808E+03  0.44429825324E+03  0.12500000000E+03 0.  0.
</event>
<event>
 4    0  0.2170991E-002  0.2958195E+03  0.7546771E-02  0.1087349E+00
         21   -1    0    0  502  501  0.00000000000E+00  0.00000000000E+00  0.51818281238E+03  0.51818281238E+03  0.00000000000E+00 0. -1.
         21   -1    0    0  501  502 -0.00000000000E+00 -0.00000000000E+00 -0.16887706784E+03  0.16887706784E+03  0.00000000000E+00 0. -1.
         25    1    1    2    0    0 -0.15028857856E+03 -0.22160189928E+03  0.19066574273E+03  0.35167098837E+03  0.12500000000E+03 0.  0.
         25    1    1    2    0    0  0.15028857856E+03  0.22160189928E+03  0.15864000181E+03  0.33538889186E+03  0.12500000000E+03 0.  0.
</event>
<event>
 4    0  0.2170991E-002  0.2182026E+03  0.7546771E-02  0.1135230E+00
         21   -1    0    0  502  501  0.00000000000E+00  0.00000000000E+00  0.96350200682E+03  0.96350200682E+03  0.00000000000E+00 0. -1.
         21   -1    0    0  501  502 -0.00000000000E+00 -0.00000000000E+00 -0.49415977175E+02  0.49415977175E+02  0.00000000000E+00 0. -1.
         25    1    1    2    0    0 -0.28533068888E+01  0.57012049903E+02  0.63634628996E+02  0.15143606308E+03  0.12500000000E+03 0.  0.
         25    1    1    2    0    0  0.28533068888E+01 -0.57012049903E+02  0.85045140065E+03  0.86148192091E+03  0.12500000000E+03 0.  0.
</event>
<event>
 4    0  0.2170991E-002  0.2293650E+03  0.7546771E-02  0.1127088E+00
         21   -1    0    0  502  501  0.00000000000E+00  0.00000000000E+00  0.22176242698E+03  0.22176242698E+03  0.00000000000E+00 0.  1.
         21   -1    0    0  501  502 -0.00000000000E+00 -0.00000000000E+00 -0.23722810658E+03  0.23722810658E+03  0.00000000000E+00 0.  1.
         25    1    1    2    0    0  0.66788666018E+01 -0.62207548286E+02  0.17421902706E+03  0.22336440118E+03  0.12500000000E+03 0.  0.
         25    1    1    2    0    0 -0.66788666018E+01  0.62207548286E+02 -0.18968470666E+03  0.23562613238E+03  0.12500000000E+03 0.  0.
</event>
<event>
 4    0  0.2170991E-002  0.1954476E+03  0.7546771E-02  0.1153638E+00
         21   -1    0    0  502  501  0.00000000000E+00  0.00000000000E+00  0.47704588508E+02  0.47704588508E+02  0.00000000000E+00 0. -1.
         21   -1    0    0  501  502 -0.00000000000E+00 -0.00000000000E+00 -0.80075671258E+03  0.80075671258E+03  0.00000000000E+00 0. -1.
         25    1    1    2    0    0 -0.12258833197E+02 -0.58197368867E+02 -0.67601258056E+03  0.69004001464E+03  0.12500000000E+03 0.  0.
         25    1    1    2    0    0  0.12258833197E+02  0.58197368867E+02 -0.77039543515E+02  0.15842128645E+03  0.12500000000E+03 0.  0.
</event>
<event>
 4    0  0.2170991E-002  0.1744581E+03  0.7546771E-02  0.1173277E+00
         21   -1    0    0  502  501  0.00000000000E+00  0.00000000000E+00  0.10548327884E+03  0.10548327884E+03  0.00000000000E+00 0. -1.
         21   -1    0    0  501  502 -0.00000000000E+00 -0.00000000000E+00 -0.28853504481E+03  0.28853504481E+03  0.00000000000E+00 0. -1.
         25    1    1    2    0    0 -0.23415857937E+02  0.12546760010E+02 -0.22564179850E+03  0.25931630265E+03  0.12500000000E+03 0.  0.
         25    1    1    2    0    0  0.23415857937E+02 -0.12546760010E+02  0.42590032527E+02  0.13470202100E+03  0.12500000000E+03 0.  0.
</event>
<event>
 4    0  0.2170991E-002  0.2086024E+03  0.7546771E-02  0.1142678E+00
         21   -1    0    0  502  501  0.00000000000E+00  0.00000000000E+00  0.61731556210E+03  0.61731556210E+03  0.00000000000E+00 0. -1.
         21   -1    0    0  501  502 -0.00000000000E+00 -0.00000000000E+00 -0.70490635260E+02  0.70490635260E+02  0.00000000000E+00 0. -1.
         25    1    1    2    0    0  0.12081449980E+03  0.79969754864E+02  0.13648228675E+03  0.23503982567E+03  0.12500000000E+03 0.  0.
         25    1    1    2    0    0 -0.12081449980E+03 -0.79969754864E+02  0.41034264009E+03  0.45276637169E+03  0.12500000000E+03 0.  0.
</event>
<event>
 4    0  0.2170991E-002  0.2782652E+03  0.7546771E-02  0.1096640E+00
         21   -1    0    0  502  501  0.00000000000E+00  0.00000000000E+00  0.17420474627E+03  0.17420474627E+03  0.00000000000E+00 0. -1.
         21   -1    0    0  501  502 -0.00000000000E+00 -0.00000000000E+00 -0.44448557800E+03  0.44448557800E+03  0.00000000000E+00 0. -1.
         25    1    1    2    0    0  0.14916066671E+02  0.10213188310E+03  0.11629151033E+03  0.19950470161E+03  0.12500000000E+03 0.  0.
         25    1    1    2    0    0 -0.14916066671E+02 -0.10213188310E+03 -0.38657234207E+03  0.41918562266E+03  0.12500000000E+03 0.  0.
</event>
<event>
 4    0  0.2170991E-002  0.1639378E+03  0.7546771E-02  0.1184321E+00
         21   -1    0    0  502  501  0.00000000000E+00  0.00000000000E+00  0.11230568684E+02  0.11230568684E+02  0.00000000000E+00 0.  1.
         21   -1    0    0  501  502 -0.00000000000E+00 -0.00000000000E+00 -0.23930768558E+04  0.23930768558E+04  0.00000000000E+00 0.  1.
         25    1    1    2    0    0 -0.23197231197E+02  0.88744819873E+02 -0.15814938892E+04  0.15890757302E+04  0.12500000000E+03 0.  0.
         25    1    1    2    0    0  0.23197231197E+02 -0.88744819873E+02 -0.80035239788E+03  0.81523169429E+03  0.12500000000E+03 0.  0.
</event>
<event>
 4    0  0.2170991E-002  0.1941797E+03  0.7546771E-02  0.1154745E+00
         21   -1    0    0  502  501  0.00000000000E+00  0.00000000000E+00  0.10522797796E+03  0.10522797796E+03  0.00000000000E+00 0.  1.
         21   -1    0    0  501  502 -0.00000000000E+00 -0.00000000000E+00 -0.35832440268E+03  0.35832440268E+03  0.00000000000E+00 0.  1.
         25    1    1    2    0    0 -0.26570687285E+02  0.14259754074E+02  0.47127828191E+02  0.13695026177E+03  0.12500000000E+03 0.  0.
         25    1    1    2    0    0  0.26570687285E+02 -0.14259754074E+02 -0.30022425292E+03  0.32660211887E+03  0.12500000000E+03 0.  0.
</event>
<event>
 4    0  0.2170991E-002  0.1627551E+03  0.7546771E-02  0.1185621E+00
         21   -1    0    0  502  501  0.00000000000E+00  0.00000000000E+00  0.29897619299E+03  0.29897619299E+03  0.00000000000E+00 0.  1.
         21   -1    0    0  501  502 -0.00000000000E+00 -0.00000000000E+00 -0.88599792844E+02  0.88599792844E+02  0.00000000000E+00 0.  1.
         25    1    1    2    0    0 -0.31460324442E+02 -0.84531838928E+02  0.42989452706E+02  0.16002648797E+03  0.12500000000E+03 0.  0.
         25    1    1    2    0    0  0.31460324442E+02  0.84531838928E+02  0.16738694744E+03  0.22754949786E+03  0.12500000000E+03 0.  0.
</event>
<event>
 4    0  0.2170991E-002  0.1964443E+03  0.7546771E-02  0.1152774E+00
         21   -1    0    0  502  501  0.00000000000E+00  0.00000000000E+00  0.78063113967E+03  0.78063113967E+03  0.00000000000E+00 0.  1.
         21   -1    0    0  501  502 -0.00000000000E+00 -0.00000000000E+00 -0.49434815451E+02  0.49434815451E+02  0.00000000000E+00 0.  1.
         25    1    1    2    0    0  0.36696026594E+02  0.13592393668E+03  0.24714520811E+03  0.31068902269E+03  0.12500000000E+03 0.  0.
         25    1    1    2    0    0 -0.36696026594E+02 -0.13592393668E+03  0.48405111611E+03  0.51937693243E+03  0.12500000000E+03 0.  0.
</event>
<event>
 4    0  0.2170991E-002  0.2269745E+03  0.7546771E-02  0.1128788E+00
         21   -1    0    0  502  501  0.00000000000E+00  0.00000000000E+00  0.18827071946E+04  0.18827071946E+04  0.00000000000E+00 0. -1.
         21   -1    0    0  501  502 -0.00000000000E+00 -0.00000000000E+00 -0.27363490573E+02  0.27363490573E+02  0.00000000000E+00 0. -1.
         25    1    1    2    0    0  0.16970464871E+03 -0.80749781291E+02  0.10283264306E+04  0.10528059854E+04  0.12500000000E+03 0.  0.
         25    1    1    2    0    0 -0.16970464871E+03  0.80749781291E+02  0.82701727341E+03  0.85726469978E+03  0.12500000000E+03 0.  0.
</event>
<event>
 4    0  0.2170991E-002  0.2353219E+03  0.7546771E-02  0.1122949E+00
         21   -1    0    0  502  501  0.00000000000E+00  0.00000000000E+00  0.77782700588E+02  0.77782700588E+02  0.00000000000E+00 0. -1.
         21   -1    0    0  501  502 -0.00000000000E+00 -0.00000000000E+00 -0.71193717455E+03  0.71193717455E+03  0.00000000000E+00 0. -1.
         25    1    1    2    0    0  0.18083558095E+03 -0.41604553913E+02 -0.43945251058E+03  0.49312874110E+03  0.12500000000E+03 0.  0.
         25    1    1    2    0    0 -0.18083558095E+03  0.41604553913E+02 -0.19470196338E+03  0.29659113403E+03  0.12500000000E+03 0.  0.
</event>
<event>
 4    0  0.2170991E-002  0.1970917E+03  0.7546771E-02  0.1152216E+00
         21   -1    0    0  502  501  0.00000000000E+00  0.00000000000E+00  0.12398262136E+04  0.12398262136E+04  0.00000000000E+00 0. -1.
         21   -1    0    0  501  502 -0.00000000000E+00 -0.00000000000E+00 -0.31331121769E+02  0.31331121769E+02  0.00000000000E+00 0. -1.
         25    1    1    2    0    0 -0.14893031268E+03 -0.14337847858E+02  0.51110010150E+03  0.54702296631E+03  0.12500000000E+03 0.  0.
         25    1    1    2    0    0  0.14893031268E+03  0.14337847858E+02  0.69739499033E+03  0.72413436906E+03  0.12500000000E+03 0.  0.
</event>
<event>
 4    0  0.2170991E-002  0.3025389E+03  0.7546771E-02  0.1083978E+00
         21   -1    0    0  502  501  0.00000000000E+00  0.00000000000E+00  0.38453253822E+03  0.38453253822E+03  0.00000000000E+00 0. -1.
         21   -1    0    0  501  502 -0.00000000000E+00 -0.00000000000E+00 -0.23802874125E+03  0.23802874125E+03  0.00000000000E+00 0. -1.
         25    1    1    2    0    0  0.27385164845E+03 -0.22599930872E+02  0.93812131320E+02  0.31611896213E+03  0.12500000000E+03 0.  0.
         25    1    1    2    0    0 -0.27385164845E+03  0.22599930872E+02  0.52691665647E+02  0.30644231735E+03  0.12500000000E+03 0.  0.
</event>
<event>
 4    0  0.2170991E-002  0.2287706E+03  0.7546771E-02  0.1127508E+00
         21   -1    0    0  502  501  0.00000000000E+00  0.00000000000E+00  0.41507644666E+03  0.41507644666E+03  0.00000000000E+00 0. -1.
         21   -1    0    0  501  502 -0.00000000000E+00 -0.00000000000E+00 -0.12608763350E+03  0.12608763350E+03  0.00000000000E+00 0. -1.
         25    1    1    2    0    0  0.11221568782E+03  0.81228699751E+01  0.32792859335E+03  0.36853833443E+03  0.12500000000E+03 0.  0.
         25    1    1    2    0    0 -0.11221568782E+03 -0.81228699751E+01 -0.38939780179E+02  0.17262574573E+03  0.12500000000E+03 0.  0.
</event>
<event>
 4    0  0.2170991E-002  0.3808991E+03  0.7546771E-02  0.1050602E+00
         21   -1    0    0  502  501  0.00000000000E+00  0.00000000000E+00  0.85860811218E+02  0.85860811218E+02  0.00000000000E+00 0. -1.
         21   -1    0    0  501  502 -0.00000000000E+00 -0.00000000000E+00 -0.16897593632E+04  0.16897593632E+04  0.00000000000E+00 0.  1.
         25    1    1    2    0    0  0.32476447785E+03  0.75472771020E+02 -0.48671826976E+03  0.60306531931E+03  0.12500000000E+03 0.  0.
         25    1    1    2    0    0 -0.32476447785E+03 -0.75472771020E+02 -0.11171802822E+04  0.11725548551E+04  0.12500000000E+03 0.  0.
</event>
<event>
 4    0  0.2170991E-002  0.2214872E+03  0.7546771E-02  0.1132779E+00
         21   -1    0    0  502  501  0.00000000000E+00  0.00000000000E+00  0.82990285685E+02  0.82990285685E+02  0.00000000000E+00 0. -1.
         21   -1    0    0  501  502 -0.00000000000E+00 -0.00000000000E+00 -0.59111245464E+03  0.59111245464E+03  0.00000000000E+00 0. -1.
         25    1    1    2    0    0  0.34917445210E+01 -0.14119225886E+03 -0.77351899822E+02  0.20385230597E+03  0.12500000000E+03 0.  0.
         25    1    1    2    0    0 -0.34917445210E+01  0.14119225886E+03 -0.43077026914E+03  0.47025043436E+03  0.12500000000E+03 0.  0.
</event>
<event>
 4    0  0.2170991E-002  0.2035871E+03  0.7546771E-02  0.1146747E+00
         21   -1    0    0  502  501  0.00000000000E+00  0.00000000000E+00  0.64130461395E+03  0.64130461395E+03  0.00000000000E+00 0.  1.
         21   -1    0    0  501  502 -0.00000000000E+00 -0.00000000000E+00 -0.64630268952E+02  0.64630268952E+02  0.00000000000E+00 0.  1.
         25    1    1    2    0    0  0.86196887348E+02  0.13310214726E+03  0.24323972272E+03  0.31612758137E+03  0.12500000000E+03 0.  0.
         25    1    1    2    0    0 -0.86196887348E+02 -0.13310214726E+03  0.33343462228E+03  0.38980730153E+03  0.12500000000E+03 0.  0.
</event>
<event>
 4    0  0.2170991E-002  0.1272060E+03  0.7546771E-02  0.1231661E+00
         21   -1    0    0  502  501  0.00000000000E+00  0.00000000000E+00  0.17004338971E+03  0.17004338971E+03  0.00000000000E+00 0. -1.
         21   -1    0    0  501  502 -0.00000000000E+00 -0.00000000000E+00 -0.95160183037E+02  0.95160183037E+02  0.00000000000E+00 0. -1.
         25    1    1    2    0    0 -0.19577411920E+02  0.39373214656E+01  0.24355935276E+02  0.12890690106E+03  0.12500000000E+03 0.  0.
         25    1    1    2    0    0  0.19577411920E+02 -0.39373214656E+01  0.50527271396E+02  0.13629667169E+03  0.12500000000E+03 0.  0.
</event>
<event>
 4    0  0.2170991E-002  0.1649545E+03  0.7546771E-02  0.1183214E+00
         21   -1    0    0  502  501  0.00000000000E+00  0.00000000000E+00  0.55252950037E+02  0.55252950037E+02  0.00000000000E+00 0.  1.
         21   -1    0    0  501  502 -0.00000000000E+00 -0.00000000000E+00 -0.49246224677E+03  0.49246224677E+03  0.00000000000E+00 0.  1.
         25    1    1    2    0    0  0.73248903096E+00 -0.10084830454E+03 -0.15617415204E+03  0.22402295158E+03  0.12500000000E+03 0.  0.
         25    1    1    2    0    0 -0.73248903096E+00  0.10084830454E+03 -0.28103514469E+03  0.32369224523E+03  0.12500000000E+03 0.  0.
</event>
<event>
 4    0  0.2170991E-002  0.3256209E+03  0.7546771E-02  0.1073091E+00
         21   -1    0    0  502  501  0.00000000000E+00  0.00000000000E+00  0.39379523030E+03  0.39379523030E+03  0.00000000000E+00 0.  1.
         21   -1    0    0  501  502 -0.00000000000E+00 -0.00000000000E+00 -0.26924892592E+03  0.26924892592E+03  0.00000000000E+00 0.  1.
         25    1    1    2    0    0 -0.20745347453E+03  0.20304647798E+03  0.14204571246E+03  0.34650656667E+03  0.12500000000E+03 0.  0.
         25    1    1    2    0    0  0.20745347453E+03 -0.20304647798E+03 -0.17499408070E+02  0.31653758955E+03  0.12500000000E+03 0.  0.
</event>
<event>
 4    0  0.2170991E-002  0.2557530E+03  0.7546771E-02  0.1109722E+00
         21   -1    0    0  502  501  0.00000000000E+00  0.00000000000E+00  0.31709006915E+02  0.31709006915E+02  0.00000000000E+00 0. -1.
         21   -1    0    0  501  502 -0.00000000000E+00 -0.00000000000E+00 -0.20628073636E+04  0.20628073636E+04  0.00000000000E+00 0. -1.
         25    1    1    2    0    0 -0.16604850896E+03 -0.10929675664E+03 -0.60064460961E+03  0.64491614602E+03  0.12500000000E+03 0.  0.
         25    1    1    2    0    0  0.16604850896E+03  0.10929675664E+03 -0.14304537471E+04  0.14496002245E+04  0.12500000000E+03 0.  0.
</event>
<event>
 4    0  0.2170991E-002  0.2337868E+03  0.7546771E-02  0.1124002E+00
         21   -1    0    0  502  501  0.00000000000E+00  0.00000000000E+00  0.61933764976E+02  0.61933764976E+02  0.00000000000E+00 0. -1.
         21   -1    0    0  501  502 -0.00000000000E+00 -0.00000000000E+00 -0.88249529027E+03  0.88249529027E+03  0.00000000000E+00 0. -1.
         25    1    1    2    0    0 -0.12496036549E+03 -0.72449053397E+02 -0.13803284263E+03  0.23567355373E+03  0.12500000000E+03 0.  0.
         25    1    1    2    0    0  0.12496036549E+03  0.72449053397E+02 -0.68252868266E+03  0.70875550152E+03  0.12500000000E+03 0.  0.
</event>
<event>
 4    0  0.2170991E-002  0.2055038E+03  0.7546771E-02  0.1145177E+00
         21   -1    0    0  502  501  0.00000000000E+00  0.00000000000E+00  0.32039744827E+02  0.32039744827E+02  0.00000000000E+00 0.  1.
         21   -1    0    0  501  502 -0.00000000000E+00 -0.00000000000E+00 -0.13181071952E+04  0.13181071952E+04  0.00000000000E+00 0.  1.
         25    1    1    2    0    0 -0.13109163648E+03 -0.93978180503E+02 -0.72281873704E+03  0.75107179563E+03  0.12500000000E+03 0.  0.
         25    1    1    2    0    0  0.13109163648E+03  0.93978180503E+02 -0.56324871329E+03  0.59907514436E+03  0.12500000000E+03 0.  0.
</event>
<event>
 4    0  0.2170991E-002  0.2895149E+03  0.7546771E-02  0.1090603E+00
         21   -1    0    0  502  501  0.00000000000E+00  0.00000000000E+00  0.35005193852E+03  0.35005193852E+03  0.00000000000E+00 0. -1.
         21   -1    0    0  501  502 -0.00000000000E+00 -0.00000000000E+00 -0.23944700434E+03  0.23944700434E+03  0.00000000000E+00 0. -1.
         25    1    1    2    0    0 -0.70327497482E+02  0.25132032416E+03  0.45859761407E+02  0.29297778065E+03  0.12500000000E+03 0.  0.
         25    1    1    2    0    0  0.70327497482E+02 -0.25132032416E+03  0.64745172780E+02  0.29652116221E+03  0.12500000000E+03 0.  0.
</event>
<event>
 4    0  0.2170991E-002  0.2147613E+03  0.7546771E-02  0.1137850E+00
         21   -1    0    0  502  501  0.00000000000E+00  0.00000000000E+00  0.35210477765E+03  0.35210477765E+03  0.00000000000E+00 0. -1.
         21   -1    0    0  501  502 -0.00000000000E+00 -0.00000000000E+00 -0.13099058897E+03  0.13099058897E+03  0.00000000000E+00 0. -1.
         25    1    1    2    0    0 -0.64388622510E+02 -0.37500844856E+02  0.28819694574E+03  0.32285397257E+03  0.12500000000E+03 0.  0.
         25    1    1    2    0    0  0.64388622510E+02  0.37500844856E+02 -0.67082757054E+02  0.16024139405E+03  0.12500000000E+03 0.  0.
</event>
<event>
 4    0  0.2170991E-002  0.2048791E+03  0.7546771E-02  0.1145687E+00
         21   -1    0    0  502  501  0.00000000000E+00  0.00000000000E+00  0.44155558010E+03  0.44155558010E+03  0.00000000000E+00 0. -1.
         21   -1    0    0  501  502 -0.00000000000E+00 -0.00000000000E+00 -0.95062684050E+02  0.95062684050E+02  0.00000000000E+00 0. -1.
         25    1    1    2    0    0  0.13202684204E+02 -0.16142534089E+03  0.18747273965E+03  0.27749500836E+03  0.12500000000E+03 0.  0.
         25    1    1    2    0    0 -0.13202684204E+02  0.16142534089E+03  0.15902015640E+03  0.25912325579E+03  0.12500000000E+03 0.  0.
</event>
<event>
 4    0  0.2170991E-002  0.2433382E+03  0.7546771E-02  0.1117589E+00
         21   -1    0    0  502  501  0.00000000000E+00  0.00000000000E+00  0.20087181810E+03  0.20087181810E+03  0.00000000000E+00 0.  1.
         21   -1    0    0  501  502 -0.00000000000E+00 -0.00000000000E+00 -0.29478246055E+03  0.29478246055E+03  0.00000000000E+00 0. -1.
         25    1    1    2    0    0 -0.18416867370E+03 -0.63748588182E+02  0.29302550704E+02  0.23337871014E+03  0.12500000000E+03 0.  0.
         25    1    1    2    0    0  0.18416867370E+03  0.63748588182E+02 -0.12321319315E+03  0.26227556850E+03  0.12500000000E+03 0.  0.
</event>
<event>
 4    0  0.2170991E-002  0.2013090E+03  0.7546771E-02  0.1148639E+00
         21   -1    0    0  502  501  0.00000000000E+00  0.00000000000E+00  0.39805747238E+02  0.39805747238E+02  0.00000000000E+00 0. -1.
         21   -1    0    0  501  502 -0.00000000000E+00 -0.00000000000E+00 -0.10180768988E+04  0.10180768988E+04  0.00000000000E+00 0. -1.
         25    1    1    2    0    0 -0.16532953694E+02  0.85186236717E+02 -0.83543175707E+03  0.84917680974E+03  0.12500000000E+03 0.  0.
         25    1    1    2    0    0  0.16532953694E+02 -0.85186236717E+02 -0.14283939449E+03  0.20870583629E+03  0.12500000000E+03 0.  0.
</event>
<event>
 4    0  0.2170991E-002  0.2049876E+03  0.7546771E-02  0.1145598E+00
         21   -1    0    0  502  501  0.00000000000E+00  0.00000000000E+00  0.10441462757E+03  0.10441462757E+03  0.00000000000E+00 0.  1.
         21   -1    0    0  501  502 -0.00000000000E+00 -0.00000000000E+00 -0.40243341059E+03  0.40243341059E+03  0.00000000000E+00 0.  1.
         25    1    1    2    0    0  0.20503840471E+02 -0.97668647798E+02  0.94834788515E+01  0.16023267023E+03  0.12500000000E+03 0.  0.
         25    1    1    2    0    0 -0.20503840471E+02  0.97668647798E+02 -0.30750226186E+03  0.34661536793E+03  0.12500000000E+03 0.  0.
</event>
<event>
 4    0  0.2170991E-002  0.1823449E+03  0.7546771E-02  0.1165553E+00
         21   -1    0    0  502  501  0.00000000000E+00  0.00000000000E+00  0.36322492999E+02  0.36322492999E+02  0.00000000000E+00 0.  1.
         21   -1    0    0  501  502 -0.00000000000E+00 -0.00000000000E+00 -0.91540140281E+03  0.91540140281E+03  0.00000000000E+00 0.  1.
         25    1    1    2    0    0 -0.11997050814E+03  0.56232237346E+02 -0.46132266184E+03  0.49598244492E+03  0.12500000000E+03 0.  0.
         25    1    1    2    0    0  0.11997050814E+03 -0.56232237346E+02 -0.41775624798E+03  0.45574145090E+03  0.12500000000E+03 0.  0.
</event>
<event>
 4    0  0.2170991E-002  0.2539087E+03  0.7546771E-02  0.1110859E+00
         21   -1    0    0  502  501  0.00000000000E+00  0.00000000000E+00  0.19352281743E+03  0.19352281743E+03  0.00000000000E+00 0.  1.
         21   -1    0    0  501  502 -0.00000000000E+00 -0.00000000000E+00 -0.33313710401E+03  0.33313710401E+03  0.00000000000E+00 0.  1.
         25    1    1    2    0    0 -0.34009491403E+02 -0.12489799170E+03  0.11597211965E+03  0.21408102758E+03  0.12500000000E+03 0.  0.
         25    1    1    2    0    0  0.34009491403E+02  0.12489799170E+03 -0.25558640623E+03  0.31257889386E+03  0.12500000000E+03 0.  0.
</event>
<event>
 4    0  0.2170991E-002  0.2002187E+03  0.7546771E-02  0.1149555E+00
         21   -1    0    0  502  501  0.00000000000E+00  0.00000000000E+00  0.16266210311E+03  0.16266210311E+03  0.00000000000E+00 0.  1.
         21   -1    0    0  501  502 -0.00000000000E+00 -0.00000000000E+00 -0.24644655116E+03  0.24644655116E+03  0.00000000000E+00 0.  1.
         25    1    1    2    0    0 -0.30664281153E+02  0.65084091336E+01 -0.19844177590E+03  0.23661529104E+03  0.12500000000E+03 0.  0.
         25    1    1    2    0    0  0.30664281153E+02 -0.65084091336E+01  0.11465732785E+03  0.17249336323E+03  0.12500000000E+03 0.  0.
</event>
<event>
 4    0  0.2170991E-002  0.1952621E+03  0.7546771E-02  0.1153799E+00
         21   -1    0    0  502  501  0.00000000000E+00  0.00000000000E+00  0.18750971621E+04  0.18750971621E+04  0.00000000000E+00 0. -1.
         21   -1    0    0  501  502 -0.00000000000E+00 -0.00000000000E+00 -0.20333501043E+02  0.20333501043E+02  0.00000000000E+00 0. -1.
         25    1    1    2    0    0  0.67949461542E+02  0.87844359865E+02  0.14168100513E+04  0.14266427312E+04  0.12500000000E+03 0.  0.
         25    1    1    2    0    0 -0.67949461542E+02 -0.87844359865E+02  0.43795360979E+03  0.46878793203E+03  0.12500000000E+03 0.  0.
</event>
<event>
 4    0  0.2170991E-002  0.3232574E+03  0.7546771E-02  0.1074160E+00
         21   -1    0    0  502  501  0.00000000000E+00  0.00000000000E+00  0.74852099934E+03  0.74852099934E+03  0.00000000000E+00 0.  1.
         21   -1    0    0  501  502 -0.00000000000E+00 -0.00000000000E+00 -0.13960240626E+03  0.13960240626E+03  0.00000000000E+00 0. -1.
         25    1    1    2    0    0  0.12995447374E+03  0.14015600388E+03  0.61873105217E+03  0.65953391542E+03  0.12500000000E+03 0.  0.
         25    1    1    2    0    0 -0.12995447374E+03 -0.14015600388E+03 -0.98124590860E+01  0.22858949019E+03  0.12500000000E+03 0.  0.
</event>
<event>
 4    0  0.2170991E-002  0.2094246E+03  0.7546771E-02  0.1142022E+00
         21   -1    0    0  502  501  0.00000000000E+00  0.00000000000E+00  0.79438987889E+03  0.79438987889E+03  0.00000000000E+00 0. -1.
         21   -1    0    0  501  502 -0.00000000000E+00 -0.00000000000E+00 -0.55210485607E+02  0.55210485607E+02  0.00000000000E+00 0. -1.
         25    1    1    2    0    0  0.93693749453E+01 -0.16600939247E+03  0.32045563721E+03  0.38205198467E+03  0.12500000000E+03 0.  0.
         25    1    1    2    0    0 -0.93693749453E+01  0.16600939247E+03  0.41872375608E+03  0.46754837983E+03  0.12500000000E+03 0.  0.
</event>
<event>
 4    0  0.2170991E-002  0.2073867E+03  0.7546771E-02  0.1143652E+00
         21   -1    0    0  502  501  0.00000000000E+00  0.00000000000E+00  0.11653735349E+04  0.11653735349E+04  0.00000000000E+00 0. -1.
         21   -1    0    0  501  502 -0.00000000000E+00 -0.00000000000E+00 -0.36905971640E+02  0.36905971640E+02  0.00000000000E+00 0. -1.
         25    1    1    2    0    0 -0.13111076681E+03  0.35377851254E+01  0.27174813287E+03  0.32661077266E+03  0.12500000000E+03 0.  0.
         25    1    1    2    0    0  0.13111076681E+03 -0.35377851254E+01  0.85671943035E+03  0.87566873384E+03  0.12500000000E+03 0.  0.
</event>
<event>
 4    0  0.2170991E-002  0.1655647E+03  0.7546771E-02  0.1182554E+00
         21   -1    0    0  502  501  0.00000000000E+00  0.00000000000E+00  0.35522014051E+03  0.35522014051E+03  0.00000000000E+00 0. -1.
         21   -1    0    0  501  502 -0.00000000000E+00 -0.00000000000E+00 -0.77168081473E+02  0.77168081473E+02  0.00000000000E+00 0. -1.
         25    1    1    2    0    0  0.93106813811E+02  0.54563848736E+02  0.12354450043E+03  0.20623854139E+03  0.12500000000E+03 0.  0.
         25    1    1    2    0    0 -0.93106813811E+02 -0.54563848736E+02  0.15450755860E+03  0.22614968059E+03  0.12500000000E+03 0.  0.
</event>
<event>
 4    0  0.2170991E-002  0.1652075E+03  0.7546771E-02  0.1182940E+00
         21   -1    0    0  502  501  0.00000000000E+00  0.00000000000E+00  0.87309344491E+01  0.87309344491E+01  0.00000000000E+00 0. -1.
         21   -1    0    0  501  502 -0.00000000000E+00 -0.00000000000E+00 -0.31260709732E+04  0.31260709732E+04  0.00000000000E+00 0. -1.
         25    1    1    2    0    0 -0.10667673869E+03  0.16368000205E+02 -0.15155226435E+04  0.15244939229E+04  0.12500000000E+03 0.  0.
         25    1    1    2    0    0  0.10667673869E+03 -0.16368000205E+02 -0.16018173953E+04  0.16103079848E+04  0.12500000000E+03 0.  0.
</event>
<event>
 4    0  0.2170991E-002  0.2598914E+03  0.7546771E-02  0.1107208E+00
         21   -1    0    0  502  501  0.00000000000E+00  0.00000000000E+00  0.59200677319E+03  0.59200677319E+03  0.00000000000E+00 0. -1.
         21   -1    0    0  501  502 -0.00000000000E+00 -0.00000000000E+00 -0.11409252702E+03  0.11409252702E+03  0.00000000000E+00 0. -1.
         25    1    1    2    0    0  0.17361323397E+03 -0.67451734444E+02  0.41725735899E+03  0.47372987569E+03  0.12500000000E+03 0.  0.
         25    1    1    2    0    0 -0.17361323397E+03  0.67451734444E+02  0.60656887182E+02  0.23236942452E+03  0.12500000000E+03 0.  0.
</event>
<event>
 4    0  0.2170991E-002  0.1980259E+03  0.7546771E-02  0.1151415E+00
         21   -1    0    0  502  501  0.00000000000E+00  0.00000000000E+00  0.22365443825E+03  0.22365443825E+03  0.00000000000E+00 0. -1.
         21   -1    0    0  501  502 -0.00000000000E+00 -0.00000000000E+00 -0.17533418847E+03  0.17533418847E+03  0.00000000000E+00 0. -1.
         25    1    1    2    0    0 -0.66067087006E+02 -0.96728251114E+02  0.12423481049E+03  0.21161404180E+03  0.12500000000E+03 0.  0.
         25    1    1    2    0    0  0.66067087006E+02  0.96728251114E+02 -0.75914560710E+02  0.18737458493E+03  0.12500000000E+03 0.  0.
</event>
<event>
 4    0  0.2170991E-002  0.1848734E+03  0.7546771E-02  0.1163168E+00
         21   -1    0    0  502  501  0.00000000000E+00  0.00000000000E+00  0.20222319207E+03  0.20222319207E+03  0.00000000000E+00 0. -1.
         21   -1    0    0  501  502 -0.00000000000E+00 -0.00000000000E+00 -0.16901206362E+03  0.16901206362E+03  0.00000000000E+00 0. -1.
         25    1    1    2    0    0  0.70209379629E+01  0.10580754096E+03 -0.69229130076E+02  0.17793875841E+03  0.12500000000E+03 0.  0.
         25    1    1    2    0    0 -0.70209379629E+01 -0.10580754096E+03  0.10244025852E+03  0.19329649728E+03  0.12500000000E+03 0.  0.
</event>
<event>
 4    0  0.2170991E-002  0.1706111E+03  0.7546771E-02  0.1177212E+00
         21   -1    0    0  502  501  0.00000000000E+00  0.00000000000E+00  0.10855826373E+03  0.10855826373E+03  0.00000000000E+00 0.  1.
         21   -1    0    0  501  502 -0.00000000000E+00 -0.00000000000E+00 -0.26813394080E+03  0.26813394080E+03  0.00000000000E+00 0.  1.
         25    1    1    2    0    0 -0.71725460234E+02 -0.64348239691E+02 -0.15131421843E+03  0.21864635899E+03  0.12500000000E+03 0.  0.
         25    1    1    2    0    0  0.71725460234E+02  0.64348239691E+02 -0.82614586321E+01  0.15804584555E+03  0.12500000000E+03 0.  0.
</event>
<event>
 4    0  0.2170991E-002  0.2736184E+03  0.7546771E-02  0.1099226E+00
         21   -1    0    0  502  501  0.00000000000E+00  0.00000000000E+00  0.10461268434E+03  0.10461268434E+03  0.00000000000E+00 0.  1.
         21   -1    0    0  501  502 -0.00000000000E+00 -0.00000000000E+00 -0.71565899537E+03  0.71565899537E+03  0.00000000000E+00 0.  1.
         25    1    1    2    0    0 -0.23811525178E+03 -0.48516835851E+02 -0.28490248307E+03  0.39477484893E+03  0.12500000000E+03 0.  0.
         25    1    1    2    0    0  0.23811525178E+03  0.48516835851E+02 -0.32614382796E+03  0.42549683078E+03  0.12500000000E+03 0.  0.
</event>
<event>
 4    0  0.2170991E-002  0.2127572E+03  0.7546771E-02  0.1139401E+00
         21   -1    0    0  502  501  0.00000000000E+00  0.00000000000E+00  0.27439193823E+03  0.27439193823E+03  0.00000000000E+00 0.  1.
         21   -1    0    0  501  502 -0.00000000000E+00 -0.00000000000E+00 -0.16496704357E+03  0.16496704357E+03  0.00000000000E+00 0. -1.
         25    1    1    2    0    0  0.17024361652E+03  0.14484405050E+02  0.32859244054E+02  0.21423682427E+03  0.12500000000E+03 0.  0.
         25    1    1    2    0    0 -0.17024361652E+03 -0.14484405050E+02  0.76565650604E+02  0.22512215752E+03  0.12500000000E+03 0.  0.
</event>
<event>
 4    0  0.2170991E-002  0.3432241E+03  0.7546771E-02  0.1065431E+00
         21   -1    0    0  502  501  0.00000000000E+00  0.00000000000E+00  0.18343123764E+03  0.18343123764E+03  0.00000000000E+00 0. -1.
         21   -1    0    0  501  502 -0.00000000000E+00 -0.00000000000E+00 -0.64221777332E+03  0.64221777332E+03  0.00000000000E+00 0. -1.
         25    1    1    2    0    0 -0.30033262681E+02 -0.31782092916E+03 -0.24899758211E+03  0.42371799086E+03  0.12500000000E+03 0.  0.
         25    1    1    2    0    0  0.30033262681E+02  0.31782092916E+03 -0.20978895357E+03  0.40193102010E+03  0.12500000000E+03 0.  0.
</event>
<event>
 4    0  0.2170991E-002  0.1613311E+03  0.7546771E-02  0.1187202E+00
         21   -1    0    0  502  501  0.00000000000E+00  0.00000000000E+00  0.93303599460E+02  0.93303599460E+02  0.00000000000E+00 0. -1.
         21   -1    0    0  501  502 -0.00000000000E+00 -0.00000000000E+00 -0.27895721677E+03  0.27895721677E+03  0.00000000000E+00 0. -1.
         25    1    1    2    0    0 -0.40909122835E+02  0.90716762968E+02 -0.11861503141E+03  0.19899149000E+03  0.12500000000E+03 0.  0.
         25    1    1    2    0    0  0.40909122835E+02 -0.90716762968E+02 -0.67038585901E+02  0.17326932624E+03  0.12500000000E+03 0.  0.
</event>
<event>
 4    0  0.2170991E-002  0.1788389E+03  0.7546771E-02  0.1168932E+00
         21   -1    0    0  502  501  0.00000000000E+00  0.00000000000E+00  0.78750073111E+02  0.78750073111E+02  0.00000000000E+00 0.  1.
         21   -1    0    0  501  502 -0.00000000000E+00 -0.00000000000E+00 -0.40613721210E+03  0.40613721210E+03  0.00000000000E+00 0.  1.
         25    1    1    2    0    0 -0.86947363585E+01  0.12756396059E+03 -0.15936976280E+03  0.23952428640E+03  0.12500000000E+03 0.  0.
         25    1    1    2    0    0  0.86947363585E+01 -0.12756396059E+03 -0.16801737619E+03  0.24536299881E+03  0.12500000000E+03 0.  0.
</event>
<event>
 4    0  0.2170991E-002  0.2858204E+03  0.7546771E-02  0.1092552E+00
         21   -1    0    0  502  501  0.00000000000E+00  0.00000000000E+00  0.58898079676E+03  0.58898079676E+03  0.00000000000E+00 0. -1.
         21   -1    0    0  501  502 -0.00000000000E+00 -0.00000000000E+00 -0.13870285500E+03  0.13870285500E+03  0.00000000000E+00 0. -1.
         25    1    1    2    0    0 -0.20929286378E+03 -0.84202193278E+02  0.68326381398E+02  0.26680893272E+03  0.12500000000E+03 0.  0.
         25    1    1    2    0    0  0.20929286378E+03  0.84202193278E+02  0.38195156036E+03  0.46087471904E+03  0.12500000000E+03 0.  0.
</event>
<event>
 4    0  0.2170991E-002  0.2172555E+03  0.7546771E-02  0.1135946E+00
         21   -1    0    0  502  501  0.00000000000E+00  0.00000000000E+00  0.16655690857E+03  0.16655690857E+03  0.00000000000E+00 0. -1.
         21   -1    0    0  501  502 -0.00000000000E+00 -0.00000000000E+00 -0.28338643924E+03  0.28338643924E+03  0.00000000000E+00 0. -1.
         25    1    1    2    0    0 -0.41465959873E+02  0.71340739644E+02  0.10454683726E+03  0.18265806345E+03  0.12500000000E+03 0.  0.
         25    1    1    2    0    0  0.41465959873E+02 -0.71340739644E+02 -0.22137636793E+03  0.26728528437E+03  0.12500000000E+03 0.  0.
</event>
<event>
 4    0  0.2170991E-002  0.2319856E+03  0.7546771E-02  0.1125250E+00
         21   -1    0    0  502  501  0.00000000000E+00  0.00000000000E+00  0.84941450208E+02  0.84941450208E+02  0.00000000000E+00 0.  1.
         21   -1    0    0  501  502 -0.00000000000E+00 -0.00000000000E+00 -0.63358114983E+03  0.63358114983E+03  0.00000000000E+00 0.  1.
         25    1    1    2    0    0 -0.13240163260E+03 -0.45988370636E+02 -0.63414104353E+02  0.19822076374E+03  0.12500000000E+03 0.  0.
         25    1    1    2    0    0  0.13240163260E+03  0.45988370636E+02 -0.48522559527E+03  0.52030183630E+03  0.12500000000E+03 0.  0.
</event>
<event>
 4    0  0.2170991E-002  0.3918723E+03  0.7546771E-02  0.1046631E+00
         21   -1    0    0  502  501  0.00000000000E+00  0.00000000000E+00  0.18037626694E+03  0.18037626694E+03  0.00000000000E+00 0. -1.
         21   -1    0    0  501  502 -0.00000000000E+00 -0.00000000000E+00 -0.85135333413E+03  0.85135333413E+03  0.00000000000E+00 0.  1.
         25    1    1    2    0    0 -0.89733906602E+02  0.35181628377E+03 -0.23257197627E+03  0.44893384331E+03  0.12500000000E+03 0.  0.
         25    1    1    2    0    0  0.89733906602E+02 -0.35181628377E+03 -0.43840509091E+03  0.58279575776E+03  0.12500000000E+03 0.  0.
</event>
<event>
 4    0  0.2170991E-002  0.3060610E+03  0.7546771E-02  0.1082249E+00
         21   -1    0    0  502  501  0.00000000000E+00  0.00000000000E+00  0.25679940480E+03  0.25679940480E+03  0.00000000000E+00 0.  1.
         21   -1    0    0  501  502 -0.00000000000E+00 -0.00000000000E+00 -0.36477239846E+03  0.36477239846E+03  0.00000000000E+00 0.  1.
         25    1    1    2    0    0 -0.18534991492E+03  0.10137846959E+03 -0.23960938380E+03  0.34303038038E+03  0.12500000000E+03 0.  0.
         25    1    1    2    0    0  0.18534991492E+03 -0.10137846959E+03  0.13163639014E+03  0.27854142289E+03  0.12500000000E+03 0.  0.
</event>
<event>
 4    0  0.2170991E-002  0.3179570E+03  0.7546771E-02  0.1076593E+00
         21   -1    0    0  502  501  0.00000000000E+00  0.00000000000E+00  0.97583326975E+02  0.97583326975E+02  0.00000000000E+00 0.  1.
         21   -1    0    0  501  502 -0.00000000000E+00 -0.00000000000E+00 -0.10360034984E+04  0.10360034984E+04  0.00000000000E+00 0.  1.
         25    1    1    2    0    0 -0.26811694250E+03 -0.99663654478E+02 -0.57693829552E+03  0.65597434075E+03  0.12500000000E+03 0.  0.
         25    1    1    2    0    0  0.26811694250E+03  0.99663654478E+02 -0.36148187595E+03  0.47761248468E+03  0.12500000000E+03 0.  0.
</event>
<event>
 4    0  0.2170991E-002  0.1996281E+03  0.7546771E-02  0.1150053E+00
         21   -1    0    0  502  501  0.00000000000E+00  0.00000000000E+00  0.57261083627E+03  0.57261083627E+03  0.00000000000E+00 0. -1.
         21   -1    0    0  501  502 -0.00000000000E+00 -0.00000000000E+00 -0.69595898609E+02  0.69595898609E+02  0.00000000000E+00 0. -1.
         25    1    1    2    0    0  0.89998394841E+02  0.77482993662E+00  0.45576934374E+03  0.48109355236E+03  0.12500000000E+03 0.  0.
         25    1    1    2    0    0 -0.89998394841E+02 -0.77482993662E+00  0.47245593927E+02  0.16111318252E+03  0.12500000000E+03 0.  0.
</event>
<event>
 4    0  0.2170991E-002  0.2014779E+03  0.7546771E-02  0.1148498E+00
         21   -1    0    0  502  501  0.00000000000E+00  0.00000000000E+00  0.14229185846E+04  0.14229185846E+04  0.00000000000E+00 0.  1.
         21   -1    0    0  501  502 -0.00000000000E+00 -0.00000000000E+00 -0.28528225114E+02  0.28528225114E+02  0.00000000000E+00 0.  1.
         25    1    1    2    0    0 -0.11292614539E+03  0.10989198795E+03  0.65460948713E+03  0.68481175805E+03  0.12500000000E+03 0.  0.
         25    1    1    2    0    0  0.11292614539E+03 -0.10989198795E+03  0.73978087237E+03  0.76663505168E+03  0.12500000000E+03 0.  0.
</event>
<event>
 4    0  0.2170991E-002  0.2342735E+03  0.7546771E-02  0.1123668E+00
         21   -1    0    0  502  501  0.00000000000E+00  0.00000000000E+00  0.21482771292E+02  0.21482771292E+02  0.00000000000E+00 0.  1.
         21   -1    0    0  501  502 -0.00000000000E+00 -0.00000000000E+00 -0.25547940204E+04  0.25547940204E+04  0.00000000000E+00 0.  1.
         25    1    1    2    0    0  0.13624785211E+03  0.14384768547E+03 -0.12564845283E+04  0.12781369268E+04  0.12500000000E+03 0.  0.
         25    1    1    2    0    0 -0.13624785211E+03 -0.14384768547E+03 -0.12768267208E+04  0.12981398649E+04  0.12500000000E+03 0.  0.
</event>
<event>
 4    0  0.2170991E-002  0.2272043E+03  0.7546771E-02  0.1128623E+00
         21   -1    0    0  502  501  0.00000000000E+00  0.00000000000E+00  0.21139401011E+03  0.21139401011E+03  0.00000000000E+00 0.  1.
         21   -1    0    0  501  502 -0.00000000000E+00 -0.00000000000E+00 -0.24419702275E+03  0.24419702275E+03  0.00000000000E+00 0.  1.
         25    1    1    2    0    0 -0.81324973253E+02  0.35661285133E+02 -0.18450207712E+03  0.23989892662E+03  0.12500000000E+03 0.  0.
         25    1    1    2    0    0  0.81324973253E+02 -0.35661285133E+02  0.15169906447E+03  0.21569210624E+03  0.12500000000E+03 0.  0.
</event>
<event>
 4    0  0.2170991E-002  0.1900504E+03  0.7546771E-02  0.1158416E+00
         21   -1    0    0  502  501  0.00000000000E+00  0.00000000000E+00  0.26030193566E+03  0.26030193566E+03  0.00000000000E+00 0. -1.
         21   -1    0    0  501  502 -0.00000000000E+00 -0.00000000000E+00 -0.13875862433E+03  0.13875862433E+03  0.00000000000E+00 0. -1.
         25    1    1    2    0    0  0.12000897617E+03 -0.28110741123E+02  0.13721691838E+03  0.22281348885E+03  0.12500000000E+03 0.  0.
         25    1    1    2    0    0 -0.12000897617E+03  0.28110741123E+02 -0.15673607049E+02  0.17624707114E+03  0.12500000000E+03 0.  0.
</event>
<event>
 4    0  0.2170991E-002  0.1786267E+03  0.7546771E-02  0.1169139E+00
         21   -1    0    0  502  501  0.00000000000E+00  0.00000000000E+00  0.64440043938E+02  0.64440043938E+02  0.00000000000E+00 0. -1.
         21   -1    0    0  501  502 -0.00000000000E+00 -0.00000000000E+00 -0.49515025564E+03  0.49515025564E+03  0.00000000000E+00 0. -1.
         25    1    1    2    0    0  0.73720129581E+02  0.74356536848E+02 -0.32959211015E+03  0.36772205693E+03  0.12500000000E+03 0.  0.
         25    1    1    2    0    0 -0.73720129581E+02 -0.74356536848E+02 -0.10111810156E+03  0.19186824266E+03  0.12500000000E+03 0.  0.
</event>
<event>
 4    0  0.2170991E-002  0.2108756E+03  0.7546771E-02  0.1140874E+00
         21   -1    0    0  502  501  0.00000000000E+00  0.00000000000E+00  0.16378287401E+04  0.16378287401E+04  0.00000000000E+00 0.  1.
         21   -1    0    0  501  502 -0.00000000000E+00 -0.00000000000E+00 -0.27150902021E+02  0.27150902021E+02  0.00000000000E+00 0.  1.
         25    1    1    2    0    0 -0.88930371289E+02  0.13994264139E+03  0.66023604141E+03  0.69211934245E+03  0.12500000000E+03 0.  0.
         25    1    1    2    0    0  0.88930371289E+02 -0.13994264139E+03  0.95044179662E+03  0.97286029962E+03  0.12500000000E+03 0.  0.
</event>
<event>
 4    0  0.2170991E-002  0.1370651E+03  0.7546771E-02  0.1217334E+00
         21   -1    0    0  502  501  0.00000000000E+00  0.00000000000E+00  0.19775098412E+03  0.19775098412E+03  0.00000000000E+00 0. -1.
         21   -1    0    0  501  502 -0.00000000000E+00 -0.00000000000E+00 -0.95002490945E+02  0.95002490945E+02  0.00000000000E+00 0. -1.
         25    1    1    2    0    0 -0.17494352979E+02  0.22853294428E+02 -0.21392452711E+00  0.12827069508E+03  0.12500000000E+03 0.  0.
         25    1    1    2    0    0  0.17494352979E+02 -0.22853294428E+02  0.10296241770E+03  0.16448277998E+03  0.12500000000E+03 0.  0.
</event>
<event>
 4    0  0.2170991E-002  0.1706642E+03  0.7546771E-02  0.1177157E+00
         21   -1    0    0  502  501  0.00000000000E+00  0.00000000000E+00  0.89074959780E+02  0.89074959780E+02  0.00000000000E+00 0. -1.
         21   -1    0    0  501  502 -0.00000000000E+00 -0.00000000000E+00 -0.32698610861E+03  0.32698610861E+03  0.00000000000E+00 0. -1.
         25    1    1    2    0    0  0.83586958841E+02 -0.80036333190E+02 -0.10624808554E+03  0.20076416513E+03  0.12500000000E+03 0.  0.
         25    1    1    2    0    0 -0.83586958841E+02  0.80036333190E+02 -0.13166306328E+03  0.21529690326E+03  0.12500000000E+03 0.  0.
</event>
<event>
 4    0  0.2170991E-002  0.2865964E+03  0.7546771E-02  0.1092140E+00
         21   -1    0    0  502  501  0.00000000000E+00  0.00000000000E+00  0.25271358588E+03  0.25271358588E+03  0.00000000000E+00 0.  1.
         21   -1    0    0  501  502 -0.00000000000E+00 -0.00000000000E+00 -0.32502210727E+03  0.32502210727E+03  0.00000000000E+00 0.  1.
         25    1    1    2    0    0 -0.14713165222E+03 -0.25128095618E+02  0.17582990041E+03  0.26233623111E+03  0.12500000000E+03 0.  0.
         25    1    1    2    0    0  0.14713165222E+03  0.25128095618E+02 -0.24813842180E+03  0.31539946203E+03  0.12500000000E+03 0.  0.
</event>
<event>
 4    0  0.2170991E-002  0.2528597E+03  0.7546771E-02  0.1111511E+00
         21   -1    0    0  502  501  0.00000000000E+00  0.00000000000E+00  0.32937182385E+03  0.32937182385E+03  0.00000000000E+00 0. -1.
         21   -1    0    0  501  502 -0.00000000000E+00 -0.00000000000E+00 -0.19412108984E+03  0.19412108984E+03  0.00000000000E+00 0. -1.
         25    1    1    2    0    0 -0.13805319440E+03 -0.17097930017E+03  0.72302096553E+02  0.26295474656E+03  0.12500000000E+03 0.  0.
         25    1    1    2    0    0  0.13805319440E+03  0.17097930017E+03  0.62948637465E+02  0.26053816713E+03  0.12500000000E+03 0.  0.
</event>
<event>
 4    0  0.2170991E-002  0.2296550E+03  0.7546771E-02  0.1126883E+00
         21   -1    0    0  502  501  0.00000000000E+00  0.00000000000E+00  0.31827349049E+03  0.31827349049E+03  0.00000000000E+00 0.  1.
         21   -1    0    0  501  502 -0.00000000000E+00 -0.00000000000E+00 -0.16571095771E+03  0.16571095771E+03  0.00000000000E+00 0.  1.
         25    1    1    2    0    0 -0.15775780291E+03  0.45897547767E+01 -0.40143272919E+02  0.20529265108E+03  0.12500000000E+03 0.  0.
         25    1    1    2    0    0  0.15775780291E+03 -0.45897547767E+01  0.19270580570E+03  0.27869179711E+03  0.12500000000E+03 0.  0.
</event>
<event>
 4    0  0.2170991E-002  0.2880583E+03  0.7546771E-02  0.1091367E+00
         21   -1    0    0  502  501  0.00000000000E+00  0.00000000000E+00  0.66747199575E+03  0.66747199575E+03  0.00000000000E+00 0.  1.
         21   -1    0    0  501  502 -0.00000000000E+00 -0.00000000000E+00 -0.12431621184E+03  0.12431621184E+03  0.00000000000E+00 0.  1.
         25    1    1    2    0    0 -0.15050146921E+03 -0.14007283647E+03  0.53919526679E+02  0.24658346885E+03  0.12500000000E+03 0.  0.
         25    1    1    2    0    0  0.15050146921E+03  0.14007283647E+03  0.48923625723E+03  0.54520473874E+03  0.12500000000E+03 0.  0.
</event>
<event>
 4    0  0.2170991E-002  0.2184080E+03  0.7546771E-02  0.1135076E+00
         21   -1    0    0  502  501  0.00000000000E+00  0.00000000000E+00  0.80511419314E+03  0.80511419314E+03  0.00000000000E+00 0.  1.
         21   -1    0    0  501  502 -0.00000000000E+00 -0.00000000000E+00 -0.59248819411E+02  0.59248819411E+02  0.00000000000E+00 0.  1.
         25    1    1    2    0    0 -0.93671751994E+02 -0.12069137901E+03  0.18798012729E+03  0.27258454532E+03  0.12500000000E+03 0.  0.
         25    1    1    2    0    0  0.93671751994E+02  0.12069137901E+03  0.55788524644E+03  0.59177846723E+03  0.12500000000E+03 0.  0.
</event>
<event>
 4    0  0.2170991E-002  0.1546924E+03  0.7546771E-02  0.1194823E+00
         21   -1    0    0  502  501  0.00000000000E+00  0.00000000000E+00  0.79989172969E+02  0.79989172969E+02  0.00000000000E+00 0.  1.
         21   -1    0    0  501  502 -0.00000000000E+00 -0.00000000000E+00 -0.29916241278E+03  0.29916241278E+03  0.00000000000E+00 0.  1.
         25    1    1    2    0    0  0.81374356154E+02  0.17224846010E+02 -0.63957917471E+02  0.16319955995E+03  0.12500000000E+03 0.  0.
         25    1    1    2    0    0 -0.81374356154E+02 -0.17224846010E+02 -0.15521532234E+03  0.21595202581E+03  0.12500000000E+03 0.  0.
</event>
<event>
 4    0  0.2170991E-002  0.3230085E+03  0.7546771E-02  0.1074273E+00
         21   -1    0    0  502  501  0.00000000000E+00  0.00000000000E+00  0.36027383736E+03  0.36027383736E+03  0.00000000000E+00 0.  1.
         21   -1    0    0  501  502 -0.00000000000E+00 -0.00000000000E+00 -0.28959780118E+03  0.28959780118E+03  0.00000000000E+00 0.  1.
         25    1    1    2    0    0  0.14393973963E+03  0.10705624278E+03 -0.20384063171E+03  0.29892422267E+03  0.12500000000E+03 0.  0.
         25    1    1    2    0    0 -0.14393973963E+03 -0.10705624278E+03  0.27451666789E+03  0.35094741587E+03  0.12500000000E+03 0.  0.
</event>
<event>
 4    0  0.2170991E-002  0.2600954E+03  0.7546771E-02  0.1107086E+00
         21   -1    0    0  502  501  0.00000000000E+00  0.00000000000E+00  0.69722574222E+03  0.69722574222E+03  0.00000000000E+00 0.  1.
         21   -1    0    0  501  502 -0.00000000000E+00 -0.00000000000E+00 -0.97026865353E+02  0.97026865353E+02  0.00000000000E+00 0.  1.
         25    1    1    2    0    0  0.19547061723E+02  0.72446720486E+02 -0.28772575479E+02  0.14860510096E+03  0.12500000000E+03 0.  0.
         25    1    1    2    0    0 -0.19547061723E+02 -0.72446720486E+02  0.62897145235E+03  0.64564750662E+03  0.12500000000E+03 0.  0.
</event>
<event>
 4    0  0.2170991E-002  0.2417142E+03  0.7546771E-02  0.1118656E+00
         21   -1    0    0  502  501  0.00000000000E+00  0.00000000000E+00  0.18564316594E+03  0.18564316594E+03  0.00000000000E+00 0. -1.
         21   -1    0    0  501  502 -0.00000000000E+00 -0.00000000000E+00 -0.31472065923E+03  0.31472065923E+03  0.00000000000E+00 0. -1.
         25    1    1    2    0    0  0.20389968815E+03 -0.18320688361E+02 -0.33660614132E+02  0.24221636483E+03  0.12500000000E+03 0.  0.
         25    1    1    2    0    0 -0.20389968815E+03  0.18320688361E+02 -0.95416879161E+02  0.25814746034E+03  0.12500000000E+03 0.  0.
</event>
<event>
 4    0  0.2170991E-002  0.2271556E+03  0.7546771E-02  0.1128658E+00
         21   -1    0    0  502  501  0.00000000000E+00  0.00000000000E+00  0.71580918871E+02  0.71580918871E+02  0.00000000000E+00 0.  1.
         21   -1    0    0  501  502 -0.00000000000E+00 -0.00000000000E+00 -0.72085754222E+03  0.72085754222E+03  0.00000000000E+00 0.  1.
         25    1    1    2    0    0  0.98968657374E+02 -0.13560361215E+03 -0.17067295166E+03  0.27006923408E+03  0.12500000000E+03 0.  0.
         25    1    1    2    0    0 -0.98968657374E+02  0.13560361215E+03 -0.47860367169E+03  0.52236922700E+03  0.12500000000E+03 0.  0.
</event>
<event>
 4    0  0.2170991E-002  0.2011871E+03  0.7546771E-02  0.1148741E+00
         21   -1    0    0  502  501  0.00000000000E+00  0.00000000000E+00  0.99174616827E+02  0.99174616827E+02  0.00000000000E+00 0. -1.
         21   -1    0    0  501  502 -0.00000000000E+00 -0.00000000000E+00 -0.40813123247E+03  0.40813123247E+03  0.00000000000E+00 0. -1.
         25    1    1    2    0    0 -0.61909829864E+02 -0.67311941515E+02  0.74107689975E+01  0.15506013028E+03  0.12500000000E+03 0.  0.
         25    1    1    2    0    0  0.61909829864E+02  0.67311941515E+02 -0.31636738464E+03  0.35224571902E+03  0.12500000000E+03 0.  0.
</event>
<event>
 4    0  0.2170991E-002  0.2668039E+03  0.7546771E-02  0.1103123E+00
         21   -1    0    0  502  501  0.00000000000E+00  0.00000000000E+00  0.13876049693E+04  0.13876049693E+04  0.00000000000E+00 0. -1.
         21   -1    0    0  501  502 -0.00000000000E+00 -0.00000000000E+00 -0.51300121679E+02  0.51300121679E+02  0.00000000000E+00 0. -1.
         25    1    1    2    0    0 -0.18010127092E+03  0.74505051452E+02  0.31069973374E+03  0.38748779984E+03  0.12500000000E+03 0.  0.
         25    1    1    2    0    0  0.18010127092E+03 -0.74505051452E+02  0.10256051139E+04  0.10514172911E+04  0.12500000000E+03 0.  0.
</event>
<event>
 4    0  0.2170991E-002  0.2039657E+03  0.7546771E-02  0.1146436E+00
         21   -1    0    0  502  501  0.00000000000E+00  0.00000000000E+00  0.15906968060E+04  0.15906968060E+04  0.00000000000E+00 0.  1.
         21   -1    0    0  501  502 -0.00000000000E+00 -0.00000000000E+00 -0.26153326175E+02  0.26153326175E+02  0.00000000000E+00 0.  1.
         25    1    1    2    0    0 -0.36343248497E+02 -0.12566701601E+03  0.11554334105E+04  0.11695145988E+04  0.12500000000E+03 0.  0.
         25    1    1    2    0    0  0.36343248497E+02  0.12566701601E+03  0.40911006929E+03  0.44733553337E+03  0.12500000000E+03 0.  0.
</event>
<event>
 4    0  0.2170991E-002  0.2241780E+03  0.7546771E-02  0.1130806E+00
         21   -1    0    0  502  501  0.00000000000E+00  0.00000000000E+00  0.12631083725E+04  0.12631083725E+04  0.00000000000E+00 0.  1.
         21   -1    0    0  501  502 -0.00000000000E+00 -0.00000000000E+00 -0.39787379402E+02  0.39787379402E+02  0.00000000000E+00 0.  1.
         25    1    1    2    0    0  0.23380924335E+02  0.17234401301E+03  0.80401631238E+03  0.83205550116E+03  0.12500000000E+03 0.  0.
         25    1    1    2    0    0 -0.23380924335E+02 -0.17234401301E+03  0.41930468070E+03  0.47084025072E+03  0.12500000000E+03 0.  0.
</event>
<event>
 4    0  0.2170991E-002  0.2003001E+03  0.7546771E-02  0.1149486E+00
         21   -1    0    0  502  501  0.00000000000E+00  0.00000000000E+00  0.10037737646E+04  0.10037737646E+04  0.00000000000E+00 0. -1.
         21   -1    0    0  501  502 -0.00000000000E+00 -0.00000000000E+00 -0.39969299670E+02  0.39969299670E+02  0.00000000000E+00 0. -1.
         25    1    1    2    0    0  0.11437262160E+03 -0.53963429046E+01  0.75990387226E+03  0.77858147433E+03  0.12500000000E+03 0.  0.
         25    1    1    2    0    0 -0.11437262160E+03  0.53963429046E+01  0.20390059265E+03  0.26516158993E+03  0.12500000000E+03 0.  0.
</event>
<event>
 4    0  0.2170991E-002  0.2392868E+03  0.7546771E-02  0.1120269E+00
         21   -1    0    0  502  501  0.00000000000E+00  0.00000000000E+00  0.21181350951E+03  0.21181350951E+03  0.00000000000E+00 0. -1.
         21   -1    0    0  501  502 -0.00000000000E+00 -0.00000000000E+00 -0.27032356006E+03  0.27032356006E+03  0.00000000000E+00 0. -1.
         25    1    1    2    0    0  0.16900835342E+03 -0.10591212988E+02 -0.14393222379E+03  0.25498525911E+03  0.12500000000E+03 0.  0.
         25    1    1    2    0    0 -0.16900835342E+03  0.10591212988E+02  0.85422173230E+02  0.22715181046E+03  0.12500000000E+03 0.  0.
</event>
<event>
 4    0  0.2170991E-002  0.3332424E+03  0.7546771E-02  0.1069711E+00
         21   -1    0    0  502  501  0.00000000000E+00  0.00000000000E+00  0.68541906714E+03  0.68541906714E+03  0.00000000000E+00 0. -1.
         21   -1    0    0  501  502 -0.00000000000E+00 -0.00000000000E+00 -0.16201836603E+03  0.16201836603E+03  0.00000000000E+00 0. -1.
         25    1    1    2    0    0 -0.24128060646E+03 -0.11842142110E+03  0.68091239589E+02  0.30414039676E+03  0.12500000000E+03 0.  0.
         25    1    1    2    0    0  0.24128060646E+03  0.11842142110E+03  0.45530946152E+03  0.54329703642E+03  0.12500000000E+03 0.  0.
</event>
<event>
 4    0  0.2170991E-002  0.2082943E+03  0.7546771E-02  0.1142924E+00
         21   -1    0    0  502  501  0.00000000000E+00  0.00000000000E+00  0.11141457153E+03  0.11141457153E+03  0.00000000000E+00 0.  1.
         21   -1    0    0  501  502 -0.00000000000E+00 -0.00000000000E+00 -0.38941490627E+03  0.38941490627E+03  0.00000000000E+00 0.  1.
         25    1    1    2    0    0  0.30805717613E+02 -0.11723459182E+03 -0.27643485463E+03  0.32670195991E+03  0.12500000000E+03 0.  0.
         25    1    1    2    0    0 -0.30805717613E+02  0.11723459182E+03 -0.15654801109E+01  0.17412751788E+03  0.12500000000E+03 0.  0.
</event>
<event>
 4    0  0.2170991E-002  0.2888215E+03  0.7546771E-02  0.1090966E+00
         21   -1    0    0  502  501  0.00000000000E+00  0.00000000000E+00  0.13665334279E+03  0.13665334279E+03  0.00000000000E+00 0.  1.
         21   -1    0    0  501  502 -0.00000000000E+00 -0.00000000000E+00 -0.61043397351E+03  0.61043397351E+03  0.00000000000E+00 0.  1.
         25    1    1    2    0    0  0.22811103635E+03 -0.10482057164E+03 -0.14755779571E+03  0.31689162220E+03  0.12500000000E+03 0.  0.
         25    1    1    2    0    0 -0.22811103635E+03  0.10482057164E+03 -0.32622283500E+03  0.43019569410E+03  0.12500000000E+03 0.  0.
</event>
<event>
 4    0  0.2170991E-002  0.2449081E+03  0.7546771E-02  0.1116566E+00
         21   -1    0    0  502  501  0.00000000000E+00  0.00000000000E+00  0.14918567623E+04  0.14918567623E+04  0.00000000000E+00 0.  1.
         21   -1    0    0  501  502 -0.00000000000E+00 -0.00000000000E+00 -0.40204931421E+02  0.40204931421E+02  0.00000000000E+00 0.  1.
         25    1    1    2    0    0 -0.18251400853E+03 -0.10433420874E+03  0.68650866708E+03  0.72877715414E+03  0.12500000000E+03 0.  0.
         25    1    1    2    0    0  0.18251400853E+03  0.10433420874E+03  0.76514316383E+03  0.80328453961E+03  0.12500000000E+03 0.  0.
</event>
<event>
 4    0  0.2170991E-002  0.1914185E+03  0.7546771E-02  0.1157188E+00
         21   -1    0    0  502  501  0.00000000000E+00  0.00000000000E+00  0.51025380623E+03  0.51025380623E+03  0.00000000000E+00 0. -1.
         21   -1    0    0  501  502 -0.00000000000E+00 -0.00000000000E+00 -0.71809477329E+02  0.71809477329E+02  0.00000000000E+00 0.  1.
         25    1    1    2    0    0 -0.13718333003E+03 -0.14100283835E+02  0.28718183023E+03  0.34222286256E+03  0.12500000000E+03 0.  0.
         25    1    1    2    0    0  0.13718333003E+03  0.14100283835E+02  0.15126249867E+03  0.23984042100E+03  0.12500000000E+03 0.  0.
</event>
<event>
 4    0  0.2170991E-002  0.1740986E+03  0.7546771E-02  0.1173640E+00
         21   -1    0    0  502  501  0.00000000000E+00  0.00000000000E+00  0.22122867068E+03  0.22122867068E+03  0.00000000000E+00 0. -1.
         21   -1    0    0  501  502 -0.00000000000E+00 -0.00000000000E+00 -0.13700902242E+03  0.13700902242E+03  0.00000000000E+00 0. -1.
         25    1    1    2    0    0 -0.94315461314E+02 -0.70138682368E+02  0.11755112174E+02  0.17198262607E+03  0.12500000000E+03 0.  0.
         25    1    1    2    0    0  0.94315461314E+02  0.70138682368E+02  0.72464536080E+02  0.18625506704E+03  0.12500000000E+03 0.  0.
</event>
<event>
 4    0  0.2170991E-002  0.1952817E+03  0.7546771E-02  0.1153782E+00
         21   -1    0    0  502  501  0.00000000000E+00  0.00000000000E+00  0.49005016656E+03  0.49005016656E+03  0.00000000000E+00 0.  1.
         21   -1    0    0  501  502 -0.00000000000E+00 -0.00000000000E+00 -0.77818410590E+02  0.77818410590E+02  0.00000000000E+00 0.  1.
         25    1    1    2    0    0  0.13916098729E+03  0.38253269499E+02  0.14650595579E+03  0.24066177115E+03  0.12500000000E+03 0.  0.
         25    1    1    2    0    0 -0.13916098729E+03 -0.38253269499E+02  0.26572580018E+03  0.32720680600E+03  0.12500000000E+03 0.  0.
</event>
<event>
 4    0  0.2170991E-002  0.2037281E+03  0.7546771E-02  0.1146631E+00
         21   -1    0    0  502  501  0.00000000000E+00  0.00000000000E+00  0.77972938542E+03  0.77972938542E+03  0.00000000000E+00 0.  1.
         21   -1    0    0  501  502 -0.00000000000E+00 -0.00000000000E+00 -0.53230163901E+02  0.53230163901E+02  0.00000000000E+00 0.  1.
         25    1    1    2    0    0  0.12875023239E+03 -0.90409173261E+02  0.43195980469E+03  0.47640813786E+03  0.12500000000E+03 0.  0.
         25    1    1    2    0    0 -0.12875023239E+03  0.90409173261E+02  0.29453941682E+03  0.35655141146E+03  0.12500000000E+03 0.  0.
</event>
<event>
 4    0  0.2170991E-002  0.1612046E+03  0.7546771E-02  0.1187343E+00
         21   -1    0    0  502  501  0.00000000000E+00  0.00000000000E+00  0.29114459927E+03  0.29114459927E+03  0.00000000000E+00 0.  1.
         21   -1    0    0  501  502 -0.00000000000E+00 -0.00000000000E+00 -0.89257761910E+02  0.89257761910E+02  0.00000000000E+00 0.  1.
         25    1    1    2    0    0  0.12917205155E+00 -0.90007689946E+02  0.15704039854E+03  0.21997292495E+03  0.12500000000E+03 0.  0.
         25    1    1    2    0    0 -0.12917205155E+00  0.90007689946E+02  0.44846438815E+02  0.16042943623E+03  0.12500000000E+03 0.  0.
</event>
<event>
 4    0  0.2170991E-002  0.1557490E+03  0.7546771E-02  0.1193581E+00
         21   -1    0    0  502  501  0.00000000000E+00  0.00000000000E+00  0.10122075999E+03  0.10122075999E+03  0.00000000000E+00 0. -1.
         21   -1    0    0  501  502 -0.00000000000E+00 -0.00000000000E+00 -0.23965191019E+03  0.23965191019E+03  0.00000000000E+00 0. -1.
         25    1    1    2    0    0  0.56592692462E+02  0.62752681202E+02 -0.11148616708E+03  0.18760276461E+03  0.12500000000E+03 0.  0.
         25    1    1    2    0    0 -0.56592692462E+02 -0.62752681202E+02 -0.26944983116E+02  0.15326990557E+03  0.12500000000E+03 0.  0.
</event>
<event>
 4    0  0.2170991E-002  0.4828821E+03  0.7546771E-02  0.1018346E+00
         21   -1    0    0  502  501  0.00000000000E+00  0.00000000000E+00  0.11722320586E+04  0.11722320586E+04  0.00000000000E+00 0. -1.
         21   -1    0    0  501  502 -0.00000000000E+00 -0.00000000000E+00 -0.19891546156E+03  0.19891546156E+03  0.00000000000E+00 0. -1.
         25    1    1    2    0    0  0.27175656574E+02 -0.19326583861E+03  0.10881045267E+04  0.11125136681E+04  0.12500000000E+03 0.  0.
         25    1    1    2    0    0 -0.27175656574E+02  0.19326583861E+03 -0.11478792959E+03  0.25863385212E+03  0.12500000000E+03 0.  0.
</event>
<event>
 4    0  0.2170991E-002  0.3782988E+03  0.7546771E-02  0.1051564E+00
         21   -1    0    0  502  501  0.00000000000E+00  0.00000000000E+00  0.16491595087E+04  0.16491595087E+04  0.00000000000E+00 0. -1.
         21   -1    0    0  501  502 -0.00000000000E+00 -0.00000000000E+00 -0.86777504819E+02  0.86777504819E+02  0.00000000000E+00 0. -1.
         25    1    1    2    0    0 -0.20773750986E+03 -0.18220802051E+02  0.11621843731E+03  0.26947837724E+03  0.12500000000E+03 0.  0.
         25    1    1    2    0    0  0.20773750986E+03  0.18220802051E+02  0.14461635666E+04  0.14664586363E+04  0.12500000000E+03 0.  0.
</event>
<event>
 4    0  0.2170991E-002  0.1797566E+03  0.7546771E-02  0.1168039E+00
         21   -1    0    0  502  501  0.00000000000E+00  0.00000000000E+00  0.54767367094E+03  0.54767367094E+03  0.00000000000E+00 0. -1.
         21   -1    0    0  501  502 -0.00000000000E+00 -0.00000000000E+00 -0.58999421178E+02  0.58999421178E+02  0.00000000000E+00 0. -1.
         25    1    1    2    0    0  0.90392751785E+02 -0.91922113612E+02  0.23053425710E+03  0.29221835713E+03  0.12500000000E+03 0.  0.
         25    1    1    2    0    0 -0.90392751785E+02  0.91922113612E+02  0.25813999266E+03  0.31445473499E+03  0.12500000000E+03 0.  0.
</event>
<event>
 4    0  0.2170991E-002  0.2762596E+03  0.7546771E-02  0.1097750E+00
         21   -1    0    0  502  501  0.00000000000E+00  0.00000000000E+00  0.15016637775E+04  0.15016637775E+04  0.00000000000E+00 0. -1.
         21   -1    0    0  501  502 -0.00000000000E+00 -0.00000000000E+00 -0.50823221350E+02  0.50823221350E+02  0.00000000000E+00 0. -1.
         25    1    1    2    0    0  0.25268296753E+02 -0.20466887079E+03  0.34670149672E+03  0.42232068541E+03  0.12500000000E+03 0.  0.
         25    1    1    2    0    0 -0.25268296753E+02  0.20466887079E+03  0.11041390594E+04  0.11301663134E+04  0.12500000000E+03 0.  0.
</event>
<event>
 4    0  0.2170991E-002  0.2840716E+03  0.7546771E-02  0.1093486E+00
         21   -1    0    0  502  501  0.00000000000E+00  0.00000000000E+00  0.71377799181E+03  0.71377799181E+03  0.00000000000E+00 0. -1.
         21   -1    0    0  501  502 -0.00000000000E+00 -0.00000000000E+00 -0.11305568587E+03  0.11305568587E+03  0.00000000000E+00 0. -1.
         25    1    1    2    0    0  0.20110950786E+03  0.12124698608E+03  0.44535281345E+03  0.51875812691E+03  0.12500000000E+03 0.  0.
         25    1    1    2    0    0 -0.20110950786E+03 -0.12124698608E+03  0.15536949249E+03  0.30807555077E+03  0.12500000000E+03 0.  0.
</event>
<event>
 4    0  0.2170991E-002  0.1855557E+03  0.7546771E-02  0.1162532E+00
         21   -1    0    0  502  501  0.00000000000E+00  0.00000000000E+00  0.40744430411E+03  0.40744430411E+03  0.00000000000E+00 0.  1.
         21   -1    0    0  501  502 -0.00000000000E+00 -0.00000000000E+00 -0.84504615359E+02  0.84504615359E+02  0.00000000000E+00 0.  1.
         25    1    1    2    0    0  0.40523070563E+02  0.12761839257E+03  0.12220514104E+03  0.22019915955E+03  0.12500000000E+03 0.  0.
         25    1    1    2    0    0 -0.40523070563E+02 -0.12761839257E+03  0.20073454771E+03  0.27174975992E+03  0.12500000000E+03 0.  0.
</event>
<event>
 4    0  0.2170991E-002  0.2533485E+03  0.7546771E-02  0.1111207E+00
         21   -1    0    0  502  501  0.00000000000E+00  0.00000000000E+00  0.22993443644E+03  0.22993443644E+03  0.00000000000E+00 0. -1.
         21   -1    0    0  501  502 -0.00000000000E+00 -0.00000000000E+00 -0.27914678612E+03  0.27914678612E+03  0.00000000000E+00 0. -1.
         25    1    1    2    0    0 -0.90878996066E+02 -0.17812922845E+03  0.68411564099E+02  0.24554868368E+03  0.12500000000E+03 0.  0.
         25    1    1    2    0    0  0.90878996066E+02  0.17812922845E+03 -0.11762391378E+03  0.26353253888E+03  0.12500000000E+03 0.  0.
</event>
<event>
 4    0  0.2170991E-002  0.4981063E+03  0.7546771E-02  0.1014274E+00
         21   -1    0    0  502  501  0.00000000000E+00  0.00000000000E+00  0.15647189903E+03  0.15647189903E+03  0.00000000000E+00 0.  1.
         21   -1    0    0  501  502 -0.00000000000E+00 -0.00000000000E+00 -0.15856512991E+04  0.15856512991E+04  0.00000000000E+00 0.  1.
         25    1    1    2    0    0 -0.36574237923E+03 -0.13165014932E+03 -0.12134749759E+04  0.12803303350E+04  0.12500000000E+03 0.  0.
         25    1    1    2    0    0  0.36574237923E+03  0.13165014932E+03 -0.21570442421E+03  0.46179286309E+03  0.12500000000E+03 0.  0.
</event>
<event>
 4    0  0.2170991E-002  0.3092402E+03  0.7546771E-02  0.1080711E+00
         21   -1    0    0  502  501  0.00000000000E+00  0.00000000000E+00  0.88606660963E+03  0.88606660963E+03  0.00000000000E+00 0.  1.
         21   -1    0    0  501  502 -0.00000000000E+00 -0.00000000000E+00 -0.10792584339E+03  0.10792584339E+03  0.00000000000E+00 0.  1.
         25    1    1    2    0    0  0.16638565950E+03 -0.21854349074E+02  0.75500283620E+03  0.78346415549E+03  0.12500000000E+03 0.  0.
         25    1    1    2    0    0 -0.16638565950E+03  0.21854349074E+02  0.23137930037E+02  0.21052829754E+03  0.12500000000E+03 0.  0.
</event>
<event>
 4    0  0.2170991E-002  0.4091217E+03  0.7546771E-02  0.1040666E+00
         21   -1    0    0  502  501  0.00000000000E+00  0.00000000000E+00  0.80911810091E+03  0.80911810091E+03  0.00000000000E+00 0.  1.
         21   -1    0    0  501  502 -0.00000000000E+00 -0.00000000000E+00 -0.20686792308E+03  0.20686792308E+03  0.00000000000E+00 0.  1.
         25    1    1    2    0    0  0.80077509648E+02  0.34156072990E+03  0.90848682755E+02  0.38334660937E+03  0.12500000000E+03 0.  0.
         25    1    1    2    0    0 -0.80077509648E+02 -0.34156072990E+03  0.51140149508E+03  0.63263941462E+03  0.12500000000E+03 0.  0.
</event>
<event>
 4    0  0.2170991E-002  0.3018713E+03  0.7546771E-02  0.1084309E+00
         21   -1    0    0  502  501  0.00000000000E+00  0.00000000000E+00  0.11975592237E+03  0.11975592237E+03  0.00000000000E+00 0. -1.
         21   -1    0    0  501  502 -0.00000000000E+00 -0.00000000000E+00 -0.76093338630E+03  0.76093338630E+03  0.00000000000E+00 0. -1.
         25    1    1    2    0    0 -0.80779972546E+02 -0.26207492062E+03 -0.34554138040E+03  0.45851119239E+03  0.12500000000E+03 0.  0.
         25    1    1    2    0    0  0.80779972546E+02  0.26207492062E+03 -0.29563608353E+03  0.42217811628E+03  0.12500000000E+03 0.  0.
</event>
<event>
 4    0  0.2170991E-002  0.3342118E+03  0.7546771E-02  0.1069288E+00
         21   -1    0    0  502  501  0.00000000000E+00  0.00000000000E+00  0.13557556276E+03  0.13557556276E+03  0.00000000000E+00 0. -1.
         21   -1    0    0  501  502 -0.00000000000E+00 -0.00000000000E+00 -0.82387636625E+03  0.82387636625E+03  0.00000000000E+00 0. -1.
         25    1    1    2    0    0  0.28578814119E+03  0.69029411298E+02 -0.48502828678E+03  0.58079028939E+03  0.12500000000E+03 0.  0.
         25    1    1    2    0    0 -0.28578814119E+03 -0.69029411298E+02 -0.20327251672E+03  0.37866163962E+03  0.12500000000E+03 0.  0.
</event>
<event>
 4    0  0.2170991E-002  0.4354555E+03  0.7546771E-02  0.1032150E+00
         21   -1    0    0  502  501  0.00000000000E+00  0.00000000000E+00  0.46908809471E+02  0.46908809471E+02  0.00000000000E+00 0. -1.
         21   -1    0    0  501  502 -0.00000000000E+00 -0.00000000000E+00 -0.40423434686E+04  0.40423434686E+04  0.00000000000E+00 0. -1.
         25    1    1    2    0    0 -0.28415106881E+03 -0.30318902119E+03 -0.18264097419E+04  0.18772487736E+04  0.12500000000E+03 0.  0.
         25    1    1    2    0    0  0.28415106881E+03  0.30318902119E+03 -0.21690249173E+04  0.22120035045E+04  0.12500000000E+03 0.  0.
</event>
<event>
 4    0  0.2170991E-002  0.2376614E+03  0.7546771E-02  0.1121361E+00
         21   -1    0    0  502  501  0.00000000000E+00  0.00000000000E+00  0.75429458102E+02  0.75429458102E+02  0.00000000000E+00 0.  1.
         21   -1    0    0  501  502 -0.00000000000E+00 -0.00000000000E+00 -0.74881819559E+03  0.74881819559E+03  0.00000000000E+00 0.  1.
         25    1    1    2    0    0 -0.61434421391E+02  0.19192585242E+03 -0.30937340889E+03  0.38980331846E+03  0.12500000000E+03 0.  0.
         25    1    1    2    0    0  0.61434421391E+02 -0.19192585242E+03 -0.36401532860E+03  0.43444433523E+03  0.12500000000E+03 0.  0.
</event>
<event>
 4    0  0.2170991E-002  0.2885551E+03  0.7546771E-02  0.1091106E+00
         21   -1    0    0  502  501  0.00000000000E+00  0.00000000000E+00  0.26260001343E+03  0.26260001343E+03  0.00000000000E+00 0. -1.
         21   -1    0    0  501  502 -0.00000000000E+00 -0.00000000000E+00 -0.31707563828E+03  0.31707563828E+03  0.00000000000E+00 0. -1.
         25    1    1    2    0    0  0.10622726137E+03 -0.23739074348E+03 -0.27926955636E+02  0.28990258881E+03  0.12500000000E+03 0.  0.
         25    1    1    2    0    0 -0.10622726137E+03  0.23739074348E+03 -0.26548669214E+02  0.28977306290E+03  0.12500000000E+03 0.  0.
</event>
<event>
 4    0  0.2170991E-002  0.1487726E+03  0.7546771E-02  0.1201989E+00
         21   -1    0    0  502  501  0.00000000000E+00  0.00000000000E+00  0.25469371523E+03  0.25469371523E+03  0.00000000000E+00 0. -1.
         21   -1    0    0  501  502 -0.00000000000E+00 -0.00000000000E+00 -0.86901609575E+02  0.86901609575E+02  0.00000000000E+00 0. -1.
         25    1    1    2    0    0  0.52223525189E+02 -0.56803038050E+02  0.11092787009E+03  0.18407572919E+03  0.12500000000E+03 0.  0.
         25    1    1    2    0    0 -0.52223525189E+02  0.56803038050E+02  0.56864235563E+02  0.15751959561E+03  0.12500000000E+03 0.  0.
</event>
<event>
 4    0  0.2170991E-002  0.2752505E+03  0.7546771E-02  0.1098312E+00
         21   -1    0    0  502  501  0.00000000000E+00  0.00000000000E+00  0.12928680874E+03  0.12928680874E+03  0.00000000000E+00 0.  1.
         21   -1    0    0  501  502 -0.00000000000E+00 -0.00000000000E+00 -0.58600610017E+03  0.58600610017E+03  0.00000000000E+00 0.  1.
         25    1    1    2    0    0 -0.13496181229E+03 -0.17123555570E+03 -0.37422017008E+03  0.45077937177E+03  0.12500000000E+03 0.  0.
         25    1    1    2    0    0  0.13496181229E+03  0.17123555570E+03 -0.82499121346E+02  0.26451353715E+03  0.12500000000E+03 0.  0.
</event>
<event>
 4    0  0.2170991E-002  0.1968714E+03  0.7546771E-02  0.1152406E+00
         21   -1    0    0  502  501  0.00000000000E+00  0.00000000000E+00  0.64178658813E+03  0.64178658813E+03  0.00000000000E+00 0.  1.
         21   -1    0    0  501  502 -0.00000000000E+00 -0.00000000000E+00 -0.60391359971E+02  0.60391359971E+02  0.00000000000E+00 0.  1.
         25    1    1    2    0    0  0.15770636540E+02  0.14310557166E+03  0.20323299959E+03  0.27866928381E+03  0.12500000000E+03 0.  0.
         25    1    1    2    0    0 -0.15770636540E+02 -0.14310557166E+03  0.37816222857E+03  0.42350866430E+03  0.12500000000E+03 0.  0.
</event>
<event>
 4    0  0.2170991E-002  0.2462937E+03  0.7546771E-02  0.1115670E+00
         21   -1    0    0  502  501  0.00000000000E+00  0.00000000000E+00  0.88595544814E+03  0.88595544814E+03  0.00000000000E+00 0. -1.
         21   -1    0    0  501  502 -0.00000000000E+00 -0.00000000000E+00 -0.68469094346E+02  0.68469094346E+02  0.00000000000E+00 0. -1.
         25    1    1    2    0    0  0.15429053391E+03  0.13068474647E+03  0.53358515677E+03  0.58414226977E+03  0.12500000000E+03 0.  0.
         25    1    1    2    0    0 -0.15429053391E+03 -0.13068474647E+03  0.28390119703E+03  0.37028227272E+03  0.12500000000E+03 0.  0.
</event>
<event>
 4    0  0.2170991E-002  0.2398824E+03  0.7546771E-02  0.1119871E+00
         21   -1    0    0  502  501  0.00000000000E+00  0.00000000000E+00  0.14783194923E+03  0.14783194923E+03  0.00000000000E+00 0. -1.
         21   -1    0    0  501  502 -0.00000000000E+00 -0.00000000000E+00 -0.38924977171E+03  0.38924977171E+03  0.00000000000E+00 0. -1.
         25    1    1    2    0    0  0.14841234638E+03 -0.54845750578E+01 -0.27847956838E+03  0.33945865010E+03  0.12500000000E+03 0.  0.
         25    1    1    2    0    0 -0.14841234638E+03  0.54845750578E+01  0.37061745902E+02  0.19762307085E+03  0.12500000000E+03 0.  0.
</event>
<event>
 4    0  0.2170991E-002  0.2277028E+03  0.7546771E-02  0.1128267E+00
         21   -1    0    0  502  501  0.00000000000E+00  0.00000000000E+00  0.25883904363E+03  0.25883904363E+03  0.00000000000E+00 0.  1.
         21   -1    0    0  501  502 -0.00000000000E+00 -0.00000000000E+00 -0.20031208082E+03  0.20031208082E+03  0.00000000000E+00 0.  1.
         25    1    1    2    0    0 -0.11151558052E+03  0.15372272912E+03  0.16623014105E+02  0.22796431024E+03  0.12500000000E+03 0.  0.
         25    1    1    2    0    0  0.11151558052E+03 -0.15372272912E+03  0.41903948704E+02  0.23118681420E+03  0.12500000000E+03 0.  0.
</event>
<event>
 4    0  0.2170991E-002  0.1812414E+03  0.7546771E-02  0.1166607E+00
         21   -1    0    0  502  501  0.00000000000E+00  0.00000000000E+00  0.22516260416E+03  0.22516260416E+03  0.00000000000E+00 0.  1.
         21   -1    0    0  501  502 -0.00000000000E+00 -0.00000000000E+00 -0.14588772123E+03  0.14588772123E+03  0.00000000000E+00 0.  1.
         25    1    1    2    0    0  0.25062595408E+02  0.11761056840E+03  0.93444844100E+02  0.19702111150E+03  0.12500000000E+03 0.  0.
         25    1    1    2    0    0 -0.25062595408E+02 -0.11761056840E+03 -0.14169961172E+02  0.17402921389E+03  0.12500000000E+03 0.  0.
</event>
<event>
 4    0  0.2170991E-002  0.2178275E+03  0.7546771E-02  0.1135513E+00
         21   -1    0    0  502  501  0.00000000000E+00  0.00000000000E+00  0.90018714980E+02  0.90018714980E+02  0.00000000000E+00 0.  1.
         21   -1    0    0  501  502 -0.00000000000E+00 -0.00000000000E+00 -0.52709956632E+03  0.52709956632E+03  0.00000000000E+00 0.  1.
         25    1    1    2    0    0  0.12553522482E+03 -0.87646425390E+02 -0.88846034427E+02  0.21670165294E+03  0.12500000000E+03 0.  0.
         25    1    1    2    0    0 -0.12553522482E+03  0.87646425390E+02 -0.34823481692E+03  0.40041662836E+03  0.12500000000E+03 0.  0.
</event>
<event>
 4    0  0.2170991E-002  0.2632623E+03  0.7546771E-02  0.1105199E+00
         21   -1    0    0  502  501  0.00000000000E+00  0.00000000000E+00  0.68593459214E+02  0.68593459214E+02  0.00000000000E+00 0. -1.
         21   -1    0    0  501  502 -0.00000000000E+00 -0.00000000000E+00 -0.10104029102E+04  0.10104029102E+04  0.00000000000E+00 0. -1.
         25    1    1    2    0    0 -0.10258841856E+03 -0.13762423902E+03 -0.78981128248E+03  0.81785798078E+03  0.12500000000E+03 0.  0.
         25    1    1    2    0    0  0.10258841856E+03  0.13762423902E+03 -0.15199816850E+03  0.26113838863E+03  0.12500000000E+03 0.  0.
</event>
<event>
 4    0  0.2170991E-002  0.1892848E+03  0.7546771E-02  0.1159108E+00
         21   -1    0    0  502  501  0.00000000000E+00  0.00000000000E+00  0.56736142555E+02  0.56736142555E+02  0.00000000000E+00 0. -1.
         21   -1    0    0  501  502 -0.00000000000E+00 -0.00000000000E+00 -0.63149729254E+03  0.63149729254E+03  0.00000000000E+00 0. -1.
         25    1    1    2    0    0 -0.10845561549E+03  0.91470605266E+02 -0.30304356765E+03  0.35719727890E+03  0.12500000000E+03 0.  0.
         25    1    1    2    0    0  0.10845561549E+03 -0.91470605266E+02 -0.27171758233E+03  0.33103615619E+03  0.12500000000E+03 0.  0.
</event>
<event>
 4    0  0.2170991E-002  0.2097269E+03  0.7546771E-02  0.1141782E+00
         21   -1    0    0  502  501  0.00000000000E+00  0.00000000000E+00  0.88433081645E+02  0.88433081645E+02  0.00000000000E+00 0. -1.
         21   -1    0    0  501  502 -0.00000000000E+00 -0.00000000000E+00 -0.49738609212E+03  0.49738609212E+03  0.00000000000E+00 0. -1.
         25    1    1    2    0    0 -0.64740470642E+02  0.79884854897E+02 -0.39074372543E+03  0.42294039479E+03  0.12500000000E+03 0.  0.
         25    1    1    2    0    0  0.64740470642E+02 -0.79884854897E+02 -0.18209285052E+02  0.16287877898E+03  0.12500000000E+03 0.  0.
</event>
<event>
 4    0  0.2170991E-002  0.2394597E+03  0.7546771E-02  0.1120153E+00
         21   -1    0    0  502  501  0.00000000000E+00  0.00000000000E+00  0.62080109247E+03  0.62080109247E+03  0.00000000000E+00 0.  1.
         21   -1    0    0  501  502 -0.00000000000E+00 -0.00000000000E+00 -0.92366067143E+02  0.92366067143E+02  0.00000000000E+00 0.  1.
         25    1    1    2    0    0  0.19016406064E+03  0.24998101645E+02  0.15967469418E+03  0.27912055282E+03  0.12500000000E+03 0.  0.
         25    1    1    2    0    0 -0.19016406064E+03 -0.24998101645E+02  0.36876033115E+03  0.43404660680E+03  0.12500000000E+03 0.  0.
</event>
<event>
 4    0  0.2170991E-002  0.2336202E+03  0.7546771E-02  0.1124117E+00
         21   -1    0    0  502  501  0.00000000000E+00  0.00000000000E+00  0.19073034384E+04  0.19073034384E+04  0.00000000000E+00 0. -1.
         21   -1    0    0  501  502 -0.00000000000E+00 -0.00000000000E+00 -0.28615471441E+02  0.28615471441E+02  0.00000000000E+00 0. -1.
         25    1    1    2    0    0 -0.80572324843E+01 -0.15904509871E+03  0.14224099793E+04  0.14367447274E+04  0.12500000000E+03 0.  0.
         25    1    1    2    0    0  0.80572324843E+01  0.15904509871E+03  0.45627798764E+03  0.49917418245E+03  0.12500000000E+03 0.  0.
</event>
<event>
 4    0  0.2170991E-002  0.1708237E+03  0.7546771E-02  0.1176992E+00
         21   -1    0    0  502  501  0.00000000000E+00  0.00000000000E+00  0.75331040394E+02  0.75331040394E+02  0.00000000000E+00 0. -1.
         21   -1    0    0  501  502 -0.00000000000E+00 -0.00000000000E+00 -0.38736690304E+03  0.38736690304E+03  0.00000000000E+00 0. -1.
         25    1    1    2    0    0 -0.10076602357E+03  0.56494871171E+02 -0.17565734354E+03  0.24459346744E+03  0.12500000000E+03 0.  0.
         25    1    1    2    0    0  0.10076602357E+03 -0.56494871171E+02 -0.13637851911E+03  0.21810447600E+03  0.12500000000E+03 0.  0.
</event>
<event>
 4    0  0.2170991E-002  0.1758473E+03  0.7546771E-02  0.1171884E+00
         21   -1    0    0  502  501  0.00000000000E+00  0.00000000000E+00  0.12784400560E+03  0.12784400560E+03  0.00000000000E+00 0.  1.
         21   -1    0    0  501  502 -0.00000000000E+00 -0.00000000000E+00 -0.24187504682E+03  0.24187504682E+03  0.00000000000E+00 0.  1.
         25    1    1    2    0    0 -0.23540832882E+02  0.62186400343E+02 -0.16664815032E+03  0.21867310124E+03  0.12500000000E+03 0.  0.
         25    1    1    2    0    0  0.23540832882E+02 -0.62186400343E+02  0.52617109096E+02  0.15104595119E+03  0.12500000000E+03 0.  0.
</event>
<event>
 4    0  0.2170991E-002  0.4609008E+03  0.7546771E-02  0.1024520E+00
         21   -1    0    0  502  501  0.00000000000E+00  0.00000000000E+00  0.49218848856E+03  0.49218848856E+03  0.00000000000E+00 0. -1.
         21   -1    0    0  501  502 -0.00000000000E+00 -0.00000000000E+00 -0.43160198681E+03  0.43160198681E+03  0.00000000000E+00 0. -1.
         25    1    1    2    0    0  0.23288563241E+03  0.20178566129E+03  0.35012343952E+03  0.48287119793E+03  0.12500000000E+03 0.  0.
         25    1    1    2    0    0 -0.23288563241E+03 -0.20178566129E+03 -0.28953693777E+03  0.44091927744E+03  0.12500000000E+03 0.  0.
</event>
<event>
 4    0  0.2170991E-002  0.3608105E+03  0.7546771E-02  0.1058263E+00
         21   -1    0    0  502  501  0.00000000000E+00  0.00000000000E+00  0.10056313494E+04  0.10056313494E+04  0.00000000000E+00 0. -1.
         21   -1    0    0  501  502 -0.00000000000E+00 -0.00000000000E+00 -0.12945520352E+03  0.12945520352E+03  0.00000000000E+00 0. -1.
         25    1    1    2    0    0  0.21077658203E+03 -0.26423536592E+03  0.46587733731E+03  0.58899387905E+03  0.12500000000E+03 0.  0.
         25    1    1    2    0    0 -0.21077658203E+03  0.26423536592E+03  0.41029880856E+03  0.54609267386E+03  0.12500000000E+03 0.  0.
</event>
<event>
 4    0  0.2170991E-002  0.2163893E+03  0.7546771E-02  0.1136604E+00
         21   -1    0    0  502  501  0.00000000000E+00  0.00000000000E+00  0.18921498560E+03  0.18921498560E+03  0.00000000000E+00 0. -1.
         21   -1    0    0  501  502 -0.00000000000E+00 -0.00000000000E+00 -0.24746630901E+03  0.24746630901E+03  0.00000000000E+00 0. -1.
         25    1    1    2    0    0  0.11321251522E+03  0.11670350162E+03 -0.98759239295E+02  0.22762945381E+03  0.12500000000E+03 0.  0.
         25    1    1    2    0    0 -0.11321251522E+03 -0.11670350162E+03  0.40507915890E+02  0.20905184081E+03  0.12500000000E+03 0.  0.
</event>
<event>
 4    0  0.2170991E-002  0.3059838E+03  0.7546771E-02  0.1082287E+00
         21   -1    0    0  502  501  0.00000000000E+00  0.00000000000E+00  0.96326072003E+02  0.96326072003E+02  0.00000000000E+00 0.  1.
         21   -1    0    0  501  502 -0.00000000000E+00 -0.00000000000E+00 -0.97197021962E+03  0.97197021962E+03  0.00000000000E+00 0. -1.
         25    1    1    2    0    0  0.19356110258E+03 -0.19968065158E+03 -0.39287949926E+03  0.49731032967E+03  0.12500000000E+03 0.  0.
         25    1    1    2    0    0 -0.19356110258E+03  0.19968065158E+03 -0.48276464836E+03  0.57098596196E+03  0.12500000000E+03 0.  0.
</event>
<event>
 4    0  0.2170991E-002  0.2576951E+03  0.7546771E-02  0.1108536E+00
         21   -1    0    0  502  501  0.00000000000E+00  0.00000000000E+00  0.13855515071E+03  0.13855515071E+03  0.00000000000E+00 0.  1.
         21   -1    0    0  501  502 -0.00000000000E+00 -0.00000000000E+00 -0.47928034869E+03  0.47928034869E+03  0.00000000000E+00 0.  1.
         25    1    1    2    0    0  0.87937254378E+02  0.20611400751E+03 -0.14184753294E+03  0.29319220214E+03  0.12500000000E+03 0.  0.
         25    1    1    2    0    0 -0.87937254378E+02 -0.20611400751E+03 -0.19887766505E+03  0.32464329726E+03  0.12500000000E+03 0.  0.
</event>
<event>
 4    0  0.2170991E-002  0.1479034E+03  0.7546771E-02  0.1203073E+00
         21   -1    0    0  502  501  0.00000000000E+00  0.00000000000E+00  0.19099662730E+03  0.19099662730E+03  0.00000000000E+00 0. -1.
         21   -1    0    0  501  502 -0.00000000000E+00 -0.00000000000E+00 -0.11453295737E+03  0.11453295737E+03  0.00000000000E+00 0. -1.
         25    1    1    2    0    0  0.73110387847E+02  0.24518228526E+02  0.20219116243E+02  0.14825682110E+03  0.12500000000E+03 0.  0.
         25    1    1    2    0    0 -0.73110387847E+02 -0.24518228526E+02  0.56244553682E+02  0.15727276357E+03  0.12500000000E+03 0.  0.
</event>
<event>
 4    0  0.2170991E-002  0.1438065E+03  0.7546771E-02  0.1208297E+00
         21   -1    0    0  502  501  0.00000000000E+00  0.00000000000E+00  0.23618423639E+02  0.23618423639E+02  0.00000000000E+00 0. -1.
         21   -1    0    0  501  502 -0.00000000000E+00 -0.00000000000E+00 -0.87560061100E+03  0.87560061100E+03  0.00000000000E+00 0. -1.
         25    1    1    2    0    0  0.43477164920E+02  0.53515974991E+02 -0.37174107033E+03  0.39820930027E+03  0.12500000000E+03 0.  0.
         25    1    1    2    0    0 -0.43477164920E+02 -0.53515974991E+02 -0.48024111703E+03  0.50100973437E+03  0.12500000000E+03 0.  0.
</event>
<event>
 4    0  0.2170991E-002  0.1923003E+03  0.7546771E-02  0.1156403E+00
         21   -1    0    0  502  501  0.00000000000E+00  0.00000000000E+00  0.11342401035E+03  0.11342401035E+03  0.00000000000E+00 0. -1.
         21   -1    0    0  501  502 -0.00000000000E+00 -0.00000000000E+00 -0.32602797646E+03  0.32602797646E+03  0.00000000000E+00 0. -1.
         25    1    1    2    0    0 -0.10475944454E+03  0.32803714736E+01 -0.22265348758E+03  0.27601608212E+03  0.12500000000E+03 0.  0.
         25    1    1    2    0    0  0.10475944454E+03 -0.32803714736E+01  0.10049521473E+02  0.16343590468E+03  0.12500000000E+03 0.  0.
</event>
<event>
 4    0  0.2170991E-002  0.3023500E+03  0.7546771E-02  0.1084072E+00
         21   -1    0    0  502  501  0.00000000000E+00  0.00000000000E+00  0.91548780567E+03  0.91548780567E+03  0.00000000000E+00 0. -1.
         21   -1    0    0  501  502 -0.00000000000E+00 -0.00000000000E+00 -0.99854421648E+02  0.99854421648E+02  0.00000000000E+00 0. -1.
         25    1    1    2    0    0 -0.12873889004E+03 -0.21740567942E+03  0.22425372237E+03  0.36021335795E+03  0.12500000000E+03 0.  0.
         25    1    1    2    0    0  0.12873889004E+03  0.21740567942E+03  0.59137966165E+03  0.65512886936E+03  0.12500000000E+03 0.  0.
</event>
<event>
 4    0  0.2170991E-002  0.2299069E+03  0.7546771E-02  0.1126705E+00
         21   -1    0    0  502  501  0.00000000000E+00  0.00000000000E+00  0.68076698742E+02  0.68076698742E+02  0.00000000000E+00 0.  1.
         21   -1    0    0  501  502 -0.00000000000E+00 -0.00000000000E+00 -0.77643559839E+03  0.77643559839E+03  0.00000000000E+00 0.  1.
         25    1    1    2    0    0  0.69193677498E+02  0.15157164336E+02 -0.68382775475E+03  0.69875811466E+03  0.12500000000E+03 0.  0.
         25    1    1    2    0    0 -0.69193677498E+02 -0.15157164336E+02 -0.24531144892E+02  0.14575418247E+03  0.12500000000E+03 0.  0.
</event>
<event>
 4    0  0.2170991E-002  0.2264817E+03  0.7546771E-02  0.1129141E+00
         21   -1    0    0  502  501  0.00000000000E+00  0.00000000000E+00  0.48511908052E+03  0.48511908052E+03  0.00000000000E+00 0. -1.
         21   -1    0    0  501  502 -0.00000000000E+00 -0.00000000000E+00 -0.10573479793E+03  0.10573479793E+03  0.00000000000E+00 0. -1.
         25    1    1    2    0    0 -0.95420380483E+02 -0.13047028349E+03  0.31710801779E+03  0.37724002814E+03  0.12500000000E+03 0.  0.
         25    1    1    2    0    0  0.95420380483E+02  0.13047028349E+03  0.62276264802E+02  0.21361385031E+03  0.12500000000E+03 0.  0.
</event>
<event>
 4    0  0.2170991E-002  0.7512250E+03  0.7546771E-02  0.9633430E-01
         21   -1    0    0  502  501  0.00000000000E+00  0.00000000000E+00  0.34495638485E+03  0.34495638485E+03  0.00000000000E+00 0. -1.
         21   -1    0    0  501  502 -0.00000000000E+00 -0.00000000000E+00 -0.16359720422E+04  0.16359720422E+04  0.00000000000E+00 0. -1.
         25    1    1    2    0    0 -0.89624756347E+02 -0.72230834954E+03 -0.82701629331E+03  0.11087573667E+04  0.12500000000E+03 0.  0.
         25    1    1    2    0    0  0.89624756347E+02  0.72230834954E+03 -0.46399936408E+03  0.87217106042E+03  0.12500000000E+03 0.  0.
</event>
<event>
 4    0  0.2170991E-002  0.2742450E+03  0.7546771E-02  0.1098874E+00
         21   -1    0    0  502  501  0.00000000000E+00  0.00000000000E+00  0.11828777663E+04  0.11828777663E+04  0.00000000000E+00 0. -1.
         21   -1    0    0  501  502 -0.00000000000E+00 -0.00000000000E+00 -0.63582510531E+02  0.63582510531E+02  0.00000000000E+00 0. -1.
         25    1    1    2    0    0 -0.23088538162E+02 -0.21592774799E+03  0.30630926923E+03  0.39573759155E+03  0.12500000000E+03 0.  0.
         25    1    1    2    0    0  0.23088538162E+02  0.21592774799E+03  0.81298598657E+03  0.85072268531E+03  0.12500000000E+03 0.  0.
</event>
<event>
 4    0  0.2170991E-002  0.1589227E+03  0.7546771E-02  0.1189918E+00
         21   -1    0    0  502  501  0.00000000000E+00  0.00000000000E+00  0.98536911142E+02  0.98536911142E+02  0.00000000000E+00 0. -1.
         21   -1    0    0  501  502 -0.00000000000E+00 -0.00000000000E+00 -0.25631446553E+03  0.25631446553E+03  0.00000000000E+00 0. -1.
         25    1    1    2    0    0 -0.23192003264E+02  0.35281033441E+02  0.20019474421E+02  0.13344811611E+03  0.12500000000E+03 0.  0.
         25    1    1    2    0    0  0.23192003264E+02 -0.35281033441E+02 -0.17779702881E+03  0.22140326057E+03  0.12500000000E+03 0.  0.
</event>
<event>
 4    0  0.2170991E-002  0.2051685E+03  0.7546771E-02  0.1145450E+00
         21   -1    0    0  502  501  0.00000000000E+00  0.00000000000E+00  0.66571455586E+03  0.66571455586E+03  0.00000000000E+00 0.  1.
         21   -1    0    0  501  502 -0.00000000000E+00 -0.00000000000E+00 -0.63231501109E+02  0.63231501109E+02  0.00000000000E+00 0.  1.
         25    1    1    2    0    0 -0.14906532908E+03  0.25649562079E+02  0.19479102630E+03  0.27649035480E+03  0.12500000000E+03 0.  0.
         25    1    1    2    0    0  0.14906532908E+03 -0.25649562079E+02  0.40769202845E+03  0.45245570217E+03  0.12500000000E+03 0.  0.
</event>
<event>
 4    0  0.2170991E-002  0.2374298E+03  0.7546771E-02  0.1121517E+00
         21   -1    0    0  502  501  0.00000000000E+00  0.00000000000E+00  0.12442426980E+03  0.12442426980E+03  0.00000000000E+00 0.  1.
         21   -1    0    0  501  502 -0.00000000000E+00 -0.00000000000E+00 -0.45307001900E+03  0.45307001900E+03  0.00000000000E+00 0.  1.
         25    1    1    2    0    0 -0.84441575523E+02 -0.53385479613E+02 -0.37764146789E+03  0.41014444697E+03  0.12500000000E+03 0.  0.
         25    1    1    2    0    0  0.84441575523E+02  0.53385479613E+02  0.48995718688E+02  0.16734984183E+03  0.12500000000E+03 0.  0.
</event>
<event>
 4    0  0.2170991E-002  0.2599216E+03  0.7546771E-02  0.1107190E+00
         21   -1    0    0  502  501  0.00000000000E+00  0.00000000000E+00  0.13083224233E+03  0.13083224233E+03  0.00000000000E+00 0. -1.
         21   -1    0    0  501  502 -0.00000000000E+00 -0.00000000000E+00 -0.51638048993E+03  0.51638048993E+03  0.00000000000E+00 0.  1.
         25    1    1    2    0    0 -0.70157157299E+02 -0.19253086193E+03 -0.31692693945E+03  0.39756489340E+03  0.12500000000E+03 0.  0.
         25    1    1    2    0    0  0.70157157299E+02  0.19253086193E+03 -0.68621308145E+02  0.24964783886E+03  0.12500000000E+03 0.  0.
</event>
<event>
 4    0  0.2170991E-002  0.5191019E+03  0.7546771E-02  0.1008910E+00
         21   -1    0    0  502  501  0.00000000000E+00  0.00000000000E+00  0.66964019212E+03  0.66964019212E+03  0.00000000000E+00 0.  1.
         21   -1    0    0  501  502 -0.00000000000E+00 -0.00000000000E+00 -0.40240539887E+03  0.40240539887E+03  0.00000000000E+00 0.  1.
         25    1    1    2    0    0 -0.32312209522E+03 -0.32733287097E+03 -0.78724023885E+02  0.48309126340E+03  0.12500000000E+03 0.  0.
         25    1    1    2    0    0  0.32312209522E+03  0.32733287097E+03  0.34595881713E+03  0.58895432759E+03  0.12500000000E+03 0.  0.
</event>
<event>
 4    0  0.2170991E-002  0.1943170E+03  0.7546771E-02  0.1154624E+00
         21   -1    0    0  502  501  0.00000000000E+00  0.00000000000E+00  0.15883848830E+04  0.15883848830E+04  0.00000000000E+00 0. -1.
         21   -1    0    0  501  502 -0.00000000000E+00 -0.00000000000E+00 -0.23772015910E+02  0.23772015910E+02  0.00000000000E+00 0. -1.
         25    1    1    2    0    0 -0.62888383920E+02  0.67817274681E+02  0.29889604076E+03  0.33692428639E+03  0.12500000000E+03 0.  0.
         25    1    1    2    0    0  0.62888383920E+02 -0.67817274681E+02  0.12657168263E+04  0.12752326125E+04  0.12500000000E+03 0.  0.
</event>
<event>
 4    0  0.2170991E-002  0.2652557E+03  0.7546771E-02  0.1104026E+00
         21   -1    0    0  502  501  0.00000000000E+00  0.00000000000E+00  0.46385934262E+03  0.46385934262E+03  0.00000000000E+00 0.  1.
         21   -1    0    0  501  502 -0.00000000000E+00 -0.00000000000E+00 -0.15168515989E+03  0.15168515989E+03  0.00000000000E+00 0.  1.
         25    1    1    2    0    0  0.14350605709E+03  0.10049780143E+02  0.37016079010E+03  0.41634000172E+03  0.12500000000E+03 0.  0.
         25    1    1    2    0    0 -0.14350605709E+03 -0.10049780143E+02 -0.57986607376E+02  0.19920450080E+03  0.12500000000E+03 0.  0.
</event>
<event>
 4    0  0.2170991E-002  0.3087591E+03  0.7546771E-02  0.1080942E+00
         21   -1    0    0  502  501  0.00000000000E+00  0.00000000000E+00  0.31908347801E+03  0.31908347801E+03  0.00000000000E+00 0.  1.
         21   -1    0    0  501  502 -0.00000000000E+00 -0.00000000000E+00 -0.29876882616E+03  0.29876882616E+03  0.00000000000E+00 0.  1.
         25    1    1    2    0    0 -0.73833351355E+02 -0.20743866268E+03  0.18695898390E+03  0.31473929562E+03  0.12500000000E+03 0.  0.
         25    1    1    2    0    0  0.73833351355E+02  0.20743866268E+03 -0.16664433205E+03  0.30311300855E+03  0.12500000000E+03 0.  0.
</event>
<event>
 4    0  0.2170991E-002  0.2127068E+03  0.7546771E-02  0.1139440E+00
         21   -1    0    0  502  501  0.00000000000E+00  0.00000000000E+00  0.15385843225E+03  0.15385843225E+03  0.00000000000E+00 0.  1.
         21   -1    0    0  501  502 -0.00000000000E+00 -0.00000000000E+00 -0.29406364108E+03  0.29406364108E+03  0.00000000000E+00 0.  1.
         25    1    1    2    0    0  0.15216254352E+03  0.67036799344E+02 -0.11685699906E+03  0.23859574671E+03  0.12500000000E+03 0.  0.
         25    1    1    2    0    0 -0.15216254352E+03 -0.67036799344E+02 -0.23348209768E+02  0.20932632662E+03  0.12500000000E+03 0.  0.
</event>
<event>
 4    0  0.2170991E-002  0.1752845E+03  0.7546771E-02  0.1172446E+00
         21   -1    0    0  502  501  0.00000000000E+00  0.00000000000E+00  0.28112323312E+02  0.28112323312E+02  0.00000000000E+00 0. -1.
         21   -1    0    0  501  502 -0.00000000000E+00 -0.00000000000E+00 -0.10929249189E+04  0.10929249189E+04  0.00000000000E+00 0. -1.
         25    1    1    2    0    0 -0.78453256159E+02  0.79890091894E+02 -0.69427506788E+03  0.71426900399E+03  0.12500000000E+03 0.  0.
         25    1    1    2    0    0  0.78453256159E+02 -0.79890091894E+02 -0.37053752772E+03  0.40676823823E+03  0.12500000000E+03 0.  0.
</event>
<event>
 4    0  0.2170991E-002  0.2547416E+03  0.7546771E-02  0.1110344E+00
         21   -1    0    0  502  501  0.00000000000E+00  0.00000000000E+00  0.61536016522E+03  0.61536016522E+03  0.00000000000E+00 0.  1.
         21   -1    0    0  501  502 -0.00000000000E+00 -0.00000000000E+00 -0.10545578444E+03  0.10545578444E+03  0.00000000000E+00 0.  1.
         25    1    1    2    0    0 -0.13426261038E+03  0.83510495425E+02  0.47535140306E+03  0.51631812653E+03  0.12500000000E+03 0.  0.
         25    1    1    2    0    0  0.13426261038E+03 -0.83510495425E+02  0.34552977719E+02  0.20449782312E+03  0.12500000000E+03 0.  0.
</event>
<event>
 4    0  0.2170991E-002  0.2227046E+03  0.7546771E-02  0.1131883E+00
         21   -1    0    0  502  501  0.00000000000E+00  0.00000000000E+00  0.20085539917E+03  0.20085539917E+03  0.00000000000E+00 0.  1.
         21   -1    0    0  501  502 -0.00000000000E+00 -0.00000000000E+00 -0.24693067016E+03  0.24693067016E+03  0.00000000000E+00 0.  1.
         25    1    1    2    0    0  0.14352469669E+03  0.11467669463E+03 -0.80491732457E+01  0.22235078602E+03  0.12500000000E+03 0.  0.
         25    1    1    2    0    0 -0.14352469669E+03 -0.11467669463E+03 -0.38026097751E+02  0.22543528331E+03  0.12500000000E+03 0.  0.
</event>
<event>
 4    0  0.2170991E-002  0.1390457E+03  0.7546771E-02  0.1214619E+00
         21   -1    0    0  502  501  0.00000000000E+00  0.00000000000E+00  0.38911109584E+02  0.38911109584E+02  0.00000000000E+00 0.  1.
         21   -1    0    0  501  502 -0.00000000000E+00 -0.00000000000E+00 -0.49686829259E+03  0.49686829259E+03  0.00000000000E+00 0.  1.
         25    1    1    2    0    0 -0.55446092615E+02  0.24511646407E+02 -0.24014750088E+03  0.27743632093E+03  0.12500000000E+03 0.  0.
         25    1    1    2    0    0  0.55446092615E+02 -0.24511646407E+02 -0.21780968213E+03  0.25834308124E+03  0.12500000000E+03 0.  0.
</event>
<event>
 4    0  0.2170991E-002  0.1739430E+03  0.7546771E-02  0.1173797E+00
         21   -1    0    0  502  501  0.00000000000E+00  0.00000000000E+00  0.23656887005E+02  0.23656887005E+02  0.00000000000E+00 0.  1.
         21   -1    0    0  501  502 -0.00000000000E+00 -0.00000000000E+00 -0.12789584939E+04  0.12789584939E+04  0.00000000000E+00 0.  1.
         25    1    1    2    0    0  0.23162363700E+02  0.91838040451E+02 -0.34593910287E+03  0.37982836079E+03  0.12500000000E+03 0.  0.
         25    1    1    2    0    0 -0.23162363700E+02 -0.91838040451E+02 -0.90936250401E+03  0.92278702010E+03  0.12500000000E+03 0.  0.
</event>
<event>
 4    0  0.2170991E-002  0.2768929E+03  0.7546771E-02  0.1097398E+00
         21   -1    0    0  502  501  0.00000000000E+00  0.00000000000E+00  0.30103048056E+03  0.30103048056E+03  0.00000000000E+00 0. -1.
         21   -1    0    0  501  502 -0.00000000000E+00 -0.00000000000E+00 -0.25469080354E+03  0.25469080354E+03  0.00000000000E+00 0. -1.
         25    1    1    2    0    0  0.24140879177E+03 -0.49369884047E+02  0.41374485760E+02  0.27937866466E+03  0.12500000000E+03 0.  0.
         25    1    1    2    0    0 -0.24140879177E+03  0.49369884047E+02  0.49651912655E+01  0.27634261944E+03  0.12500000000E+03 0.  0.
</event>
<event>
 4    0  0.2170991E-002  0.1785488E+03  0.7546771E-02  0.1169215E+00
         21   -1    0    0  502  501  0.00000000000E+00  0.00000000000E+00  0.35487907906E+03  0.35487907906E+03  0.00000000000E+00 0.  1.
         21   -1    0    0  501  502 -0.00000000000E+00 -0.00000000000E+00 -0.89832472871E+02  0.89832472871E+02  0.00000000000E+00 0.  1.
         25    1    1    2    0    0 -0.17331608404E+02  0.83878153075E+02  0.14913589017E+02  0.15226077745E+03  0.12500000000E+03 0.  0.
         25    1    1    2    0    0  0.17331608404E+02 -0.83878153075E+02  0.25013301717E+03  0.29245077448E+03  0.12500000000E+03 0.  0.
</event>
<event>
 4    0  0.2170991E-002  0.6186791E+03  0.7546771E-02  0.9867393E-01
         21   -1    0    0  502  501  0.00000000000E+00  0.00000000000E+00  0.46080842820E+03  0.46080842820E+03  0.00000000000E+00 0.  1.
         21   -1    0    0  501  502 -0.00000000000E+00 -0.00000000000E+00 -0.83063536426E+03  0.83063536426E+03  0.00000000000E+00 0.  1.
         25    1    1    2    0    0 -0.77001449854E+02  0.60005229860E+03 -0.22025801973E+03  0.65584341088E+03  0.12500000000E+03 0.  0.
         25    1    1    2    0    0  0.77001449854E+02 -0.60005229860E+03 -0.14956891633E+03  0.63560038159E+03  0.12500000000E+03 0.  0.
</event>
<event>
 4    0  0.2170991E-002  0.3988628E+03  0.7546771E-02  0.1044174E+00
         21   -1    0    0  502  501  0.00000000000E+00  0.00000000000E+00  0.92976396270E+02  0.92976396270E+02  0.00000000000E+00 0.  1.
         21   -1    0    0  501  502 -0.00000000000E+00 -0.00000000000E+00 -0.17110957935E+04  0.17110957935E+04  0.00000000000E+00 0.  1.
         25    1    1    2    0    0 -0.36641608524E+03 -0.81083561944E+02 -0.92506550432E+03  0.10060847275E+04  0.12500000000E+03 0.  0.
         25    1    1    2    0    0  0.36641608524E+03  0.81083561944E+02 -0.69305389293E+03  0.79798746234E+03  0.12500000000E+03 0.  0.
</event>
<event>
 4    0  0.2170991E-002  0.2197771E+03  0.7546771E-02  0.1134049E+00
         21   -1    0    0  502  501  0.00000000000E+00  0.00000000000E+00  0.36039645674E+03  0.36039645674E+03  0.00000000000E+00 0.  1.
         21   -1    0    0  501  502 -0.00000000000E+00 -0.00000000000E+00 -0.13402460064E+03  0.13402460064E+03  0.00000000000E+00 0.  1.
         25    1    1    2    0    0 -0.68113196207E+02 -0.16410704298E+03  0.15060152888E+03  0.26434135045E+03  0.12500000000E+03 0.  0.
         25    1    1    2    0    0  0.68113196207E+02  0.16410704298E+03  0.75770327219E+02  0.23007970693E+03  0.12500000000E+03 0.  0.
</event>
<event>
 4    0  0.2170991E-002  0.2204576E+03  0.7546771E-02  0.1133542E+00
         21   -1    0    0  502  501  0.00000000000E+00  0.00000000000E+00  0.46037460771E+03  0.46037460771E+03  0.00000000000E+00 0. -1.
         21   -1    0    0  501  502 -0.00000000000E+00 -0.00000000000E+00 -0.10556960273E+03  0.10556960273E+03  0.00000000000E+00 0. -1.
         25    1    1    2    0    0  0.17820466166E+03  0.33346828734E+02  0.19072021380E+03  0.29132132152E+03  0.12500000000E+03 0.  0.
         25    1    1    2    0    0 -0.17820466166E+03 -0.33346828734E+02  0.16408479118E+03  0.27462288892E+03  0.12500000000E+03 0.  0.
</event>
<event>
 4    0  0.2170991E-002  0.2028561E+03  0.7546771E-02  0.1147351E+00
         21   -1    0    0  502  501  0.00000000000E+00  0.00000000000E+00  0.14043137549E+03  0.14043137549E+03  0.00000000000E+00 0. -1.
         21   -1    0    0  501  502 -0.00000000000E+00 -0.00000000000E+00 -0.29302998551E+03  0.29302998551E+03  0.00000000000E+00 0. -1.
         25    1    1    2    0    0 -0.69544782790E+02  0.42938230560E+02 -0.22296730728E+03  0.26836465597E+03  0.12500000000E+03 0.  0.
         25    1    1    2    0    0  0.69544782790E+02 -0.42938230560E+02  0.70368697265E+02  0.16509670503E+03  0.12500000000E+03 0.  0.
</event>
<event>
 4    0  0.2170991E-002  0.3119656E+03  0.7546771E-02  0.1079408E+00
         21   -1    0    0  502  501  0.00000000000E+00  0.00000000000E+00  0.21710605387E+03  0.21710605387E+03  0.00000000000E+00 0. -1.
         21   -1    0    0  501  502 -0.00000000000E+00 -0.00000000000E+00 -0.44827179355E+03  0.44827179355E+03  0.00000000000E+00 0. -1.
         25    1    1    2    0    0 -0.14122065667E+03  0.22440596214E+03 -0.17384104583E+01  0.29313705290E+03  0.12500000000E+03 0.  0.
         25    1    1    2    0    0  0.14122065667E+03 -0.22440596214E+03 -0.22942732922E+03  0.37224079452E+03  0.12500000000E+03 0.  0.
</event>
<event>
 4    0  0.2170991E-002  0.2882524E+03  0.7546771E-02  0.1091265E+00
         21   -1    0    0  502  501  0.00000000000E+00  0.00000000000E+00  0.17343052478E+03  0.17343052478E+03  0.00000000000E+00 0. -1.
         21   -1    0    0  501  502 -0.00000000000E+00 -0.00000000000E+00 -0.47909367134E+03  0.47909367134E+03  0.00000000000E+00 0. -1.
         25    1    1    2    0    0  0.13156845844E+03 -0.22391121840E+03 -0.14803297609E+03  0.32401428208E+03  0.12500000000E+03 0.  0.
         25    1    1    2    0    0 -0.13156845844E+03  0.22391121840E+03 -0.15763017048E+03  0.32850991405E+03  0.12500000000E+03 0.  0.
</event>
<event>
 4    0  0.2170991E-002  0.1651439E+03  0.7546771E-02  0.1183009E+00
         21   -1    0    0  502  501  0.00000000000E+00  0.00000000000E+00  0.34468842604E+03  0.34468842604E+03  0.00000000000E+00 0.  1.
         21   -1    0    0  501  502 -0.00000000000E+00 -0.00000000000E+00 -0.79122222698E+02  0.79122222698E+02  0.00000000000E+00 0.  1.
         25    1    1    2    0    0  0.54592444617E+02  0.81978776949E+02  0.76169044529E+02  0.17643009444E+03  0.12500000000E+03 0.  0.
         25    1    1    2    0    0 -0.54592444617E+02 -0.81978776949E+02  0.18939715881E+03  0.24738055430E+03  0.12500000000E+03 0.  0.
</event>
<event>
 4    0  0.2170991E-002  0.2026083E+03  0.7546771E-02  0.1147557E+00
         21   -1    0    0  502  501  0.00000000000E+00  0.00000000000E+00  0.36574398918E+03  0.36574398918E+03  0.00000000000E+00 0. -1.
         21   -1    0    0  501  502 -0.00000000000E+00 -0.00000000000E+00 -0.11223732564E+03  0.11223732564E+03  0.00000000000E+00 0. -1.
         25    1    1    2    0    0 -0.12116518186E+03 -0.49837860594E+02  0.19546629471E+02  0.18213150295E+03  0.12500000000E+03 0.  0.
         25    1    1    2    0    0  0.12116518186E+03  0.49837860594E+02  0.23396003407E+03  0.29584981187E+03  0.12500000000E+03 0.  0.
</event>
<event>
 4    0  0.2170991E-002  0.1913080E+03  0.7546771E-02  0.1157287E+00
         21   -1    0    0  502  501  0.00000000000E+00  0.00000000000E+00  0.12792998332E+03  0.12792998332E+03  0.00000000000E+00 0.  1.
         21   -1    0    0  501  502 -0.00000000000E+00 -0.00000000000E+00 -0.28608415621E+03  0.28608415621E+03  0.00000000000E+00 0.  1.
         25    1    1    2    0    0 -0.74893021947E+02  0.12393734426E+03 -0.76830330506E+02  0.20614880481E+03  0.12500000000E+03 0.  0.
         25    1    1    2    0    0  0.74893021947E+02 -0.12393734426E+03 -0.81323842385E+02  0.20786533472E+03  0.12500000000E+03 0.  0.
</event>
<event>
 4    0  0.2170991E-002  0.2897081E+03  0.7546771E-02  0.1090502E+00
         21   -1    0    0  502  501  0.00000000000E+00  0.00000000000E+00  0.36619337000E+03  0.36619337000E+03  0.00000000000E+00 0. -1.
         21   -1    0    0  501  502 -0.00000000000E+00 -0.00000000000E+00 -0.22919792596E+03  0.22919792596E+03  0.00000000000E+00 0. -1.
         25    1    1    2    0    0  0.20350103098E+03  0.15487595646E+03  0.12389638279E+03  0.31044249897E+03  0.12500000000E+03 0.  0.
         25    1    1    2    0    0 -0.20350103098E+03 -0.15487595646E+03  0.13099061248E+02  0.28494879699E+03  0.12500000000E+03 0.  0.
</event>
<event>
 4    0  0.2170991E-002  0.2433220E+03  0.7546771E-02  0.1117599E+00
         21   -1    0    0  502  501  0.00000000000E+00  0.00000000000E+00  0.37594664102E+03  0.37594664102E+03  0.00000000000E+00 0.  1.
         21   -1    0    0  501  502 -0.00000000000E+00 -0.00000000000E+00 -0.15748400300E+03  0.15748400300E+03  0.00000000000E+00 0.  1.
         25    1    1    2    0    0 -0.71034938230E+02 -0.23021918242E+02  0.32292160621E+03  0.35423062392E+03  0.12500000000E+03 0.  0.
         25    1    1    2    0    0  0.71034938230E+02  0.23021918242E+02 -0.10445896819E+03  0.17920002010E+03  0.12500000000E+03 0.  0.
</event>
<event>
 4    0  0.2170991E-002  0.2094553E+03  0.7546771E-02  0.1141998E+00
         21   -1    0    0  502  501  0.00000000000E+00  0.00000000000E+00  0.10139614783E+03  0.10139614783E+03  0.00000000000E+00 0. -1.
         21   -1    0    0  501  502 -0.00000000000E+00 -0.00000000000E+00 -0.43267440938E+03  0.43267440938E+03  0.00000000000E+00 0. -1.
         25    1    1    2    0    0  0.32029326512E+02  0.14239557257E+03 -0.27187877064E+03  0.33293459233E+03  0.12500000000E+03 0.  0.
         25    1    1    2    0    0 -0.32029326512E+02 -0.14239557257E+03 -0.59399490910E+02  0.20113596487E+03  0.12500000000E+03 0.  0.
</event>
<event>
 4    0  0.2170991E-002  0.1955756E+03  0.7546771E-02  0.1153526E+00
         21   -1    0    0  502  501  0.00000000000E+00  0.00000000000E+00  0.84231669973E+03  0.84231669973E+03  0.00000000000E+00 0. -1.
         21   -1    0    0  501  502 -0.00000000000E+00 -0.00000000000E+00 -0.45410267399E+02  0.45410267399E+02  0.00000000000E+00 0. -1.
         25    1    1    2    0    0 -0.86767723424E+01 -0.14613178145E+03  0.31999717626E+03  0.37343403265E+03  0.12500000000E+03 0.  0.
         25    1    1    2    0    0  0.86767723424E+01  0.14613178145E+03  0.47690925607E+03  0.51429293447E+03  0.12500000000E+03 0.  0.
</event>
<event>
 4    0  0.2170991E-002  0.1819218E+03  0.7546771E-02  0.1165956E+00
         21   -1    0    0  502  501  0.00000000000E+00  0.00000000000E+00  0.55402565363E+03  0.55402565363E+03  0.00000000000E+00 0.  1.
         21   -1    0    0  501  502 -0.00000000000E+00 -0.00000000000E+00 -0.59736465293E+02  0.59736465293E+02  0.00000000000E+00 0.  1.
         25    1    1    2    0    0 -0.11055870674E+03 -0.68590529074E+02  0.28644016986E+03  0.33852748666E+03  0.12500000000E+03 0.  0.
         25    1    1    2    0    0  0.11055870674E+03  0.68590529074E+02  0.20784901847E+03  0.27523463226E+03  0.12500000000E+03 0.  0.
</event>
<event>
 4    0  0.2170991E-002  0.1894017E+03  0.7546771E-02  0.1159002E+00
         21   -1    0    0  502  501  0.00000000000E+00  0.00000000000E+00  0.76435130355E+03  0.76435130355E+03  0.00000000000E+00 0. -1.
         21   -1    0    0  501  502 -0.00000000000E+00 -0.00000000000E+00 -0.46932627381E+02  0.46932627381E+02  0.00000000000E+00 0. -1.
         25    1    1    2    0    0 -0.54622281997E+02 -0.12049414603E+03  0.47093085858E+03  0.50487949699E+03  0.12500000000E+03 0.  0.
         25    1    1    2    0    0  0.54622281997E+02  0.12049414603E+03  0.24648781759E+03  0.30640443394E+03  0.12500000000E+03 0.  0.
</event>
<event>
 4    0  0.2170991E-002  0.2303549E+03  0.7546771E-02  0.1126390E+00
         21   -1    0    0  502  501  0.00000000000E+00  0.00000000000E+00  0.29087947458E+03  0.29087947458E+03  0.00000000000E+00 0. -1.
         21   -1    0    0  501  502 -0.00000000000E+00 -0.00000000000E+00 -0.18242398820E+03  0.18242398820E+03  0.00000000000E+00 0. -1.
         25    1    1    2    0    0  0.60384674406E+02  0.37439991951E+02  0.23912048977E+03  0.27901912215E+03  0.12500000000E+03 0.  0.
         25    1    1    2    0    0 -0.60384674406E+02 -0.37439991951E+02 -0.13066500339E+03  0.19428434062E+03  0.12500000000E+03 0.  0.
</event>
<event>
 4    0  0.2170991E-002  0.2386427E+03  0.7546771E-02  0.1120700E+00
         21   -1    0    0  502  501  0.00000000000E+00  0.00000000000E+00  0.21847788198E+03  0.21847788198E+03  0.00000000000E+00 0. -1.
         21   -1    0    0  501  502 -0.00000000000E+00 -0.00000000000E+00 -0.26066860663E+03  0.26066860663E+03  0.00000000000E+00 0. -1.
         25    1    1    2    0    0  0.75650573500E+02 -0.15406509731E+03 -0.13045250884E+03  0.24920256929E+03  0.12500000000E+03 0.  0.
         25    1    1    2    0    0 -0.75650573500E+02  0.15406509731E+03  0.88261784191E+02  0.22994391931E+03  0.12500000000E+03 0.  0.
</event>
<event>
 4    0  0.2170991E-002  0.1894635E+03  0.7546771E-02  0.1158946E+00
         21   -1    0    0  502  501  0.00000000000E+00  0.00000000000E+00  0.18372144883E+03  0.18372144883E+03  0.00000000000E+00 0.  1.
         21   -1    0    0  501  502 -0.00000000000E+00 -0.00000000000E+00 -0.19538497607E+03  0.19538497607E+03  0.00000000000E+00 0.  1.
         25    1    1    2    0    0 -0.46013291876E+02  0.13392265808E+03 -0.20634361651E+02  0.19000862680E+03  0.12500000000E+03 0.  0.
         25    1    1    2    0    0  0.46013291876E+02 -0.13392265808E+03  0.89708344093E+01  0.18909779810E+03  0.12500000000E+03 0.  0.
</event>
<event>
 4    0  0.2170991E-002  0.1887865E+03  0.7546771E-02  0.1159560E+00
         21   -1    0    0  502  501  0.00000000000E+00  0.00000000000E+00  0.12205060336E+04  0.12205060336E+04  0.00000000000E+00 0.  1.
         21   -1    0    0  501  502 -0.00000000000E+00 -0.00000000000E+00 -0.29201292239E+02  0.29201292239E+02  0.00000000000E+00 0.  1.
         25    1    1    2    0    0  0.99027327539E+02 -0.41045859880E+02  0.29006626513E+03  0.33354851578E+03  0.12500000000E+03 0.  0.
         25    1    1    2    0    0 -0.99027327539E+02  0.41045859880E+02  0.90123847628E+03  0.91615881010E+03  0.12500000000E+03 0.  0.
</event>
<event>
 4    0  0.2170991E-002  0.1393867E+03  0.7546771E-02  0.1214157E+00
         21   -1    0    0  502  501  0.00000000000E+00  0.00000000000E+00  0.33555600824E+03  0.33555600824E+03  0.00000000000E+00 0. -1.
         21   -1    0    0  501  502 -0.00000000000E+00 -0.00000000000E+00 -0.57899879711E+02  0.57899879711E+02  0.00000000000E+00 0. -1.
         25    1    1    2    0    0 -0.98717249544E+01 -0.40006242529E+02  0.74062645236E+02  0.15102392464E+03  0.12500000000E+03 0.  0.
         25    1    1    2    0    0  0.98717249544E+01  0.40006242529E+02  0.20359348329E+03  0.24243196331E+03  0.12500000000E+03 0.  0.
</event>
<event>
 4    0  0.2170991E-002  0.2306145E+03  0.7546771E-02  0.1126208E+00
         21   -1    0    0  502  501  0.00000000000E+00  0.00000000000E+00  0.11517923272E+04  0.11517923272E+04  0.00000000000E+00 0. -1.
         21   -1    0    0  501  502 -0.00000000000E+00 -0.00000000000E+00 -0.46174159946E+02  0.46174159946E+02  0.00000000000E+00 0. -1.
         25    1    1    2    0    0  0.10971616545E+03  0.20905571364E+02  0.96416804719E+03  0.97863154614E+03  0.12500000000E+03 0.  0.
         25    1    1    2    0    0 -0.10971616545E+03 -0.20905571364E+02  0.14145012003E+03  0.21933494097E+03  0.12500000000E+03 0.  0.
</event>
<event>
 4    0  0.2170991E-002  0.1865327E+03  0.7546771E-02  0.1161626E+00
         21   -1    0    0  502  501  0.00000000000E+00  0.00000000000E+00  0.45277261062E+02  0.45277261062E+02  0.00000000000E+00 0.  1.
         21   -1    0    0  501  502 -0.00000000000E+00 -0.00000000000E+00 -0.76847517984E+03  0.76847517984E+03  0.00000000000E+00 0.  1.
         25    1    1    2    0    0 -0.11322150511E+03  0.57955293513E+02 -0.48090260323E+03  0.51290373274E+03  0.12500000000E+03 0.  0.
         25    1    1    2    0    0  0.11322150511E+03 -0.57955293513E+02 -0.24229531554E+03  0.30084870815E+03  0.12500000000E+03 0.  0.
</event>
<event>
 4    0  0.2170991E-002  0.2295045E+03  0.7546771E-02  0.1126989E+00
         21   -1    0    0  502  501  0.00000000000E+00  0.00000000000E+00  0.45328245641E+03  0.45328245641E+03  0.00000000000E+00 0. -1.
         21   -1    0    0  501  502 -0.00000000000E+00 -0.00000000000E+00 -0.11620195762E+03  0.11620195762E+03  0.00000000000E+00 0. -1.
         25    1    1    2    0    0  0.18041895254E+03  0.25957703640E+02  0.24524722668E+03  0.33014542706E+03  0.12500000000E+03 0.  0.
         25    1    1    2    0    0 -0.18041895254E+03 -0.25957703640E+02  0.91833272109E+02  0.23933898696E+03  0.12500000000E+03 0.  0.
</event>
<event>
 4    0  0.2170991E-002  0.1830993E+03  0.7546771E-02  0.1164837E+00
         21   -1    0    0  502  501  0.00000000000E+00  0.00000000000E+00  0.10889558085E+03  0.10889558085E+03  0.00000000000E+00 0. -1.
         21   -1    0    0  501  502 -0.00000000000E+00 -0.00000000000E+00 -0.30786686105E+03  0.30786686105E+03  0.00000000000E+00 0. -1.
         25    1    1    2    0    0  0.71337541934E+02  0.10461645061E+03 -0.50314695858E+02  0.18490596325E+03  0.12500000000E+03 0.  0.
         25    1    1    2    0    0 -0.71337541934E+02 -0.10461645061E+03 -0.14865658434E+03  0.23185647866E+03  0.12500000000E+03 0.  0.
</event>
<event>
 4    0  0.2170991E-002  0.2844858E+03  0.7546771E-02  0.1093264E+00
         21   -1    0    0  502  501  0.00000000000E+00  0.00000000000E+00  0.15228149890E+03  0.15228149890E+03  0.00000000000E+00 0.  1.
         21   -1    0    0  501  502 -0.00000000000E+00 -0.00000000000E+00 -0.53146427344E+03  0.53146427344E+03  0.00000000000E+00 0.  1.
         25    1    1    2    0    0 -0.12380835839E+03  0.19220350887E+03 -0.52381886872E+02  0.26578103864E+03  0.12500000000E+03 0.  0.
         25    1    1    2    0    0  0.12380835839E+03 -0.19220350887E+03 -0.32680088767E+03  0.41796473370E+03  0.12500000000E+03 0.  0.
</event>
<event>
 4    0  0.2170991E-002  0.2317008E+03  0.7546771E-02  0.1125448E+00
         21   -1    0    0  502  501  0.00000000000E+00  0.00000000000E+00  0.63663879447E+02  0.63663879447E+02  0.00000000000E+00 0. -1.
         21   -1    0    0  501  502 -0.00000000000E+00 -0.00000000000E+00 -0.84326099375E+03  0.84326099375E+03  0.00000000000E+00 0. -1.
         25    1    1    2    0    0 -0.70492361203E+02 -0.15799755901E+03 -0.56624056527E+03  0.60513286095E+03  0.12500000000E+03 0.  0.
         25    1    1    2    0    0  0.70492361203E+02  0.15799755901E+03 -0.21335654903E+03  0.30179201225E+03  0.12500000000E+03 0.  0.
</event>
<event>
 4    0  0.2170991E-002  0.1805573E+03  0.7546771E-02  0.1167265E+00
         21   -1    0    0  502  501  0.00000000000E+00  0.00000000000E+00  0.62408573236E+02  0.62408573236E+02  0.00000000000E+00 0. -1.
         21   -1    0    0  501  502 -0.00000000000E+00 -0.00000000000E+00 -0.52237905324E+03  0.52237905324E+03  0.00000000000E+00 0. -1.
         25    1    1    2    0    0 -0.36793343438E+01  0.47523318744E+02 -0.33617627432E+02  0.13793892924E+03  0.12500000000E+03 0.  0.
         25    1    1    2    0    0  0.36793343438E+01 -0.47523318744E+02 -0.42635285257E+03  0.44684869724E+03  0.12500000000E+03 0.  0.
</event>
<event>
 4    0  0.2170991E-002  0.2122389E+03  0.7546771E-02  0.1139805E+00
         21   -1    0    0  502  501  0.00000000000E+00  0.00000000000E+00  0.24886591360E+03  0.24886591360E+03  0.00000000000E+00 0. -1.
         21   -1    0    0  501  502 -0.00000000000E+00 -0.00000000000E+00 -0.18100256489E+03  0.18100256489E+03  0.00000000000E+00 0. -1.
         25    1    1    2    0    0  0.13233091628E+03 -0.73384375481E+02 -0.47863035430E+02  0.20202130613E+03  0.12500000000E+03 0.  0.
         25    1    1    2    0    0 -0.13233091628E+03  0.73384375481E+02  0.11572638413E+03  0.22784717236E+03  0.12500000000E+03 0.  0.
</event>
<event>
 4    0  0.2170991E-002  0.1601509E+03  0.7546771E-02  0.1188527E+00
         21   -1    0    0  502  501  0.00000000000E+00  0.00000000000E+00  0.40956712201E+02  0.40956712201E+02  0.00000000000E+00 0. -1.
         21   -1    0    0  501  502 -0.00000000000E+00 -0.00000000000E+00 -0.62622950720E+03  0.62622950720E+03  0.00000000000E+00 0. -1.
         25    1    1    2    0    0  0.15313655651E+02  0.97531300444E+02 -0.32726918803E+03  0.36397387825E+03  0.12500000000E+03 0.  0.
         25    1    1    2    0    0 -0.15313655651E+02 -0.97531300444E+02 -0.25800360697E+03  0.30321234115E+03  0.12500000000E+03 0.  0.
</event>
<event>
 4    0  0.2170991E-002  0.3442001E+03  0.7546771E-02  0.1065021E+00
         21   -1    0    0  502  501  0.00000000000E+00  0.00000000000E+00  0.17817992633E+03  0.17817992633E+03  0.00000000000E+00 0. -1.
         21   -1    0    0  501  502 -0.00000000000E+00 -0.00000000000E+00 -0.66491047823E+03  0.66491047823E+03  0.00000000000E+00 0.  1.
         25    1    1    2    0    0  0.13402030743E+03 -0.65809173079E+02  0.10423749239E+03  0.22086816177E+03  0.12500000000E+03 0.  0.
         25    1    1    2    0    0 -0.13402030743E+03  0.65809173079E+02 -0.59096804429E+03  0.62222224280E+03  0.12500000000E+03 0.  0.
</event>
<event>
 4    0  0.2170991E-002  0.2110597E+03  0.7546771E-02  0.1140730E+00
         21   -1    0    0  502  501  0.00000000000E+00  0.00000000000E+00  0.53988259223E+03  0.53988259223E+03  0.00000000000E+00 0.  1.
         21   -1    0    0  501  502 -0.00000000000E+00 -0.00000000000E+00 -0.82510862750E+02  0.82510862750E+02  0.00000000000E+00 0.  1.
         25    1    1    2    0    0 -0.12614157994E+03 -0.99081189472E+02  0.31199417421E+03  0.37241662831E+03  0.12500000000E+03 0.  0.
         25    1    1    2    0    0  0.12614157994E+03  0.99081189472E+02  0.14537755527E+03  0.24997682667E+03  0.12500000000E+03 0.  0.
</event>
<event>
 4    0  0.2170991E-002  0.2226847E+03  0.7546771E-02  0.1131897E+00
         21   -1    0    0  502  501  0.00000000000E+00  0.00000000000E+00  0.75608316036E+03  0.75608316036E+03  0.00000000000E+00 0. -1.
         21   -1    0    0  501  502 -0.00000000000E+00 -0.00000000000E+00 -0.65586036406E+02  0.65586036406E+02  0.00000000000E+00 0. -1.
         25    1    1    2    0    0  0.18705427800E+02  0.79187512262E+02  0.65031832164E+03  0.66720272376E+03  0.12500000000E+03 0.  0.
         25    1    1    2    0    0 -0.18705427800E+02 -0.79187512262E+02  0.40178802308E+02  0.15446647300E+03  0.12500000000E+03 0.  0.
</event>
<event>
 4    0  0.2170991E-002  0.2077952E+03  0.7546771E-02  0.1143324E+00
         21   -1    0    0  502  501  0.00000000000E+00  0.00000000000E+00  0.56813200780E+03  0.56813200780E+03  0.00000000000E+00 0.  1.
         21   -1    0    0  501  502 -0.00000000000E+00 -0.00000000000E+00 -0.76001444954E+02  0.76001444954E+02  0.00000000000E+00 0.  1.
         25    1    1    2    0    0 -0.18856115248E+02 -0.61232208414E+02  0.87248644240E+01  0.14073400331E+03  0.12500000000E+03 0.  0.
         25    1    1    2    0    0  0.18856115248E+02  0.61232208414E+02  0.48340569843E+03  0.50339944944E+03  0.12500000000E+03 0.  0.
</event>
<event>
 4    0  0.2170991E-002  0.1899640E+03  0.7546771E-02  0.1158494E+00
         21   -1    0    0  502  501  0.00000000000E+00  0.00000000000E+00  0.80987039677E+02  0.80987039677E+02  0.00000000000E+00 0.  1.
         21   -1    0    0  501  502 -0.00000000000E+00 -0.00000000000E+00 -0.44558153633E+03  0.44558153633E+03  0.00000000000E+00 0.  1.
         25    1    1    2    0    0  0.84674590154E+02 -0.92893389105E+02 -0.27693328934E+03  0.32880999787E+03  0.12500000000E+03 0.  0.
         25    1    1    2    0    0 -0.84674590154E+02  0.92893389105E+02 -0.87661207313E+02  0.19775857813E+03  0.12500000000E+03 0.  0.
</event>
<event>
 4    0  0.2170991E-002  0.2369129E+03  0.7546771E-02  0.1121867E+00
         21   -1    0    0  502  501  0.00000000000E+00  0.00000000000E+00  0.10341567935E+03  0.10341567935E+03  0.00000000000E+00 0. -1.
         21   -1    0    0  501  502 -0.00000000000E+00 -0.00000000000E+00 -0.54273917615E+03  0.54273917615E+03  0.00000000000E+00 0. -1.
         25    1    1    2    0    0  0.86667385083E+02 -0.17853150749E+03 -0.26525912599E+03  0.35407928310E+03  0.12500000000E+03 0.  0.
         25    1    1    2    0    0 -0.86667385083E+02  0.17853150749E+03 -0.17406437081E+03  0.29207557240E+03  0.12500000000E+03 0.  0.
</event>
<event>
 4    0  0.2170991E-002  0.1508444E+03  0.7546771E-02  0.1199439E+00
         21   -1    0    0  502  501  0.00000000000E+00  0.00000000000E+00  0.63002999002E+03  0.63002999002E+03  0.00000000000E+00 0.  1.
         21   -1    0    0  501  502 -0.00000000000E+00 -0.00000000000E+00 -0.36115789669E+02  0.36115789669E+02  0.00000000000E+00 0.  1.
         25    1    1    2    0    0  0.60752306818E+02 -0.87039041972E+01  0.42499446697E+03  0.44722689732E+03  0.12500000000E+03 0.  0.
         25    1    1    2    0    0 -0.60752306818E+02  0.87039041972E+01  0.16891973338E+03  0.21891888237E+03  0.12500000000E+03 0.  0.
</event>
<event>
 4    0  0.2170991E-002  0.3099660E+03  0.7546771E-02  0.1080362E+00
         21   -1    0    0  502  501  0.00000000000E+00  0.00000000000E+00  0.94609929092E+03  0.94609929092E+03  0.00000000000E+00 0.  1.
         21   -1    0    0  501  502 -0.00000000000E+00 -0.00000000000E+00 -0.10155270929E+03  0.10155270929E+03  0.00000000000E+00 0.  1.
         25    1    1    2    0    0 -0.47036216682E+02  0.12260135621E+03  0.84715434844E+03  0.86633653294E+03  0.12500000000E+03 0.  0.
         25    1    1    2    0    0  0.47036216682E+02 -0.12260135621E+03 -0.26077667995E+01  0.18131546727E+03  0.12500000000E+03 0.  0.
</event>
<event>
 4    0  0.2170991E-002  0.1794419E+03  0.7546771E-02  0.1168344E+00
         21   -1    0    0  502  501  0.00000000000E+00  0.00000000000E+00  0.67892081614E+02  0.67892081614E+02  0.00000000000E+00 0. -1.
         21   -1    0    0  501  502 -0.00000000000E+00 -0.00000000000E+00 -0.47427302874E+03  0.47427302874E+03  0.00000000000E+00 0. -1.
         25    1    1    2    0    0  0.58266679959E+02 -0.11298625633E+03 -0.23390944406E+03  0.29410802120E+03  0.12500000000E+03 0.  0.
         25    1    1    2    0    0 -0.58266679959E+02  0.11298625633E+03 -0.17247150307E+03  0.24805708916E+03  0.12500000000E+03 0.  0.
</event>
<event>
 4    0  0.2170991E-002  0.2106132E+03  0.7546771E-02  0.1141081E+00
         21   -1    0    0  502  501  0.00000000000E+00  0.00000000000E+00  0.94029542108E+03  0.94029542108E+03  0.00000000000E+00 0. -1.
         21   -1    0    0  501  502 -0.00000000000E+00 -0.00000000000E+00 -0.47174459530E+02  0.47174459530E+02  0.00000000000E+00 0. -1.
         25    1    1    2    0    0 -0.27222156549E+02  0.13400124937E+03  0.21171685677E+03  0.28132971418E+03  0.12500000000E+03 0.  0.
         25    1    1    2    0    0  0.27222156549E+02 -0.13400124937E+03  0.68140410478E+03  0.70614016643E+03  0.12500000000E+03 0.  0.
</event>
<event>
 4    0  0.2170991E-002  0.1682503E+03  0.7546771E-02  0.1179685E+00
         21   -1    0    0  502  501  0.00000000000E+00  0.00000000000E+00  0.15373009307E+03  0.15373009307E+03  0.00000000000E+00 0. -1.
         21   -1    0    0  501  502 -0.00000000000E+00 -0.00000000000E+00 -0.18414202960E+03  0.18414202960E+03  0.00000000000E+00 0. -1.
         25    1    1    2    0    0 -0.15110157047E+02 -0.18017080322E+02  0.95380284296E+02  0.15898217089E+03  0.12500000000E+03 0.  0.
         25    1    1    2    0    0  0.15110157047E+02  0.18017080322E+02 -0.12579222082E+03  0.17888995178E+03  0.12500000000E+03 0.  0.
</event>
<event>
 4    0  0.2170991E-002  0.1560292E+03  0.7546771E-02  0.1193254E+00
         21   -1    0    0  502  501  0.00000000000E+00  0.00000000000E+00  0.41413172553E+02  0.41413172553E+02  0.00000000000E+00 0.  1.
         21   -1    0    0  501  502 -0.00000000000E+00 -0.00000000000E+00 -0.58785942539E+03  0.58785942539E+03  0.00000000000E+00 0.  1.
         25    1    1    2    0    0  0.52208685779E+01 -0.22824541696E+02 -0.45551383346E+03  0.47293347275E+03  0.12500000000E+03 0.  0.
         25    1    1    2    0    0 -0.52208685779E+01  0.22824541696E+02 -0.90932419373E+02  0.15633912519E+03  0.12500000000E+03 0.  0.
</event>
<event>
 4    0  0.2170991E-002  0.2143449E+03  0.7546771E-02  0.1138171E+00
         21   -1    0    0  502  501  0.00000000000E+00  0.00000000000E+00  0.31617049420E+02  0.31617049420E+02  0.00000000000E+00 0. -1.
         21   -1    0    0  501  502 -0.00000000000E+00 -0.00000000000E+00 -0.14531322987E+04  0.14531322987E+04  0.00000000000E+00 0. -1.
         25    1    1    2    0    0 -0.12682262314E+03  0.84200321382E+02 -0.10035188560E+04  0.10226674759E+04  0.12500000000E+03 0.  0.
         25    1    1    2    0    0  0.12682262314E+03 -0.84200321382E+02 -0.41799639325E+03  0.46208187221E+03  0.12500000000E+03 0.  0.
</event>
<event>
 4    0  0.2170991E-002  0.2214162E+03  0.7546771E-02  0.1132832E+00
         21   -1    0    0  502  501  0.00000000000E+00  0.00000000000E+00  0.89827079610E+02  0.89827079610E+02  0.00000000000E+00 0.  1.
         21   -1    0    0  501  502 -0.00000000000E+00 -0.00000000000E+00 -0.54577235011E+03  0.54577235011E+03  0.00000000000E+00 0.  1.
         25    1    1    2    0    0 -0.56341283800E+02 -0.15653100455E+03 -0.33656214368E+03  0.39569606039E+03  0.12500000000E+03 0.  0.
         25    1    1    2    0    0  0.56341283800E+02  0.15653100455E+03 -0.11938312682E+03  0.23990336933E+03  0.12500000000E+03 0.  0.
</event>
<event>
 4    0  0.2170991E-002  0.1805836E+03  0.7546771E-02  0.1167239E+00
         21   -1    0    0  502  501  0.00000000000E+00  0.00000000000E+00  0.75407575621E+03  0.75407575621E+03  0.00000000000E+00 0. -1.
         21   -1    0    0  501  502 -0.00000000000E+00 -0.00000000000E+00 -0.43245592550E+02  0.43245592550E+02  0.00000000000E+00 0. -1.
         25    1    1    2    0    0 -0.63381972319E+02  0.98158846074E+02  0.48286627464E+03  0.51228631903E+03  0.12500000000E+03 0.  0.
         25    1    1    2    0    0  0.63381972319E+02 -0.98158846074E+02  0.22796388902E+03  0.28503502973E+03  0.12500000000E+03 0.  0.
</event>
<event>
 4    0  0.2170991E-002  0.1798742E+03  0.7546771E-02  0.1167925E+00
         21   -1    0    0  502  501  0.00000000000E+00  0.00000000000E+00  0.13142611679E+03  0.13142611679E+03  0.00000000000E+00 0. -1.
         21   -1    0    0  501  502 -0.00000000000E+00 -0.00000000000E+00 -0.24618183457E+03  0.24618183457E+03  0.00000000000E+00 0. -1.
         25    1    1    2    0    0  0.14797898484E+02 -0.62047582408E+02 -0.17548430299E+03  0.22469673090E+03  0.12500000000E+03 0.  0.
         25    1    1    2    0    0 -0.14797898484E+02  0.62047582408E+02  0.60728585203E+02  0.15291122046E+03  0.12500000000E+03 0.  0.
</event>
<event>
 4    0  0.2170991E-002  0.2331302E+03  0.7546771E-02  0.1124456E+00
         21   -1    0    0  502  501  0.00000000000E+00  0.00000000000E+00  0.20700753863E+03  0.20700753863E+03  0.00000000000E+00 0. -1.
         21   -1    0    0  501  502 -0.00000000000E+00 -0.00000000000E+00 -0.26254934527E+03  0.26254934527E+03  0.00000000000E+00 0. -1.
         25    1    1    2    0    0  0.18050140233E+03  0.64766441561E+02 -0.72233307280E+02  0.24003770303E+03  0.12500000000E+03 0.  0.
         25    1    1    2    0    0 -0.18050140233E+03 -0.64766441561E+02  0.16691500634E+02  0.22951918087E+03  0.12500000000E+03 0.  0.
</event>
<event>
 4    0  0.2170991E-002  0.1769169E+03  0.7546771E-02  0.1170821E+00
         21   -1    0    0  502  501  0.00000000000E+00  0.00000000000E+00  0.59724339774E+02  0.59724339774E+02  0.00000000000E+00 0.  1.
         21   -1    0    0  501  502 -0.00000000000E+00 -0.00000000000E+00 -0.52406744481E+03  0.52406744481E+03  0.00000000000E+00 0.  1.
         25    1    1    2    0    0  0.32688738816E+02  0.99125558249E+02 -0.11809941600E+03  0.20116386853E+03  0.12500000000E+03 0.  0.
         25    1    1    2    0    0 -0.32688738816E+02 -0.99125558249E+02 -0.34624368904E+03  0.38262791605E+03  0.12500000000E+03 0.  0.
</event>
<event>
 4    0  0.2170991E-002  0.2274441E+03  0.7546771E-02  0.1128452E+00
         21   -1    0    0  502  501  0.00000000000E+00  0.00000000000E+00  0.18548079440E+04  0.18548079440E+04  0.00000000000E+00 0.  1.
         21   -1    0    0  501  502 -0.00000000000E+00 -0.00000000000E+00 -0.27890118765E+02  0.27890118765E+02  0.00000000000E+00 0.  1.
         25    1    1    2    0    0  0.77975624434E+02  0.17223415108E+03  0.83482000547E+03  0.86504002355E+03  0.12500000000E+03 0.  0.
         25    1    1    2    0    0 -0.77975624434E+02 -0.17223415108E+03  0.99209781980E+03  0.10176580393E+04  0.12500000000E+03 0.  0.
</event>
<event>
 4    0  0.2170991E-002  0.1911712E+03  0.7546771E-02  0.1157409E+00
         21   -1    0    0  502  501  0.00000000000E+00  0.00000000000E+00  0.19628940032E+03  0.19628940032E+03  0.00000000000E+00 0.  1.
         21   -1    0    0  501  502 -0.00000000000E+00 -0.00000000000E+00 -0.18618651485E+03  0.18618651485E+03  0.00000000000E+00 0.  1.
         25    1    1    2    0    0  0.33215862978E+02  0.12168449517E+03 -0.65761890600E+02  0.18936746335E+03  0.12500000000E+03 0.  0.
         25    1    1    2    0    0 -0.33215862978E+02 -0.12168449517E+03  0.75864776065E+02  0.19310845183E+03  0.12500000000E+03 0.  0.
</event>
<event>
 4    0  0.2170991E-002  0.1877842E+03  0.7546771E-02  0.1160475E+00
         21   -1    0    0  502  501  0.00000000000E+00  0.00000000000E+00  0.45036173057E+03  0.45036173057E+03  0.00000000000E+00 0. -1.
         21   -1    0    0  501  502 -0.00000000000E+00 -0.00000000000E+00 -0.78299075077E+02  0.78299075077E+02  0.00000000000E+00 0. -1.
         25    1    1    2    0    0 -0.69484094876E+01 -0.32996211814E+02  0.37749404361E+03  0.39907866812E+03  0.12500000000E+03 0.  0.
         25    1    1    2    0    0  0.69484094876E+01  0.32996211814E+02 -0.54313881182E+01  0.12958213752E+03  0.12500000000E+03 0.  0.
</event>
<event>
 4    0  0.2170991E-002  0.1684438E+03  0.7546771E-02  0.1179480E+00
         21   -1    0    0  502  501  0.00000000000E+00  0.00000000000E+00  0.17107237568E+03  0.17107237568E+03  0.00000000000E+00 0. -1.
         21   -1    0    0  501  502 -0.00000000000E+00 -0.00000000000E+00 -0.16585570095E+03  0.16585570095E+03  0.00000000000E+00 0. -1.
         25    1    1    2    0    0  0.26510436603E+01 -0.10697694288E+03 -0.33413121444E+02  0.16790631622E+03  0.12500000000E+03 0.  0.
         25    1    1    2    0    0 -0.26510436603E+01  0.10697694288E+03  0.38629796176E+02  0.16902176042E+03  0.12500000000E+03 0.  0.
</event>
<event>
 4    0  0.2170991E-002  0.1632230E+03  0.7546771E-02  0.1185105E+00
         21   -1    0    0  502  501  0.00000000000E+00  0.00000000000E+00  0.51458518433E+03  0.51458518433E+03  0.00000000000E+00 0.  1.
         21   -1    0    0  501  502 -0.00000000000E+00 -0.00000000000E+00 -0.51773266471E+02  0.51773266471E+02  0.00000000000E+00 0.  1.
         25    1    1    2    0    0 -0.24540622504E+02 -0.10104230638E+03  0.20656771305E+03  0.26288212169E+03  0.12500000000E+03 0.  0.
         25    1    1    2    0    0  0.24540622504E+02  0.10104230638E+03  0.25624420480E+03  0.30347632910E+03  0.12500000000E+03 0.  0.
</event>
<event>
 4    0  0.2170991E-002  0.2621464E+03  0.7546771E-02  0.1105860E+00
         21   -1    0    0  502  501  0.00000000000E+00  0.00000000000E+00  0.10055874797E+04  0.10055874797E+04  0.00000000000E+00 0.  1.
         21   -1    0    0  501  502 -0.00000000000E+00 -0.00000000000E+00 -0.68338893067E+02  0.68338893067E+02  0.00000000000E+00 0. -1.
         25    1    1    2    0    0  0.22126239646E+03  0.53487733551E+02  0.39540534683E+03  0.47306275908E+03  0.12500000000E+03 0.  0.
         25    1    1    2    0    0 -0.22126239646E+03 -0.53487733551E+02  0.54184323976E+03  0.60086361364E+03  0.12500000000E+03 0.  0.
</event>
<event>
 4    0  0.2170991E-002  0.1977014E+03  0.7546771E-02  0.1151693E+00
         21   -1    0    0  502  501  0.00000000000E+00  0.00000000000E+00  0.16035986792E+03  0.16035986792E+03  0.00000000000E+00 0.  1.
         21   -1    0    0  501  502 -0.00000000000E+00 -0.00000000000E+00 -0.24373819555E+03  0.24373819555E+03  0.00000000000E+00 0.  1.
         25    1    1    2    0    0  0.76388748212E+02 -0.10883389836E+03  0.36014205135E+02  0.18601634675E+03  0.12500000000E+03 0.  0.
         25    1    1    2    0    0 -0.76388748212E+02  0.10883389836E+03 -0.11939253277E+03  0.21808171672E+03  0.12500000000E+03 0.  0.
</event>
<event>
 4    0  0.2170991E-002  0.2881470E+03  0.7546771E-02  0.1091321E+00
         21   -1    0    0  502  501  0.00000000000E+00  0.00000000000E+00  0.99004485604E+03  0.99004485604E+03  0.00000000000E+00 0.  1.
         21   -1    0    0  501  502 -0.00000000000E+00 -0.00000000000E+00 -0.83863589728E+02  0.83863589728E+02  0.00000000000E+00 0.  1.
         25    1    1    2    0    0 -0.14072648818E+01 -0.65571308308E+02  0.92119764006E+03  0.93195046484E+03  0.12500000000E+03 0.  0.
         25    1    1    2    0    0  0.14072648818E+01  0.65571308308E+02 -0.15016373749E+02  0.14195798092E+03  0.12500000000E+03 0.  0.
</event>
<event>
 4    0  0.2170991E-002  0.2140822E+03  0.7546771E-02  0.1138374E+00
         21   -1    0    0  502  501  0.00000000000E+00  0.00000000000E+00  0.75440407093E+02  0.75440407093E+02  0.00000000000E+00 0. -1.
         21   -1    0    0  501  502 -0.00000000000E+00 -0.00000000000E+00 -0.60751487567E+03  0.60751487567E+03  0.00000000000E+00 0. -1.
         25    1    1    2    0    0  0.78506186391E+02 -0.77564760497E+02 -0.51876725132E+02  0.17463020352E+03  0.12500000000E+03 0.  0.
         25    1    1    2    0    0 -0.78506186391E+02  0.77564760497E+02 -0.48019774345E+03  0.50832507924E+03  0.12500000000E+03 0.  0.
</event>
<event>
 4    0  0.2170991E-002  0.2134844E+03  0.7546771E-02  0.1138836E+00
         21   -1    0    0  502  501  0.00000000000E+00  0.00000000000E+00  0.62024895083E+02  0.62024895083E+02  0.00000000000E+00 0. -1.
         21   -1    0    0  501  502 -0.00000000000E+00 -0.00000000000E+00 -0.73479480764E+03  0.73479480764E+03  0.00000000000E+00 0. -1.
         25    1    1    2    0    0 -0.98964676550E+02  0.29516691917E+02 -0.77219251576E+02  0.17959135592E+03  0.12500000000E+03 0.  0.
         25    1    1    2    0    0  0.98964676550E+02 -0.29516691917E+02 -0.59555066098E+03  0.61722834681E+03  0.12500000000E+03 0.  0.
</event>
<event>
 4    0  0.2170991E-002  0.1815140E+03  0.7546771E-02  0.1166346E+00
         21   -1    0    0  502  501  0.00000000000E+00  0.00000000000E+00  0.25082954739E+03  0.25082954739E+03  0.00000000000E+00 0.  1.
         21   -1    0    0  501  502 -0.00000000000E+00 -0.00000000000E+00 -0.13135340139E+03  0.13135340139E+03  0.00000000000E+00 0.  1.
         25    1    1    2    0    0  0.99232742139E+00  0.20991541241E+02  0.19651924842E+03  0.23385132994E+03  0.12500000000E+03 0.  0.
         25    1    1    2    0    0 -0.99232742139E+00 -0.20991541241E+02 -0.77043102422E+02  0.14833161884E+03  0.12500000000E+03 0.  0.
</event>
<event>
 4    0  0.2170991E-002  0.3556616E+03  0.7546771E-02  0.1060315E+00
         21   -1    0    0  502  501  0.00000000000E+00  0.00000000000E+00  0.17266804707E+03  0.17266804707E+03  0.00000000000E+00 0. -1.
         21   -1    0    0  501  502 -0.00000000000E+00 -0.00000000000E+00 -0.73259170189E+03  0.73259170189E+03  0.00000000000E+00 0. -1.
         25    1    1    2    0    0 -0.25199537525E+03  0.13183821079E+03 -0.50034282989E+03  0.58894051516E+03  0.12500000000E+03 0.  0.
         25    1    1    2    0    0  0.25199537525E+03 -0.13183821079E+03 -0.59580824929E+02  0.31631923380E+03  0.12500000000E+03 0.  0.
</event>
<event>
 4    0  0.2170991E-002  0.2019837E+03  0.7546771E-02  0.1148076E+00
         21   -1    0    0  502  501  0.00000000000E+00  0.00000000000E+00  0.71750790819E+03  0.71750790819E+03  0.00000000000E+00 0. -1.
         21   -1    0    0  501  502 -0.00000000000E+00 -0.00000000000E+00 -0.56859888690E+02  0.56859888690E+02  0.00000000000E+00 0. -1.
         25    1    1    2    0    0 -0.24583768580E+02  0.14616961363E+03  0.43880300544E+03  0.47973221198E+03  0.12500000000E+03 0.  0.
         25    1    1    2    0    0  0.24583768580E+02 -0.14616961363E+03  0.22184501406E+03  0.29463558490E+03  0.12500000000E+03 0.  0.
</event>
<event>
 4    0  0.2170991E-002  0.1981952E+03  0.7546771E-02  0.1151271E+00
         21   -1    0    0  502  501  0.00000000000E+00  0.00000000000E+00  0.15967928753E+03  0.15967928753E+03  0.00000000000E+00 0.  1.
         21   -1    0    0  501  502 -0.00000000000E+00 -0.00000000000E+00 -0.24600145814E+03  0.24600145814E+03  0.00000000000E+00 0.  1.
         25    1    1    2    0    0  0.73716522778E+02 -0.10699043083E+03 -0.12740222520E+03  0.22076549777E+03  0.12500000000E+03 0.  0.
         25    1    1    2    0    0 -0.73716522778E+02  0.10699043083E+03  0.41080054591E+02  0.18491524790E+03  0.12500000000E+03 0.  0.
</event>
<event>
 4    0  0.2170991E-002  0.2398060E+03  0.7546771E-02  0.1119922E+00
         21   -1    0    0  502  501  0.00000000000E+00  0.00000000000E+00  0.23622764460E+03  0.23622764460E+03  0.00000000000E+00 0.  1.
         21   -1    0    0  501  502 -0.00000000000E+00 -0.00000000000E+00 -0.24343863195E+03  0.24343863195E+03  0.00000000000E+00 0.  1.
         25    1    1    2    0    0 -0.15899768926E+03 -0.16957711845E+02 -0.13134661193E+03  0.24175351424E+03  0.12500000000E+03 0.  0.
         25    1    1    2    0    0  0.15899768926E+03  0.16957711845E+02  0.12413562458E+03  0.23791276232E+03  0.12500000000E+03 0.  0.
</event>
<event>
 4    0  0.2170991E-002  0.2259724E+03  0.7546771E-02  0.1129507E+00
         21   -1    0    0  502  501  0.00000000000E+00  0.00000000000E+00  0.23001965662E+03  0.23001965662E+03  0.00000000000E+00 0. -1.
         21   -1    0    0  501  502 -0.00000000000E+00 -0.00000000000E+00 -0.22199638550E+03  0.22199638550E+03  0.00000000000E+00 0. -1.
         25    1    1    2    0    0  0.47678105644E+02 -0.11338585258E+03  0.14654366575E+03  0.22853796030E+03  0.12500000000E+03 0.  0.
         25    1    1    2    0    0 -0.47678105644E+02  0.11338585258E+03 -0.13852039463E+03  0.22347808182E+03  0.12500000000E+03 0.  0.
</event>
<event>
 4    0  0.2170991E-002  0.2513631E+03  0.7546771E-02  0.1112446E+00
         21   -1    0    0  502  501  0.00000000000E+00  0.00000000000E+00  0.91722749092E+03  0.91722749092E+03  0.00000000000E+00 0.  1.
         21   -1    0    0  501  502 -0.00000000000E+00 -0.00000000000E+00 -0.68885234137E+02  0.68885234137E+02  0.00000000000E+00 0.  1.
         25    1    1    2    0    0  0.62325589010E+02  0.11602791315E+03  0.83228794577E+02  0.19974731017E+03  0.12500000000E+03 0.  0.
         25    1    1    2    0    0 -0.62325589010E+02 -0.11602791315E+03  0.76511346221E+03  0.78636541489E+03  0.12500000000E+03 0.  0.
</event>
<event>
 4    0  0.2170991E-002  0.2012966E+03  0.7546771E-02  0.1148650E+00
         21   -1    0    0  502  501  0.00000000000E+00  0.00000000000E+00  0.30782409758E+02  0.30782409758E+02  0.00000000000E+00 0. -1.
         21   -1    0    0  501  502 -0.00000000000E+00 -0.00000000000E+00 -0.13163471922E+04  0.13163471922E+04  0.00000000000E+00 0. -1.
         25    1    1    2    0    0 -0.15044733861E+03 -0.25948913139E+02 -0.50945722114E+03  0.54633268981E+03  0.12500000000E+03 0.  0.
         25    1    1    2    0    0  0.15044733861E+03  0.25948913139E+02 -0.77610756134E+03  0.80079691218E+03  0.12500000000E+03 0.  0.
</event>
<event>
 4    0  0.2170991E-002  0.3158139E+03  0.7546771E-02  0.1077592E+00
         21   -1    0    0  502  501  0.00000000000E+00  0.00000000000E+00  0.22531572119E+03  0.22531572119E+03  0.00000000000E+00 0.  1.
         21   -1    0    0  501  502 -0.00000000000E+00 -0.00000000000E+00 -0.44266081299E+03  0.44266081299E+03  0.00000000000E+00 0.  1.
         25    1    1    2    0    0 -0.73135064328E+02  0.27357524929E+03 -0.42448735610E+02  0.31244047403E+03  0.12500000000E+03 0.  0.
         25    1    1    2    0    0  0.73135064328E+02 -0.27357524929E+03 -0.17489635619E+03  0.35553606015E+03  0.12500000000E+03 0.  0.
</event>
<event>
 4    0  0.2170991E-002  0.2452772E+03  0.7546771E-02  0.1116326E+00
         21   -1    0    0  502  501  0.00000000000E+00  0.00000000000E+00  0.50945627957E+03  0.50945627957E+03  0.00000000000E+00 0.  1.
         21   -1    0    0  501  502 -0.00000000000E+00 -0.00000000000E+00 -0.11808848539E+03  0.11808848539E+03  0.00000000000E+00 0.  1.
         25    1    1    2    0    0 -0.19482372939E+03 -0.73738214268E+02  0.23892030364E+03  0.34073673308E+03  0.12500000000E+03 0.  0.
         25    1    1    2    0    0  0.19482372939E+03  0.73738214268E+02  0.15244749053E+03  0.28680803187E+03  0.12500000000E+03 0.  0.
</event>
<event>
 4    0  0.2170991E-002  0.3118769E+03  0.7546771E-02  0.1079450E+00
         21   -1    0    0  502  501  0.00000000000E+00  0.00000000000E+00  0.10024416352E+03  0.10024416352E+03  0.00000000000E+00 0.  1.
         21   -1    0    0  501  502 -0.00000000000E+00 -0.00000000000E+00 -0.97030267671E+03  0.97030267671E+03  0.00000000000E+00 0.  1.
         25    1    1    2    0    0  0.17905452072E+03  0.21785890394E+03 -0.35602071259E+03  0.47106132425E+03  0.12500000000E+03 0.  0.
         25    1    1    2    0    0 -0.17905452072E+03 -0.21785890394E+03 -0.51403780060E+03  0.59948551597E+03  0.12500000000E+03 0.  0.
</event>
<event>
 4    0  0.2170991E-002  0.2030430E+03  0.7546771E-02  0.1147197E+00
         21   -1    0    0  502  501  0.00000000000E+00  0.00000000000E+00  0.32388903871E+02  0.32388903871E+02  0.00000000000E+00 0. -1.
         21   -1    0    0  501  502 -0.00000000000E+00 -0.00000000000E+00 -0.12728575812E+04  0.12728575812E+04  0.00000000000E+00 0. -1.
         25    1    1    2    0    0 -0.22597730856E+02  0.14881548078E+03 -0.44581314997E+03  0.48685836692E+03  0.12500000000E+03 0.  0.
         25    1    1    2    0    0  0.22597730856E+02 -0.14881548078E+03 -0.79465552735E+03  0.81838811813E+03  0.12500000000E+03 0.  0.
</event>
<event>
 4    0  0.2170991E-002  0.2611398E+03  0.7546771E-02  0.1106460E+00
         21   -1    0    0  502  501  0.00000000000E+00  0.00000000000E+00  0.23491002956E+03  0.23491002956E+03  0.00000000000E+00 0.  1.
         21   -1    0    0  501  502 -0.00000000000E+00 -0.00000000000E+00 -0.29029839144E+03  0.29029839144E+03  0.00000000000E+00 0.  1.
         25    1    1    2    0    0 -0.28950207727E+02 -0.11014740073E+03  0.17241528151E+03  0.24150071162E+03  0.12500000000E+03 0.  0.
         25    1    1    2    0    0  0.28950207727E+02  0.11014740073E+03 -0.22780364339E+03  0.28370770937E+03  0.12500000000E+03 0.  0.
</event>
<event>
 4    0  0.2170991E-002  0.2833058E+03  0.7546771E-02  0.1093897E+00
         21   -1    0    0  502  501  0.00000000000E+00  0.00000000000E+00  0.40029798246E+03  0.40029798246E+03  0.00000000000E+00 0.  1.
         21   -1    0    0  501  502 -0.00000000000E+00 -0.00000000000E+00 -0.20050613236E+03  0.20050613236E+03  0.00000000000E+00 0.  1.
         25    1    1    2    0    0 -0.47386372404E+02  0.62585546169E+02 -0.15651213662E+03  0.21513592863E+03  0.12500000000E+03 0.  0.
         25    1    1    2    0    0  0.47386372404E+02 -0.62585546169E+02  0.35630398672E+03  0.38566818618E+03  0.12500000000E+03 0.  0.
</event>
<event>
 4    0  0.2170991E-002  0.1860097E+03  0.7546771E-02  0.1162110E+00
         21   -1    0    0  502  501  0.00000000000E+00  0.00000000000E+00  0.99853180111E+02  0.99853180111E+02  0.00000000000E+00 0.  1.
         21   -1    0    0  501  502 -0.00000000000E+00 -0.00000000000E+00 -0.34650477529E+03  0.34650477529E+03  0.00000000000E+00 0.  1.
         25    1    1    2    0    0  0.83929613411E+02  0.10486414440E+03 -0.86658742170E+02  0.20291724023E+03  0.12500000000E+03 0.  0.
         25    1    1    2    0    0 -0.83929613411E+02 -0.10486414440E+03 -0.15999285301E+03  0.24344071517E+03  0.12500000000E+03 0.  0.
</event>
<event>
 4    0  0.2170991E-002  0.4410714E+03  0.7546771E-02  0.1030419E+00
         21   -1    0    0  502  501  0.00000000000E+00  0.00000000000E+00  0.61068371330E+03  0.61068371330E+03  0.00000000000E+00 0.  1.
         21   -1    0    0  501  502 -0.00000000000E+00 -0.00000000000E+00 -0.31856754429E+03  0.31856754429E+03  0.00000000000E+00 0.  1.
         25    1    1    2    0    0  0.12611844233E+02 -0.13884598813E+03 -0.27461983464E+03  0.33238279229E+03  0.12500000000E+03 0.  0.
         25    1    1    2    0    0 -0.12611844233E+02  0.13884598813E+03  0.56673600364E+03  0.59686846529E+03  0.12500000000E+03 0.  0.
</event>
<event>
 4    0  0.2170991E-002  0.2803040E+03  0.7546771E-02  0.1095523E+00
         21   -1    0    0  502  501  0.00000000000E+00  0.00000000000E+00  0.18544462102E+03  0.18544462102E+03  0.00000000000E+00 0.  1.
         21   -1    0    0  501  502 -0.00000000000E+00 -0.00000000000E+00 -0.42368616216E+03  0.42368616216E+03  0.00000000000E+00 0.  1.
         25    1    1    2    0    0 -0.23569610014E+03 -0.66125067244E+02 -0.17883324809E+03  0.32791997005E+03  0.12500000000E+03 0.  0.
         25    1    1    2    0    0  0.23569610014E+03  0.66125067244E+02 -0.59408293052E+02  0.28121081313E+03  0.12500000000E+03 0.  0.
</event>
<event>
 4    0  0.2170991E-002  0.1937046E+03  0.7546771E-02  0.1155162E+00
         21   -1    0    0  502  501  0.00000000000E+00  0.00000000000E+00  0.71359009321E+02  0.71359009321E+02  0.00000000000E+00 0. -1.
         21   -1    0    0  501  502 -0.00000000000E+00 -0.00000000000E+00 -0.52581283358E+03  0.52581283358E+03  0.00000000000E+00 0. -1.
         25    1    1    2    0    0 -0.14785396705E+03 -0.64021348087E+00 -0.23638232425E+03  0.30555328286E+03  0.12500000000E+03 0.  0.
         25    1    1    2    0    0  0.14785396705E+03  0.64021348087E+00 -0.21807150000E+03  0.29161856004E+03  0.12500000000E+03 0.  0.
</event>
<event>
 4    0  0.2170991E-002  0.2145897E+03  0.7546771E-02  0.1137982E+00
         21   -1    0    0  502  501  0.00000000000E+00  0.00000000000E+00  0.13459631627E+03  0.13459631627E+03  0.00000000000E+00 0. -1.
         21   -1    0    0  501  502 -0.00000000000E+00 -0.00000000000E+00 -0.34212496379E+03  0.34212496379E+03  0.00000000000E+00 0. -1.
         25    1    1    2    0    0 -0.12307012444E+03 -0.10786607953E+03 -0.36726458156E+02  0.20917738733E+03  0.12500000000E+03 0.  0.
         25    1    1    2    0    0  0.12307012444E+03  0.10786607953E+03 -0.17080218937E+03  0.26754389273E+03  0.12500000000E+03 0.  0.
</event>
<event>
 4    0  0.2170991E-002  0.1894360E+03  0.7546771E-02  0.1158971E+00
         21   -1    0    0  502  501  0.00000000000E+00  0.00000000000E+00  0.18708911515E+03  0.18708911515E+03  0.00000000000E+00 0. -1.
         21   -1    0    0  501  502 -0.00000000000E+00 -0.00000000000E+00 -0.19181231886E+03  0.19181231886E+03  0.00000000000E+00 0. -1.
         25    1    1    2    0    0  0.20899907558E+02 -0.41769976099E+02  0.13210872855E+03  0.18777447430E+03  0.12500000000E+03 0.  0.
         25    1    1    2    0    0 -0.20899907558E+02  0.41769976099E+02 -0.13683193226E+03  0.19112695970E+03  0.12500000000E+03 0.  0.
</event>
<event>
 4    0  0.2170991E-002  0.2655743E+03  0.7546771E-02  0.1103840E+00
         21   -1    0    0  502  501  0.00000000000E+00  0.00000000000E+00  0.13708800260E+03  0.13708800260E+03  0.00000000000E+00 0.  1.
         21   -1    0    0  501  502 -0.00000000000E+00 -0.00000000000E+00 -0.51448494814E+03  0.51448494814E+03  0.00000000000E+00 0.  1.
         25    1    1    2    0    0 -0.16909021556E+03  0.16220000733E+03 -0.19126304064E+03  0.32727189628E+03  0.12500000000E+03 0.  0.
         25    1    1    2    0    0  0.16909021556E+03 -0.16220000733E+03 -0.18613390489E+03  0.32430105447E+03  0.12500000000E+03 0.  0.
</event>
<event>
 4    0  0.2170991E-002  0.2370247E+03  0.7546771E-02  0.1121791E+00
         21   -1    0    0  502  501  0.00000000000E+00  0.00000000000E+00  0.85733829558E+02  0.85733829558E+02  0.00000000000E+00 0. -1.
         21   -1    0    0  501  502 -0.00000000000E+00 -0.00000000000E+00 -0.65529216176E+03  0.65529216176E+03  0.00000000000E+00 0. -1.
         25    1    1    2    0    0  0.27940887485E+02  0.12748764229E+03 -0.52452230079E+03  0.55478143098E+03  0.12500000000E+03 0.  0.
         25    1    1    2    0    0 -0.27940887485E+02 -0.12748764229E+03 -0.45036031411E+02  0.18624456034E+03  0.12500000000E+03 0.  0.
</event>
<event>
 4    0  0.2170991E-002  0.2494654E+03  0.7546771E-02  0.1113643E+00
         21   -1    0    0  502  501  0.00000000000E+00  0.00000000000E+00  0.87693988945E+02  0.87693988945E+02  0.00000000000E+00 0.  1.
         21   -1    0    0  501  502 -0.00000000000E+00 -0.00000000000E+00 -0.70966059456E+03  0.70966059456E+03  0.00000000000E+00 0.  1.
         25    1    1    2    0    0 -0.67026965550E+02  0.17407136786E+03 -0.13727556852E+03  0.26317871672E+03  0.12500000000E+03 0.  0.
         25    1    1    2    0    0  0.67026965550E+02 -0.17407136786E+03 -0.48469103710E+03  0.53417586679E+03  0.12500000000E+03 0.  0.
</event>
<event>
 4    0  0.2170991E-002  0.1690015E+03  0.7546771E-02  0.1178893E+00
         21   -1    0    0  502  501  0.00000000000E+00  0.00000000000E+00  0.70425986471E+02  0.70425986471E+02  0.00000000000E+00 0. -1.
         21   -1    0    0  501  502 -0.00000000000E+00 -0.00000000000E+00 -0.40555335327E+03  0.40555335327E+03  0.00000000000E+00 0. -1.
         25    1    1    2    0    0  0.10339888916E+02  0.10042406539E+03 -0.93789182712E+02  0.18604654527E+03  0.12500000000E+03 0.  0.
         25    1    1    2    0    0 -0.10339888916E+02 -0.10042406539E+03 -0.24133818408E+03  0.28993279447E+03  0.12500000000E+03 0.  0.
</event>
<event>
 4    0  0.2170991E-002  0.1623743E+03  0.7546771E-02  0.1186042E+00
         21   -1    0    0  502  501  0.00000000000E+00  0.00000000000E+00  0.83535163186E+02  0.83535163186E+02  0.00000000000E+00 0.  1.
         21   -1    0    0  501  502 -0.00000000000E+00 -0.00000000000E+00 -0.31562069609E+03  0.31562069609E+03  0.00000000000E+00 0.  1.
         25    1    1    2    0    0  0.90244023225E+02 -0.43054873373E+02 -0.14953991355E+03  0.21905454023E+03  0.12500000000E+03 0.  0.
         25    1    1    2    0    0 -0.90244023225E+02  0.43054873373E+02 -0.82545619354E+02  0.18010131905E+03  0.12500000000E+03 0.  0.
</event>
<event>
 4    0  0.2170991E-002  0.1853065E+03  0.7546771E-02  0.1162764E+00
         21   -1    0    0  502  501  0.00000000000E+00  0.00000000000E+00  0.21611105860E+03  0.21611105860E+03  0.00000000000E+00 0.  1.
         21   -1    0    0  501  502 -0.00000000000E+00 -0.00000000000E+00 -0.15889286413E+03  0.15889286413E+03  0.00000000000E+00 0.  1.
         25    1    1    2    0    0  0.10591622905E+03  0.82591313704E+02  0.23413221301E+01  0.18349401752E+03  0.12500000000E+03 0.  0.
         25    1    1    2    0    0 -0.10591622905E+03 -0.82591313704E+02  0.54876872346E+02  0.19150990521E+03  0.12500000000E+03 0.  0.
</event>
<event>
 4    0  0.2170991E-002  0.2086448E+03  0.7546771E-02  0.1142644E+00
         21   -1    0    0  502  501  0.00000000000E+00  0.00000000000E+00  0.73650046629E+03  0.73650046629E+03  0.00000000000E+00 0. -1.
         21   -1    0    0  501  502 -0.00000000000E+00 -0.00000000000E+00 -0.59107444035E+02  0.59107444035E+02  0.00000000000E+00 0. -1.
         25    1    1    2    0    0 -0.12489220904E+03  0.10024650622E+03  0.42934033440E+03  0.47497952443E+03  0.12500000000E+03 0.  0.
         25    1    1    2    0    0  0.12489220904E+03 -0.10024650622E+03  0.24805268786E+03  0.32062838590E+03  0.12500000000E+03 0.  0.
</event>
<event>
 4    0  0.2170991E-002  0.2560302E+03  0.7546771E-02  0.1109552E+00
         21   -1    0    0  502  501  0.00000000000E+00  0.00000000000E+00  0.14937068805E+04  0.14937068805E+04  0.00000000000E+00 0.  1.
         21   -1    0    0  501  502 -0.00000000000E+00 -0.00000000000E+00 -0.43885090915E+02  0.43885090915E+02  0.00000000000E+00 0.  1.
         25    1    1    2    0    0 -0.56031726734E+02 -0.10804155493E+03  0.12875885074E+04  0.12993543383E+04  0.12500000000E+03 0.  0.
         25    1    1    2    0    0  0.56031726734E+02  0.10804155493E+03  0.16223328215E+03  0.23823763311E+03  0.12500000000E+03 0.  0.
</event>
<event>
 4    0  0.2170991E-002  0.1992220E+03  0.7546771E-02  0.1150397E+00
         21   -1    0    0  502  501  0.00000000000E+00  0.00000000000E+00  0.23727922432E+03  0.23727922432E+03  0.00000000000E+00 0. -1.
         21   -1    0    0  501  502 -0.00000000000E+00 -0.00000000000E+00 -0.16726876406E+03  0.16726876406E+03  0.00000000000E+00 0. -1.
         25    1    1    2    0    0 -0.55311301267E+02  0.93293352037E+01  0.18185156758E+03  0.22768699825E+03  0.12500000000E+03 0.  0.
         25    1    1    2    0    0  0.55311301267E+02 -0.93293352037E+01 -0.11184110732E+03  0.17686099013E+03  0.12500000000E+03 0.  0.
</event>
<event>
 4    0  0.2170991E-002  0.4350453E+03  0.7546771E-02  0.1032278E+00
         21   -1    0    0  502  501  0.00000000000E+00  0.00000000000E+00  0.84077650483E+02  0.84077650483E+02  0.00000000000E+00 0. -1.
         21   -1    0    0  501  502 -0.00000000000E+00 -0.00000000000E+00 -0.22510667907E+04  0.22510667907E+04  0.00000000000E+00 0. -1.
         25    1    1    2    0    0 -0.26605194234E+03 -0.27315855551E+03 -0.63248789833E+03  0.74904283856E+03  0.12500000000E+03 0.  0.
         25    1    1    2    0    0  0.26605194234E+03  0.27315855551E+03 -0.15345012419E+04  0.15861016026E+04  0.12500000000E+03 0.  0.
</event>
<event>
 4    0  0.2170991E-002  0.2490283E+03  0.7546771E-02  0.1113920E+00
         21   -1    0    0  502  501  0.00000000000E+00  0.00000000000E+00  0.20275960889E+03  0.20275960889E+03  0.00000000000E+00 0. -1.
         21   -1    0    0  501  502 -0.00000000000E+00 -0.00000000000E+00 -0.30585524639E+03  0.30585524639E+03  0.00000000000E+00 0. -1.
         25    1    1    2    0    0 -0.17221403689E+03 -0.12837526902E+03 -0.67765471985E+02  0.25759472702E+03  0.12500000000E+03 0.  0.
         25    1    1    2    0    0  0.17221403689E+03  0.12837526902E+03 -0.35330165517E+02  0.25102012826E+03  0.12500000000E+03 0.  0.
</event>
<event>
 4    0  0.2170991E-002  0.4503022E+03  0.7546771E-02  0.1027632E+00
         21   -1    0    0  502  501  0.00000000000E+00  0.00000000000E+00  0.29249576301E+03  0.29249576301E+03  0.00000000000E+00 0.  1.
         21   -1    0    0  501  502 -0.00000000000E+00 -0.00000000000E+00 -0.69324785107E+03  0.69324785107E+03  0.00000000000E+00 0.  1.
         25    1    1    2    0    0  0.15349592800E+03  0.17496345754E+03 -0.59950481868E+03  0.65513680938E+03  0.12500000000E+03 0.  0.
         25    1    1    2    0    0 -0.15349592800E+03 -0.17496345754E+03  0.19875273062E+03  0.33060680470E+03  0.12500000000E+03 0.  0.
</event>
<event>
 4    0  0.2170991E-002  0.1871915E+03  0.7546771E-02  0.1161019E+00
         21   -1    0    0  502  501  0.00000000000E+00  0.00000000000E+00  0.57988028167E+03  0.57988028167E+03  0.00000000000E+00 0. -1.
         21   -1    0    0  501  502 -0.00000000000E+00 -0.00000000000E+00 -0.60427396025E+02  0.60427396025E+02  0.00000000000E+00 0. -1.
         25    1    1    2    0    0  0.46521885200E+02  0.10858299127E+03  0.13333641423E+03  0.21761928029E+03  0.12500000000E+03 0.  0.
         25    1    1    2    0    0 -0.46521885200E+02 -0.10858299127E+03  0.38611647142E+03  0.42268839740E+03  0.12500000000E+03 0.  0.
</event>
<event>
 4    0  0.2170991E-002  0.1598843E+03  0.7546771E-02  0.1188827E+00
         21   -1    0    0  502  501  0.00000000000E+00  0.00000000000E+00  0.15263469738E+04  0.15263469738E+04  0.00000000000E+00 0.  1.
         21   -1    0    0  501  502 -0.00000000000E+00 -0.00000000000E+00 -0.16747819434E+02  0.16747819434E+02  0.00000000000E+00 0.  1.
         25    1    1    2    0    0  0.75864860752E+01  0.13184647184E+02  0.27936554210E+03  0.30643350960E+03  0.12500000000E+03 0.  0.
         25    1    1    2    0    0 -0.75864860752E+01 -0.13184647184E+02  0.12302336123E+04  0.12366612836E+04  0.12500000000E+03 0.  0.
</event>
<event>
 4    0  0.2170991E-002  0.2019527E+03  0.7546771E-02  0.1148102E+00
         21   -1    0    0  502  501  0.00000000000E+00  0.00000000000E+00  0.25181053589E+03  0.25181053589E+03  0.00000000000E+00 0.  1.
         21   -1    0    0  501  502 -0.00000000000E+00 -0.00000000000E+00 -0.16196656409E+03  0.16196656409E+03  0.00000000000E+00 0.  1.
         25    1    1    2    0    0 -0.10015930222E+03 -0.12112875083E+03  0.66793907575E+02  0.21163762942E+03  0.12500000000E+03 0.  0.
         25    1    1    2    0    0  0.10015930222E+03  0.12112875083E+03  0.23050064226E+02  0.20213947056E+03  0.12500000000E+03 0.  0.
</event>
<event>
 4    0  0.2170991E-002  0.2671564E+03  0.7546771E-02  0.1102918E+00
         21   -1    0    0  502  501  0.00000000000E+00  0.00000000000E+00  0.16859538129E+03  0.16859538129E+03  0.00000000000E+00 0. -1.
         21   -1    0    0  501  502 -0.00000000000E+00 -0.00000000000E+00 -0.42333638763E+03  0.42333638763E+03  0.00000000000E+00 0.  1.
         25    1    1    2    0    0 -0.20338746072E+03  0.78360260323E+02 -0.22793852709E+03  0.33924587206E+03  0.12500000000E+03 0.  0.
         25    1    1    2    0    0  0.20338746072E+03 -0.78360260323E+02 -0.26802479248E+02  0.25268589686E+03  0.12500000000E+03 0.  0.
</event>
<event>
 4    0  0.2170991E-002  0.2785357E+03  0.7546771E-02  0.1096491E+00
         21   -1    0    0  502  501  0.00000000000E+00  0.00000000000E+00  0.27259367505E+03  0.27259367505E+03  0.00000000000E+00 0.  1.
         21   -1    0    0  501  502 -0.00000000000E+00 -0.00000000000E+00 -0.28460722522E+03  0.28460722522E+03  0.00000000000E+00 0.  1.
         25    1    1    2    0    0 -0.22685145442E+03 -0.20247944512E+02 -0.10645705315E+03  0.28076621199E+03  0.12500000000E+03 0.  0.
         25    1    1    2    0    0  0.22685145442E+03  0.20247944512E+02  0.94443502981E+02  0.27643468828E+03  0.12500000000E+03 0.  0.
</event>
<event>
 4    0  0.2170991E-002  0.1690787E+03  0.7546771E-02  0.1178812E+00
         21   -1    0    0  502  501  0.00000000000E+00  0.00000000000E+00  0.72564577281E+02  0.72564577281E+02  0.00000000000E+00 0.  1.
         21   -1    0    0  501  502 -0.00000000000E+00 -0.00000000000E+00 -0.39396084060E+03  0.39396084060E+03  0.00000000000E+00 0.  1.
         25    1    1    2    0    0  0.98403792369E+02 -0.35583305259E+02 -0.22259828211E+03  0.27590663849E+03  0.12500000000E+03 0.  0.
         25    1    1    2    0    0 -0.98403792369E+02  0.35583305259E+02 -0.98797981217E+02  0.19061877940E+03  0.12500000000E+03 0.  0.
</event>
<event>
 4    0  0.2170991E-002  0.2220846E+03  0.7546771E-02  0.1132338E+00
         21   -1    0    0  502  501  0.00000000000E+00  0.00000000000E+00  0.83597465778E+03  0.83597465778E+03  0.00000000000E+00 0.  1.
         21   -1    0    0  501  502 -0.00000000000E+00 -0.00000000000E+00 -0.58998882959E+02  0.58998882959E+02  0.00000000000E+00 0.  1.
         25    1    1    2    0    0  0.82914375677E+02 -0.10185738338E+03  0.64689420384E+03  0.67182351194E+03  0.12500000000E+03 0.  0.
         25    1    1    2    0    0 -0.82914375677E+02  0.10185738338E+03  0.13008157099E+03  0.22315002880E+03  0.12500000000E+03 0.  0.
</event>
<event>
 4    0  0.2170991E-002  0.1919117E+03  0.7546771E-02  0.1156748E+00
         21   -1    0    0  502  501  0.00000000000E+00  0.00000000000E+00  0.58827428564E+03  0.58827428564E+03  0.00000000000E+00 0. -1.
         21   -1    0    0  501  502 -0.00000000000E+00 -0.00000000000E+00 -0.62607011131E+02  0.62607011131E+02  0.00000000000E+00 0. -1.
         25    1    1    2    0    0  0.10918143777E+03 -0.71823513269E+02  0.37175906432E+03  0.41341142379E+03  0.12500000000E+03 0.  0.
         25    1    1    2    0    0 -0.10918143777E+03  0.71823513269E+02  0.15390821018E+03  0.23746987298E+03  0.12500000000E+03 0.  0.
</event>
<event>
 4    0  0.2170991E-002  0.1966759E+03  0.7546771E-02  0.1152574E+00
         21   -1    0    0  502  501  0.00000000000E+00  0.00000000000E+00  0.29038586581E+03  0.29038586581E+03  0.00000000000E+00 0.  1.
         21   -1    0    0  501  502 -0.00000000000E+00 -0.00000000000E+00 -0.13320687157E+03  0.13320687157E+03  0.00000000000E+00 0.  1.
         25    1    1    2    0    0  0.13048561009E+02 -0.15020206115E+03  0.98017225214E+02  0.21900525235E+03  0.12500000000E+03 0.  0.
         25    1    1    2    0    0 -0.13048561009E+02  0.15020206115E+03  0.59161769029E+02  0.20458748503E+03  0.12500000000E+03 0.  0.
</event>
<event>
 4    0  0.2170991E-002  0.2078956E+03  0.7546771E-02  0.1143243E+00
         21   -1    0    0  502  501  0.00000000000E+00  0.00000000000E+00  0.24402249182E+03  0.24402249182E+03  0.00000000000E+00 0. -1.
         21   -1    0    0  501  502 -0.00000000000E+00 -0.00000000000E+00 -0.17711716208E+03  0.17711716208E+03  0.00000000000E+00 0. -1.
         25    1    1    2    0    0 -0.12612049682E+03  0.13430623943E+02  0.14211176308E+03  0.22783220708E+03  0.12500000000E+03 0.  0.
         25    1    1    2    0    0  0.12612049682E+03 -0.13430623943E+02 -0.75206433339E+02  0.19330744681E+03  0.12500000000E+03 0.  0.
</event>
<event>
 4    0  0.2170991E-002  0.2204066E+03  0.7546771E-02  0.1133580E+00
         21   -1    0    0  502  501  0.00000000000E+00  0.00000000000E+00  0.16240410791E+03  0.16240410791E+03  0.00000000000E+00 0.  1.
         21   -1    0    0  501  502 -0.00000000000E+00 -0.00000000000E+00 -0.29912466242E+03  0.29912466242E+03  0.00000000000E+00 0.  1.
         25    1    1    2    0    0 -0.85299155325E+02 -0.45830826705E+01 -0.23606610281E+03  0.28044456750E+03  0.12500000000E+03 0.  0.
         25    1    1    2    0    0  0.85299155325E+02  0.45830826705E+01  0.99345548298E+02  0.18108420282E+03  0.12500000000E+03 0.  0.
</event>
<event>
 4    0  0.2170991E-002  0.2358599E+03  0.7546771E-02  0.1122582E+00
         21   -1    0    0  502  501  0.00000000000E+00  0.00000000000E+00  0.32705686473E+03  0.32705686473E+03  0.00000000000E+00 0.  1.
         21   -1    0    0  501  502 -0.00000000000E+00 -0.00000000000E+00 -0.17009242731E+03  0.17009242731E+03  0.00000000000E+00 0.  1.
         25    1    1    2    0    0 -0.13011595638E+02 -0.90845778346E+02  0.26577753335E+03  0.30770920412E+03  0.12500000000E+03 0.  0.
         25    1    1    2    0    0  0.13011595638E+02  0.90845778346E+02 -0.10881309593E+03  0.18944008792E+03  0.12500000000E+03 0.  0.
</event>
<event>
 4    0  0.2170991E-002  0.1971512E+03  0.7546771E-02  0.1152165E+00
         21   -1    0    0  502  501  0.00000000000E+00  0.00000000000E+00  0.89822994319E+02  0.89822994319E+02  0.00000000000E+00 0.  1.
         21   -1    0    0  501  502 -0.00000000000E+00 -0.00000000000E+00 -0.43272427850E+03  0.43272427850E+03  0.00000000000E+00 0.  1.
         25    1    1    2    0    0 -0.26423260874E+02 -0.15005002563E+03 -0.17875651805E+03  0.26606783280E+03  0.12500000000E+03 0.  0.
         25    1    1    2    0    0  0.26423260874E+02  0.15005002563E+03 -0.16414476613E+03  0.25647944002E+03  0.12500000000E+03 0.  0.
</event>
<event>
 4    0  0.2170991E-002  0.2025685E+03  0.7546771E-02  0.1147590E+00
         21   -1    0    0  502  501  0.00000000000E+00  0.00000000000E+00  0.80445872677E+02  0.80445872677E+02  0.00000000000E+00 0. -1.
         21   -1    0    0  501  502 -0.00000000000E+00 -0.00000000000E+00 -0.51008214696E+03  0.51008214696E+03  0.00000000000E+00 0. -1.
         25    1    1    2    0    0  0.58280367368E+02 -0.14258704404E+03 -0.15505051657E+03  0.25178031900E+03  0.12500000000E+03 0.  0.
         25    1    1    2    0    0 -0.58280367368E+02  0.14258704404E+03 -0.27458575771E+03  0.33874770063E+03  0.12500000000E+03 0.  0.
</event>
<event>
 4    0  0.2170991E-002  0.2387018E+03  0.7546771E-02  0.1120661E+00
         21   -1    0    0  502  501  0.00000000000E+00  0.00000000000E+00  0.18584489028E+03  0.18584489028E+03  0.00000000000E+00 0.  1.
         21   -1    0    0  501  502 -0.00000000000E+00 -0.00000000000E+00 -0.30659201330E+03  0.30659201330E+03  0.00000000000E+00 0.  1.
         25    1    1    2    0    0 -0.94550957995E+02  0.10228898138E+03  0.92449345198E+02  0.20874578031E+03  0.12500000000E+03 0.  0.
         25    1    1    2    0    0  0.94550957995E+02 -0.10228898138E+03 -0.21319646822E+03  0.28369112328E+03  0.12500000000E+03 0.  0.
</event>
<event>
 4    0  0.2170991E-002  0.2007675E+03  0.7546771E-02  0.1149093E+00
         21   -1    0    0  502  501  0.00000000000E+00  0.00000000000E+00  0.52318626473E+02  0.52318626473E+02  0.00000000000E+00 0. -1.
         21   -1    0    0  501  502 -0.00000000000E+00 -0.00000000000E+00 -0.77042485476E+03  0.77042485476E+03  0.00000000000E+00 0. -1.
         25    1    1    2    0    0 -0.13366143838E+03 -0.27749411697E+02 -0.51839020486E+03  0.55044419741E+03  0.12500000000E+03 0.  0.
         25    1    1    2    0    0  0.13366143838E+03  0.27749411697E+02 -0.19971602342E+03  0.27229928382E+03  0.12500000000E+03 0.  0.
</event>
<event>
 4    0  0.2170991E-002  0.3495989E+03  0.7546771E-02  0.1062780E+00
         21   -1    0    0  502  501  0.00000000000E+00  0.00000000000E+00  0.12158532083E+04  0.12158532083E+04  0.00000000000E+00 0. -1.
         21   -1    0    0  501  502 -0.00000000000E+00 -0.00000000000E+00 -0.10052151630E+03  0.10052151630E+03  0.00000000000E+00 0. -1.
         25    1    1    2    0    0 -0.24207067367E+03  0.19380588656E+03  0.36534092172E+03  0.49523521866E+03  0.12500000000E+03 0.  0.
         25    1    1    2    0    0  0.24207067367E+03 -0.19380588656E+03  0.74999077027E+03  0.82113950594E+03  0.12500000000E+03 0.  0.
</event>
<event>
 4    0  0.2170991E-002  0.2796391E+03  0.7546771E-02  0.1095886E+00
         21   -1    0    0  502  501  0.00000000000E+00  0.00000000000E+00  0.16899743177E+04  0.16899743177E+04  0.00000000000E+00 0.  1.
         21   -1    0    0  501  502 -0.00000000000E+00 -0.00000000000E+00 -0.46271713742E+02  0.46271713742E+02  0.00000000000E+00 0.  1.
         25    1    1    2    0    0  0.21156799492E+03  0.90328457492E+02  0.11268578800E+04  0.11568724772E+04  0.12500000000E+03 0.  0.
         25    1    1    2    0    0 -0.21156799492E+03 -0.90328457492E+02  0.51684472393E+03  0.57937355425E+03  0.12500000000E+03 0.  0.
</event>
<event>
 4    0  0.2170991E-002  0.2110887E+03  0.7546771E-02  0.1140707E+00
         21   -1    0    0  502  501  0.00000000000E+00  0.00000000000E+00  0.32588467339E+03  0.32588467339E+03  0.00000000000E+00 0. -1.
         21   -1    0    0  501  502 -0.00000000000E+00 -0.00000000000E+00 -0.13673070115E+03  0.13673070115E+03  0.00000000000E+00 0. -1.
         25    1    1    2    0    0 -0.70518927948E+01  0.16338061926E+03  0.43291424574E+02  0.21033806927E+03  0.12500000000E+03 0.  0.
         25    1    1    2    0    0  0.70518927948E+01 -0.16338061926E+03  0.14586254766E+03  0.25227730527E+03  0.12500000000E+03 0.  0.
</event>
<event>
 4    0  0.2170991E-002  0.2075019E+03  0.7546771E-02  0.1143560E+00
         21   -1    0    0  502  501  0.00000000000E+00  0.00000000000E+00  0.47581870916E+02  0.47581870916E+02  0.00000000000E+00 0.  1.
         21   -1    0    0  501  502 -0.00000000000E+00 -0.00000000000E+00 -0.90490454166E+03  0.90490454166E+03  0.00000000000E+00 0.  1.
         25    1    1    2    0    0  0.14707849254E+02  0.11132155242E+03 -0.70809469674E+03  0.72775813868E+03  0.12500000000E+03 0.  0.
         25    1    1    2    0    0 -0.14707849254E+02 -0.11132155242E+03 -0.14922797400E+03  0.22472827390E+03  0.12500000000E+03 0.  0.
</event>
<event>
 4    0  0.2170991E-002  0.3269663E+03  0.7546771E-02  0.1072487E+00
         21   -1    0    0  502  501  0.00000000000E+00  0.00000000000E+00  0.64207817527E+03  0.64207817527E+03  0.00000000000E+00 0. -1.
         21   -1    0    0  501  502 -0.00000000000E+00 -0.00000000000E+00 -0.16650148901E+03  0.16650148901E+03  0.00000000000E+00 0. -1.
         25    1    1    2    0    0  0.14566220658E+03  0.25222589618E+02  0.56359362149E+03  0.59591646028E+03  0.12500000000E+03 0.  0.
         25    1    1    2    0    0 -0.14566220658E+03 -0.25222589618E+02 -0.88016935224E+02  0.21266320400E+03  0.12500000000E+03 0.  0.
</event>
<event>
 4    0  0.2170991E-002  0.2512365E+03  0.7546771E-02  0.1112526E+00
         21   -1    0    0  502  501  0.00000000000E+00  0.00000000000E+00  0.28181533993E+03  0.28181533993E+03  0.00000000000E+00 0. -1.
         21   -1    0    0  501  502 -0.00000000000E+00 -0.00000000000E+00 -0.22397573698E+03  0.22397573698E+03  0.00000000000E+00 0. -1.
         25    1    1    2    0    0 -0.62104780523E+02  0.73167208615E+02 -0.16803611399E+03  0.23037269757E+03  0.12500000000E+03 0.  0.
         25    1    1    2    0    0  0.62104780523E+02 -0.73167208615E+02  0.22587571693E+03  0.27541837934E+03  0.12500000000E+03 0.  0.
</event>
<event>
 4    0  0.2170991E-002  0.1779920E+03  0.7546771E-02  0.1169761E+00
         21   -1    0    0  502  501  0.00000000000E+00  0.00000000000E+00  0.36301772854E+03  0.36301772854E+03  0.00000000000E+00 0. -1.
         21   -1    0    0  501  502 -0.00000000000E+00 -0.00000000000E+00 -0.87271631152E+02  0.87271631152E+02  0.00000000000E+00 0. -1.
         25    1    1    2    0    0  0.13356753190E+02  0.12598756539E+03  0.14066728422E+03  0.22685580076E+03  0.12500000000E+03 0.  0.
         25    1    1    2    0    0 -0.13356753190E+02 -0.12598756539E+03  0.13507881317E+03  0.22343355893E+03  0.12500000000E+03 0.  0.
</event>
<event>
 4    0  0.2170991E-002  0.2675288E+03  0.7546771E-02  0.1102702E+00
         21   -1    0    0  502  501  0.00000000000E+00  0.00000000000E+00  0.14034013996E+03  0.14034013996E+03  0.00000000000E+00 0. -1.
         21   -1    0    0  501  502 -0.00000000000E+00 -0.00000000000E+00 -0.50998725897E+03  0.50998725897E+03  0.00000000000E+00 0. -1.
         25    1    1    2    0    0 -0.11310224755E+03  0.16689993270E+03 -0.34487680479E+02  0.23971254877E+03  0.12500000000E+03 0.  0.
         25    1    1    2    0    0  0.11310224755E+03 -0.16689993270E+03 -0.33515943853E+03  0.41061485016E+03  0.12500000000E+03 0.  0.
</event>
<event>
 4    0  0.2170991E-002  0.2038777E+03  0.7546771E-02  0.1146508E+00
         21   -1    0    0  502  501  0.00000000000E+00  0.00000000000E+00  0.55806438675E+03  0.55806438675E+03  0.00000000000E+00 0.  1.
         21   -1    0    0  501  502 -0.00000000000E+00 -0.00000000000E+00 -0.74482666616E+02  0.74482666616E+02  0.00000000000E+00 0.  1.
         25    1    1    2    0    0  0.44726464459E+02 -0.21745682994E+02  0.47943614211E+03  0.49795315615E+03  0.12500000000E+03 0.  0.
         25    1    1    2    0    0 -0.44726464459E+02  0.21745682994E+02  0.41455780222E+01  0.13459389722E+03  0.12500000000E+03 0.  0.
</event>
<event>
 4    0  0.2170991E-002  0.2263067E+03  0.7546771E-02  0.1129267E+00
         21   -1    0    0  502  501  0.00000000000E+00  0.00000000000E+00  0.11507043466E+03  0.11507043466E+03  0.00000000000E+00 0.  1.
         21   -1    0    0  501  502 -0.00000000000E+00 -0.00000000000E+00 -0.44507291592E+03  0.44507291592E+03  0.00000000000E+00 0.  1.
         25    1    1    2    0    0  0.12315570959E+03  0.11439343269E+03 -0.58998376445E+02  0.21762121834E+03  0.12500000000E+03 0.  0.
         25    1    1    2    0    0 -0.12315570959E+03 -0.11439343269E+03 -0.27100410482E+03  0.34252213224E+03  0.12500000000E+03 0.  0.
</event>
<event>
 4    0  0.2170991E-002  0.1801261E+03  0.7546771E-02  0.1167681E+00
         21   -1    0    0  502  501  0.00000000000E+00  0.00000000000E+00  0.95180963741E+02  0.95180963741E+02  0.00000000000E+00 0. -1.
         21   -1    0    0  501  502 -0.00000000000E+00 -0.00000000000E+00 -0.34088134234E+03  0.34088134234E+03  0.00000000000E+00 0. -1.
         25    1    1    2    0    0 -0.49138630341E+02  0.81978705232E+02 -0.22896410584E+03  0.27782130024E+03  0.12500000000E+03 0.  0.
         25    1    1    2    0    0  0.49138630341E+02 -0.81978705232E+02 -0.16736272758E+02  0.15824100584E+03  0.12500000000E+03 0.  0.
</event>
<event>
 4    0  0.2170991E-002  0.2205290E+03  0.7546771E-02  0.1133489E+00
         21   -1    0    0  502  501  0.00000000000E+00  0.00000000000E+00  0.19699377661E+03  0.19699377661E+03  0.00000000000E+00 0. -1.
         21   -1    0    0  501  502 -0.00000000000E+00 -0.00000000000E+00 -0.24687612103E+03  0.24687612103E+03  0.00000000000E+00 0. -1.
         25    1    1    2    0    0  0.14112116147E+03 -0.37940687359E+02 -0.13358020320E+03  0.23414386317E+03  0.12500000000E+03 0.  0.
         25    1    1    2    0    0 -0.14112116147E+03  0.37940687359E+02  0.83697858781E+02  0.20972603447E+03  0.12500000000E+03 0.  0.
</event>
<event>
 4    0  0.2170991E-002  0.1747534E+03  0.7546771E-02  0.1172980E+00
         21   -1    0    0  502  501  0.00000000000E+00  0.00000000000E+00  0.66382184797E+03  0.66382184797E+03  0.00000000000E+00 0.  1.
         21   -1    0    0  501  502 -0.00000000000E+00 -0.00000000000E+00 -0.46004452994E+02  0.46004452994E+02  0.00000000000E+00 0.  1.
         25    1    1    2    0    0 -0.71948885871E+02 -0.76000750509E+02  0.43672877194E+03  0.46616496705E+03  0.12500000000E+03 0.  0.
         25    1    1    2    0    0  0.71948885871E+02  0.76000750509E+02  0.18108862304E+03  0.24366133392E+03  0.12500000000E+03 0.  0.
</event>
<event>
 4    0  0.2170991E-002  0.1871260E+03  0.7546771E-02  0.1161079E+00
         21   -1    0    0  502  501  0.00000000000E+00  0.00000000000E+00  0.62328208690E+02  0.62328208690E+02  0.00000000000E+00 0.  1.
         21   -1    0    0  501  502 -0.00000000000E+00 -0.00000000000E+00 -0.56180247375E+03  0.56180247375E+03  0.00000000000E+00 0.  1.
         25    1    1    2    0    0 -0.37872185291E+02  0.85423360104E+02 -0.77556754353E+02  0.17427421787E+03  0.12500000000E+03 0.  0.
         25    1    1    2    0    0  0.37872185291E+02 -0.85423360104E+02 -0.42191751071E+03  0.44985646457E+03  0.12500000000E+03 0.  0.
</event>
<event>
 4    0  0.2170991E-002  0.1664877E+03  0.7546771E-02  0.1181561E+00
         21   -1    0    0  502  501  0.00000000000E+00  0.00000000000E+00  0.15617687583E+04  0.15617687583E+04  0.00000000000E+00 0.  1.
         21   -1    0    0  501  502 -0.00000000000E+00 -0.00000000000E+00 -0.17747920244E+02  0.17747920244E+02  0.00000000000E+00 0.  1.
         25    1    1    2    0    0  0.90030495500E+02  0.56666154701E+02  0.63981634868E+03  0.66053501288E+03  0.12500000000E+03 0.  0.
         25    1    1    2    0    0 -0.90030495500E+02 -0.56666154701E+02  0.90420448934E+03  0.91898166562E+03  0.12500000000E+03 0.  0.
</event>
<event>
 4    0  0.2170991E-002  0.2181011E+03  0.7546771E-02  0.1135307E+00
         21   -1    0    0  502  501  0.00000000000E+00  0.00000000000E+00  0.51237672184E+02  0.51237672184E+02  0.00000000000E+00 0. -1.
         21   -1    0    0  501  502 -0.00000000000E+00 -0.00000000000E+00 -0.92838077265E+03  0.92838077265E+03  0.00000000000E+00 0. -1.
         25    1    1    2    0    0  0.37863011556E+01 -0.15040972000E+03 -0.65521349468E+03  0.68378881503E+03  0.12500000000E+03 0.  0.
         25    1    1    2    0    0 -0.37863011556E+01  0.15040972000E+03 -0.22192960578E+03  0.29582962980E+03  0.12500000000E+03 0.  0.
</event>
<event>
 4    0  0.2170991E-002  0.1963080E+03  0.7546771E-02  0.1152892E+00
         21   -1    0    0  502  501  0.00000000000E+00  0.00000000000E+00  0.14775027325E+03  0.14775027325E+03  0.00000000000E+00 0. -1.
         21   -1    0    0  501  502 -0.00000000000E+00 -0.00000000000E+00 -0.26082413287E+03  0.26082413287E+03  0.00000000000E+00 0. -1.
         25    1    1    2    0    0 -0.33167963798E+00 -0.14614945531E+03 -0.97534478205E+02  0.21563336416E+03  0.12500000000E+03 0.  0.
         25    1    1    2    0    0  0.33167963798E+00  0.14614945531E+03 -0.15539381413E+02  0.19294104196E+03  0.12500000000E+03 0.  0.
</event>
<event>
 4    0  0.2170991E-002  0.1539320E+03  0.7546771E-02  0.1195723E+00
         21   -1    0    0  502  501  0.00000000000E+00  0.00000000000E+00  0.73762246779E+03  0.73762246779E+03  0.00000000000E+00 0. -1.
         21   -1    0    0  501  502 -0.00000000000E+00 -0.00000000000E+00 -0.32123553801E+02  0.32123553801E+02  0.00000000000E+00 0. -1.
         25    1    1    2    0    0 -0.82076646045E+02  0.62671163639E+01  0.26280183084E+03  0.30243289316E+03  0.12500000000E+03 0.  0.
         25    1    1    2    0    0  0.82076646045E+02 -0.62671163639E+01  0.44269708315E+03  0.46731312843E+03  0.12500000000E+03 0.  0.
</event>
<event>
 4    0  0.2170991E-002  0.2781693E+03  0.7546771E-02  0.1096693E+00
         21   -1    0    0  502  501  0.00000000000E+00  0.00000000000E+00  0.71610831717E+03  0.71610831717E+03  0.00000000000E+00 0.  1.
         21   -1    0    0  501  502 -0.00000000000E+00 -0.00000000000E+00 -0.10805370448E+03  0.10805370448E+03  0.00000000000E+00 0.  1.
         25    1    1    2    0    0  0.19344599077E+03 -0.15200345479E+03  0.35591355916E+03  0.45036192469E+03  0.12500000000E+03 0.  0.
         25    1    1    2    0    0 -0.19344599077E+03  0.15200345479E+03  0.25214105353E+03  0.37380009696E+03  0.12500000000E+03 0.  0.
</event>
<event>
 4    0  0.2170991E-002  0.1837847E+03  0.7546771E-02  0.1164190E+00
         21   -1    0    0  502  501  0.00000000000E+00  0.00000000000E+00  0.22301436512E+03  0.22301436512E+03  0.00000000000E+00 0. -1.
         21   -1    0    0  501  502 -0.00000000000E+00 -0.00000000000E+00 -0.15145571096E+03  0.15145571096E+03  0.00000000000E+00 0. -1.
         25    1    1    2    0    0 -0.19889977155E+02  0.13262402670E+03  0.22611674406E+02  0.18471879024E+03  0.12500000000E+03 0.  0.
         25    1    1    2    0    0  0.19889977155E+02 -0.13262402670E+03  0.48946979763E+02  0.18975128584E+03  0.12500000000E+03 0.  0.
</event>
<event>
 4    0  0.2170991E-002  0.1884590E+03  0.7546771E-02  0.1159859E+00
         21   -1    0    0  502  501  0.00000000000E+00  0.00000000000E+00  0.15651950175E+04  0.15651950175E+04  0.00000000000E+00 0.  1.
         21   -1    0    0  501  502 -0.00000000000E+00 -0.00000000000E+00 -0.22691610883E+02  0.22691610883E+02  0.00000000000E+00 0.  1.
         25    1    1    2    0    0  0.21599097541E+02  0.12201830473E+03  0.48749388786E+03  0.51829555121E+03  0.12500000000E+03 0.  0.
         25    1    1    2    0    0 -0.21599097541E+02 -0.12201830473E+03  0.10550095188E+04  0.10695910772E+04  0.12500000000E+03 0.  0.
</event>
<event>
 4    0  0.2170991E-002  0.2798997E+03  0.7546771E-02  0.1095744E+00
         21   -1    0    0  502  501  0.00000000000E+00  0.00000000000E+00  0.10043904252E+03  0.10043904252E+03  0.00000000000E+00 0.  1.
         21   -1    0    0  501  502 -0.00000000000E+00 -0.00000000000E+00 -0.78001377256E+03  0.78001377256E+03  0.00000000000E+00 0.  1.
         25    1    1    2    0    0 -0.17885248444E+03  0.10570672386E+03 -0.11983855668E+03  0.27045961312E+03  0.12500000000E+03 0.  0.
         25    1    1    2    0    0  0.17885248444E+03 -0.10570672386E+03 -0.55973617337E+03  0.60999320196E+03  0.12500000000E+03 0.  0.
</event>
<event>
 4    0  0.2170991E-002  0.2749865E+03  0.7546771E-02  0.1098459E+00
         21   -1    0    0  502  501  0.00000000000E+00  0.00000000000E+00  0.41497136307E+03  0.41497136307E+03  0.00000000000E+00 0.  1.
         21   -1    0    0  501  502 -0.00000000000E+00 -0.00000000000E+00 -0.18222364637E+03  0.18222364637E+03  0.00000000000E+00 0.  1.
         25    1    1    2    0    0  0.23341841230E+03 -0.19221532570E+02  0.19421566140E+03  0.32893516937E+03  0.12500000000E+03 0.  0.
         25    1    1    2    0    0 -0.23341841230E+03  0.19221532570E+02  0.38532055306E+02  0.26825984008E+03  0.12500000000E+03 0.  0.
</event>
<event>
 4    0  0.2170991E-002  0.2005476E+03  0.7546771E-02  0.1149278E+00
         21   -1    0    0  502  501  0.00000000000E+00  0.00000000000E+00  0.10877299537E+04  0.10877299537E+04  0.00000000000E+00 0.  1.
         21   -1    0    0  501  502 -0.00000000000E+00 -0.00000000000E+00 -0.36975471779E+02  0.36975471779E+02  0.00000000000E+00 0.  1.
         25    1    1    2    0    0  0.22997495867E+02  0.55733988785E+02  0.93133269996E+03  0.94161603658E+03  0.12500000000E+03 0.  0.
         25    1    1    2    0    0 -0.22997495867E+02 -0.55733988785E+02  0.11942178196E+03  0.18308938890E+03  0.12500000000E+03 0.  0.
</event>
<event>
 4    0  0.2170991E-002  0.1828931E+03  0.7546771E-02  0.1165032E+00
         21   -1    0    0  502  501  0.00000000000E+00  0.00000000000E+00  0.38192565284E+02  0.38192565284E+02  0.00000000000E+00 0. -1.
         21   -1    0    0  501  502 -0.00000000000E+00 -0.00000000000E+00 -0.87582225324E+03  0.87582225324E+03  0.00000000000E+00 0. -1.
         25    1    1    2    0    0  0.77148156265E+02  0.72909869585E+02 -0.62115656238E+03  0.64243922832E+03  0.12500000000E+03 0.  0.
         25    1    1    2    0    0 -0.77148156265E+02 -0.72909869585E+02 -0.21647312558E+03  0.27157559021E+03  0.12500000000E+03 0.  0.
</event>
<event>
 4    0  0.2170991E-002  0.1792369E+03  0.7546771E-02  0.1168544E+00
         21   -1    0    0  502  501  0.00000000000E+00  0.00000000000E+00  0.14784570005E+04  0.14784570005E+04  0.00000000000E+00 0. -1.
         21   -1    0    0  501  502 -0.00000000000E+00 -0.00000000000E+00 -0.21729321636E+02  0.21729321636E+02  0.00000000000E+00 0. -1.
         25    1    1    2    0    0  0.20823404950E+02  0.11721833528E+03  0.52648224332E+03  0.55405983869E+03  0.12500000000E+03 0.  0.
         25    1    1    2    0    0 -0.20823404950E+02 -0.11721833528E+03  0.93024543550E+03  0.94612648340E+03  0.12500000000E+03 0.  0.
</event>
<event>
 4    0  0.2170991E-002  0.2701516E+03  0.7546771E-02  0.1101193E+00
         21   -1    0    0  502  501  0.00000000000E+00  0.00000000000E+00  0.18149665739E+03  0.18149665739E+03  0.00000000000E+00 0. -1.
         21   -1    0    0  501  502 -0.00000000000E+00 -0.00000000000E+00 -0.40211154471E+03  0.40211154471E+03  0.00000000000E+00 0. -1.
         25    1    1    2    0    0 -0.70027806518E+01 -0.18102625429E+03 -0.27950640810E+03  0.35576449493E+03  0.12500000000E+03 0.  0.
         25    1    1    2    0    0  0.70027806518E+01  0.18102625429E+03  0.58891520778E+02  0.22784370717E+03  0.12500000000E+03 0.  0.
</event>
<event>
 4    0  0.2170991E-002  0.1875082E+03  0.7546771E-02  0.1160728E+00
         21   -1    0    0  502  501  0.00000000000E+00  0.00000000000E+00  0.17843442225E+03  0.17843442225E+03  0.00000000000E+00 0. -1.
         21   -1    0    0  501  502 -0.00000000000E+00 -0.00000000000E+00 -0.19704346746E+03  0.19704346746E+03  0.00000000000E+00 0. -1.
         25    1    1    2    0    0 -0.22154348416E+01  0.13943141024E+03  0.10443120967E+00  0.18727262806E+03  0.12500000000E+03 0.  0.
         25    1    1    2    0    0  0.22154348416E+01 -0.13943141024E+03 -0.18713476413E+02  0.18820526165E+03  0.12500000000E+03 0.  0.
</event>
<event>
 4    0  0.2170991E-002  0.1870827E+03  0.7546771E-02  0.1161119E+00
         21   -1    0    0  502  501  0.00000000000E+00  0.00000000000E+00  0.25080405814E+02  0.25080405814E+02  0.00000000000E+00 0. -1.
         21   -1    0    0  501  502 -0.00000000000E+00 -0.00000000000E+00 -0.13955096505E+04  0.13955096505E+04  0.00000000000E+00 0. -1.
         25    1    1    2    0    0  0.26295678144E+02  0.12859475894E+02 -0.12018730462E+04  0.12087103242E+04  0.12500000000E+03 0.  0.
         25    1    1    2    0    0 -0.26295678144E+02 -0.12859475894E+02 -0.16855619855E+03  0.21187973211E+03  0.12500000000E+03 0.  0.
</event>
<event>
 4    0  0.2170991E-002  0.2407560E+03  0.7546771E-02  0.1119290E+00
         21   -1    0    0  502  501  0.00000000000E+00  0.00000000000E+00  0.55292254219E+03  0.55292254219E+03  0.00000000000E+00 0. -1.
         21   -1    0    0  501  502 -0.00000000000E+00 -0.00000000000E+00 -0.10483109021E+03  0.10483109021E+03  0.00000000000E+00 0. -1.
         25    1    1    2    0    0  0.54740832533E+02 -0.19549031608E+03  0.26987249664E+03  0.36009608005E+03  0.12500000000E+03 0.  0.
         25    1    1    2    0    0 -0.54740832533E+02  0.19549031608E+03  0.17821895534E+03  0.29765755235E+03  0.12500000000E+03 0.  0.
</event>
<event>
 4    0  0.2170991E-002  0.2569066E+03  0.7546771E-02  0.1109016E+00
         21   -1    0    0  502  501  0.00000000000E+00  0.00000000000E+00  0.22176694969E+03  0.22176694969E+03  0.00000000000E+00 0.  1.
         21   -1    0    0  501  502 -0.00000000000E+00 -0.00000000000E+00 -0.29761417293E+03  0.29761417293E+03  0.00000000000E+00 0.  1.
         25    1    1    2    0    0  0.22309531780E+03  0.38585351245E+01 -0.13379254778E+02  0.25610625447E+03  0.12500000000E+03 0.  0.
         25    1    1    2    0    0 -0.22309531780E+03 -0.38585351245E+01 -0.62467968467E+02  0.26327486816E+03  0.12500000000E+03 0.  0.
</event>
<event>
 4    0  0.2170991E-002  0.2222114E+03  0.7546771E-02  0.1132245E+00
         21   -1    0    0  502  501  0.00000000000E+00  0.00000000000E+00  0.30007928438E+02  0.30007928438E+02  0.00000000000E+00 0.  1.
         21   -1    0    0  501  502 -0.00000000000E+00 -0.00000000000E+00 -0.16454950173E+04  0.16454950173E+04  0.00000000000E+00 0.  1.
         25    1    1    2    0    0 -0.15894764031E+03  0.64078119499E+02 -0.55816238402E+03  0.59711021152E+03  0.12500000000E+03 0.  0.
         25    1    1    2    0    0  0.15894764031E+03 -0.64078119499E+02 -0.10573247049E+04  0.10783927343E+04  0.12500000000E+03 0.  0.
</event>
<event>
 4    0  0.2170991E-002  0.3657697E+03  0.7546771E-02  0.1056322E+00
         21   -1    0    0  502  501  0.00000000000E+00  0.00000000000E+00  0.15691288494E+03  0.15691288494E+03  0.00000000000E+00 0.  1.
         21   -1    0    0  501  502 -0.00000000000E+00 -0.00000000000E+00 -0.85262255387E+03  0.85262255387E+03  0.00000000000E+00 0.  1.
         25    1    1    2    0    0 -0.17305967391E+02 -0.30188561182E+03 -0.57346957090E+03  0.66024750502E+03  0.12500000000E+03 0.  0.
         25    1    1    2    0    0  0.17305967391E+02  0.30188561182E+03 -0.12224009803E+03  0.34928793380E+03  0.12500000000E+03 0.  0.
</event>
<event>
 4    0  0.2170991E-002  0.2271924E+03  0.7546771E-02  0.1128632E+00
         21   -1    0    0  502  501  0.00000000000E+00  0.00000000000E+00  0.16898743005E+04  0.16898743005E+04  0.00000000000E+00 0. -1.
         21   -1    0    0  501  502 -0.00000000000E+00 -0.00000000000E+00 -0.30544500287E+02  0.30544500287E+02  0.00000000000E+00 0. -1.
         25    1    1    2    0    0 -0.22443681453E+02  0.15235589966E+03  0.12491601112E+04  0.12648090854E+04  0.12500000000E+03 0.  0.
         25    1    1    2    0    0  0.22443681453E+02 -0.15235589966E+03  0.41016968893E+03  0.45560971535E+03  0.12500000000E+03 0.  0.
</event>
<event>
 4    0  0.2170991E-002  0.1806677E+03  0.7546771E-02  0.1167158E+00
         21   -1    0    0  502  501  0.00000000000E+00  0.00000000000E+00  0.29031680757E+03  0.29031680757E+03  0.00000000000E+00 0.  1.
         21   -1    0    0  501  502 -0.00000000000E+00 -0.00000000000E+00 -0.11243168098E+03  0.11243168098E+03  0.00000000000E+00 0.  1.
         25    1    1    2    0    0  0.77945562286E+02 -0.73190013786E+02  0.17222960527E+03  0.23816029419E+03  0.12500000000E+03 0.  0.
         25    1    1    2    0    0 -0.77945562286E+02  0.73190013786E+02  0.56555213201E+01  0.16458819435E+03  0.12500000000E+03 0.  0.
</event>
<event>
 4    0  0.2183151E-002  0.2314562E+03  0.7546771E-02  0.1125619E+00
         21   -1    0    0  502  501  0.00000000000E+00  0.00000000000E+00  0.18224659943E+03  0.18224659943E+03  0.00000000000E+00 0.  1.
         21   -1    0    0  501  502 -0.00000000000E+00 -0.00000000000E+00 -0.29395312559E+03  0.29395312559E+03  0.00000000000E+00 0.  1.
         25    1    1    2    0    0  0.15903757426E+02  0.18466060665E+02  0.14296364719E+03  0.19146156093E+03  0.12500000000E+03 0.  0.
         25    1    1    2    0    0 -0.15903757426E+02 -0.18466060665E+02 -0.25467017334E+03  0.28473816409E+03  0.12500000000E+03 0.  0.
</event>
<event>
 4    0  0.2170991E-002  0.2336863E+03  0.7546771E-02  0.1124072E+00
         21   -1    0    0  502  501  0.00000000000E+00  0.00000000000E+00  0.52527640199E+03  0.52527640199E+03  0.00000000000E+00 0. -1.
         21   -1    0    0  501  502 -0.00000000000E+00 -0.00000000000E+00 -0.10396294866E+03  0.10396294866E+03  0.00000000000E+00 0. -1.
         25    1    1    2    0    0  0.14911743474E+03 -0.67926872408E+01  0.36660986268E+02  0.19811910018E+03  0.12500000000E+03 0.  0.
         25    1    1    2    0    0 -0.14911743474E+03  0.67926872408E+01  0.38465246707E+03  0.43112025047E+03  0.12500000000E+03 0.  0.
</event>
<event>
 4    0  0.2170991E-002  0.1581250E+03  0.7546771E-02  0.1190830E+00
         21   -1    0    0  502  501  0.00000000000E+00  0.00000000000E+00  0.82203721434E+03  0.82203721434E+03  0.00000000000E+00 0. -1.
         21   -1    0    0  501  502 -0.00000000000E+00 -0.00000000000E+00 -0.30416518692E+02  0.30416518692E+02  0.00000000000E+00 0. -1.
         25    1    1    2    0    0 -0.87687394874E+01  0.48276253481E+02  0.62086530444E+03  0.63522138952E+03  0.12500000000E+03 0.  0.
         25    1    1    2    0    0  0.87687394874E+01 -0.48276253481E+02  0.17075539121E+03  0.21723234351E+03  0.12500000000E+03 0.  0.
</event>
<event>
 4    0  0.2170991E-002  0.1769982E+03  0.7546771E-02  0.1170740E+00
         21   -1    0    0  502  501  0.00000000000E+00  0.00000000000E+00  0.10459344307E+03  0.10459344307E+03  0.00000000000E+00 0. -1.
         21   -1    0    0  501  502 -0.00000000000E+00 -0.00000000000E+00 -0.29952516003E+03  0.29952516003E+03  0.00000000000E+00 0. -1.
         25    1    1    2    0    0 -0.31022735560E+02 -0.11528541983E+03 -0.14093973322E+03  0.22302947461E+03  0.12500000000E+03 0.  0.
         25    1    1    2    0    0  0.31022735560E+02  0.11528541983E+03 -0.53991983744E+02  0.18108912848E+03  0.12500000000E+03 0.  0.
</event>
<event>
 4    0  0.2170991E-002  0.3918513E+03  0.7546771E-02  0.1046638E+00
         21   -1    0    0  502  501  0.00000000000E+00  0.00000000000E+00  0.14170172128E+03  0.14170172128E+03  0.00000000000E+00 0. -1.
         21   -1    0    0  501  502 -0.00000000000E+00 -0.00000000000E+00 -0.10835962887E+04  0.10835962887E+04  0.00000000000E+00 0. -1.
         25    1    1    2    0    0 -0.41429402635E+02 -0.36467544000E+03 -0.55963752417E+03  0.68082577096E+03  0.12500000000E+03 0.  0.
         25    1    1    2    0    0  0.41429402635E+02  0.36467544000E+03 -0.38225704326E+03  0.54447223903E+03  0.12500000000E+03 0.  0.
</event>
<event>
 4    0  0.2170991E-002  0.2707939E+03  0.7546771E-02  0.1100826E+00
         21   -1    0    0  502  501  0.00000000000E+00  0.00000000000E+00  0.84368431750E+03  0.84368431750E+03  0.00000000000E+00 0.  1.
         21   -1    0    0  501  502 -0.00000000000E+00 -0.00000000000E+00 -0.86915640482E+02  0.86915640482E+02  0.00000000000E+00 0.  1.
         25    1    1    2    0    0  0.15254779617E+03  0.11740423441E+03  0.62530178411E+03  0.66609451701E+03  0.12500000000E+03 0.  0.
         25    1    1    2    0    0 -0.15254779617E+03 -0.11740423441E+03  0.13146689291E+03  0.26450544097E+03  0.12500000000E+03 0.  0.
</event>
<event>
 4    0  0.2170991E-002  0.2051726E+03  0.7546771E-02  0.1145447E+00
         21   -1    0    0  502  501  0.00000000000E+00  0.00000000000E+00  0.13463634883E+03  0.13463634883E+03  0.00000000000E+00 0. -1.
         21   -1    0    0  501  502 -0.00000000000E+00 -0.00000000000E+00 -0.31266279576E+03  0.31266279576E+03  0.00000000000E+00 0. -1.
         25    1    1    2    0    0 -0.12463580808E+03  0.55122044689E+01 -0.20285133653E+03  0.26895749439E+03  0.12500000000E+03 0.  0.
         25    1    1    2    0    0  0.12463580808E+03 -0.55122044689E+01  0.24824889596E+02  0.17834165020E+03  0.12500000000E+03 0.  0.
</event>
<event>
 4    0  0.2170991E-002  0.1983584E+03  0.7546771E-02  0.1151131E+00
         21   -1    0    0  502  501  0.00000000000E+00  0.00000000000E+00  0.40888115811E+03  0.40888115811E+03  0.00000000000E+00 0. -1.
         21   -1    0    0  501  502 -0.00000000000E+00 -0.00000000000E+00 -0.96228587492E+02  0.96228587492E+02  0.00000000000E+00 0. -1.
         25    1    1    2    0    0 -0.78949432070E+02  0.49020877808E+02 -0.52473564389E-01  0.15575962904E+03  0.12500000000E+03 0.  0.
         25    1    1    2    0    0  0.78949432070E+02 -0.49020877808E+02  0.31270504418E+03  0.34935011656E+03  0.12500000000E+03 0.  0.
</event>
<event>
 4    0  0.2170991E-002  0.2564589E+03  0.7546771E-02  0.1109290E+00
         21   -1    0    0  502  501  0.00000000000E+00  0.00000000000E+00  0.34731640757E+03  0.34731640757E+03  0.00000000000E+00 0. -1.
         21   -1    0    0  501  502 -0.00000000000E+00 -0.00000000000E+00 -0.18936961622E+03  0.18936961622E+03  0.00000000000E+00 0. -1.
         25    1    1    2    0    0  0.20592951816E+03  0.65533121113E+02  0.17562836955E+02  0.25026987365E+03  0.12500000000E+03 0.  0.
         25    1    1    2    0    0 -0.20592951816E+03 -0.65533121113E+02  0.14038395439E+03  0.28641615014E+03  0.12500000000E+03 0.  0.
</event>
<event>
 4    0  0.2170991E-002  0.2167677E+03  0.7546771E-02  0.1136316E+00
         21   -1    0    0  502  501  0.00000000000E+00  0.00000000000E+00  0.91509839082E+03  0.91509839082E+03  0.00000000000E+00 0. -1.
         21   -1    0    0  501  502 -0.00000000000E+00 -0.00000000000E+00 -0.51347757174E+02  0.51347757174E+02  0.00000000000E+00 0. -1.
         25    1    1    2    0    0  0.66847834812E+02  0.16316589612E+03  0.39514338476E+03  0.45039431301E+03  0.12500000000E+03 0.  0.
         25    1    1    2    0    0 -0.66847834812E+02 -0.16316589612E+03  0.46860724888E+03  0.51605183498E+03  0.12500000000E+03 0.  0.
</event>
<event>
 4    0  0.2170991E-002  0.2461633E+03  0.7546771E-02  0.1115754E+00
         21   -1    0    0  502  501  0.00000000000E+00  0.00000000000E+00  0.27465450255E+03  0.27465450255E+03  0.00000000000E+00 0. -1.
         21   -1    0    0  501  502 -0.00000000000E+00 -0.00000000000E+00 -0.22062755792E+03  0.22062755792E+03  0.00000000000E+00 0. -1.
         25    1    1    2    0    0 -0.18193483934E+03  0.10874488124E+03  0.33808069439E+02  0.24838220653E+03  0.12500000000E+03 0.  0.
         25    1    1    2    0    0  0.18193483934E+03 -0.10874488124E+03  0.20218875193E+02  0.24689985394E+03  0.12500000000E+03 0.  0.
</event>
<event>
 4    0  0.2170991E-002  0.2037272E+03  0.7546771E-02  0.1146632E+00
         21   -1    0    0  502  501  0.00000000000E+00  0.00000000000E+00  0.11980421589E+04  0.11980421589E+04  0.00000000000E+00 0. -1.
         21   -1    0    0  501  502 -0.00000000000E+00 -0.00000000000E+00 -0.34643823809E+02  0.34643823809E+02  0.00000000000E+00 0. -1.
         25    1    1    2    0    0 -0.12164970280E+03  0.42017040306E+00  0.26323417504E+03  0.31577849458E+03  0.12500000000E+03 0.  0.
         25    1    1    2    0    0  0.12164970280E+03 -0.42017040306E+00  0.90016416003E+03  0.91690748810E+03  0.12500000000E+03 0.  0.
</event>
<event>
 4    0  0.2170991E-002  0.2201662E+03  0.7546771E-02  0.1133759E+00
         21   -1    0    0  502  501  0.00000000000E+00  0.00000000000E+00  0.64064520190E+02  0.64064520190E+02  0.00000000000E+00 0.  1.
         21   -1    0    0  501  502 -0.00000000000E+00 -0.00000000000E+00 -0.75663050858E+03  0.75663050858E+03  0.00000000000E+00 0.  1.
         25    1    1    2    0    0  0.15948836011E+03  0.65385480085E+02 -0.24190356663E+03  0.32226407427E+03  0.12500000000E+03 0.  0.
         25    1    1    2    0    0 -0.15948836011E+03 -0.65385480085E+02 -0.45066242177E+03  0.49843095450E+03  0.12500000000E+03 0.  0.
</event>
<event>
 4    0  0.2170991E-002  0.2400479E+03  0.7546771E-02  0.1119761E+00
         21   -1    0    0  502  501  0.00000000000E+00  0.00000000000E+00  0.58265159781E+02  0.58265159781E+02  0.00000000000E+00 0.  1.
         21   -1    0    0  501  502 -0.00000000000E+00 -0.00000000000E+00 -0.98897855740E+03  0.98897855740E+03  0.00000000000E+00 0.  1.
         25    1    1    2    0    0 -0.15529100088E+03  0.60331881620E+02 -0.72568235971E+03  0.75498021040E+03  0.12500000000E+03 0.  0.
         25    1    1    2    0    0  0.15529100088E+03 -0.60331881620E+02 -0.20503103791E+03  0.29226350679E+03  0.12500000000E+03 0.  0.
</event>
<event>
 4    0  0.2170991E-002  0.2691587E+03  0.7546771E-02  0.1101762E+00
         21   -1    0    0  502  501  0.00000000000E+00  0.00000000000E+00  0.15175850662E+03  0.15175850662E+03  0.00000000000E+00 0.  1.
         21   -1    0    0  501  502 -0.00000000000E+00 -0.00000000000E+00 -0.47737955006E+03  0.47737955006E+03  0.00000000000E+00 0. -1.
         25    1    1    2    0    0 -0.28969387596E+02  0.23659865034E+03 -0.16492096000E+03  0.31566132137E+03  0.12500000000E+03 0.  0.
         25    1    1    2    0    0  0.28969387596E+02 -0.23659865034E+03 -0.16070008344E+03  0.31347673531E+03  0.12500000000E+03 0.  0.
</event>
<event>
 4    0  0.2170991E-002  0.2027268E+03  0.7546771E-02  0.1147459E+00
         21   -1    0    0  502  501  0.00000000000E+00  0.00000000000E+00  0.45978580049E+02  0.45978580049E+02  0.00000000000E+00 0.  1.
         21   -1    0    0  501  502 -0.00000000000E+00 -0.00000000000E+00 -0.89385481300E+03  0.89385481300E+03  0.00000000000E+00 0.  1.
         25    1    1    2    0    0  0.14200085461E+03 -0.12096990277E+02 -0.25738849756E+03  0.31966297653E+03  0.12500000000E+03 0.  0.
         25    1    1    2    0    0 -0.14200085461E+03  0.12096990277E+02 -0.59048773539E+03  0.62017041652E+03  0.12500000000E+03 0.  0.
</event>
<event>
 4    0  0.2170991E-002  0.1858821E+03  0.7546771E-02  0.1162229E+00
         21   -1    0    0  502  501  0.00000000000E+00  0.00000000000E+00  0.20903159050E+03  0.20903159050E+03  0.00000000000E+00 0.  1.
         21   -1    0    0  501  502 -0.00000000000E+00 -0.00000000000E+00 -0.16529639614E+03  0.16529639614E+03  0.00000000000E+00 0.  1.
         25    1    1    2    0    0  0.12336620263E+03  0.55335307675E+02  0.47458457876E+02  0.19015394145E+03  0.12500000000E+03 0.  0.
         25    1    1    2    0    0 -0.12336620263E+03 -0.55335307675E+02 -0.37232635142E+01  0.18417404518E+03  0.12500000000E+03 0.  0.
</event>
<event>
 4    0  0.2170991E-002  0.2375048E+03  0.7546771E-02  0.1121466E+00
         21   -1    0    0  502  501  0.00000000000E+00  0.00000000000E+00  0.14111063292E+03  0.14111063292E+03  0.00000000000E+00 0. -1.
         21   -1    0    0  501  502 -0.00000000000E+00 -0.00000000000E+00 -0.39974678642E+03  0.39974678642E+03  0.00000000000E+00 0. -1.
         25    1    1    2    0    0 -0.11939938039E+03  0.93506711624E+02  0.22524224784E+02  0.19781824451E+03  0.12500000000E+03 0.  0.
         25    1    1    2    0    0  0.11939938039E+03 -0.93506711624E+02 -0.28116037828E+03  0.34303917484E+03  0.12500000000E+03 0.  0.
</event>
<event>
 4    0  0.2170991E-002  0.1943078E+03  0.7546771E-02  0.1154632E+00
         21   -1    0    0  502  501  0.00000000000E+00  0.00000000000E+00  0.32253306984E+03  0.32253306984E+03  0.00000000000E+00 0. -1.
         21   -1    0    0  501  502 -0.00000000000E+00 -0.00000000000E+00 -0.11705942765E+03  0.11705942765E+03  0.00000000000E+00 0. -1.
         25    1    1    2    0    0  0.49229685449E+00 -0.14088358469E+03  0.15677469046E+03  0.24505454568E+03  0.12500000000E+03 0.  0.
         25    1    1    2    0    0 -0.49229685449E+00  0.14088358469E+03  0.48698951726E+02  0.19453795180E+03  0.12500000000E+03 0.  0.
</event>
<event>
 4    0  0.2170991E-002  0.1970044E+03  0.7546771E-02  0.1152291E+00
         21   -1    0    0  502  501  0.00000000000E+00  0.00000000000E+00  0.23691024432E+03  0.23691024432E+03  0.00000000000E+00 0. -1.
         21   -1    0    0  501  502 -0.00000000000E+00 -0.00000000000E+00 -0.16382043784E+03  0.16382043784E+03  0.00000000000E+00 0. -1.
         25    1    1    2    0    0 -0.11276227191E+03 -0.56281108003E+02  0.12345950320E+03  0.21621781151E+03  0.12500000000E+03 0.  0.
         25    1    1    2    0    0  0.11276227191E+03  0.56281108003E+02 -0.50369696723E+02  0.18451287064E+03  0.12500000000E+03 0.  0.
</event>
<event>
 4    0  0.2170991E-002  0.2644004E+03  0.7546771E-02  0.1104528E+00
         21   -1    0    0  502  501  0.00000000000E+00  0.00000000000E+00  0.78568269574E+03  0.78568269574E+03  0.00000000000E+00 0.  1.
         21   -1    0    0  501  502 -0.00000000000E+00 -0.00000000000E+00 -0.88976853728E+02  0.88976853728E+02  0.00000000000E+00 0.  1.
         25    1    1    2    0    0 -0.15560816800E+03 -0.13665388858E+03  0.17179288266E+03  0.29669172847E+03  0.12500000000E+03 0.  0.
         25    1    1    2    0    0  0.15560816800E+03  0.13665388858E+03  0.52491295936E+03  0.57796782100E+03  0.12500000000E+03 0.  0.
</event>
<event>
 4    0  0.2170991E-002  0.1965643E+03  0.7546771E-02  0.1152671E+00
         21   -1    0    0  502  501  0.00000000000E+00  0.00000000000E+00  0.49762357907E+03  0.49762357907E+03  0.00000000000E+00 0.  1.
         21   -1    0    0  501  502 -0.00000000000E+00 -0.00000000000E+00 -0.77644047087E+02  0.77644047087E+02  0.00000000000E+00 0.  1.
         25    1    1    2    0    0  0.79416755422E+02  0.21071016102E+02  0.23388029514E+02  0.15140346326E+03  0.12500000000E+03 0.  0.
         25    1    1    2    0    0 -0.79416755422E+02 -0.21071016102E+02  0.39659150247E+03  0.42386416290E+03  0.12500000000E+03 0.  0.
</event>
<event>
 4    0  0.2170991E-002  0.2184422E+03  0.7546771E-02  0.1135050E+00
         21   -1    0    0  502  501  0.00000000000E+00  0.00000000000E+00  0.13368765669E+03  0.13368765669E+03  0.00000000000E+00 0.  1.
         21   -1    0    0  501  502 -0.00000000000E+00 -0.00000000000E+00 -0.35692900414E+03  0.35692900414E+03  0.00000000000E+00 0.  1.
         25    1    1    2    0    0  0.11403034008E+03  0.11070270536E+03 -0.20445595146E+03  0.28755041909E+03  0.12500000000E+03 0.  0.
         25    1    1    2    0    0 -0.11403034008E+03 -0.11070270536E+03 -0.18785396001E+02  0.20306624174E+03  0.12500000000E+03 0.  0.
</event>
<event>
 4    0  0.2170991E-002  0.1759436E+03  0.7546771E-02  0.1171788E+00
         21   -1    0    0  502  501  0.00000000000E+00  0.00000000000E+00  0.15707047569E+03  0.15707047569E+03  0.00000000000E+00 0.  1.
         21   -1    0    0  501  502 -0.00000000000E+00 -0.00000000000E+00 -0.19708451847E+03  0.19708451847E+03  0.00000000000E+00 0.  1.
         25    1    1    2    0    0 -0.67726520995E+02  0.14558104371E+02  0.83281546253E+02  0.16540748470E+03  0.12500000000E+03 0.  0.
         25    1    1    2    0    0  0.67726520995E+02 -0.14558104371E+02 -0.12329558903E+03  0.18874750945E+03  0.12500000000E+03 0.  0.
</event>
<event>
 4    0  0.2170991E-002  0.1701718E+03  0.7546771E-02  0.1177669E+00
         21   -1    0    0  502  501  0.00000000000E+00  0.00000000000E+00  0.26928429818E+02  0.26928429818E+02  0.00000000000E+00 0.  1.
         21   -1    0    0  501  502 -0.00000000000E+00 -0.00000000000E+00 -0.10753851580E+04  0.10753851580E+04  0.00000000000E+00 0.  1.
         25    1    1    2    0    0 -0.97822784037E+02  0.47722192751E+02 -0.64911142545E+03  0.66993831612E+03  0.12500000000E+03 0.  0.
         25    1    1    2    0    0  0.97822784037E+02 -0.47722192751E+02 -0.39934530269E+03  0.43237527166E+03  0.12500000000E+03 0.  0.
</event>
<event>
 4    0  0.2170991E-002  0.2439610E+03  0.7546771E-02  0.1117182E+00
         21   -1    0    0  502  501  0.00000000000E+00  0.00000000000E+00  0.42111085631E+03  0.42111085631E+03  0.00000000000E+00 0. -1.
         21   -1    0    0  501  502 -0.00000000000E+00 -0.00000000000E+00 -0.14133323970E+03  0.14133323970E+03  0.00000000000E+00 0. -1.
         25    1    1    2    0    0  0.11367646631E+03  0.16318504979E+02 -0.62097403336E+02  0.18074766969E+03  0.12500000000E+03 0.  0.
         25    1    1    2    0    0 -0.11367646631E+03 -0.16318504979E+02  0.34187501995E+03  0.38169642632E+03  0.12500000000E+03 0.  0.
</event>
<event>
 4    0  0.2170991E-002  0.2263507E+03  0.7546771E-02  0.1129235E+00
         21   -1    0    0  502  501  0.00000000000E+00  0.00000000000E+00  0.52024711421E+03  0.52024711421E+03  0.00000000000E+00 0.  1.
         21   -1    0    0  501  502 -0.00000000000E+00 -0.00000000000E+00 -0.98481384267E+02  0.98481384267E+02  0.00000000000E+00 0.  1.
         25    1    1    2    0    0  0.44785420089E+02 -0.17411780860E+03  0.13252507575E+03  0.25595046557E+03  0.12500000000E+03 0.  0.
         25    1    1    2    0    0 -0.44785420089E+02  0.17411780860E+03  0.28924065420E+03  0.36277803291E+03  0.12500000000E+03 0.  0.
</event>
<event>
 4    0  0.2170991E-002  0.2144174E+03  0.7546771E-02  0.1138115E+00
         21   -1    0    0  502  501  0.00000000000E+00  0.00000000000E+00  0.47371755083E+03  0.47371755083E+03  0.00000000000E+00 0.  1.
         21   -1    0    0  501  502 -0.00000000000E+00 -0.00000000000E+00 -0.97051154615E+02  0.97051154615E+02  0.00000000000E+00 0. -1.
         25    1    1    2    0    0  0.17281553273E+03  0.10774599673E+02  0.16278211067E+03  0.26852246816E+03  0.12500000000E+03 0.  0.
         25    1    1    2    0    0 -0.17281553273E+03 -0.10774599673E+02  0.21388428554E+03  0.30224623729E+03  0.12500000000E+03 0.  0.
</event>
<event>
 4    0  0.2170991E-002  0.2366587E+03  0.7546771E-02  0.1122039E+00
         21   -1    0    0  502  501  0.00000000000E+00  0.00000000000E+00  0.99793297028E+02  0.99793297028E+02  0.00000000000E+00 0.  1.
         21   -1    0    0  501  502 -0.00000000000E+00 -0.00000000000E+00 -0.56123345733E+03  0.56123345733E+03  0.00000000000E+00 0. -1.
         25    1    1    2    0    0  0.18040786522E+03 -0.88002026786E+02 -0.21739880945E+03  0.32121425389E+03  0.12500000000E+03 0.  0.
         25    1    1    2    0    0 -0.18040786522E+03  0.88002026786E+02 -0.24404135086E+03  0.33981250047E+03  0.12500000000E+03 0.  0.
</event>
<event>
 4    0  0.2170991E-002  0.2193979E+03  0.7546771E-02  0.1134333E+00
         21   -1    0    0  502  501  0.00000000000E+00  0.00000000000E+00  0.31247684522E+02  0.31247684522E+02  0.00000000000E+00 0.  1.
         21   -1    0    0  501  502 -0.00000000000E+00 -0.00000000000E+00 -0.15404486051E+04  0.15404486051E+04  0.00000000000E+00 0.  1.
         25    1    1    2    0    0 -0.85702116830E+02 -0.10448273464E+03 -0.11821610314E+04  0.11964076224E+04  0.12500000000E+03 0.  0.
         25    1    1    2    0    0  0.85702116830E+02  0.10448273464E+03 -0.32703988918E+03  0.37528866727E+03  0.12500000000E+03 0.  0.
</event>
<event>
 4    0  0.2170991E-002  0.1881458E+03  0.7546771E-02  0.1160144E+00
         21   -1    0    0  502  501  0.00000000000E+00  0.00000000000E+00  0.16176148805E+03  0.16176148805E+03  0.00000000000E+00 0.  1.
         21   -1    0    0  501  502 -0.00000000000E+00 -0.00000000000E+00 -0.21883345263E+03  0.21883345263E+03  0.00000000000E+00 0.  1.
         25    1    1    2    0    0 -0.10515101793E+03 -0.43900587838E+02 -0.11187875381E+03  0.20279510285E+03  0.12500000000E+03 0.  0.
         25    1    1    2    0    0  0.10515101793E+03  0.43900587838E+02  0.54806789230E+02  0.17779983783E+03  0.12500000000E+03 0.  0.
</event>
<event>
 4    0  0.2170991E-002  0.2248982E+03  0.7546771E-02  0.1130283E+00
         21   -1    0    0  502  501  0.00000000000E+00  0.00000000000E+00  0.18588429638E+04  0.18588429638E+04  0.00000000000E+00 0. -1.
         21   -1    0    0  501  502 -0.00000000000E+00 -0.00000000000E+00 -0.27210050399E+02  0.27210050399E+02  0.00000000000E+00 0. -1.
         25    1    1    2    0    0  0.81569748954E+02  0.16018055221E+03  0.70025645684E+03  0.73368626714E+03  0.12500000000E+03 0.  0.
         25    1    1    2    0    0 -0.81569748954E+02 -0.16018055221E+03  0.11313764565E+04  0.11523667470E+04  0.12500000000E+03 0.  0.
</event>
<event>
 4    0  0.2170991E-002  0.3459672E+03  0.7546771E-02  0.1064283E+00
         21   -1    0    0  502  501  0.00000000000E+00  0.00000000000E+00  0.51244062581E+02  0.51244062581E+02  0.00000000000E+00 0.  1.
         21   -1    0    0  501  502 -0.00000000000E+00 -0.00000000000E+00 -0.23357490929E+04  0.23357490929E+04  0.00000000000E+00 0.  1.
         25    1    1    2    0    0  0.12908357045E+03 -0.20204438382E+03 -0.18868192522E+04  0.19060945390E+04  0.12500000000E+03 0.  0.
         25    1    1    2    0    0 -0.12908357045E+03  0.20204438382E+03 -0.39768577809E+03  0.48089861643E+03  0.12500000000E+03 0.  0.
</event>
<event>
 4    0  0.2170991E-002  0.2181178E+03  0.7546771E-02  0.1135294E+00
         21   -1    0    0  502  501  0.00000000000E+00  0.00000000000E+00  0.72072178460E+02  0.72072178460E+02  0.00000000000E+00 0.  1.
         21   -1    0    0  501  502 -0.00000000000E+00 -0.00000000000E+00 -0.66010714320E+03  0.66010714320E+03  0.00000000000E+00 0. -1.
         25    1    1    2    0    0  0.11969007950E+03 -0.21333164149E+02 -0.51394307093E+03  0.54271843453E+03  0.12500000000E+03 0.  0.
         25    1    1    2    0    0 -0.11969007950E+03  0.21333164149E+02 -0.74091893817E+02  0.18946088713E+03  0.12500000000E+03 0.  0.
</event>
<event>
 4    0  0.2170991E-002  0.2769050E+03  0.7546771E-02  0.1097391E+00
         21   -1    0    0  502  501  0.00000000000E+00  0.00000000000E+00  0.14060427839E+04  0.14060427839E+04  0.00000000000E+00 0. -1.
         21   -1    0    0  501  502 -0.00000000000E+00 -0.00000000000E+00 -0.54533477995E+02  0.54533477995E+02  0.00000000000E+00 0. -1.
         25    1    1    2    0    0 -0.19166568500E+03  0.95250583821E+02  0.10013652460E+04  0.10315841044E+04  0.12500000000E+03 0.  0.
         25    1    1    2    0    0  0.19166568500E+03 -0.95250583821E+02  0.35014405994E+03  0.42899215755E+03  0.12500000000E+03 0.  0.
</event>
<event>
 4    0  0.2170991E-002  0.2748336E+03  0.7546771E-02  0.1098545E+00
         21   -1    0    0  502  501  0.00000000000E+00  0.00000000000E+00  0.25734954938E+03  0.25734954938E+03  0.00000000000E+00 0.  1.
         21   -1    0    0  501  502 -0.00000000000E+00 -0.00000000000E+00 -0.29350548500E+03  0.29350548500E+03  0.00000000000E+00 0.  1.
         25    1    1    2    0    0 -0.77549420102E+01  0.23580047298E+03 -0.83383982698E+02  0.27971394451E+03  0.12500000000E+03 0.  0.
         25    1    1    2    0    0  0.77549420102E+01 -0.23580047298E+03  0.47228047078E+02  0.27114108987E+03  0.12500000000E+03 0.  0.
</event>
<event>
 4    0  0.2170991E-002  0.1607632E+03  0.7546771E-02  0.1187838E+00
         21   -1    0    0  502  501  0.00000000000E+00  0.00000000000E+00  0.11629986750E+03  0.11629986750E+03  0.00000000000E+00 0.  1.
         21   -1    0    0  501  502 -0.00000000000E+00 -0.00000000000E+00 -0.22222551654E+03  0.22222551654E+03  0.00000000000E+00 0.  1.
         25    1    1    2    0    0  0.36254107655E+02  0.17191192379E+02 -0.15065814081E+03  0.19983186135E+03  0.12500000000E+03 0.  0.
         25    1    1    2    0    0 -0.36254107655E+02 -0.17191192379E+02  0.44732491771E+02  0.13869352269E+03  0.12500000000E+03 0.  0.
</event>
<event>
 4    0  0.2170991E-002  0.1672282E+03  0.7546771E-02  0.1180770E+00
         21   -1    0    0  502  501  0.00000000000E+00  0.00000000000E+00  0.33933414327E+02  0.33933414327E+02  0.00000000000E+00 0. -1.
         21   -1    0    0  501  502 -0.00000000000E+00 -0.00000000000E+00 -0.82412169146E+03  0.82412169146E+03  0.00000000000E+00 0. -1.
         25    1    1    2    0    0  0.11052699903E+03  0.11033106304E+02 -0.39899834012E+03  0.43262295636E+03  0.12500000000E+03 0.  0.
         25    1    1    2    0    0 -0.11052699903E+03 -0.11033106304E+02 -0.39118993702E+03  0.42543214943E+03  0.12500000000E+03 0.  0.
</event>
<event>
 4    0  0.2170991E-002  0.1832619E+03  0.7546771E-02  0.1164683E+00
         21   -1    0    0  502  501  0.00000000000E+00  0.00000000000E+00  0.87652760584E+03  0.87652760584E+03  0.00000000000E+00 0.  1.
         21   -1    0    0  501  502 -0.00000000000E+00 -0.00000000000E+00 -0.38315866241E+02  0.38315866241E+02  0.00000000000E+00 0.  1.
         25    1    1    2    0    0  0.10236806267E+03 -0.71152323600E+02  0.54184315499E+03  0.56987795011E+03  0.12500000000E+03 0.  0.
         25    1    1    2    0    0 -0.10236806267E+03  0.71152323600E+02  0.29636858461E+03  0.34496552197E+03  0.12500000000E+03 0.  0.
</event>
<event>
 4    0  0.2170991E-002  0.2070623E+03  0.7546771E-02  0.1143914E+00
         21   -1    0    0  502  501  0.00000000000E+00  0.00000000000E+00  0.41594845158E+03  0.41594845158E+03  0.00000000000E+00 0.  1.
         21   -1    0    0  501  502 -0.00000000000E+00 -0.00000000000E+00 -0.10307722923E+03  0.10307722923E+03  0.00000000000E+00 0.  1.
         25    1    1    2    0    0  0.84922741046E+02 -0.60455241335E+01  0.33368626878E+03  0.36636040491E+03  0.12500000000E+03 0.  0.
         25    1    1    2    0    0 -0.84922741046E+02  0.60455241335E+01 -0.20815046432E+02  0.15266527590E+03  0.12500000000E+03 0.  0.
</event>
<event>
 4    0  0.2170991E-002  0.2207418E+03  0.7546771E-02  0.1133331E+00
         21   -1    0    0  502  501  0.00000000000E+00  0.00000000000E+00  0.10640166687E+03  0.10640166687E+03  0.00000000000E+00 0.  1.
         21   -1    0    0  501  502 -0.00000000000E+00 -0.00000000000E+00 -0.45795277156E+03  0.45795277156E+03  0.00000000000E+00 0.  1.
         25    1    1    2    0    0 -0.72862434606E+02 -0.11558205566E+03 -0.32935305919E+03  0.37784465534E+03  0.12500000000E+03 0.  0.
         25    1    1    2    0    0  0.72862434606E+02  0.11558205566E+03 -0.22198045496E+02  0.18650978310E+03  0.12500000000E+03 0.  0.
</event>
<event>
 4    0  0.2170991E-002  0.4024621E+03  0.7546771E-02  0.1042930E+00
         21   -1    0    0  502  501  0.00000000000E+00  0.00000000000E+00  0.23144246668E+04  0.23144246668E+04  0.00000000000E+00 0. -1.
         21   -1    0    0  501  502 -0.00000000000E+00 -0.00000000000E+00 -0.69985300440E+02  0.69985300440E+02  0.00000000000E+00 0. -1.
         25    1    1    2    0    0 -0.15736788740E+03 -0.28075188140E+03  0.17348060970E+04  0.17688311013E+04  0.12500000000E+03 0.  0.
         25    1    1    2    0    0  0.15736788740E+03  0.28075188140E+03  0.50963326934E+03  0.61557886587E+03  0.12500000000E+03 0.  0.
</event>
<event>
 4    0  0.2170991E-002  0.3114381E+03  0.7546771E-02  0.1079659E+00
         21   -1    0    0  502  501  0.00000000000E+00  0.00000000000E+00  0.26552542249E+03  0.26552542249E+03  0.00000000000E+00 0.  1.
         21   -1    0    0  501  502 -0.00000000000E+00 -0.00000000000E+00 -0.36528973539E+03  0.36528973539E+03  0.00000000000E+00 0.  1.
         25    1    1    2    0    0 -0.16402346861E+02  0.24387953791E+03  0.99037744938E+02  0.29185568508E+03  0.12500000000E+03 0.  0.
         25    1    1    2    0    0  0.16402346861E+02 -0.24387953791E+03 -0.19880205784E+03  0.33895947279E+03  0.12500000000E+03 0.  0.
</event>
<event>
 4    0  0.2170991E-002  0.2270954E+03  0.7546771E-02  0.1128701E+00
         21   -1    0    0  502  501  0.00000000000E+00  0.00000000000E+00  0.24228418912E+04  0.24228418912E+04  0.00000000000E+00 0.  1.
         21   -1    0    0  501  502 -0.00000000000E+00 -0.00000000000E+00 -0.21285882933E+02  0.21285882933E+02  0.00000000000E+00 0.  1.
         25    1    1    2    0    0  0.15817836164E+03  0.22350199980E+01  0.17631651960E+04  0.17746554307E+04  0.12500000000E+03 0.  0.
         25    1    1    2    0    0 -0.15817836164E+03 -0.22350199980E+01  0.63839081229E+03  0.66947234344E+03  0.12500000000E+03 0.  0.
</event>
<event>
 4    0  0.2170991E-002  0.2042443E+03  0.7546771E-02  0.1146207E+00
         21   -1    0    0  502  501  0.00000000000E+00  0.00000000000E+00  0.58645240130E+03  0.58645240130E+03  0.00000000000E+00 0.  1.
         21   -1    0    0  501  502 -0.00000000000E+00 -0.00000000000E+00 -0.71132324557E+02  0.71132324557E+02  0.00000000000E+00 0.  1.
         25    1    1    2    0    0 -0.45418697804E+02 -0.32073232087E+02  0.50179385398E+03  0.52010924066E+03  0.12500000000E+03 0.  0.
         25    1    1    2    0    0  0.45418697804E+02  0.32073232087E+02  0.13526222756E+02  0.13747548519E+03  0.12500000000E+03 0.  0.
</event>
<event>
 4    0  0.2170991E-002  0.1511588E+03  0.7546771E-02  0.1199056E+00
         21   -1    0    0  502  501  0.00000000000E+00  0.00000000000E+00  0.29838129762E+03  0.29838129762E+03  0.00000000000E+00 0. -1.
         21   -1    0    0  501  502 -0.00000000000E+00 -0.00000000000E+00 -0.76576496170E+02  0.76576496170E+02  0.00000000000E+00 0. -1.
         25    1    1    2    0    0  0.31073515829E+02 -0.54950460967E+02  0.18148800270E+03  0.22923353086E+03  0.12500000000E+03 0.  0.
         25    1    1    2    0    0 -0.31073515829E+02  0.54950460967E+02  0.40316798757E+02  0.14572426294E+03  0.12500000000E+03 0.  0.
</event>
<event>
 4    0  0.2170991E-002  0.2297364E+03  0.7546771E-02  0.1126825E+00
         21   -1    0    0  502  501  0.00000000000E+00  0.00000000000E+00  0.63886194104E+03  0.63886194104E+03  0.00000000000E+00 0. -1.
         21   -1    0    0  501  502 -0.00000000000E+00 -0.00000000000E+00 -0.82613781945E+02  0.82613781945E+02  0.00000000000E+00 0. -1.
         25    1    1    2    0    0  0.70069335082E+01  0.18102168025E+03  0.38151903579E+03  0.44045399363E+03  0.12500000000E+03 0.  0.
         25    1    1    2    0    0 -0.70069335082E+01 -0.18102168025E+03  0.17472912331E+03  0.28102172936E+03  0.12500000000E+03 0.  0.
</event>
<event>
 4    0  0.2170991E-002  0.2306478E+03  0.7546771E-02  0.1126185E+00
         21   -1    0    0  502  501  0.00000000000E+00  0.00000000000E+00  0.97927933982E+03  0.97927933982E+03  0.00000000000E+00 0.  1.
         21   -1    0    0  501  502 -0.00000000000E+00 -0.00000000000E+00 -0.54324055965E+02  0.54324055965E+02  0.00000000000E+00 0.  1.
         25    1    1    2    0    0  0.37960057963E+02  0.10128522786E+03  0.10206141690E+03  0.19427093504E+03  0.12500000000E+03 0.  0.
         25    1    1    2    0    0 -0.37960057963E+02 -0.10128522786E+03  0.82289386696E+03  0.83933246074E+03  0.12500000000E+03 0.  0.
</event>
<event>
 4    0  0.2170991E-002  0.2584206E+03  0.7546771E-02  0.1108096E+00
         21   -1    0    0  502  501  0.00000000000E+00  0.00000000000E+00  0.30319954046E+03  0.30319954046E+03  0.00000000000E+00 0. -1.
         21   -1    0    0  501  502 -0.00000000000E+00 -0.00000000000E+00 -0.22025489070E+03  0.22025489070E+03  0.00000000000E+00 0. -1.
         25    1    1    2    0    0  0.21762811892E+03  0.49712946714E+02  0.46365353199E+01  0.25589035284E+03  0.12500000000E+03 0.  0.
         25    1    1    2    0    0 -0.21762811892E+03 -0.49712946714E+02  0.78308114439E+02  0.26756407831E+03  0.12500000000E+03 0.  0.
</event>
<event>
 4    0  0.2170991E-002  0.2008504E+03  0.7546771E-02  0.1149024E+00
         21   -1    0    0  502  501  0.00000000000E+00  0.00000000000E+00  0.21359170246E+02  0.21359170246E+02  0.00000000000E+00 0.  1.
         21   -1    0    0  501  502 -0.00000000000E+00 -0.00000000000E+00 -0.18886911336E+04  0.18886911336E+04  0.00000000000E+00 0.  1.
         25    1    1    2    0    0 -0.57163274876E+02  0.14412995610E+03 -0.10571830184E+04  0.10757797259E+04  0.12500000000E+03 0.  0.
         25    1    1    2    0    0  0.57163274876E+02 -0.14412995610E+03 -0.81014894502E+03  0.83427057803E+03  0.12500000000E+03 0.  0.
</event>
<event>
 4    0  0.2170991E-002  0.2814362E+03  0.7546771E-02  0.1094907E+00
         21   -1    0    0  502  501  0.00000000000E+00  0.00000000000E+00  0.44450188907E+03  0.44450188907E+03  0.00000000000E+00 0. -1.
         21   -1    0    0  501  502 -0.00000000000E+00 -0.00000000000E+00 -0.17819119329E+03  0.17819119329E+03  0.00000000000E+00 0. -1.
         25    1    1    2    0    0  0.18635770853E+03  0.16663986689E+03  0.96744169188E+02  0.29577436508E+03  0.12500000000E+03 0.  0.
         25    1    1    2    0    0 -0.18635770853E+03 -0.16663986689E+03  0.16956652660E+03  0.32691871728E+03  0.12500000000E+03 0.  0.
</event>
<event>
 4    0  0.2170991E-002  0.2083781E+03  0.7546771E-02  0.1142857E+00
         21   -1    0    0  502  501  0.00000000000E+00  0.00000000000E+00  0.19387502657E+02  0.19387502657E+02  0.00000000000E+00 0. -1.
         21   -1    0    0  501  502 -0.00000000000E+00 -0.00000000000E+00 -0.22396599356E+04  0.22396599356E+04  0.00000000000E+00 0. -1.
         25    1    1    2    0    0  0.10606101873E+03  0.97640299871E+02 -0.65617216364E+03  0.68335164900E+03  0.12500000000E+03 0.  0.
         25    1    1    2    0    0 -0.10606101873E+03 -0.97640299871E+02 -0.15641002693E+04  0.15756957892E+04  0.12500000000E+03 0.  0.
</event>
<event>
 4    0  0.2170991E-002  0.3165821E+03  0.7546771E-02  0.1077233E+00
         21   -1    0    0  502  501  0.00000000000E+00  0.00000000000E+00  0.65011003125E+02  0.65011003125E+02  0.00000000000E+00 0. -1.
         21   -1    0    0  501  502 -0.00000000000E+00 -0.00000000000E+00 -0.15416500193E+04  0.15416500193E+04  0.00000000000E+00 0. -1.
         25    1    1    2    0    0  0.20041233324E+03 -0.69646528959E+02 -0.12431724300E+04  0.12673272794E+04  0.12500000000E+03 0.  0.
         25    1    1    2    0    0 -0.20041233324E+03  0.69646528959E+02 -0.23346658614E+03  0.33933374303E+03  0.12500000000E+03 0.  0.
</event>
<event>
 4    0  0.2170991E-002  0.2625493E+03  0.7546771E-02  0.1105621E+00
         21   -1    0    0  502  501  0.00000000000E+00  0.00000000000E+00  0.14809287556E+03  0.14809287556E+03  0.00000000000E+00 0. -1.
         21   -1    0    0  501  502 -0.00000000000E+00 -0.00000000000E+00 -0.46546543438E+03  0.46546543438E+03  0.00000000000E+00 0. -1.
         25    1    1    2    0    0  0.17931011428E+03  0.44990567045E+02  0.29288963733E+01  0.22318119688E+03  0.12500000000E+03 0.  0.
         25    1    1    2    0    0 -0.17931011428E+03 -0.44990567045E+02 -0.32030145519E+03  0.39037711306E+03  0.12500000000E+03 0.  0.
</event>
<event>
 4    0  0.2170991E-002  0.1865046E+03  0.7546771E-02  0.1161652E+00
         21   -1    0    0  502  501  0.00000000000E+00  0.00000000000E+00  0.43462810754E+03  0.43462810754E+03  0.00000000000E+00 0.  1.
         21   -1    0    0  501  502 -0.00000000000E+00 -0.00000000000E+00 -0.80031602188E+02  0.80031602188E+02  0.00000000000E+00 0.  1.
         25    1    1    2    0    0  0.13712259423E+03 -0.64433226090E+01  0.20178100999E+03  0.27419828272E+03  0.12500000000E+03 0.  0.
         25    1    1    2    0    0 -0.13712259423E+03  0.64433226090E+01  0.15281549536E+03  0.24046142701E+03  0.12500000000E+03 0.  0.
</event>
<event>
 4    0  0.2170991E-002  0.1598320E+03  0.7546771E-02  0.1188887E+00
         21   -1    0    0  502  501  0.00000000000E+00  0.00000000000E+00  0.54646700889E+02  0.54646700889E+02  0.00000000000E+00 0.  1.
         21   -1    0    0  501  502 -0.00000000000E+00 -0.00000000000E+00 -0.46748045141E+03  0.46748045141E+03  0.00000000000E+00 0.  1.
         25    1    1    2    0    0  0.15668915472E+02 -0.24853018003E+02 -0.50963346394E+02  0.13815009986E+03  0.12500000000E+03 0.  0.
         25    1    1    2    0    0 -0.15668915472E+02  0.24853018003E+02 -0.36187040413E+03  0.38397705244E+03  0.12500000000E+03 0.  0.
</event>
<event>
 4    0  0.2170991E-002  0.2529367E+03  0.7546771E-02  0.1111463E+00
         21   -1    0    0  502  501  0.00000000000E+00  0.00000000000E+00  0.16964595293E+04  0.16964595293E+04  0.00000000000E+00 0. -1.
         21   -1    0    0  501  502 -0.00000000000E+00 -0.00000000000E+00 -0.37712061904E+02  0.37712061904E+02  0.00000000000E+00 0.  1.
         25    1    1    2    0    0  0.58292637936E+02  0.21196429876E+03  0.84654533963E+03  0.88351055887E+03  0.12500000000E+03 0.  0.
         25    1    1    2    0    0 -0.58292637936E+02 -0.21196429876E+03  0.81220212775E+03  0.85066103231E+03  0.12500000000E+03 0.  0.
</event>
<event>
 4    0  0.2170991E-002  0.2382049E+03  0.7546771E-02  0.1120994E+00
         21   -1    0    0  502  501  0.00000000000E+00  0.00000000000E+00  0.79183590653E+03  0.79183590653E+03  0.00000000000E+00 0.  1.
         21   -1    0    0  501  502 -0.00000000000E+00 -0.00000000000E+00 -0.71658235024E+02  0.71658235024E+02  0.00000000000E+00 0.  1.
         25    1    1    2    0    0 -0.33091481955E+02  0.18894041108E+03  0.24091709152E+03  0.33235458490E+03  0.12500000000E+03 0.  0.
         25    1    1    2    0    0  0.33091481955E+02 -0.18894041108E+03  0.47926057999E+03  0.53113955666E+03  0.12500000000E+03 0.  0.
</event>
<event>
 4    0  0.2170991E-002  0.3458495E+03  0.7546771E-02  0.1064332E+00
         21   -1    0    0  502  501  0.00000000000E+00  0.00000000000E+00  0.13791974086E+03  0.13791974086E+03  0.00000000000E+00 0.  1.
         21   -1    0    0  501  502 -0.00000000000E+00 -0.00000000000E+00 -0.86725732883E+03  0.86725732883E+03  0.00000000000E+00 0.  1.
         25    1    1    2    0    0 -0.23778301715E+03 -0.21782036696E+03 -0.36562232270E+03  0.50328039736E+03  0.12500000000E+03 0.  0.
         25    1    1    2    0    0  0.23778301715E+03  0.21782036696E+03 -0.36371526527E+03  0.50189667233E+03  0.12500000000E+03 0.  0.
</event>
<event>
 4    0  0.2170991E-002  0.2530902E+03  0.7546771E-02  0.1111367E+00
         21   -1    0    0  502  501  0.00000000000E+00  0.00000000000E+00  0.17206646292E+03  0.17206646292E+03  0.00000000000E+00 0.  1.
         21   -1    0    0  501  502 -0.00000000000E+00 -0.00000000000E+00 -0.37226693489E+03  0.37226693489E+03  0.00000000000E+00 0.  1.
         25    1    1    2    0    0  0.15410261980E+03  0.15528231028E+03 -0.74438610108E+02  0.26272860520E+03  0.12500000000E+03 0.  0.
         25    1    1    2    0    0 -0.15410261980E+03 -0.15528231028E+03 -0.12576186186E+03  0.28160479260E+03  0.12500000000E+03 0.  0.
</event>
<event>
 4    0  0.2170991E-002  0.2372743E+03  0.7546771E-02  0.1121622E+00
         21   -1    0    0  502  501  0.00000000000E+00  0.00000000000E+00  0.11028713865E+04  0.11028713865E+04  0.00000000000E+00 0. -1.
         21   -1    0    0  501  502 -0.00000000000E+00 -0.00000000000E+00 -0.51047745108E+02  0.51047745108E+02  0.00000000000E+00 0. -1.
         25    1    1    2    0    0 -0.65917853486E+02 -0.10836385931E+03  0.90718867143E+03  0.92450212276E+03  0.12500000000E+03 0.  0.
         25    1    1    2    0    0  0.65917853486E+02  0.10836385931E+03  0.14463496996E+03  0.22941700885E+03  0.12500000000E+03 0.  0.
</event>
<event>
 4    0  0.2170991E-002  0.1389833E+03  0.7546771E-02  0.1214704E+00
         21   -1    0    0  502  501  0.00000000000E+00  0.00000000000E+00  0.16936661496E+03  0.16936661496E+03  0.00000000000E+00 0. -1.
         21   -1    0    0  501  502 -0.00000000000E+00 -0.00000000000E+00 -0.11405056975E+03  0.11405056975E+03  0.00000000000E+00 0. -1.
         25    1    1    2    0    0 -0.35898296701E+02 -0.36513125383E+02 -0.56858787614E+01  0.13520068509E+03  0.12500000000E+03 0.  0.
         25    1    1    2    0    0  0.35898296701E+02  0.36513125383E+02  0.61001923970E+02  0.14821649962E+03  0.12500000000E+03 0.  0.
</event>
<event>
 4    0  0.2170991E-002  0.1860743E+03  0.7546771E-02  0.1162050E+00
         21   -1    0    0  502  501  0.00000000000E+00  0.00000000000E+00  0.21331489996E+03  0.21331489996E+03  0.00000000000E+00 0.  1.
         21   -1    0    0  501  502 -0.00000000000E+00 -0.00000000000E+00 -0.16231243190E+03  0.16231243190E+03  0.00000000000E+00 0.  1.
         25    1    1    2    0    0  0.76095234493E+02 -0.11320503117E+03  0.54968842527E+01  0.18509748656E+03  0.12500000000E+03 0.  0.
         25    1    1    2    0    0 -0.76095234493E+02  0.11320503117E+03  0.45505583803E+02  0.19052984530E+03  0.12500000000E+03 0.  0.
</event>
<event>
 4    0  0.2170991E-002  0.2680696E+03  0.7546771E-02  0.1102390E+00
         21   -1    0    0  502  501  0.00000000000E+00  0.00000000000E+00  0.16866550638E+03  0.16866550638E+03  0.00000000000E+00 0.  1.
         21   -1    0    0  501  502 -0.00000000000E+00 -0.00000000000E+00 -0.42605822636E+03  0.42605822636E+03  0.00000000000E+00 0.  1.
         25    1    1    2    0    0 -0.39285829753E+02 -0.35156596932E+02 -0.38516826828E+03  0.40836130769E+03  0.12500000000E+03 0.  0.
         25    1    1    2    0    0  0.39285829753E+02  0.35156596932E+02  0.12777554830E+03  0.18636242505E+03  0.12500000000E+03 0.  0.
</event>
<event>
 4    0  0.2170991E-002  0.1754172E+03  0.7546771E-02  0.1172313E+00
         21   -1    0    0  502  501  0.00000000000E+00  0.00000000000E+00  0.15912796500E+04  0.15912796500E+04  0.00000000000E+00 0.  1.
         21   -1    0    0  501  502 -0.00000000000E+00 -0.00000000000E+00 -0.19337383902E+02  0.19337383902E+02  0.00000000000E+00 0.  1.
         25    1    1    2    0    0  0.36657192874E+02  0.10892224654E+03  0.98809129048E+03  0.10025752859E+04  0.12500000000E+03 0.  0.
         25    1    1    2    0    0 -0.36657192874E+02 -0.10892224654E+03  0.58385097563E+03  0.60804174801E+03  0.12500000000E+03 0.  0.
</event>
<event>
 4    0  0.2170991E-002  0.1945665E+03  0.7546771E-02  0.1154406E+00
         21   -1    0    0  502  501  0.00000000000E+00  0.00000000000E+00  0.90676175191E+02  0.90676175191E+02  0.00000000000E+00 0. -1.
         21   -1    0    0  501  502 -0.00000000000E+00 -0.00000000000E+00 -0.41748709405E+03  0.41748709405E+03  0.00000000000E+00 0. -1.
         25    1    1    2    0    0  0.69849494861E+01 -0.83844615824E+02 -0.32415369136E+03  0.35746234031E+03  0.12500000000E+03 0.  0.
         25    1    1    2    0    0 -0.69849494861E+01  0.83844615824E+02 -0.26572275028E+01  0.15070092893E+03  0.12500000000E+03 0.  0.
</event>
<event>
 4    0  0.2170991E-002  0.1820135E+03  0.7546771E-02  0.1165869E+00
         21   -1    0    0  502  501  0.00000000000E+00  0.00000000000E+00  0.61754341921E+03  0.61754341921E+03  0.00000000000E+00 0. -1.
         21   -1    0    0  501  502 -0.00000000000E+00 -0.00000000000E+00 -0.53646272731E+02  0.53646272731E+02  0.00000000000E+00 0. -1.
         25    1    1    2    0    0 -0.91217977352E+02 -0.15260262300E+02  0.45638241248E+03  0.48214468930E+03  0.12500000000E+03 0.  0.
         25    1    1    2    0    0  0.91217977352E+02  0.15260262300E+02  0.10751473400E+03  0.18904500265E+03  0.12500000000E+03 0.  0.
</event>
<event>
 4    0  0.2170991E-002  0.2626423E+03  0.7546771E-02  0.1105566E+00
         21   -1    0    0  502  501  0.00000000000E+00  0.00000000000E+00  0.46729576545E+02  0.46729576545E+02  0.00000000000E+00 0. -1.
         21   -1    0    0  501  502 -0.00000000000E+00 -0.00000000000E+00 -0.14761743611E+04  0.14761743611E+04  0.00000000000E+00 0. -1.
         25    1    1    2    0    0 -0.85831443379E+02 -0.19802938129E+01 -0.93014947441E+02  0.17789811321E+03  0.12500000000E+03 0.  0.
         25    1    1    2    0    0  0.85831443379E+02  0.19802938129E+01 -0.13364298372E+04  0.13450058245E+04  0.12500000000E+03 0.  0.
</event>
<event>
 4    0  0.2170991E-002  0.2954232E+03  0.7546771E-02  0.1087551E+00
         21   -1    0    0  502  501  0.00000000000E+00  0.00000000000E+00  0.41869058045E+03  0.41869058045E+03  0.00000000000E+00 0. -1.
         21   -1    0    0  501  502 -0.00000000000E+00 -0.00000000000E+00 -0.20844723137E+03  0.20844723137E+03  0.00000000000E+00 0. -1.
         25    1    1    2    0    0 -0.26202217173E+03 -0.15345466457E+02  0.49371312854E+02  0.29487900629E+03  0.12500000000E+03 0.  0.
         25    1    1    2    0    0  0.26202217173E+03  0.15345466457E+02  0.16087203623E+03  0.33225880554E+03  0.12500000000E+03 0.  0.
</event>
<event>
 4    0  0.2170991E-002  0.2928336E+03  0.7546771E-02  0.1088879E+00
         21   -1    0    0  502  501  0.00000000000E+00  0.00000000000E+00  0.14191891836E+03  0.14191891836E+03  0.00000000000E+00 0.  1.
         21   -1    0    0  501  502 -0.00000000000E+00 -0.00000000000E+00 -0.60422909143E+03  0.60422909143E+03  0.00000000000E+00 0.  1.
         25    1    1    2    0    0  0.20330032743E+03 -0.12811640103E+03 -0.89391650235E+02  0.28523797517E+03  0.12500000000E+03 0.  0.
         25    1    1    2    0    0 -0.20330032743E+03  0.12811640103E+03 -0.37291852283E+03  0.46091003462E+03  0.12500000000E+03 0.  0.
</event>
<event>
 4    0  0.2170991E-002  0.1838090E+03  0.7546771E-02  0.1164167E+00
         21   -1    0    0  502  501  0.00000000000E+00  0.00000000000E+00  0.58916945373E+03  0.58916945373E+03  0.00000000000E+00 0. -1.
         21   -1    0    0  501  502 -0.00000000000E+00 -0.00000000000E+00 -0.57344676312E+02  0.57344676312E+02  0.00000000000E+00 0. -1.
         25    1    1    2    0    0  0.63507098137E+02 -0.39181895376E+02  0.68563396499E+02  0.16091709598E+03  0.12500000000E+03 0.  0.
         25    1    1    2    0    0 -0.63507098137E+02  0.39181895376E+02  0.46326138092E+03  0.48559703407E+03  0.12500000000E+03 0.  0.
</event>
<event>
 4    0  0.2170991E-002  0.1356154E+03  0.7546771E-02  0.1219354E+00
         21   -1    0    0  502  501  0.00000000000E+00  0.00000000000E+00  0.14408931333E+03  0.14408931333E+03  0.00000000000E+00 0. -1.
         21   -1    0    0  501  502 -0.00000000000E+00 -0.00000000000E+00 -0.12763983123E+03  0.12763983123E+03  0.00000000000E+00 0. -1.
         25    1    1    2    0    0 -0.19287565380E+02  0.43714648798E+02 -0.13805545215E+02  0.13453093985E+03  0.12500000000E+03 0.  0.
         25    1    1    2    0    0  0.19287565380E+02 -0.43714648798E+02  0.30255027310E+02  0.13719820471E+03  0.12500000000E+03 0.  0.
</event>
<event>
 4    0  0.2170991E-002  0.1859167E+03  0.7546771E-02  0.1162197E+00
         21   -1    0    0  502  501  0.00000000000E+00  0.00000000000E+00  0.38757250139E+03  0.38757250139E+03  0.00000000000E+00 0.  1.
         21   -1    0    0  501  502 -0.00000000000E+00 -0.00000000000E+00 -0.89183365580E+02  0.89183365580E+02  0.00000000000E+00 0.  1.
         25    1    1    2    0    0 -0.42256908369E+01 -0.13409969929E+03  0.18849350847E+03  0.26297412144E+03  0.12500000000E+03 0.  0.
         25    1    1    2    0    0  0.42256908369E+01  0.13409969929E+03  0.10989562734E+03  0.21378174553E+03  0.12500000000E+03 0.  0.
</event>
<event>
 4    0  0.2170991E-002  0.2222691E+03  0.7546771E-02  0.1132203E+00
         21   -1    0    0  502  501  0.00000000000E+00  0.00000000000E+00  0.20746840422E+03  0.20746840422E+03  0.00000000000E+00 0. -1.
         21   -1    0    0  501  502 -0.00000000000E+00 -0.00000000000E+00 -0.23812559783E+03  0.23812559783E+03  0.00000000000E+00 0. -1.
         25    1    1    2    0    0 -0.92496431751E+02 -0.15715358432E+03 -0.38311179055E+02  0.22437821951E+03  0.12500000000E+03 0.  0.
         25    1    1    2    0    0  0.92496431751E+02  0.15715358432E+03  0.76539854411E+01  0.22121578254E+03  0.12500000000E+03 0.  0.
</event>
<event>
 4    0  0.2170991E-002  0.2309753E+03  0.7546771E-02  0.1125955E+00
         21   -1    0    0  502  501  0.00000000000E+00  0.00000000000E+00  0.13625607418E+04  0.13625607418E+04  0.00000000000E+00 0. -1.
         21   -1    0    0  501  502 -0.00000000000E+00 -0.00000000000E+00 -0.39153932894E+02  0.39153932894E+02  0.00000000000E+00 0. -1.
         25    1    1    2    0    0 -0.10531405267E+03 -0.11049978978E+03  0.10261192001E+04  0.10449147650E+04  0.12500000000E+03 0.  0.
         25    1    1    2    0    0  0.10531405267E+03  0.11049978978E+03  0.29728760879E+03  0.35679990971E+03  0.12500000000E+03 0.  0.
</event>
<event>
 4    0  0.2170991E-002  0.1834279E+03  0.7546771E-02  0.1164526E+00
         21   -1    0    0  502  501  0.00000000000E+00  0.00000000000E+00  0.82245252635E+03  0.82245252635E+03  0.00000000000E+00 0.  1.
         21   -1    0    0  501  502 -0.00000000000E+00 -0.00000000000E+00 -0.40909095048E+02  0.40909095048E+02  0.00000000000E+00 0.  1.
         25    1    1    2    0    0  0.81367101077E+01 -0.76874622099E+01  0.70559665602E+03  0.71667073619E+03  0.12500000000E+03 0.  0.
         25    1    1    2    0    0 -0.81367101077E+01  0.76874622099E+01  0.75946775278E+02  0.14669088520E+03  0.12500000000E+03 0.  0.
</event>
<event>
 4    0  0.2170991E-002  0.1932938E+03  0.7546771E-02  0.1155524E+00
         21   -1    0    0  502  501  0.00000000000E+00  0.00000000000E+00  0.12493954202E+03  0.12493954202E+03  0.00000000000E+00 0.  1.
         21   -1    0    0  501  502 -0.00000000000E+00 -0.00000000000E+00 -0.29904456491E+03  0.29904456491E+03  0.00000000000E+00 0.  1.
         25    1    1    2    0    0  0.10038639246E+03 -0.10680137196E+03 -0.69589607348E+02  0.20482107873E+03  0.12500000000E+03 0.  0.
         25    1    1    2    0    0 -0.10038639246E+03  0.10680137196E+03 -0.10451541554E+03  0.21916302820E+03  0.12500000000E+03 0.  0.
</event>
<event>
 4    0  0.2170991E-002  0.1744608E+03  0.7546771E-02  0.1173274E+00
         21   -1    0    0  502  501  0.00000000000E+00  0.00000000000E+00  0.12633021016E+03  0.12633021016E+03  0.00000000000E+00 0.  1.
         21   -1    0    0  501  502 -0.00000000000E+00 -0.00000000000E+00 -0.24092875855E+03  0.24092875855E+03  0.00000000000E+00 0.  1.
         25    1    1    2    0    0  0.42863725431E+02 -0.62651866480E+02 -0.15742493304E+03  0.21487243861E+03  0.12500000000E+03 0.  0.
         25    1    1    2    0    0 -0.42863725431E+02  0.62651866480E+02  0.42826384659E+02  0.15238653009E+03  0.12500000000E+03 0.  0.
</event>
<event>
 4    0  0.2170991E-002  0.3644241E+03  0.7546771E-02  0.1056846E+00
         21   -1    0    0  502  501  0.00000000000E+00  0.00000000000E+00  0.91601182611E+03  0.91601182611E+03  0.00000000000E+00 0. -1.
         21   -1    0    0  501  502 -0.00000000000E+00 -0.00000000000E+00 -0.14498165393E+03  0.14498165393E+03  0.00000000000E+00 0. -1.
         25    1    1    2    0    0 -0.33261514900E+03  0.63466512081E+02  0.45857785433E+03  0.58359188135E+03  0.12500000000E+03 0.  0.
         25    1    1    2    0    0  0.33261514900E+03 -0.63466512081E+02  0.31245231785E+03  0.47740159869E+03  0.12500000000E+03 0.  0.
</event>
<event>
 4    0  0.2170991E-002  0.2677545E+03  0.7546771E-02  0.1102572E+00
         21   -1    0    0  502  501  0.00000000000E+00  0.00000000000E+00  0.48885359334E+02  0.48885359334E+02  0.00000000000E+00 0. -1.
         21   -1    0    0  501  502 -0.00000000000E+00 -0.00000000000E+00 -0.14665429223E+04  0.14665429223E+04  0.00000000000E+00 0. -1.
         25    1    1    2    0    0 -0.10814625174E+03 -0.48579142327E+02 -0.12888647546E+04  0.13003279973E+04  0.12500000000E+03 0.  0.
         25    1    1    2    0    0  0.10814625174E+03  0.48579142327E+02 -0.12879280829E+03  0.21510028429E+03  0.12500000000E+03 0.  0.
</event>
<event>
 4    0  0.2170991E-002  0.2508642E+03  0.7546771E-02  0.1112760E+00
         21   -1    0    0  502  501  0.00000000000E+00  0.00000000000E+00  0.72250923878E+03  0.72250923878E+03  0.00000000000E+00 0.  1.
         21   -1    0    0  501  502 -0.00000000000E+00 -0.00000000000E+00 -0.87103166857E+02  0.87103166857E+02  0.00000000000E+00 0.  1.
         25    1    1    2    0    0  0.17705075320E+03 -0.15940290766E+02  0.11547001303E+03  0.24608816710E+03  0.12500000000E+03 0.  0.
         25    1    1    2    0    0 -0.17705075320E+03  0.15940290766E+02  0.51993605890E+03  0.56352423854E+03  0.12500000000E+03 0.  0.
</event>
<event>
 4    0  0.2170991E-002  0.1609947E+03  0.7546771E-02  0.1187578E+00
         21   -1    0    0  502  501  0.00000000000E+00  0.00000000000E+00  0.41759840499E+03  0.41759840499E+03  0.00000000000E+00 0.  1.
         21   -1    0    0  501  502 -0.00000000000E+00 -0.00000000000E+00 -0.62067520089E+02  0.62067520089E+02  0.00000000000E+00 0.  1.
         25    1    1    2    0    0  0.68112389726E+02  0.71723562256E+02  0.14409931965E+03  0.21487945677E+03  0.12500000000E+03 0.  0.
         25    1    1    2    0    0 -0.68112389726E+02 -0.71723562256E+02  0.21143156524E+03  0.26478646831E+03  0.12500000000E+03 0.  0.
</event>
<event>
 4    0  0.2170991E-002  0.2415974E+03  0.7546771E-02  0.1118733E+00
         21   -1    0    0  502  501  0.00000000000E+00  0.00000000000E+00  0.38085960773E+02  0.38085960773E+02  0.00000000000E+00 0.  1.
         21   -1    0    0  501  502 -0.00000000000E+00 -0.00000000000E+00 -0.15325678273E+04  0.15325678273E+04  0.00000000000E+00 0.  1.
         25    1    1    2    0    0  0.15250548692E+03 -0.10494686278E+03 -0.44803841392E+03  0.50063478494E+03  0.12500000000E+03 0.  0.
         25    1    1    2    0    0 -0.15250548692E+03  0.10494686278E+03 -0.10464434526E+04  0.10700190031E+04  0.12500000000E+03 0.  0.
</event>
<event>
 4    0  0.2170991E-002  0.2003367E+03  0.7546771E-02  0.1149455E+00
         21   -1    0    0  502  501  0.00000000000E+00  0.00000000000E+00  0.53353655881E+02  0.53353655881E+02  0.00000000000E+00 0. -1.
         21   -1    0    0  501  502 -0.00000000000E+00 -0.00000000000E+00 -0.75224074743E+03  0.75224074743E+03  0.00000000000E+00 0. -1.
         25    1    1    2    0    0  0.51240305080E+02  0.73670991711E+01 -0.64650910618E+03  0.66051409325E+03  0.12500000000E+03 0.  0.
         25    1    1    2    0    0 -0.51240305080E+02 -0.73670991711E+01 -0.52377985371E+02  0.14508031006E+03  0.12500000000E+03 0.  0.
</event>
<event>
 4    0  0.2170991E-002  0.2462715E+03  0.7546771E-02  0.1115684E+00
         21   -1    0    0  502  501  0.00000000000E+00  0.00000000000E+00  0.35227101655E+03  0.35227101655E+03  0.00000000000E+00 0. -1.
         21   -1    0    0  501  502 -0.00000000000E+00 -0.00000000000E+00 -0.17216762167E+03  0.17216762167E+03  0.00000000000E+00 0. -1.
         25    1    1    2    0    0 -0.23250207092E+02  0.20681476558E+03  0.13410412639E+03  0.27734786119E+03  0.12500000000E+03 0.  0.
         25    1    1    2    0    0  0.23250207092E+02 -0.20681476558E+03  0.45999268489E+02  0.24709077703E+03  0.12500000000E+03 0.  0.
</event>
<event>
 4    0  0.2170991E-002  0.2292255E+03  0.7546771E-02  0.1127186E+00
         21   -1    0    0  502  501  0.00000000000E+00  0.00000000000E+00  0.42504344889E+02  0.42504344889E+02  0.00000000000E+00 0.  1.
         21   -1    0    0  501  502 -0.00000000000E+00 -0.00000000000E+00 -0.12362106810E+04  0.12362106810E+04  0.00000000000E+00 0.  1.
         25    1    1    2    0    0  0.44074815597E+02 -0.18476151818E+03 -0.67768810300E+03  0.71481855944E+03  0.12500000000E+03 0.  0.
         25    1    1    2    0    0 -0.44074815597E+02  0.18476151818E+03 -0.51601823308E+03  0.56389646642E+03  0.12500000000E+03 0.  0.
</event>
<event>
 4    0  0.2170991E-002  0.4487196E+03  0.7546771E-02  0.1028105E+00
         21   -1    0    0  502  501  0.00000000000E+00  0.00000000000E+00  0.16689748381E+04  0.16689748381E+04  0.00000000000E+00 0. -1.
         21   -1    0    0  501  502 -0.00000000000E+00 -0.00000000000E+00 -0.12064250847E+03  0.12064250847E+03  0.00000000000E+00 0. -1.
         25    1    1    2    0    0 -0.39022027813E+03 -0.18227531780E+03  0.74404517394E+03  0.86874874262E+03  0.12500000000E+03 0.  0.
         25    1    1    2    0    0  0.39022027813E+03  0.18227531780E+03  0.80428715572E+03  0.92086860398E+03  0.12500000000E+03 0.  0.
</event>
<event>
 4    0  0.2170991E-002  0.1823464E+03  0.7546771E-02  0.1165551E+00
         21   -1    0    0  502  501  0.00000000000E+00  0.00000000000E+00  0.27394416312E+03  0.27394416312E+03  0.00000000000E+00 0.  1.
         21   -1    0    0  501  502 -0.00000000000E+00 -0.00000000000E+00 -0.12137582893E+03  0.12137582893E+03  0.00000000000E+00 0.  1.
         25    1    1    2    0    0 -0.55971076850E+02  0.11599351319E+03  0.11120692020E+03  0.21113795407E+03  0.12500000000E+03 0.  0.
         25    1    1    2    0    0  0.55971076850E+02 -0.11599351319E+03  0.41361413992E+02  0.18418203798E+03  0.12500000000E+03 0.  0.
</event>
<event>
 4    0  0.2170991E-002  0.2035950E+03  0.7546771E-02  0.1146741E+00
         21   -1    0    0  502  501  0.00000000000E+00  0.00000000000E+00  0.38601226353E+03  0.38601226353E+03  0.00000000000E+00 0.  1.
         21   -1    0    0  501  502 -0.00000000000E+00 -0.00000000000E+00 -0.10738235621E+03  0.10738235621E+03  0.00000000000E+00 0.  1.
         25    1    1    2    0    0 -0.98244628918E+02 -0.10239526464E+03  0.47920566025E+02  0.19508505319E+03  0.12500000000E+03 0.  0.
         25    1    1    2    0    0  0.98244628918E+02  0.10239526464E+03  0.23070934130E+03  0.29830956655E+03  0.12500000000E+03 0.  0.
</event>
<event>
 4    0  0.2170991E-002  0.1903680E+03  0.7546771E-02  0.1158130E+00
         21   -1    0    0  502  501  0.00000000000E+00  0.00000000000E+00  0.13582968778E+03  0.13582968778E+03  0.00000000000E+00 0.  1.
         21   -1    0    0  501  502 -0.00000000000E+00 -0.00000000000E+00 -0.26680450141E+03  0.26680450141E+03  0.00000000000E+00 0.  1.
         25    1    1    2    0    0  0.11067184634E+03  0.50075982103E+02  0.15459931581E+02  0.17498534522E+03  0.12500000000E+03 0.  0.
         25    1    1    2    0    0 -0.11067184634E+03 -0.50075982103E+02 -0.14643474521E+03  0.22764884397E+03  0.12500000000E+03 0.  0.
</event>
<event>
 4    0  0.2170991E-002  0.1696020E+03  0.7546771E-02  0.1178264E+00
         21   -1    0    0  502  501  0.00000000000E+00  0.00000000000E+00  0.15405932616E+03  0.15405932616E+03  0.00000000000E+00 0. -1.
         21   -1    0    0  501  502 -0.00000000000E+00 -0.00000000000E+00 -0.18671280635E+03  0.18671280635E+03  0.00000000000E+00 0. -1.
         25    1    1    2    0    0  0.66037814544E+02  0.55484158716E+02 -0.92176521307E+02  0.17765414687E+03  0.12500000000E+03 0.  0.
         25    1    1    2    0    0 -0.66037814544E+02 -0.55484158716E+02  0.59523041117E+02  0.16311798565E+03  0.12500000000E+03 0.  0.
</event>
<event>
 4    0  0.2170991E-002  0.2075602E+03  0.7546771E-02  0.1143513E+00
         21   -1    0    0  502  501  0.00000000000E+00  0.00000000000E+00  0.94959700270E+02  0.94959700270E+02  0.00000000000E+00 0.  1.
         21   -1    0    0  501  502 -0.00000000000E+00 -0.00000000000E+00 -0.45367894125E+03  0.45367894125E+03  0.00000000000E+00 0.  1.
         25    1    1    2    0    0 -0.15157453687E+02 -0.16180299361E+03 -0.13661002096E+03  0.24636812897E+03  0.12500000000E+03 0.  0.
         25    1    1    2    0    0  0.15157453687E+02  0.16180299361E+03 -0.22210922002E+03  0.30227051255E+03  0.12500000000E+03 0.  0.
</event>
<event>
 4    0  0.2170991E-002  0.2267902E+03  0.7546771E-02  0.1128920E+00
         21   -1    0    0  502  501  0.00000000000E+00  0.00000000000E+00  0.51633299638E+03  0.51633299638E+03  0.00000000000E+00 0.  1.
         21   -1    0    0  501  502 -0.00000000000E+00 -0.00000000000E+00 -0.99613623456E+02  0.99613623456E+02  0.00000000000E+00 0.  1.
         25    1    1    2    0    0  0.33249936596E+02  0.18346569464E+03  0.25222809844E+03  0.33765253299E+03  0.12500000000E+03 0.  0.
         25    1    1    2    0    0 -0.33249936596E+02 -0.18346569464E+03  0.16449127449E+03  0.27829408685E+03  0.12500000000E+03 0.  0.
</event>
<event>
 4    0  0.2170991E-002  0.1598694E+03  0.7546771E-02  0.1188844E+00
         21   -1    0    0  502  501  0.00000000000E+00  0.00000000000E+00  0.30742973069E+02  0.30742973069E+02  0.00000000000E+00 0. -1.
         21   -1    0    0  501  502 -0.00000000000E+00 -0.00000000000E+00 -0.83135175125E+03  0.83135175125E+03  0.00000000000E+00 0. -1.
         25    1    1    2    0    0 -0.50490418679E+02 -0.50726626667E+02 -0.21329383716E+03  0.25737469573E+03  0.12500000000E+03 0.  0.
         25    1    1    2    0    0  0.50490418679E+02  0.50726626667E+02 -0.58731494102E+03  0.60472002859E+03  0.12500000000E+03 0.  0.
</event>
<event>
 4    0  0.2170991E-002  0.2022563E+03  0.7546771E-02  0.1147849E+00
         21   -1    0    0  502  501  0.00000000000E+00  0.00000000000E+00  0.14929220113E+03  0.14929220113E+03  0.00000000000E+00 0. -1.
         21   -1    0    0  501  502 -0.00000000000E+00 -0.00000000000E+00 -0.27401027674E+03  0.27401027674E+03  0.00000000000E+00 0. -1.
         25    1    1    2    0    0  0.30720991104E+02 -0.51003259799E+02 -0.21664395858E+03  0.25710837519E+03  0.12500000000E+03 0.  0.
         25    1    1    2    0    0 -0.30720991104E+02  0.51003259799E+02  0.91925882975E+02  0.16619410268E+03  0.12500000000E+03 0.  0.
</event>
<event>
 4    0  0.2170991E-002  0.1983233E+03  0.7546771E-02  0.1151161E+00
         21   -1    0    0  502  501  0.00000000000E+00  0.00000000000E+00  0.19813752657E+03  0.19813752657E+03  0.00000000000E+00 0. -1.
         21   -1    0    0  501  502 -0.00000000000E+00 -0.00000000000E+00 -0.19850930221E+03  0.19850930221E+03  0.00000000000E+00 0. -1.
         25    1    1    2    0    0  0.41441649592E+02  0.63576710947E+02 -0.13415509850E+03  0.19844898324E+03  0.12500000000E+03 0.  0.
         25    1    1    2    0    0 -0.41441649592E+02 -0.63576710947E+02  0.13378332287E+03  0.19819784553E+03  0.12500000000E+03 0.  0.
</event>
<event>
 4    0  0.2170991E-002  0.2101466E+03  0.7546771E-02  0.1141450E+00
         21   -1    0    0  502  501  0.00000000000E+00  0.00000000000E+00  0.33058635093E+03  0.33058635093E+03  0.00000000000E+00 0.  1.
         21   -1    0    0  501  502 -0.00000000000E+00 -0.00000000000E+00 -0.13358571614E+03  0.13358571614E+03  0.00000000000E+00 0.  1.
         25    1    1    2    0    0  0.10126550668E+03 -0.13492073305E+03  0.10827331728E+03  0.23623382121E+03  0.12500000000E+03 0.  0.
         25    1    1    2    0    0 -0.10126550668E+03  0.13492073305E+03  0.88727317507E+02  0.22793824585E+03  0.12500000000E+03 0.  0.
</event>
<event>
 4    0  0.2170991E-002  0.2132883E+03  0.7546771E-02  0.1138988E+00
         21   -1    0    0  502  501  0.00000000000E+00  0.00000000000E+00  0.13854454914E+03  0.13854454914E+03  0.00000000000E+00 0.  1.
         21   -1    0    0  501  502 -0.00000000000E+00 -0.00000000000E+00 -0.32835588798E+03  0.32835588798E+03  0.00000000000E+00 0.  1.
         25    1    1    2    0    0  0.58504510711E+02  0.16130778811E+03 -0.72369586906E+02  0.22428851372E+03  0.12500000000E+03 0.  0.
         25    1    1    2    0    0 -0.58504510711E+02 -0.16130778811E+03 -0.11744175193E+03  0.24261192340E+03  0.12500000000E+03 0.  0.
</event>
<event>
 4    0  0.2170991E-002  0.1838747E+03  0.7546771E-02  0.1164105E+00
         21   -1    0    0  502  501  0.00000000000E+00  0.00000000000E+00  0.16265818165E+04  0.16265818165E+04  0.00000000000E+00 0. -1.
         21   -1    0    0  501  502 -0.00000000000E+00 -0.00000000000E+00 -0.20785852599E+02  0.20785852599E+02  0.00000000000E+00 0. -1.
         25    1    1    2    0    0 -0.13156426972E+03 -0.27013112472E+02  0.85702967709E+03  0.87644950381E+03  0.12500000000E+03 0.  0.
         25    1    1    2    0    0  0.13156426972E+03  0.27013112472E+02  0.74876628681E+03  0.77091816529E+03  0.12500000000E+03 0.  0.
</event>
<event>
 4    0  0.2170991E-002  0.5725270E+03  0.7546771E-02  0.9964102E-01
         21   -1    0    0  502  501  0.00000000000E+00  0.00000000000E+00  0.53454267830E+03  0.53454267830E+03  0.00000000000E+00 0.  1.
         21   -1    0    0  501  502 -0.00000000000E+00 -0.00000000000E+00 -0.61321056561E+03  0.61321056561E+03  0.00000000000E+00 0.  1.
         25    1    1    2    0    0 -0.19871829006E+03 -0.17278082356E+03 -0.53326324982E+03  0.60773091529E+03  0.12500000000E+03 0.  0.
         25    1    1    2    0    0  0.19871829006E+03  0.17278082356E+03  0.45459536251E+03  0.54002232862E+03  0.12500000000E+03 0.  0.
</event>
<event>
 4    0  0.2170991E-002  0.1774543E+03  0.7546771E-02  0.1170290E+00
         21   -1    0    0  502  501  0.00000000000E+00  0.00000000000E+00  0.14802120794E+04  0.14802120794E+04  0.00000000000E+00 0.  1.
         21   -1    0    0  501  502 -0.00000000000E+00 -0.00000000000E+00 -0.21273986214E+02  0.21273986214E+02  0.00000000000E+00 0.  1.
         25    1    1    2    0    0  0.10558787528E+02  0.12497228033E+03  0.77870682565E+03  0.79858554905E+03  0.12500000000E+03 0.  0.
         25    1    1    2    0    0 -0.10558787528E+02 -0.12497228033E+03  0.68023126753E+03  0.70290051655E+03  0.12500000000E+03 0.  0.
</event>
<event>
 4    0  0.2170991E-002  0.1762139E+03  0.7546771E-02  0.1171518E+00
         21   -1    0    0  502  501  0.00000000000E+00  0.00000000000E+00  0.75960655665E+03  0.75960655665E+03  0.00000000000E+00 0. -1.
         21   -1    0    0  501  502 -0.00000000000E+00 -0.00000000000E+00 -0.40878200719E+02  0.40878200719E+02  0.00000000000E+00 0. -1.
         25    1    1    2    0    0  0.78315119654E+02  0.82756196969E+02  0.47166375915E+03  0.50107239776E+03  0.12500000000E+03 0.  0.
         25    1    1    2    0    0 -0.78315119654E+02 -0.82756196969E+02  0.24706459678E+03  0.29941235961E+03  0.12500000000E+03 0.  0.
</event>
<event>
 4    0  0.2170991E-002  0.2637017E+03  0.7546771E-02  0.1104939E+00
         21   -1    0    0  502  501  0.00000000000E+00  0.00000000000E+00  0.24447523125E+03  0.24447523125E+03  0.00000000000E+00 0. -1.
         21   -1    0    0  501  502 -0.00000000000E+00 -0.00000000000E+00 -0.28444022049E+03  0.28444022049E+03  0.00000000000E+00 0. -1.
         25    1    1    2    0    0 -0.15400636946E+03  0.31098745921E+02 -0.19143607104E+03  0.27741280274E+03  0.12500000000E+03 0.  0.
         25    1    1    2    0    0  0.15400636946E+03 -0.31098745921E+02  0.15147108179E+03  0.25150264899E+03  0.12500000000E+03 0.  0.
</event>
<event>
 4    0  0.2170991E-002  0.2780931E+03  0.7546771E-02  0.1096735E+00
         21   -1    0    0  502  501  0.00000000000E+00  0.00000000000E+00  0.51622932983E+02  0.51622932983E+02  0.00000000000E+00 0.  1.
         21   -1    0    0  501  502 -0.00000000000E+00 -0.00000000000E+00 -0.14980897257E+04  0.14980897257E+04  0.00000000000E+00 0.  1.
         25    1    1    2    0    0 -0.19067411380E+02  0.21042132917E+03 -0.10872731048E+04  0.11146427708E+04  0.12500000000E+03 0.  0.
         25    1    1    2    0    0  0.19067411380E+02 -0.21042132917E+03 -0.35919368788E+03  0.43506988790E+03  0.12500000000E+03 0.  0.
</event>
<event>
 4    0  0.2170991E-002  0.2636289E+03  0.7546771E-02  0.1104982E+00
         21   -1    0    0  502  501  0.00000000000E+00  0.00000000000E+00  0.24443103260E+03  0.24443103260E+03  0.00000000000E+00 0.  1.
         21   -1    0    0  501  502 -0.00000000000E+00 -0.00000000000E+00 -0.28433466604E+03  0.28433466604E+03  0.00000000000E+00 0.  1.
         25    1    1    2    0    0 -0.39350063202E+02 -0.12555056447E+03  0.17181176249E+03  0.24991129114E+03  0.12500000000E+03 0.  0.
         25    1    1    2    0    0  0.39350063202E+02  0.12555056447E+03 -0.21171539592E+03  0.27885440750E+03  0.12500000000E+03 0.  0.
</event>
<event>
 4    0  0.2170991E-002  0.1748419E+03  0.7546771E-02  0.1172891E+00
         21   -1    0    0  502  501  0.00000000000E+00  0.00000000000E+00  0.48375538194E+03  0.48375538194E+03  0.00000000000E+00 0.  1.
         21   -1    0    0  501  502 -0.00000000000E+00 -0.00000000000E+00 -0.63192464678E+02  0.63192464678E+02  0.00000000000E+00 0.  1.
         25    1    1    2    0    0  0.61522113045E+01  0.10501495032E+03  0.30769375156E+03  0.34837685664E+03  0.12500000000E+03 0.  0.
         25    1    1    2    0    0 -0.61522113045E+01 -0.10501495032E+03  0.11286916571E+03  0.19857098998E+03  0.12500000000E+03 0.  0.
</event>
<event>
 4    0  0.2170991E-002  0.2047462E+03  0.7546771E-02  0.1145795E+00
         21   -1    0    0  502  501  0.00000000000E+00  0.00000000000E+00  0.46410863591E+02  0.46410863591E+02  0.00000000000E+00 0.  1.
         21   -1    0    0  501  502 -0.00000000000E+00 -0.00000000000E+00 -0.90325833539E+03  0.90325833539E+03  0.00000000000E+00 0.  1.
         25    1    1    2    0    0  0.14508516898E+03 -0.38689143531E+02 -0.57043079670E+03  0.60296173171E+03  0.12500000000E+03 0.  0.
         25    1    1    2    0    0 -0.14508516898E+03  0.38689143531E+02 -0.28641667510E+03  0.34670746727E+03  0.12500000000E+03 0.  0.
</event>
<event>
 4    0  0.2170991E-002  0.1882106E+03  0.7546771E-02  0.1160085E+00
         21   -1    0    0  502  501  0.00000000000E+00  0.00000000000E+00  0.22765495193E+03  0.22765495193E+03  0.00000000000E+00 0. -1.
         21   -1    0    0  501  502 -0.00000000000E+00 -0.00000000000E+00 -0.15560054911E+03  0.15560054911E+03  0.00000000000E+00 0. -1.
         25    1    1    2    0    0  0.13321654656E+03 -0.15091165451E+02  0.79509063028E+02  0.19980260923E+03  0.12500000000E+03 0.  0.
         25    1    1    2    0    0 -0.13321654656E+03  0.15091165451E+02 -0.74546602083E+01  0.18345289180E+03  0.12500000000E+03 0.  0.
</event>
<event>
 4    0  0.2170991E-002  0.2115793E+03  0.7546771E-02  0.1140321E+00
         21   -1    0    0  502  501  0.00000000000E+00  0.00000000000E+00  0.24050356758E+03  0.24050356758E+03  0.00000000000E+00 0. -1.
         21   -1    0    0  501  502 -0.00000000000E+00 -0.00000000000E+00 -0.18613357877E+03  0.18613357877E+03  0.00000000000E+00 0. -1.
         25    1    1    2    0    0  0.11633046490E+03 -0.99386173270E+02 -0.49136710088E+02  0.20359225127E+03  0.12500000000E+03 0.  0.
         25    1    1    2    0    0 -0.11633046490E+03  0.99386173270E+02  0.10350669890E+03  0.22304489507E+03  0.12500000000E+03 0.  0.
</event>
<event>
 4    0  0.2170991E-002  0.1640358E+03  0.7546771E-02  0.1184214E+00
         21   -1    0    0  502  501  0.00000000000E+00  0.00000000000E+00  0.63606944417E+02  0.63606944417E+02  0.00000000000E+00 0. -1.
         21   -1    0    0  501  502 -0.00000000000E+00 -0.00000000000E+00 -0.42303177900E+03  0.42303177900E+03  0.00000000000E+00 0. -1.
         25    1    1    2    0    0  0.32421471382E+02  0.99257816600E+02 -0.20860855027E+03  0.26466165799E+03  0.12500000000E+03 0.  0.
         25    1    1    2    0    0 -0.32421471382E+02 -0.99257816600E+02 -0.15081628431E+03  0.22197706543E+03  0.12500000000E+03 0.  0.
</event>
<event>
 4    0  0.2170991E-002  0.1694254E+03  0.7546771E-02  0.1178448E+00
         21   -1    0    0  502  501  0.00000000000E+00  0.00000000000E+00  0.65738450769E+02  0.65738450769E+02  0.00000000000E+00 0. -1.
         21   -1    0    0  501  502 -0.00000000000E+00 -0.00000000000E+00 -0.43665431079E+03  0.43665431079E+03  0.00000000000E+00 0. -1.
         25    1    1    2    0    0  0.34952599387E+02 -0.30653233540E+02 -0.34038228575E+03  0.36557681188E+03  0.12500000000E+03 0.  0.
         25    1    1    2    0    0 -0.34952599387E+02  0.30653233540E+02 -0.30533574277E+02  0.13681594969E+03  0.12500000000E+03 0.  0.
</event>
<event>
 4    0  0.2170991E-002  0.2001625E+03  0.7546771E-02  0.1149602E+00
         21   -1    0    0  502  501  0.00000000000E+00  0.00000000000E+00  0.32615923261E+02  0.32615923261E+02  0.00000000000E+00 0.  1.
         21   -1    0    0  501  502 -0.00000000000E+00 -0.00000000000E+00 -0.12283891393E+04  0.12283891393E+04  0.00000000000E+00 0.  1.
         25    1    1    2    0    0 -0.14941877463E+03 -0.42218655263E+01 -0.74210668052E+03  0.76726209318E+03  0.12500000000E+03 0.  0.
         25    1    1    2    0    0  0.14941877463E+03  0.42218655263E+01 -0.45366653550E+03  0.49374296936E+03  0.12500000000E+03 0.  0.
</event>
<event>
 4    0  0.2170991E-002  0.2182476E+03  0.7546771E-02  0.1135196E+00
         21   -1    0    0  502  501  0.00000000000E+00  0.00000000000E+00  0.36593801832E+03  0.36593801832E+03  0.00000000000E+00 0. -1.
         21   -1    0    0  501  502 -0.00000000000E+00 -0.00000000000E+00 -0.13016412508E+03  0.13016412508E+03  0.00000000000E+00 0. -1.
         25    1    1    2    0    0 -0.13370966097E+03  0.93288526351E+01  0.25256646402E+03  0.31205787873E+03  0.12500000000E+03 0.  0.
         25    1    1    2    0    0  0.13370966097E+03 -0.93288526351E+01 -0.16792570781E+02  0.18404426468E+03  0.12500000000E+03 0.  0.
</event>
<event>
 4    0  0.2170991E-002  0.2783767E+03  0.7546771E-02  0.1096579E+00
         21   -1    0    0  502  501  0.00000000000E+00  0.00000000000E+00  0.10172627545E+04  0.10172627545E+04  0.00000000000E+00 0. -1.
         21   -1    0    0  501  502 -0.00000000000E+00 -0.00000000000E+00 -0.76178546188E+02  0.76178546188E+02  0.00000000000E+00 0. -1.
         25    1    1    2    0    0  0.12613506257E+03 -0.19193469588E+03  0.65809373613E+03  0.70813935565E+03  0.12500000000E+03 0.  0.
         25    1    1    2    0    0 -0.12613506257E+03  0.19193469588E+03  0.28299047214E+03  0.38530194499E+03  0.12500000000E+03 0.  0.
</event>
<event>
 4    0  0.2170991E-002  0.2817161E+03  0.7546771E-02  0.1094755E+00
         21   -1    0    0  502  501  0.00000000000E+00  0.00000000000E+00  0.13342596399E+03  0.13342596399E+03  0.00000000000E+00 0. -1.
         21   -1    0    0  501  502 -0.00000000000E+00 -0.00000000000E+00 -0.59481662281E+03  0.59481662281E+03  0.00000000000E+00 0. -1.
         25    1    1    2    0    0  0.11297504798E+03  0.19333547497E+03 -0.79980451793E+02  0.26863328166E+03  0.12500000000E+03 0.  0.
         25    1    1    2    0    0 -0.11297504798E+03 -0.19333547497E+03 -0.38141020703E+03  0.45960930514E+03  0.12500000000E+03 0.  0.
</event>
<event>
 4    0  0.2170991E-002  0.1996715E+03  0.7546771E-02  0.1150016E+00
         21   -1    0    0  502  501  0.00000000000E+00  0.00000000000E+00  0.18519416206E+04  0.18519416206E+04  0.00000000000E+00 0.  1.
         21   -1    0    0  501  502 -0.00000000000E+00 -0.00000000000E+00 -0.21528053302E+02  0.21528053302E+02  0.00000000000E+00 0.  1.
         25    1    1    2    0    0  0.24935712231E+02  0.13012570600E+03  0.12989034469E+04  0.13116133781E+04  0.12500000000E+03 0.  0.
         25    1    1    2    0    0 -0.24935712231E+02 -0.13012570600E+03  0.53151012040E+03  0.56185629586E+03  0.12500000000E+03 0.  0.
</event>
<event>
 4    0  0.2170991E-002  0.2123794E+03  0.7546771E-02  0.1139695E+00
         21   -1    0    0  502  501  0.00000000000E+00  0.00000000000E+00  0.28686469754E+02  0.28686469754E+02  0.00000000000E+00 0. -1.
         21   -1    0    0  501  502 -0.00000000000E+00 -0.00000000000E+00 -0.15723450508E+04  0.15723450508E+04  0.00000000000E+00 0. -1.
         25    1    1    2    0    0 -0.88962545941E+02  0.14597343600E+03 -0.71135037789E+03  0.74220410853E+03  0.12500000000E+03 0.  0.
         25    1    1    2    0    0  0.88962545941E+02 -0.14597343600E+03 -0.83230820319E+03  0.85882741205E+03  0.12500000000E+03 0.  0.
</event>
<event>
 4    0  0.2170991E-002  0.2020901E+03  0.7546771E-02  0.1147987E+00
         21   -1    0    0  502  501  0.00000000000E+00  0.00000000000E+00  0.18199445960E+03  0.18199445960E+03  0.00000000000E+00 0. -1.
         21   -1    0    0  501  502 -0.00000000000E+00 -0.00000000000E+00 -0.22440466824E+03  0.22440466824E+03  0.00000000000E+00 0. -1.
         25    1    1    2    0    0 -0.12145523376E+03  0.10060696866E+03 -0.26029860410E+01  0.20125832029E+03  0.12500000000E+03 0.  0.
         25    1    1    2    0    0  0.12145523376E+03 -0.10060696866E+03 -0.39807222605E+02  0.20514080755E+03  0.12500000000E+03 0.  0.
</event>
<event>
 4    0  0.2170991E-002  0.2317784E+03  0.7546771E-02  0.1125394E+00
         21   -1    0    0  502  501  0.00000000000E+00  0.00000000000E+00  0.23691967838E+02  0.23691967838E+02  0.00000000000E+00 0.  1.
         21   -1    0    0  501  502 -0.00000000000E+00 -0.00000000000E+00 -0.22674877102E+04  0.22674877102E+04  0.00000000000E+00 0.  1.
         25    1    1    2    0    0 -0.82770464098E+02 -0.17667410292E+03 -0.10941322345E+04  0.11183984240E+04  0.12500000000E+03 0.  0.
         25    1    1    2    0    0  0.82770464098E+02  0.17667410292E+03 -0.11496635079E+04  0.11727812540E+04  0.12500000000E+03 0.  0.
</event>
<event>
 4    0  0.2170991E-002  0.4785957E+03  0.7546771E-02  0.1019522E+00
         21   -1    0    0  502  501  0.00000000000E+00  0.00000000000E+00  0.85488837776E+03  0.85488837776E+03  0.00000000000E+00 0.  1.
         21   -1    0    0  501  502 -0.00000000000E+00 -0.00000000000E+00 -0.26793423570E+03  0.26793423570E+03  0.00000000000E+00 0. -1.
         25    1    1    2    0    0  0.33136704959E+03 -0.25387837585E+03  0.52563951792E+03  0.68277394069E+03  0.12500000000E+03 0.  0.
         25    1    1    2    0    0 -0.33136704959E+03  0.25387837585E+03  0.61314624135E+02  0.44004867278E+03  0.12500000000E+03 0.  0.
</event>
<event>
 4    0  0.2170991E-002  0.1867832E+03  0.7546771E-02  0.1161395E+00
         21   -1    0    0  502  501  0.00000000000E+00  0.00000000000E+00  0.88763049415E+03  0.88763049415E+03  0.00000000000E+00 0.  1.
         21   -1    0    0  501  502 -0.00000000000E+00 -0.00000000000E+00 -0.39304591385E+02  0.39304591385E+02  0.00000000000E+00 0.  1.
         25    1    1    2    0    0  0.66716391002E+01  0.11475267600E+03  0.61716806977E+03  0.64010476780E+03  0.12500000000E+03 0.  0.
         25    1    1    2    0    0 -0.66716391002E+01 -0.11475267600E+03  0.23115783299E+03  0.28683031773E+03  0.12500000000E+03 0.  0.
</event>
<event>
 4    0  0.2170991E-002  0.2463778E+03  0.7546771E-02  0.1115616E+00
         21   -1    0    0  502  501  0.00000000000E+00  0.00000000000E+00  0.93023742063E+03  0.93023742063E+03  0.00000000000E+00 0.  1.
         21   -1    0    0  501  502 -0.00000000000E+00 -0.00000000000E+00 -0.65254331558E+02  0.65254331558E+02  0.00000000000E+00 0.  1.
         25    1    1    2    0    0 -0.18735358673E+03 -0.83195151720E+02  0.54414093306E+03  0.59475806406E+03  0.12500000000E+03 0.  0.
         25    1    1    2    0    0  0.18735358673E+03  0.83195151720E+02  0.32084215601E+03  0.40073368813E+03  0.12500000000E+03 0.  0.
</event>
<event>
 4    0  0.2170991E-002  0.2354443E+03  0.7546771E-02  0.1122865E+00
         21   -1    0    0  502  501  0.00000000000E+00  0.00000000000E+00  0.65310480880E+03  0.65310480880E+03  0.00000000000E+00 0. -1.
         21   -1    0    0  501  502 -0.00000000000E+00 -0.00000000000E+00 -0.84877677958E+02  0.84877677958E+02  0.00000000000E+00 0. -1.
         25    1    1    2    0    0  0.13802904204E+03  0.13578784689E+03  0.35957877236E+03  0.42709747054E+03  0.12500000000E+03 0.  0.
         25    1    1    2    0    0 -0.13802904204E+03 -0.13578784689E+03  0.20864835848E+03  0.31088501621E+03  0.12500000000E+03 0.  0.
</event>
<event>
 4    0  0.2170991E-002  0.1934745E+03  0.7546771E-02  0.1155364E+00
         21   -1    0    0  502  501  0.00000000000E+00  0.00000000000E+00  0.24654585979E+03  0.24654585979E+03  0.00000000000E+00 0.  1.
         21   -1    0    0  501  502 -0.00000000000E+00 -0.00000000000E+00 -0.15182721918E+03  0.15182721918E+03  0.00000000000E+00 0.  1.
         25    1    1    2    0    0  0.12557469029E+03  0.46422501339E+01 -0.32498928615E+02  0.18019915008E+03  0.12500000000E+03 0.  0.
         25    1    1    2    0    0 -0.12557469029E+03 -0.46422501339E+01  0.12721756922E+03  0.21817392889E+03  0.12500000000E+03 0.  0.
</event>
<event>
 4    0  0.2170991E-002  0.2424831E+03  0.7546771E-02  0.1118150E+00
         21   -1    0    0  502  501  0.00000000000E+00  0.00000000000E+00  0.17690052966E+04  0.17690052966E+04  0.00000000000E+00 0.  1.
         21   -1    0    0  501  502 -0.00000000000E+00 -0.00000000000E+00 -0.33237906777E+02  0.33237906777E+02  0.00000000000E+00 0.  1.
         25    1    1    2    0    0  0.92267757373E+02  0.17429145242E+03  0.62469989045E+03  0.66690764171E+03  0.12500000000E+03 0.  0.
         25    1    1    2    0    0 -0.92267757373E+02 -0.17429145242E+03  0.11110674994E+04  0.11353355617E+04  0.12500000000E+03 0.  0.
</event>
<event>
 4    0  0.2170991E-002  0.1910843E+03  0.7546771E-02  0.1157487E+00
         21   -1    0    0  502  501  0.00000000000E+00  0.00000000000E+00  0.49001657567E+03  0.49001657567E+03  0.00000000000E+00 0.  1.
         21   -1    0    0  501  502 -0.00000000000E+00 -0.00000000000E+00 -0.74514211371E+02  0.74514211371E+02  0.00000000000E+00 0.  1.
         25    1    1    2    0    0 -0.58597958224E+02 -0.12450826248E+03  0.14248449409E+03  0.23422822031E+03  0.12500000000E+03 0.  0.
         25    1    1    2    0    0  0.58597958224E+02  0.12450826248E+03  0.27301787020E+03  0.33030256673E+03  0.12500000000E+03 0.  0.
</event>
<event>
 4    0  0.2170991E-002  0.1997346E+03  0.7546771E-02  0.1149963E+00
         21   -1    0    0  502  501  0.00000000000E+00  0.00000000000E+00  0.28720239341E+02  0.28720239341E+02  0.00000000000E+00 0.  1.
         21   -1    0    0  501  502 -0.00000000000E+00 -0.00000000000E+00 -0.13890518707E+04  0.13890518707E+04  0.00000000000E+00 0.  1.
         25    1    1    2    0    0 -0.40446719104E+02  0.14497628937E+03 -0.53754332839E+03  0.57204186163E+03  0.12500000000E+03 0.  0.
         25    1    1    2    0    0  0.40446719104E+02 -0.14497628937E+03 -0.82278830302E+03  0.84573024845E+03  0.12500000000E+03 0.  0.
</event>
<event>
 4    0  0.2170991E-002  0.2150501E+03  0.7546771E-02  0.1137628E+00
         21   -1    0    0  502  501  0.00000000000E+00  0.00000000000E+00  0.57638415420E+03  0.57638415420E+03  0.00000000000E+00 0. -1.
         21   -1    0    0  501  502 -0.00000000000E+00 -0.00000000000E+00 -0.80235611985E+02  0.80235611985E+02  0.00000000000E+00 0. -1.
         25    1    1    2    0    0  0.12210051124E+03 -0.97775797653E+02  0.12832191457E+03  0.23782379025E+03  0.12500000000E+03 0.  0.
         25    1    1    2    0    0 -0.12210051124E+03  0.97775797653E+02  0.36782662765E+03  0.41879597593E+03  0.12500000000E+03 0.  0.
</event>
<event>
 4    0  0.2170991E-002  0.1926811E+03  0.7546771E-02  0.1156065E+00
         21   -1    0    0  502  501  0.00000000000E+00  0.00000000000E+00  0.45824453797E+03  0.45824453797E+03  0.00000000000E+00 0.  1.
         21   -1    0    0  501  502 -0.00000000000E+00 -0.00000000000E+00 -0.81017852964E+02  0.81017852964E+02  0.00000000000E+00 0.  1.
         25    1    1    2    0    0  0.91384120437E+01 -0.14612829995E+03  0.19980808856E+03  0.27746218278E+03  0.12500000000E+03 0.  0.
         25    1    1    2    0    0 -0.91384120437E+01  0.14612829995E+03  0.17741859645E+03  0.26180020815E+03  0.12500000000E+03 0.  0.
</event>
<event>
 4    0  0.2170991E-002  0.2116183E+03  0.7546771E-02  0.1140291E+00
         21   -1    0    0  502  501  0.00000000000E+00  0.00000000000E+00  0.37928002061E+02  0.37928002061E+02  0.00000000000E+00 0. -1.
         21   -1    0    0  501  502 -0.00000000000E+00 -0.00000000000E+00 -0.11807183086E+04  0.11807183086E+04  0.00000000000E+00 0. -1.
         25    1    1    2    0    0  0.44681062590E+02  0.33444815580E+02 -0.10673599873E+03  0.17358723014E+03  0.12500000000E+03 0.  0.
         25    1    1    2    0    0 -0.44681062590E+02 -0.33444815580E+02 -0.10360543078E+04  0.10450590805E+04  0.12500000000E+03 0.  0.
</event>
<event>
 4    0  0.2170991E-002  0.2112278E+03  0.7546771E-02  0.1140597E+00
         21   -1    0    0  502  501  0.00000000000E+00  0.00000000000E+00  0.34093733030E+03  0.34093733030E+03  0.00000000000E+00 0. -1.
         21   -1    0    0  501  502 -0.00000000000E+00 -0.00000000000E+00 -0.13086619798E+03  0.13086619798E+03  0.00000000000E+00 0. -1.
         25    1    1    2    0    0 -0.88658402478E+02  0.41798553711E+02  0.26052832408E+03  0.30513511609E+03  0.12500000000E+03 0.  0.
         25    1    1    2    0    0  0.88658402478E+02 -0.41798553711E+02 -0.50457191766E+02  0.16666841219E+03  0.12500000000E+03 0.  0.
</event>
<event>
 4    0  0.2170991E-002  0.2885962E+03  0.7546771E-02  0.1091084E+00
         21   -1    0    0  502  501  0.00000000000E+00  0.00000000000E+00  0.15491177743E+03  0.15491177743E+03  0.00000000000E+00 0.  1.
         21   -1    0    0  501  502 -0.00000000000E+00 -0.00000000000E+00 -0.53764638807E+03  0.53764638807E+03  0.00000000000E+00 0.  1.
         25    1    1    2    0    0 -0.21389978195E+03  0.13247108574E+03 -0.27060490710E+03  0.39006886702E+03  0.12500000000E+03 0.  0.
         25    1    1    2    0    0  0.21389978195E+03 -0.13247108574E+03 -0.11212970355E+03  0.30248929848E+03  0.12500000000E+03 0.  0.
</event>
<event>
 4    0  0.2170991E-002  0.2211146E+03  0.7546771E-02  0.1133055E+00
         21   -1    0    0  502  501  0.00000000000E+00  0.00000000000E+00  0.77305422831E+03  0.77305422831E+03  0.00000000000E+00 0.  1.
         21   -1    0    0  501  502 -0.00000000000E+00 -0.00000000000E+00 -0.63244814902E+02  0.63244814902E+02  0.00000000000E+00 0.  1.
         25    1    1    2    0    0 -0.58531065096E+02 -0.16746766594E+03  0.43503389876E+03  0.48615923090E+03  0.12500000000E+03 0.  0.
         25    1    1    2    0    0  0.58531065096E+02  0.16746766594E+03  0.27477551465E+03  0.35013981232E+03  0.12500000000E+03 0.  0.
</event>
<event>
 4    0  0.2170991E-002  0.1775892E+03  0.7546771E-02  0.1170157E+00
         21   -1    0    0  502  501  0.00000000000E+00  0.00000000000E+00  0.10149471515E+03  0.10149471515E+03  0.00000000000E+00 0. -1.
         21   -1    0    0  501  502 -0.00000000000E+00 -0.00000000000E+00 -0.31073466067E+03  0.31073466067E+03  0.00000000000E+00 0. -1.
         25    1    1    2    0    0 -0.48396825811E+01  0.95445130826E+02 -0.90550336593E+01  0.15760770654E+03  0.12500000000E+03 0.  0.
         25    1    1    2    0    0  0.48396825811E+01 -0.95445130826E+02 -0.20018491186E+03  0.25462166927E+03  0.12500000000E+03 0.  0.
</event>
<event>
 4    0  0.2170991E-002  0.1720612E+03  0.7546771E-02  0.1175715E+00
         21   -1    0    0  502  501  0.00000000000E+00  0.00000000000E+00  0.34434745682E+02  0.34434745682E+02  0.00000000000E+00 0.  1.
         21   -1    0    0  501  502 -0.00000000000E+00 -0.00000000000E+00 -0.85974388736E+03  0.85974388736E+03  0.00000000000E+00 0.  1.
         25    1    1    2    0    0 -0.11061493504E+03  0.38263850308E+02 -0.45615607495E+03  0.48724034194E+03  0.12500000000E+03 0.  0.
         25    1    1    2    0    0  0.11061493504E+03 -0.38263850308E+02 -0.36915306672E+03  0.40693829110E+03  0.12500000000E+03 0.  0.
</event>
<event>
 4    0  0.2170991E-002  0.2200948E+03  0.7546771E-02  0.1133812E+00
         21   -1    0    0  502  501  0.00000000000E+00  0.00000000000E+00  0.19144925956E+03  0.19144925956E+03  0.00000000000E+00 0.  1.
         21   -1    0    0  501  502 -0.00000000000E+00 -0.00000000000E+00 -0.25302640841E+03  0.25302640841E+03  0.00000000000E+00 0.  1.
         25    1    1    2    0    0 -0.69956820770E+02 -0.16160551003E+02 -0.19872575596E+03  0.24550365835E+03  0.12500000000E+03 0.  0.
         25    1    1    2    0    0  0.69956820770E+02  0.16160551003E+02  0.13714860711E+03  0.19897200962E+03  0.12500000000E+03 0.  0.
</event>
<event>
 4    0  0.2170991E-002  0.2106443E+03  0.7546771E-02  0.1141057E+00
         21   -1    0    0  502  501  0.00000000000E+00  0.00000000000E+00  0.16900500602E+03  0.16900500602E+03  0.00000000000E+00 0. -1.
         21   -1    0    0  501  502 -0.00000000000E+00 -0.00000000000E+00 -0.26254253164E+03  0.26254253164E+03  0.00000000000E+00 0. -1.
         25    1    1    2    0    0 -0.21096390423E+02 -0.83922724942E+02  0.10258267906E+03  0.18340198334E+03  0.12500000000E+03 0.  0.
         25    1    1    2    0    0  0.21096390423E+02  0.83922724942E+02 -0.19612020467E+03  0.24814555432E+03  0.12500000000E+03 0.  0.
</event>
<event>
 4    0  0.2170991E-002  0.2158577E+03  0.7546771E-02  0.1137010E+00
         21   -1    0    0  502  501  0.00000000000E+00  0.00000000000E+00  0.94485889697E+03  0.94485889697E+03  0.00000000000E+00 0.  1.
         21   -1    0    0  501  502 -0.00000000000E+00 -0.00000000000E+00 -0.49313761845E+02  0.49313761845E+02  0.00000000000E+00 0.  1.
         25    1    1    2    0    0  0.14976312383E+03 -0.58979359232E+02  0.61161442149E+03  0.64467414921E+03  0.12500000000E+03 0.  0.
         25    1    1    2    0    0 -0.14976312383E+03  0.58979359232E+02  0.28393071363E+03  0.34949850961E+03  0.12500000000E+03 0.  0.
</event>
<event>
 4    0  0.2170991E-002  0.1959605E+03  0.7546771E-02  0.1153193E+00
         21   -1    0    0  502  501  0.00000000000E+00  0.00000000000E+00  0.32738736244E+03  0.32738736244E+03  0.00000000000E+00 0. -1.
         21   -1    0    0  501  502 -0.00000000000E+00 -0.00000000000E+00 -0.11729386871E+03  0.11729386871E+03  0.00000000000E+00 0. -1.
         25    1    1    2    0    0 -0.91401165040E+02 -0.33425812048E+02 -0.25823973510E+02  0.16050961183E+03  0.12500000000E+03 0.  0.
         25    1    1    2    0    0  0.91401165040E+02  0.33425812048E+02  0.23591746724E+03  0.28417161933E+03  0.12500000000E+03 0.  0.
</event>
<event>
 4    0  0.2170991E-002  0.2397890E+03  0.7546771E-02  0.1119933E+00
         21   -1    0    0  502  501  0.00000000000E+00  0.00000000000E+00  0.61085771613E+03  0.61085771613E+03  0.00000000000E+00 0.  1.
         21   -1    0    0  501  502 -0.00000000000E+00 -0.00000000000E+00 -0.94127940496E+02  0.94127940496E+02  0.00000000000E+00 0.  1.
         25    1    1    2    0    0  0.13103768505E+03  0.15694788252E+03  0.27068724135E+03  0.36152468154E+03  0.12500000000E+03 0.  0.
         25    1    1    2    0    0 -0.13103768505E+03 -0.15694788252E+03  0.24604253428E+03  0.34346097508E+03  0.12500000000E+03 0.  0.
</event>
<event>
 4    0  0.2170991E-002  0.2507278E+03  0.7546771E-02  0.1112846E+00
         21   -1    0    0  502  501  0.00000000000E+00  0.00000000000E+00  0.22686180136E+03  0.22686180136E+03  0.00000000000E+00 0. -1.
         21   -1    0    0  501  502 -0.00000000000E+00 -0.00000000000E+00 -0.27710456327E+03  0.27710456327E+03  0.00000000000E+00 0. -1.
         25    1    1    2    0    0 -0.27756509299E+02 -0.18321330471E+03 -0.13927663144E+03  0.26336385268E+03  0.12500000000E+03 0.  0.
         25    1    1    2    0    0  0.27756509299E+02  0.18321330471E+03  0.89033869532E+02  0.24060251195E+03  0.12500000000E+03 0.  0.
</event>
<event>
 4    0  0.2170991E-002  0.1930012E+03  0.7546771E-02  0.1155782E+00
         21   -1    0    0  502  501  0.00000000000E+00  0.00000000000E+00  0.16161075438E+03  0.16161075438E+03  0.00000000000E+00 0.  1.
         21   -1    0    0  501  502 -0.00000000000E+00 -0.00000000000E+00 -0.23048879152E+03  0.23048879152E+03  0.00000000000E+00 0.  1.
         25    1    1    2    0    0 -0.13888606193E+03 -0.48182052765E+02 -0.30690324964E+02  0.19539125992E+03  0.12500000000E+03 0.  0.
         25    1    1    2    0    0  0.13888606193E+03  0.48182052765E+02 -0.38187712175E+02  0.19670828597E+03  0.12500000000E+03 0.  0.
</event>
<event>
 4    0  0.2170991E-002  0.2144522E+03  0.7546771E-02  0.1138088E+00
         21   -1    0    0  502  501  0.00000000000E+00  0.00000000000E+00  0.11105214940E+03  0.11105214940E+03  0.00000000000E+00 0. -1.
         21   -1    0    0  501  502 -0.00000000000E+00 -0.00000000000E+00 -0.41412761679E+03  0.41412761679E+03  0.00000000000E+00 0. -1.
         25    1    1    2    0    0  0.51740272677E+02 -0.16383232503E+03 -0.18716691866E+03  0.28315109391E+03  0.12500000000E+03 0.  0.
         25    1    1    2    0    0 -0.51740272677E+02  0.16383232503E+03 -0.11590854873E+03  0.24202867229E+03  0.12500000000E+03 0.  0.
</event>
<event>
 4    0  0.2170991E-002  0.2585020E+03  0.7546771E-02  0.1108047E+00
         21   -1    0    0  502  501  0.00000000000E+00  0.00000000000E+00  0.39225761711E+03  0.39225761711E+03  0.00000000000E+00 0.  1.
         21   -1    0    0  501  502 -0.00000000000E+00 -0.00000000000E+00 -0.17035566652E+03  0.17035566652E+03  0.00000000000E+00 0.  1.
         25    1    1    2    0    0 -0.14447888802E+03  0.17339064623E+03  0.93409297924E+02  0.27438797754E+03  0.12500000000E+03 0.  0.
         25    1    1    2    0    0  0.14447888802E+03 -0.17339064623E+03  0.12849265266E+03  0.28822530609E+03  0.12500000000E+03 0.  0.
</event>
<event>
 4    0  0.2170991E-002  0.2512647E+03  0.7546771E-02  0.1112508E+00
         21   -1    0    0  502  501  0.00000000000E+00  0.00000000000E+00  0.13241892834E+03  0.13241892834E+03  0.00000000000E+00 0.  1.
         21   -1    0    0  501  502 -0.00000000000E+00 -0.00000000000E+00 -0.47677421136E+03  0.47677421136E+03  0.00000000000E+00 0.  1.
         25    1    1    2    0    0 -0.10226306131E+03  0.12771969620E+03  0.23990260813E+01  0.20591456926E+03  0.12500000000E+03 0.  0.
         25    1    1    2    0    0  0.10226306131E+03 -0.12771969620E+03 -0.34675430910E+03  0.40327857045E+03  0.12500000000E+03 0.  0.
</event>
<event>
 4    0  0.2170991E-002  0.2039269E+03  0.7546771E-02  0.1146468E+00
         21   -1    0    0  502  501  0.00000000000E+00  0.00000000000E+00  0.12212597557E+03  0.12212597557E+03  0.00000000000E+00 0. -1.
         21   -1    0    0  501  502 -0.00000000000E+00 -0.00000000000E+00 -0.34051860448E+03  0.34051860448E+03  0.00000000000E+00 0. -1.
         25    1    1    2    0    0  0.74613431286E+02  0.52668810829E+02 -0.25976892410E+03  0.30240049883E+03  0.12500000000E+03 0.  0.
         25    1    1    2    0    0 -0.74613431286E+02 -0.52668810829E+02  0.41376295198E+02  0.16024408122E+03  0.12500000000E+03 0.  0.
</event>
<event>
 4    0  0.2170991E-002  0.2124505E+03  0.7546771E-02  0.1139640E+00
         21   -1    0    0  502  501  0.00000000000E+00  0.00000000000E+00  0.55374064095E+02  0.55374064095E+02  0.00000000000E+00 0.  1.
         21   -1    0    0  501  502 -0.00000000000E+00 -0.00000000000E+00 -0.81509639666E+03  0.81509639666E+03  0.00000000000E+00 0.  1.
         25    1    1    2    0    0 -0.85520845125E+02 -0.61848666972E+02 -0.65753455633E+03  0.67758081829E+03  0.12500000000E+03 0.  0.
         25    1    1    2    0    0  0.85520845125E+02  0.61848666972E+02 -0.10218777624E+03  0.19288964247E+03  0.12500000000E+03 0.  0.
</event>
<event>
 4    0  0.2170991E-002  0.2001237E+03  0.7546771E-02  0.1149635E+00
         21   -1    0    0  502  501  0.00000000000E+00  0.00000000000E+00  0.13271108169E+04  0.13271108169E+04  0.00000000000E+00 0. -1.
         21   -1    0    0  501  502 -0.00000000000E+00 -0.00000000000E+00 -0.30177962536E+02  0.30177962536E+02  0.00000000000E+00 0. -1.
         25    1    1    2    0    0 -0.11022507248E+03 -0.25060588318E+02  0.28249355043E+03  0.32894559690E+03  0.12500000000E+03 0.  0.
         25    1    1    2    0    0  0.11022507248E+03  0.25060588318E+02  0.10144393039E+04  0.10283431825E+04  0.12500000000E+03 0.  0.
</event>
<event>
 4    0  0.2170991E-002  0.1915040E+03  0.7546771E-02  0.1157112E+00
         21   -1    0    0  502  501  0.00000000000E+00  0.00000000000E+00  0.12167869284E+02  0.12167869284E+02  0.00000000000E+00 0.  1.
         21   -1    0    0  501  502 -0.00000000000E+00 -0.00000000000E+00 -0.30139846674E+04  0.30139846674E+04  0.00000000000E+00 0.  1.
         25    1    1    2    0    0 -0.12162377602E+03  0.12339005096E+02 -0.21182088724E+04  0.21254125297E+04  0.12500000000E+03 0.  0.
         25    1    1    2    0    0  0.12162377602E+03 -0.12339005096E+02 -0.88360792565E+03  0.90074000700E+03  0.12500000000E+03 0.  0.
</event>
<event>
 4    0  0.2170991E-002  0.1698034E+03  0.7546771E-02  0.1178053E+00
         21   -1    0    0  502  501  0.00000000000E+00  0.00000000000E+00  0.16801527759E+03  0.16801527759E+03  0.00000000000E+00 0.  1.
         21   -1    0    0  501  502 -0.00000000000E+00 -0.00000000000E+00 -0.17161060374E+03  0.17161060374E+03  0.00000000000E+00 0.  1.
         25    1    1    2    0    0  0.42640705152E+02 -0.10421461467E+03 -0.24805203172E+02  0.17005650164E+03  0.12500000000E+03 0.  0.
         25    1    1    2    0    0 -0.42640705152E+02  0.10421461467E+03  0.21209877022E+02  0.16956937969E+03  0.12500000000E+03 0.  0.
</event>
<event>
 4    0  0.2170991E-002  0.2139692E+03  0.7546771E-02  0.1138461E+00
         21   -1    0    0  502  501  0.00000000000E+00  0.00000000000E+00  0.25450868598E+02  0.25450868598E+02  0.00000000000E+00 0. -1.
         21   -1    0    0  501  502 -0.00000000000E+00 -0.00000000000E+00 -0.17988713433E+04  0.17988713433E+04  0.00000000000E+00 0. -1.
         25    1    1    2    0    0 -0.15072630491E+03  0.36206573344E+02 -0.12204418939E+04  0.12365810735E+04  0.12500000000E+03 0.  0.
         25    1    1    2    0    0  0.15072630491E+03 -0.36206573344E+02 -0.55297858081E+03  0.58774113841E+03  0.12500000000E+03 0.  0.
</event>
<event>
 4    0  0.2170991E-002  0.1972793E+03  0.7546771E-02  0.1152055E+00
         21   -1    0    0  502  501  0.00000000000E+00  0.00000000000E+00  0.97551665147E+03  0.97551665147E+03  0.00000000000E+00 0.  1.
         21   -1    0    0  501  502 -0.00000000000E+00 -0.00000000000E+00 -0.39895907589E+02  0.39895907589E+02  0.00000000000E+00 0.  1.
         25    1    1    2    0    0 -0.70542207207E+02 -0.88982091039E+02  0.73026238814E+03  0.74953463632E+03  0.12500000000E+03 0.  0.
         25    1    1    2    0    0  0.70542207207E+02  0.88982091039E+02  0.20535835574E+03  0.26587792273E+03  0.12500000000E+03 0.  0.
</event>
<event>
 4    0  0.2170991E-002  0.3246829E+03  0.7546771E-02  0.1073514E+00
         21   -1    0    0  502  501  0.00000000000E+00  0.00000000000E+00  0.60296989540E+02  0.60296989540E+02  0.00000000000E+00 0. -1.
         21   -1    0    0  501  502 -0.00000000000E+00 -0.00000000000E+00 -0.17483296805E+04  0.17483296805E+04  0.00000000000E+00 0. -1.
         25    1    1    2    0    0 -0.12914230701E+01  0.28642535682E+03 -0.59877678557E+03  0.67542563746E+03  0.12500000000E+03 0.  0.
         25    1    1    2    0    0  0.12914230701E+01 -0.28642535682E+03 -0.10892559054E+04  0.11332010325E+04  0.12500000000E+03 0.  0.
</event>
<event>
 4    0  0.2170991E-002  0.1855575E+03  0.7546771E-02  0.1162530E+00
         21   -1    0    0  502  501  0.00000000000E+00  0.00000000000E+00  0.23347072639E+03  0.23347072639E+03  0.00000000000E+00 0.  1.
         21   -1    0    0  501  502 -0.00000000000E+00 -0.00000000000E+00 -0.14747702778E+03  0.14747702778E+03  0.00000000000E+00 0.  1.
         25    1    1    2    0    0  0.23127145344E+02  0.67293897140E+02 -0.77340795792E+02  0.16330931430E+03  0.12500000000E+03 0.  0.
         25    1    1    2    0    0 -0.23127145344E+02 -0.67293897140E+02  0.16333449441E+03  0.21763843987E+03  0.12500000000E+03 0.  0.
</event>
<event>
 4    0  0.2170991E-002  0.3660351E+03  0.7546771E-02  0.1056219E+00
         21   -1    0    0  502  501  0.00000000000E+00  0.00000000000E+00  0.19327221922E+03  0.19327221922E+03  0.00000000000E+00 0.  1.
         21   -1    0    0  501  502 -0.00000000000E+00 -0.00000000000E+00 -0.69322778480E+03  0.69322778480E+03  0.00000000000E+00 0.  1.
         25    1    1    2    0    0 -0.14517540586E+03  0.12831087436E+03  0.94275160913E+02  0.24910316118E+03  0.12500000000E+03 0.  0.
         25    1    1    2    0    0  0.14517540586E+03 -0.12831087436E+03 -0.59423072649E+03  0.63739684283E+03  0.12500000000E+03 0.  0.
</event>
<event>
 4    0  0.2170991E-002  0.2351140E+03  0.7546771E-02  0.1123091E+00
         21   -1    0    0  502  501  0.00000000000E+00  0.00000000000E+00  0.11126489407E+03  0.11126489407E+03  0.00000000000E+00 0.  1.
         21   -1    0    0  501  502 -0.00000000000E+00 -0.00000000000E+00 -0.49681969043E+03  0.49681969043E+03  0.00000000000E+00 0.  1.
         25    1    1    2    0    0  0.11393763233E+02  0.19826070634E+03 -0.17375132906E+03  0.29197885175E+03  0.12500000000E+03 0.  0.
         25    1    1    2    0    0 -0.11393763233E+02 -0.19826070634E+03 -0.21180346730E+03  0.31610573275E+03  0.12500000000E+03 0.  0.
</event>
<event>
 4    0  0.2170991E-002  0.2637782E+03  0.7546771E-02  0.1104894E+00
         21   -1    0    0  502  501  0.00000000000E+00  0.00000000000E+00  0.62995226583E+02  0.62995226583E+02  0.00000000000E+00 0.  1.
         21   -1    0    0  501  502 -0.00000000000E+00 -0.00000000000E+00 -0.11045110072E+04  0.11045110072E+04  0.00000000000E+00 0.  1.
         25    1    1    2    0    0  0.20436882787E+03 -0.55255422335E+02 -0.30925113711E+03  0.39507093705E+03  0.12500000000E+03 0.  0.
         25    1    1    2    0    0 -0.20436882787E+03  0.55255422335E+02 -0.73226464348E+03  0.77243529670E+03  0.12500000000E+03 0.  0.
</event>
<event>
 4    0  0.2170991E-002  0.2593966E+03  0.7546771E-02  0.1107506E+00
         21   -1    0    0  502  501  0.00000000000E+00  0.00000000000E+00  0.39125711046E+03  0.39125711046E+03  0.00000000000E+00 0. -1.
         21   -1    0    0  501  502 -0.00000000000E+00 -0.00000000000E+00 -0.17197537144E+03  0.17197537144E+03  0.00000000000E+00 0. -1.
         25    1    1    2    0    0 -0.67878768838E+02 -0.12677186382E+03  0.30073830544E+03  0.35601567532E+03  0.12500000000E+03 0.  0.
         25    1    1    2    0    0  0.67878768838E+02  0.12677186382E+03 -0.81456566425E+02  0.20721680658E+03  0.12500000000E+03 0.  0.
</event>
<event>
 4    0  0.2170991E-002  0.2305167E+03  0.7546771E-02  0.1126277E+00
         21   -1    0    0  502  501  0.00000000000E+00  0.00000000000E+00  0.27979537549E+03  0.27979537549E+03  0.00000000000E+00 0. -1.
         21   -1    0    0  501  502 -0.00000000000E+00 -0.00000000000E+00 -0.18991723901E+03  0.18991723901E+03  0.00000000000E+00 0. -1.
         25    1    1    2    0    0 -0.18910501624E+03 -0.31966794788E+01  0.24155940824E+01  0.22671956471E+03  0.12500000000E+03 0.  0.
         25    1    1    2    0    0  0.18910501624E+03  0.31966794788E+01  0.87462542397E+02  0.24299304979E+03  0.12500000000E+03 0.  0.
</event>
<event>
 4    0  0.2170991E-002  0.1796972E+03  0.7546771E-02  0.1168096E+00
         21   -1    0    0  502  501  0.00000000000E+00  0.00000000000E+00  0.99370908939E+02  0.99370908939E+02  0.00000000000E+00 0.  1.
         21   -1    0    0  501  502 -0.00000000000E+00 -0.00000000000E+00 -0.32495509191E+03  0.32495509191E+03  0.00000000000E+00 0.  1.
         25    1    1    2    0    0 -0.12627264269E+01  0.43859988056E+02 -0.25613912868E+03  0.28837050174E+03  0.12500000000E+03 0.  0.
         25    1    1    2    0    0  0.12627264269E+01 -0.43859988056E+02  0.30554945714E+02  0.13595549911E+03  0.12500000000E+03 0.  0.
</event>
<event>
 4    0  0.2170991E-002  0.2763523E+03  0.7546771E-02  0.1097698E+00
         21   -1    0    0  502  501  0.00000000000E+00  0.00000000000E+00  0.24264708116E+03  0.24264708116E+03  0.00000000000E+00 0. -1.
         21   -1    0    0  501  502 -0.00000000000E+00 -0.00000000000E+00 -0.31473942082E+03  0.31473942082E+03  0.00000000000E+00 0. -1.
         25    1    1    2    0    0 -0.16230987094E+03 -0.60952404191E+02  0.14061164860E+03  0.25584433842E+03  0.12500000000E+03 0.  0.
         25    1    1    2    0    0  0.16230987094E+03  0.60952404191E+02 -0.21270398826E+03  0.30154216356E+03  0.12500000000E+03 0.  0.
</event>
<event>
 4    0  0.2170991E-002  0.1975950E+03  0.7546771E-02  0.1151784E+00
         21   -1    0    0  502  501  0.00000000000E+00  0.00000000000E+00  0.60637259943E+02  0.60637259943E+02  0.00000000000E+00 0. -1.
         21   -1    0    0  501  502 -0.00000000000E+00 -0.00000000000E+00 -0.64389104280E+03  0.64389104280E+03  0.00000000000E+00 0. -1.
         25    1    1    2    0    0 -0.56610595871E+01  0.53831532239E+02 -0.54680996811E+03  0.56352109338E+03  0.12500000000E+03 0.  0.
         25    1    1    2    0    0  0.56610595871E+01 -0.53831532239E+02 -0.36443814744E+02  0.14100720936E+03  0.12500000000E+03 0.  0.
</event>
<event>
 4    0  0.2170991E-002  0.2284755E+03  0.7546771E-02  0.1127717E+00
         21   -1    0    0  502  501  0.00000000000E+00  0.00000000000E+00  0.36756430818E+03  0.36756430818E+03  0.00000000000E+00 0. -1.
         21   -1    0    0  501  502 -0.00000000000E+00 -0.00000000000E+00 -0.14201880082E+03  0.14201880082E+03  0.00000000000E+00 0. -1.
         25    1    1    2    0    0  0.14358193515E+03  0.10210027826E+03  0.19574555795E+03  0.29151597277E+03  0.12500000000E+03 0.  0.
         25    1    1    2    0    0 -0.14358193515E+03 -0.10210027826E+03  0.29799949414E+02  0.21806713624E+03  0.12500000000E+03 0.  0.
</event>
<event>
 4    0  0.2170991E-002  0.2631005E+03  0.7546771E-02  0.1105295E+00
         21   -1    0    0  502  501  0.00000000000E+00  0.00000000000E+00  0.87957613734E+02  0.87957613734E+02  0.00000000000E+00 0. -1.
         21   -1    0    0  501  502 -0.00000000000E+00 -0.00000000000E+00 -0.78699117176E+03  0.78699117176E+03  0.00000000000E+00 0. -1.
         25    1    1    2    0    0  0.10719343238E+03 -0.73485457126E+02 -0.30949315679E+02  0.18295738437E+03  0.12500000000E+03 0.  0.
         25    1    1    2    0    0 -0.10719343238E+03  0.73485457126E+02 -0.66808424235E+03  0.69199140112E+03  0.12500000000E+03 0.  0.
</event>
<event>
 4    0  0.2170991E-002  0.1850709E+03  0.7546771E-02  0.1162984E+00
         21   -1    0    0  502  501  0.00000000000E+00  0.00000000000E+00  0.37079464992E+02  0.37079464992E+02  0.00000000000E+00 0.  1.
         21   -1    0    0  501  502 -0.00000000000E+00 -0.00000000000E+00 -0.92372556995E+03  0.92372556995E+03  0.00000000000E+00 0.  1.
         25    1    1    2    0    0 -0.84509596834E+02 -0.44859280010E+01 -0.16539014537E+03  0.22392162846E+03  0.12500000000E+03 0.  0.
         25    1    1    2    0    0  0.84509596834E+02  0.44859280010E+01 -0.72125595959E+03  0.73688340648E+03  0.12500000000E+03 0.  0.
</event>
<event>
 4    0  0.2170991E-002  0.3977288E+03  0.7546771E-02  0.1044569E+00
         21   -1    0    0  502  501  0.00000000000E+00  0.00000000000E+00  0.65437168238E+03  0.65437168238E+03  0.00000000000E+00 0. -1.
         21   -1    0    0  501  502 -0.00000000000E+00 -0.00000000000E+00 -0.24174056569E+03  0.24174056569E+03  0.00000000000E+00 0. -1.
         25    1    1    2    0    0  0.13502317947E+03 -0.47183388259E+02 -0.18733718388E+03  0.26679158830E+03  0.12500000000E+03 0.  0.
         25    1    1    2    0    0 -0.13502317947E+03  0.47183388259E+02  0.59996830057E+03  0.62932065977E+03  0.12500000000E+03 0.  0.
</event>
<event>
 4    0  0.2170991E-002  0.1967219E+03  0.7546771E-02  0.1152535E+00
         21   -1    0    0  502  501  0.00000000000E+00  0.00000000000E+00  0.12820197432E+03  0.12820197432E+03  0.00000000000E+00 0.  1.
         21   -1    0    0  501  502 -0.00000000000E+00 -0.00000000000E+00 -0.30186353379E+03  0.30186353379E+03  0.00000000000E+00 0.  1.
         25    1    1    2    0    0  0.10523409205E+03 -0.49919406465E+02  0.19756230401E+02  0.17199264493E+03  0.12500000000E+03 0.  0.
         25    1    1    2    0    0 -0.10523409205E+03  0.49919406465E+02 -0.19341778986E+03  0.25807286318E+03  0.12500000000E+03 0.  0.
</event>
<event>
 4    0  0.2170991E-002  0.2742863E+03  0.7546771E-02  0.1098851E+00
         21   -1    0    0  502  501  0.00000000000E+00  0.00000000000E+00  0.36546264826E+03  0.36546264826E+03  0.00000000000E+00 0. -1.
         21   -1    0    0  501  502 -0.00000000000E+00 -0.00000000000E+00 -0.20585686562E+03  0.20585686562E+03  0.00000000000E+00 0. -1.
         25    1    1    2    0    0 -0.83939952501E+02 -0.22399518248E+03  0.13069889420E+03  0.29987823920E+03  0.12500000000E+03 0.  0.
         25    1    1    2    0    0  0.83939952501E+02  0.22399518248E+03  0.28906888437E+02  0.27144127468E+03  0.12500000000E+03 0.  0.
</event>
<event>
 4    0  0.2170991E-002  0.2537273E+03  0.7546771E-02  0.1110972E+00
         21   -1    0    0  502  501  0.00000000000E+00  0.00000000000E+00  0.63898785756E+03  0.63898785756E+03  0.00000000000E+00 0. -1.
         21   -1    0    0  501  502 -0.00000000000E+00 -0.00000000000E+00 -0.10074926660E+03  0.10074926660E+03  0.00000000000E+00 0. -1.
         25    1    1    2    0    0 -0.16015499970E+03  0.14500692715E+03  0.33553732948E+03  0.41819484971E+03  0.12500000000E+03 0.  0.
         25    1    1    2    0    0  0.16015499970E+03 -0.14500692715E+03  0.20270126148E+03  0.32154227444E+03  0.12500000000E+03 0.  0.
</event>
<event>
 4    0  0.2170991E-002  0.2675061E+03  0.7546771E-02  0.1102715E+00
         21   -1    0    0  502  501  0.00000000000E+00  0.00000000000E+00  0.60320848508E+03  0.60320848508E+03  0.00000000000E+00 0.  1.
         21   -1    0    0  501  502 -0.00000000000E+00 -0.00000000000E+00 -0.11863150471E+03  0.11863150471E+03  0.00000000000E+00 0.  1.
         25    1    1    2    0    0  0.21403787417E+03  0.97908977154E+02  0.27352918631E+03  0.38189212501E+03  0.12500000000E+03 0.  0.
         25    1    1    2    0    0 -0.21403787417E+03 -0.97908977154E+02  0.21104779407E+03  0.33994786478E+03  0.12500000000E+03 0.  0.
</event>
<event>
 4    0  0.2170991E-002  0.1884466E+03  0.7546771E-02  0.1159870E+00
         21   -1    0    0  502  501  0.00000000000E+00  0.00000000000E+00  0.41692581893E+03  0.41692581893E+03  0.00000000000E+00 0.  1.
         21   -1    0    0  501  502 -0.00000000000E+00 -0.00000000000E+00 -0.85176128413E+02  0.85176128413E+02  0.00000000000E+00 0.  1.
         25    1    1    2    0    0  0.10277189667E+03 -0.96264063073E+02  0.17604640109E+03  0.25777154211E+03  0.12500000000E+03 0.  0.
         25    1    1    2    0    0 -0.10277189667E+03  0.96264063073E+02  0.15570328943E+03  0.24433040524E+03  0.12500000000E+03 0.  0.
</event>
<event>
 4    0  0.2170991E-002  0.2534464E+03  0.7546771E-02  0.1111146E+00
         21   -1    0    0  502  501  0.00000000000E+00  0.00000000000E+00  0.58131507238E+02  0.58131507238E+02  0.00000000000E+00 0.  1.
         21   -1    0    0  501  502 -0.00000000000E+00 -0.00000000000E+00 -0.11049960928E+04  0.11049960928E+04  0.00000000000E+00 0.  1.
         25    1    1    2    0    0  0.15422825767E+03 -0.37760373765E+02 -0.17243842984E+03  0.26565431180E+03  0.12500000000E+03 0.  0.
         25    1    1    2    0    0 -0.15422825767E+03  0.37760373765E+02 -0.87442615568E+03  0.89747328820E+03  0.12500000000E+03 0.  0.
</event>
<event>
 4    0  0.2170991E-002  0.2693356E+03  0.7546771E-02  0.1101660E+00
         21   -1    0    0  502  501  0.00000000000E+00  0.00000000000E+00  0.36126780693E+02  0.36126780693E+02  0.00000000000E+00 0. -1.
         21   -1    0    0  501  502 -0.00000000000E+00 -0.00000000000E+00 -0.20079754983E+04  0.20079754983E+04  0.00000000000E+00 0. -1.
         25    1    1    2    0    0 -0.21928894605E+03 -0.39122836437E+02 -0.13101103000E+04  0.13347779726E+04  0.12500000000E+03 0.  0.
         25    1    1    2    0    0  0.21928894605E+03  0.39122836437E+02 -0.66173841769E+03  0.70932430639E+03  0.12500000000E+03 0.  0.
</event>
<event>
 4    0  0.2170991E-002  0.2205519E+03  0.7546771E-02  0.1133472E+00
         21   -1    0    0  502  501  0.00000000000E+00  0.00000000000E+00  0.21450447290E+03  0.21450447290E+03  0.00000000000E+00 0. -1.
         21   -1    0    0  501  502 -0.00000000000E+00 -0.00000000000E+00 -0.22676992006E+03  0.22676992006E+03  0.00000000000E+00 0. -1.
         25    1    1    2    0    0 -0.40321878152E+01  0.14534327055E+03 -0.11515758622E+03  0.22366759823E+03  0.12500000000E+03 0.  0.
         25    1    1    2    0    0  0.40321878152E+01 -0.14534327055E+03  0.10289213905E+03  0.21760679473E+03  0.12500000000E+03 0.  0.
</event>
<event>
 4    0  0.2170991E-002  0.2594196E+03  0.7546771E-02  0.1107492E+00
         21   -1    0    0  502  501  0.00000000000E+00  0.00000000000E+00  0.12321294583E+03  0.12321294583E+03  0.00000000000E+00 0.  1.
         21   -1    0    0  501  502 -0.00000000000E+00 -0.00000000000E+00 -0.54619695319E+03  0.54619695319E+03  0.00000000000E+00 0.  1.
         25    1    1    2    0    0 -0.17165693898E+03  0.13045553392E+03 -0.11855425506E+03  0.27597982250E+03  0.12500000000E+03 0.  0.
         25    1    1    2    0    0  0.17165693898E+03 -0.13045553392E+03 -0.30442975230E+03  0.39343007653E+03  0.12500000000E+03 0.  0.
</event>
<event>
 4    0  0.2170991E-002  0.2419321E+03  0.7546771E-02  0.1118512E+00
         21   -1    0    0  502  501  0.00000000000E+00  0.00000000000E+00  0.20186464540E+03  0.20186464540E+03  0.00000000000E+00 0. -1.
         21   -1    0    0  501  502 -0.00000000000E+00 -0.00000000000E+00 -0.28995245657E+03  0.28995245657E+03  0.00000000000E+00 0. -1.
         25    1    1    2    0    0  0.60747708802E+02 -0.19441426412E+03 -0.82332120581E+02  0.25276623251E+03  0.12500000000E+03 0.  0.
         25    1    1    2    0    0 -0.60747708802E+02  0.19441426412E+03 -0.57556905943E+01  0.23905086946E+03  0.12500000000E+03 0.  0.
</event>
<event>
 4    0  0.2170991E-002  0.1745521E+03  0.7546771E-02  0.1173182E+00
         21   -1    0    0  502  501  0.00000000000E+00  0.00000000000E+00  0.24252991945E+02  0.24252991945E+02  0.00000000000E+00 0.  1.
         21   -1    0    0  501  502 -0.00000000000E+00 -0.00000000000E+00 -0.12562753873E+04  0.12562753873E+04  0.00000000000E+00 0.  1.
         25    1    1    2    0    0  0.61601190790E+02  0.94698942015E+02 -0.44868901402E+03  0.47928011395E+03  0.12500000000E+03 0.  0.
         25    1    1    2    0    0 -0.61601190790E+02 -0.94698942015E+02 -0.78333338130E+03  0.80124826527E+03  0.12500000000E+03 0.  0.
</event>
<event>
 4    0  0.2170991E-002  0.4020589E+03  0.7546771E-02  0.1043069E+00
         21   -1    0    0  502  501  0.00000000000E+00  0.00000000000E+00  0.63141878771E+03  0.63141878771E+03  0.00000000000E+00 0.  1.
         21   -1    0    0  501  502 -0.00000000000E+00 -0.00000000000E+00 -0.25601287373E+03  0.25601287373E+03  0.00000000000E+00 0.  1.
         25    1    1    2    0    0  0.25905199574E+02  0.27260562859E+03  0.48185449228E+03  0.56814932882E+03  0.12500000000E+03 0.  0.
         25    1    1    2    0    0 -0.25905199574E+02 -0.27260562859E+03 -0.10644857830E+03  0.31928233262E+03  0.12500000000E+03 0.  0.
</event>
<event>
 4    0  0.2170991E-002  0.1443157E+03  0.7546771E-02  0.1207637E+00
         21   -1    0    0  502  501  0.00000000000E+00  0.00000000000E+00  0.23541140378E+03  0.23541140378E+03  0.00000000000E+00 0.  1.
         21   -1    0    0  501  502 -0.00000000000E+00 -0.00000000000E+00 -0.88470729879E+02  0.88470729879E+02  0.00000000000E+00 0.  1.
         25    1    1    2    0    0  0.67151453458E+02  0.27435386011E+01  0.10284303782E+03  0.17526703950E+03  0.12500000000E+03 0.  0.
         25    1    1    2    0    0 -0.67151453458E+02 -0.27435386011E+01  0.44097636081E+02  0.14861509416E+03  0.12500000000E+03 0.  0.
</event>
<event>
 4    0  0.2170991E-002  0.2501013E+03  0.7546771E-02  0.1113241E+00
         21   -1    0    0  502  501  0.00000000000E+00  0.00000000000E+00  0.58015950731E+03  0.58015950731E+03  0.00000000000E+00 0.  1.
         21   -1    0    0  501  502 -0.00000000000E+00 -0.00000000000E+00 -0.10781633818E+03  0.10781633818E+03  0.00000000000E+00 0.  1.
         25    1    1    2    0    0 -0.24696158300E+02  0.20296986946E+03  0.13776594295E+03  0.27642561962E+03  0.12500000000E+03 0.  0.
         25    1    1    2    0    0  0.24696158300E+02 -0.20296986946E+03  0.33457722618E+03  0.41155022588E+03  0.12500000000E+03 0.  0.
</event>
<event>
 4    0  0.2170991E-002  0.3048272E+03  0.7546771E-02  0.1082852E+00
         21   -1    0    0  502  501  0.00000000000E+00  0.00000000000E+00  0.61894687491E+03  0.61894687491E+03  0.00000000000E+00 0.  1.
         21   -1    0    0  501  502 -0.00000000000E+00 -0.00000000000E+00 -0.15012538358E+03  0.15012538358E+03  0.00000000000E+00 0.  1.
         25    1    1    2    0    0  0.25337735623E+03  0.10706215061E+03  0.28537627106E+03  0.41560438500E+03  0.12500000000E+03 0.  0.
         25    1    1    2    0    0 -0.25337735623E+03 -0.10706215061E+03  0.18344522027E+03  0.35346787349E+03  0.12500000000E+03 0.  0.
</event>
<event>
 4    0  0.2170991E-002  0.2008230E+03  0.7546771E-02  0.1149047E+00
         21   -1    0    0  502  501  0.00000000000E+00  0.00000000000E+00  0.33158590726E+02  0.33158590726E+02  0.00000000000E+00 0.  1.
         21   -1    0    0  501  502 -0.00000000000E+00 -0.00000000000E+00 -0.12162723233E+04  0.12162723233E+04  0.00000000000E+00 0.  1.
         25    1    1    2    0    0 -0.60826514406E+02  0.45765728289E+02 -0.10193368126E+04  0.10297897379E+04  0.12500000000E+03 0.  0.
         25    1    1    2    0    0  0.60826514406E+02 -0.45765728289E+02 -0.16377691999E+03  0.21964117615E+03  0.12500000000E+03 0.  0.
</event>
<event>
 4    0  0.2170991E-002  0.2301537E+03  0.7546771E-02  0.1126532E+00
         21   -1    0    0  502  501  0.00000000000E+00  0.00000000000E+00  0.33309325325E+03  0.33309325325E+03  0.00000000000E+00 0. -1.
         21   -1    0    0  501  502 -0.00000000000E+00 -0.00000000000E+00 -0.15902665958E+03  0.15902665958E+03  0.00000000000E+00 0. -1.
         25    1    1    2    0    0  0.98146147659E+02 -0.46688295854E+01  0.26494080740E+03  0.30898720960E+03  0.12500000000E+03 0.  0.
         25    1    1    2    0    0 -0.98146147659E+02  0.46688295854E+01 -0.90874213740E+02  0.18313270323E+03  0.12500000000E+03 0.  0.
</event>
<event>
 4    0  0.2170991E-002  0.2117257E+03  0.7546771E-02  0.1140207E+00
         21   -1    0    0  502  501  0.00000000000E+00  0.00000000000E+00  0.39280402733E+02  0.39280402733E+02  0.00000000000E+00 0. -1.
         21   -1    0    0  501  502 -0.00000000000E+00 -0.00000000000E+00 -0.11412247482E+04  0.11412247482E+04  0.00000000000E+00 0. -1.
         25    1    1    2    0    0  0.14873427489E+03 -0.39164082090E+02 -0.75860483975E+03  0.78406760725E+03  0.12500000000E+03 0.  0.
         25    1    1    2    0    0 -0.14873427489E+03  0.39164082090E+02 -0.34333950572E+03  0.39643754369E+03  0.12500000000E+03 0.  0.
</event>
<event>
 4    0  0.2170991E-002  0.3183211E+03  0.7546771E-02  0.1076425E+00
         21   -1    0    0  502  501  0.00000000000E+00  0.00000000000E+00  0.20758036966E+04  0.20758036966E+04  0.00000000000E+00 0.  1.
         21   -1    0    0  501  502 -0.00000000000E+00 -0.00000000000E+00 -0.48814032238E+02  0.48814032238E+02  0.00000000000E+00 0.  1.
         25    1    1    2    0    0 -0.24316732967E+03  0.13162217027E+03  0.69255517567E+03  0.75611666909E+03  0.12500000000E+03 0.  0.
         25    1    1    2    0    0  0.24316732967E+03 -0.13162217027E+03  0.13344344887E+04  0.13685010598E+04  0.12500000000E+03 0.  0.
</event>
<event>
 4    0  0.2170991E-002  0.1818289E+03  0.7546771E-02  0.1166045E+00
         21   -1    0    0  502  501  0.00000000000E+00  0.00000000000E+00  0.90727877910E+03  0.90727877910E+03  0.00000000000E+00 0. -1.
         21   -1    0    0  501  502 -0.00000000000E+00 -0.00000000000E+00 -0.36440544295E+02  0.36440544295E+02  0.00000000000E+00 0. -1.
         25    1    1    2    0    0 -0.86353524413E+02  0.93954412048E+02  0.52351304742E+03  0.55315031731E+03  0.12500000000E+03 0.  0.
         25    1    1    2    0    0  0.86353524413E+02 -0.93954412048E+02  0.34732518739E+03  0.39056900609E+03  0.12500000000E+03 0.  0.
</event>
<event>
 4    0  0.2170991E-002  0.1902543E+03  0.7546771E-02  0.1158232E+00
         21   -1    0    0  502  501  0.00000000000E+00  0.00000000000E+00  0.21613943489E+03  0.21613943489E+03  0.00000000000E+00 0. -1.
         21   -1    0    0  501  502 -0.00000000000E+00 -0.00000000000E+00 -0.16746917270E+03  0.16746917270E+03  0.00000000000E+00 0. -1.
         25    1    1    2    0    0  0.11097011375E+03  0.78220288118E+02  0.70960302056E+02  0.19771986265E+03  0.12500000000E+03 0.  0.
         25    1    1    2    0    0 -0.11097011375E+03 -0.78220288118E+02 -0.22290039871E+02  0.18588874494E+03  0.12500000000E+03 0.  0.
</event>
<event>
 4    0  0.2170991E-002  0.3958781E+03  0.7546771E-02  0.1045216E+00
         21   -1    0    0  502  501  0.00000000000E+00  0.00000000000E+00  0.16223596869E+03  0.16223596869E+03  0.00000000000E+00 0.  1.
         21   -1    0    0  501  502 -0.00000000000E+00 -0.00000000000E+00 -0.96599682622E+03  0.96599682622E+03  0.00000000000E+00 0. -1.
         25    1    1    2    0    0 -0.19690931556E+03 -0.26488599209E+03 -0.65741055884E+03  0.74615783199E+03  0.12500000000E+03 0.  0.
         25    1    1    2    0    0  0.19690931556E+03  0.26488599209E+03 -0.14635029869E+03  0.38207496292E+03  0.12500000000E+03 0.  0.
</event>
<event>
 4    0  0.2170991E-002  0.1914754E+03  0.7546771E-02  0.1157137E+00
         21   -1    0    0  502  501  0.00000000000E+00  0.00000000000E+00  0.62851999885E+02  0.62851999885E+02  0.00000000000E+00 0.  1.
         21   -1    0    0  501  502 -0.00000000000E+00 -0.00000000000E+00 -0.58331993060E+03  0.58331993060E+03  0.00000000000E+00 0.  1.
         25    1    1    2    0    0  0.12303623761E+03 -0.74229934836E+02 -0.29354898705E+03  0.34992000055E+03  0.12500000000E+03 0.  0.
         25    1    1    2    0    0 -0.12303623761E+03  0.74229934836E+02 -0.22691894367E+03  0.29625192993E+03  0.12500000000E+03 0.  0.
</event>
<event>
 4    0  0.2170991E-002  0.2360124E+03  0.7546771E-02  0.1122478E+00
         21   -1    0    0  502  501  0.00000000000E+00  0.00000000000E+00  0.96917337723E+02  0.96917337723E+02  0.00000000000E+00 0.  1.
         21   -1    0    0  501  502 -0.00000000000E+00 -0.00000000000E+00 -0.57473571488E+03  0.57473571488E+03  0.00000000000E+00 0.  1.
         25    1    1    2    0    0 -0.14891103083E+03 -0.45483250408E+02 -0.41795759926E+03  0.46320273742E+03  0.12500000000E+03 0.  0.
         25    1    1    2    0    0  0.14891103083E+03  0.45483250408E+02 -0.59860777893E+02  0.20845031518E+03  0.12500000000E+03 0.  0.
</event>
<event>
 4    0  0.2170991E-002  0.2422308E+03  0.7546771E-02  0.1118316E+00
         21   -1    0    0  502  501  0.00000000000E+00  0.00000000000E+00  0.11461367340E+04  0.11461367340E+04  0.00000000000E+00 0.  1.
         21   -1    0    0  501  502 -0.00000000000E+00 -0.00000000000E+00 -0.51194361186E+02  0.51194361186E+02  0.00000000000E+00 0.  1.
         25    1    1    2    0    0 -0.19195343629E+03 -0.48380095540E+02  0.70109996070E+03  0.73915689150E+03  0.12500000000E+03 0.  0.
         25    1    1    2    0    0  0.19195343629E+03  0.48380095540E+02  0.39384241211E+03  0.45817420369E+03  0.12500000000E+03 0.  0.
</event>
<event>
 4    0  0.2170991E-002  0.1924753E+03  0.7546771E-02  0.1156248E+00
         21   -1    0    0  502  501  0.00000000000E+00  0.00000000000E+00  0.20602596316E+02  0.20602596316E+02  0.00000000000E+00 0. -1.
         21   -1    0    0  501  502 -0.00000000000E+00 -0.00000000000E+00 -0.17981591963E+04  0.17981591963E+04  0.00000000000E+00 0. -1.
         25    1    1    2    0    0 -0.63373696870E+02  0.61199304507E+02 -0.14409813440E+04  0.14490734330E+04  0.12500000000E+03 0.  0.
         25    1    1    2    0    0  0.63373696870E+02 -0.61199304507E+02 -0.33657525592E+03  0.36968835960E+03  0.12500000000E+03 0.  0.
</event>
<event>
 4    0  0.2170991E-002  0.2043703E+03  0.7546771E-02  0.1146103E+00
         21   -1    0    0  502  501  0.00000000000E+00  0.00000000000E+00  0.75060448612E+02  0.75060448612E+02  0.00000000000E+00 0.  1.
         21   -1    0    0  501  502 -0.00000000000E+00 -0.00000000000E+00 -0.55644768701E+03  0.55644768701E+03  0.00000000000E+00 0.  1.
         25    1    1    2    0    0 -0.39108384036E+02 -0.15649148894E+03 -0.25783983030E+03  0.32882431465E+03  0.12500000000E+03 0.  0.
         25    1    1    2    0    0  0.39108384036E+02  0.15649148894E+03 -0.22354740810E+03  0.30268382098E+03  0.12500000000E+03 0.  0.
</event>
<event>
 4    0  0.2170991E-002  0.2445186E+03  0.7546771E-02  0.1116819E+00
         21   -1    0    0  502  501  0.00000000000E+00  0.00000000000E+00  0.44178340868E+03  0.44178340868E+03  0.00000000000E+00 0. -1.
         21   -1    0    0  501  502 -0.00000000000E+00 -0.00000000000E+00 -0.13533631797E+03  0.13533631797E+03  0.00000000000E+00 0. -1.
         25    1    1    2    0    0  0.13748313060E+03  0.15084003032E+03  0.21234731414E+03  0.31995422761E+03  0.12500000000E+03 0.  0.
         25    1    1    2    0    0 -0.13748313060E+03 -0.15084003032E+03  0.94099776572E+02  0.25716549904E+03  0.12500000000E+03 0.  0.
</event>
<event>
 4    0  0.2170991E-002  0.1630905E+03  0.7546771E-02  0.1185251E+00
         21   -1    0    0  502  501  0.00000000000E+00  0.00000000000E+00  0.15404754934E+03  0.15404754934E+03  0.00000000000E+00 0.  1.
         21   -1    0    0  501  502 -0.00000000000E+00 -0.00000000000E+00 -0.17266419298E+03  0.17266419298E+03  0.00000000000E+00 0.  1.
         25    1    1    2    0    0  0.19630483493E+02  0.98079505464E+02 -0.40480514163E+02  0.16513212074E+03  0.12500000000E+03 0.  0.
         25    1    1    2    0    0 -0.19630483493E+02 -0.98079505464E+02  0.21863870532E+02  0.16157962158E+03  0.12500000000E+03 0.  0.
</event>
<event>
 4    0  0.2170991E-002  0.1924358E+03  0.7546771E-02  0.1156283E+00
         21   -1    0    0  502  501  0.00000000000E+00  0.00000000000E+00  0.51601182634E+02  0.51601182634E+02  0.00000000000E+00 0. -1.
         21   -1    0    0  501  502 -0.00000000000E+00 -0.00000000000E+00 -0.71764914887E+03  0.71764914887E+03  0.00000000000E+00 0. -1.
         25    1    1    2    0    0  0.18750131420E+02  0.60004125018E+02 -0.59708559407E+03  0.61326035996E+03  0.12500000000E+03 0.  0.
         25    1    1    2    0    0 -0.18750131420E+02 -0.60004125018E+02 -0.68962372160E+02  0.15598997154E+03  0.12500000000E+03 0.  0.
</event>
<event>
 4    0  0.2170991E-002  0.1837356E+03  0.7546771E-02  0.1164236E+00
         21   -1    0    0  502  501  0.00000000000E+00  0.00000000000E+00  0.30763220398E+03  0.30763220398E+03  0.00000000000E+00 0. -1.
         21   -1    0    0  501  502 -0.00000000000E+00 -0.00000000000E+00 -0.10973749629E+03  0.10973749629E+03  0.00000000000E+00 0. -1.
         25    1    1    2    0    0  0.22465642608E+02 -0.11483089632E+03  0.23240863288E+02  0.17278882364E+03  0.12500000000E+03 0.  0.
         25    1    1    2    0    0 -0.22465642608E+02  0.11483089632E+03  0.17465384441E+03  0.24458087663E+03  0.12500000000E+03 0.  0.
</event>
<event>
 4    0  0.2170991E-002  0.2123244E+03  0.7546771E-02  0.1139738E+00
         21   -1    0    0  502  501  0.00000000000E+00  0.00000000000E+00  0.16225439201E+03  0.16225439201E+03  0.00000000000E+00 0.  1.
         21   -1    0    0  501  502 -0.00000000000E+00 -0.00000000000E+00 -0.27784560714E+03  0.27784560714E+03  0.00000000000E+00 0.  1.
         25    1    1    2    0    0  0.65572010235E+02  0.10628608448E+03  0.64217616314E+02  0.18800351732E+03  0.12500000000E+03 0.  0.
         25    1    1    2    0    0 -0.65572010235E+02 -0.10628608448E+03 -0.17980883145E+03  0.25209648183E+03  0.12500000000E+03 0.  0.
</event>
<event>
 4    0  0.2170991E-002  0.1722654E+03  0.7546771E-02  0.1175506E+00
         21   -1    0    0  502  501  0.00000000000E+00  0.00000000000E+00  0.10451337433E+03  0.10451337433E+03  0.00000000000E+00 0.  1.
         21   -1    0    0  501  502 -0.00000000000E+00 -0.00000000000E+00 -0.28393857319E+03  0.28393857319E+03  0.00000000000E+00 0.  1.
         25    1    1    2    0    0 -0.71937746253E+02 -0.34727538219E+02 -0.18845145509E+03  0.23983325910E+03  0.12500000000E+03 0.  0.
         25    1    1    2    0    0  0.71937746253E+02  0.34727538219E+02  0.90262562334E+01  0.14861868842E+03  0.12500000000E+03 0.  0.
</event>
<event>
 4    0  0.2170991E-002  0.1745755E+03  0.7546771E-02  0.1173159E+00
         21   -1    0    0  502  501  0.00000000000E+00  0.00000000000E+00  0.10182272402E+03  0.10182272402E+03  0.00000000000E+00 0.  1.
         21   -1    0    0  501  502 -0.00000000000E+00 -0.00000000000E+00 -0.29931042980E+03  0.29931042980E+03  0.00000000000E+00 0.  1.
         25    1    1    2    0    0 -0.62862202314E+02  0.26413780714E+01 -0.21865192872E+03  0.25960026828E+03  0.12500000000E+03 0.  0.
         25    1    1    2    0    0  0.62862202314E+02 -0.26413780714E+01  0.21164222944E+02  0.14153288555E+03  0.12500000000E+03 0.  0.
</event>
<event>
 4    0  0.2170991E-002  0.2616463E+03  0.7546771E-02  0.1106158E+00
         21   -1    0    0  502  501  0.00000000000E+00  0.00000000000E+00  0.27734253810E+03  0.27734253810E+03  0.00000000000E+00 0. -1.
         21   -1    0    0  501  502 -0.00000000000E+00 -0.00000000000E+00 -0.24683846416E+03  0.24683846416E+03  0.00000000000E+00 0. -1.
         25    1    1    2    0    0  0.18772943004E+03 -0.20402743417E+02  0.14652868009E+03  0.26972998522E+03  0.12500000000E+03 0.  0.
         25    1    1    2    0    0 -0.18772943004E+03  0.20402743417E+02 -0.11602460614E+03  0.25445101704E+03  0.12500000000E+03 0.  0.
</event>
<event>
 4    0  0.2170991E-002  0.2006397E+03  0.7546771E-02  0.1149200E+00
         21   -1    0    0  502  501  0.00000000000E+00  0.00000000000E+00  0.25746927533E+03  0.25746927533E+03  0.00000000000E+00 0. -1.
         21   -1    0    0  501  502 -0.00000000000E+00 -0.00000000000E+00 -0.15635375534E+03  0.15635375534E+03  0.00000000000E+00 0. -1.
         25    1    1    2    0    0 -0.60950102278E+02 -0.34366115351E+01  0.19966143314E+03  0.24334422769E+03  0.12500000000E+03 0.  0.
         25    1    1    2    0    0  0.60950102278E+02  0.34366115351E+01 -0.98545913147E+02  0.17047880298E+03  0.12500000000E+03 0.  0.
</event>
<event>
 4    0  0.2170991E-002  0.1798877E+03  0.7546771E-02  0.1167912E+00
         21   -1    0    0  502  501  0.00000000000E+00  0.00000000000E+00  0.26369775252E+03  0.26369775252E+03  0.00000000000E+00 0.  1.
         21   -1    0    0  501  502 -0.00000000000E+00 -0.00000000000E+00 -0.12271473002E+03  0.12271473002E+03  0.00000000000E+00 0.  1.
         25    1    1    2    0    0 -0.11362115744E+03 -0.49242663811E+02  0.11067820107E+03  0.20786839959E+03  0.12500000000E+03 0.  0.
         25    1    1    2    0    0  0.11362115744E+03  0.49242663811E+02  0.30304821431E+02  0.17854408296E+03  0.12500000000E+03 0.  0.
</event>
<event>
 4    0  0.2170991E-002  0.2116699E+03  0.7546771E-02  0.1140250E+00
         21   -1    0    0  502  501  0.00000000000E+00  0.00000000000E+00  0.10924821795E+03  0.10924821795E+03  0.00000000000E+00 0.  1.
         21   -1    0    0  501  502 -0.00000000000E+00 -0.00000000000E+00 -0.41011338403E+03  0.41011338403E+03  0.00000000000E+00 0.  1.
         25    1    1    2    0    0 -0.39424609308E+02 -0.10828936308E+03  0.42550625635E+01  0.17007054870E+03  0.12500000000E+03 0.  0.
         25    1    1    2    0    0  0.39424609308E+02  0.10828936308E+03 -0.30512022864E+03  0.34929105328E+03  0.12500000000E+03 0.  0.
</event>
<event>
 4    0  0.2170991E-002  0.2907284E+03  0.7546771E-02  0.1089969E+00
         21   -1    0    0  502  501  0.00000000000E+00  0.00000000000E+00  0.14737103962E+04  0.14737103962E+04  0.00000000000E+00 0. -1.
         21   -1    0    0  501  502 -0.00000000000E+00 -0.00000000000E+00 -0.57353892939E+02  0.57353892939E+02  0.00000000000E+00 0. -1.
         25    1    1    2    0    0  0.14384244859E+03 -0.14756915332E+03  0.28009283734E+03  0.36951901515E+03  0.12500000000E+03 0.  0.
         25    1    1    2    0    0 -0.14384244859E+03  0.14756915332E+03  0.11362636659E+04  0.11615452740E+04  0.12500000000E+03 0.  0.
</event>
<event>
 4    0  0.2170991E-002  0.2045181E+03  0.7546771E-02  0.1145982E+00
         21   -1    0    0  502  501  0.00000000000E+00  0.00000000000E+00  0.44171055471E+03  0.44171055471E+03  0.00000000000E+00 0. -1.
         21   -1    0    0  501  502 -0.00000000000E+00 -0.00000000000E+00 -0.94694688663E+02  0.94694688663E+02  0.00000000000E+00 0. -1.
         25    1    1    2    0    0  0.15669234307E+03 -0.37385521091E+02  0.15267064099E+03  0.25472238258E+03  0.12500000000E+03 0.  0.
         25    1    1    2    0    0 -0.15669234307E+03  0.37385521091E+02  0.19434522506E+03  0.28168286080E+03  0.12500000000E+03 0.  0.
</event>
<event>
 4    0  0.2170991E-002  0.3071688E+03  0.7546771E-02  0.1081711E+00
         21   -1    0    0  502  501  0.00000000000E+00  0.00000000000E+00  0.26790070803E+03  0.26790070803E+03  0.00000000000E+00 0. -1.
         21   -1    0    0  501  502 -0.00000000000E+00 -0.00000000000E+00 -0.35219262638E+03  0.35219262638E+03  0.00000000000E+00 0. -1.
         25    1    1    2    0    0 -0.22312542088E+03  0.56045699795E+02  0.11998769028E+03  0.28800715221E+03  0.12500000000E+03 0.  0.
         25    1    1    2    0    0  0.22312542088E+03 -0.56045699795E+02 -0.20427960862E+03  0.33208618220E+03  0.12500000000E+03 0.  0.
</event>
<event>
 4    0  0.2170991E-002  0.1970982E+03  0.7546771E-02  0.1152211E+00
         21   -1    0    0  502  501  0.00000000000E+00  0.00000000000E+00  0.12597176695E+03  0.12597176695E+03  0.00000000000E+00 0.  1.
         21   -1    0    0  501  502 -0.00000000000E+00 -0.00000000000E+00 -0.30838429872E+03  0.30838429872E+03  0.00000000000E+00 0.  1.
         25    1    1    2    0    0 -0.68819211187E+02  0.89969204691E+02 -0.20353383168E+03  0.26435121006E+03  0.12500000000E+03 0.  0.
         25    1    1    2    0    0  0.68819211187E+02 -0.89969204691E+02  0.21121299913E+02  0.17000485561E+03  0.12500000000E+03 0.  0.
</event>
<event>
 4    0  0.2170991E-002  0.1741678E+03  0.7546771E-02  0.1173570E+00
         21   -1    0    0  502  501  0.00000000000E+00  0.00000000000E+00  0.50490085937E+03  0.50490085937E+03  0.00000000000E+00 0.  1.
         21   -1    0    0  501  502 -0.00000000000E+00 -0.00000000000E+00 -0.60079984189E+02  0.60079984189E+02  0.00000000000E+00 0.  1.
         25    1    1    2    0    0 -0.43814960404E+02 -0.95404927950E+02  0.12391712039E+03  0.20494463584E+03  0.12500000000E+03 0.  0.
         25    1    1    2    0    0  0.43814960404E+02  0.95404927950E+02  0.32090375479E+03  0.36003620772E+03  0.12500000000E+03 0.  0.
</event>
<event>
 4    0  0.2170991E-002  0.2736848E+03  0.7546771E-02  0.1099189E+00
         21   -1    0    0  502  501  0.00000000000E+00  0.00000000000E+00  0.58425325272E+02  0.58425325272E+02  0.00000000000E+00 0. -1.
         21   -1    0    0  501  502 -0.00000000000E+00 -0.00000000000E+00 -0.12820363385E+04  0.12820363385E+04  0.00000000000E+00 0. -1.
         25    1    1    2    0    0  0.27207488417E+02 -0.22992700182E+03 -0.79623523318E+03  0.83858346046E+03  0.12500000000E+03 0.  0.
         25    1    1    2    0    0 -0.27207488417E+02  0.22992700182E+03 -0.42737578006E+03  0.50187820333E+03  0.12500000000E+03 0.  0.
</event>
<event>
 4    0  0.2170991E-002  0.2476726E+03  0.7546771E-02  0.1114785E+00
         21   -1    0    0  502  501  0.00000000000E+00  0.00000000000E+00  0.44607431669E+03  0.44607431669E+03  0.00000000000E+00 0.  1.
         21   -1    0    0  501  502 -0.00000000000E+00 -0.00000000000E+00 -0.13751452351E+03  0.13751452351E+03  0.00000000000E+00 0.  1.
         25    1    1    2    0    0 -0.11889287483E+03  0.51859463809E+02  0.35453621123E+03  0.39767555211E+03  0.12500000000E+03 0.  0.
         25    1    1    2    0    0  0.11889287483E+03 -0.51859463809E+02 -0.45976418049E+02  0.18591328809E+03  0.12500000000E+03 0.  0.
</event>
<event>
 4    0  0.2170991E-002  0.1573684E+03  0.7546771E-02  0.1191700E+00
         21   -1    0    0  502  501  0.00000000000E+00  0.00000000000E+00  0.11913227210E+04  0.11913227210E+04  0.00000000000E+00 0. -1.
         21   -1    0    0  501  502 -0.00000000000E+00 -0.00000000000E+00 -0.20787651680E+02  0.20787651680E+02  0.00000000000E+00 0. -1.
         25    1    1    2    0    0  0.40925053594E+02  0.12494104441E+02  0.25602271924E+03  0.28810344570E+03  0.12500000000E+03 0.  0.
         25    1    1    2    0    0 -0.40925053594E+02 -0.12494104441E+02  0.91451235006E+03  0.92400692696E+03  0.12500000000E+03 0.  0.
</event>
<event>
 4    0  0.2170991E-002  0.1990103E+03  0.7546771E-02  0.1150577E+00
         21   -1    0    0  502  501  0.00000000000E+00  0.00000000000E+00  0.78882495261E+03  0.78882495261E+03  0.00000000000E+00 0. -1.
         21   -1    0    0  501  502 -0.00000000000E+00 -0.00000000000E+00 -0.50207712932E+02  0.50207712932E+02  0.00000000000E+00 0. -1.
         25    1    1    2    0    0  0.21741082450E+02  0.12266391782E+02  0.69147593044E+03  0.70312666101E+03  0.12500000000E+03 0.  0.
         25    1    1    2    0    0 -0.21741082450E+02 -0.12266391782E+02  0.47141309236E+02  0.13590600454E+03  0.12500000000E+03 0.  0.
</event>
<event>
 4    0  0.2170991E-002  0.2488778E+03  0.7546771E-02  0.1114016E+00
         21   -1    0    0  502  501  0.00000000000E+00  0.00000000000E+00  0.70104782305E+02  0.70104782305E+02  0.00000000000E+00 0. -1.
         21   -1    0    0  501  502 -0.00000000000E+00 -0.00000000000E+00 -0.88353712202E+03  0.88353712202E+03  0.00000000000E+00 0. -1.
         25    1    1    2    0    0 -0.10125343228E+03 -0.13400218099E+03 -0.14891529331E+03  0.25692334779E+03  0.12500000000E+03 0.  0.
         25    1    1    2    0    0  0.10125343228E+03  0.13400218099E+03 -0.66451704641E+03  0.69671855654E+03  0.12500000000E+03 0.  0.
</event>
<event>
 4    0  0.2170991E-002  0.2066059E+03  0.7546771E-02  0.1144282E+00
         21   -1    0    0  502  501  0.00000000000E+00  0.00000000000E+00  0.17230919816E+04  0.17230919816E+04  0.00000000000E+00 0.  1.
         21   -1    0    0  501  502 -0.00000000000E+00 -0.00000000000E+00 -0.24772917770E+02  0.24772917770E+02  0.00000000000E+00 0.  1.
         25    1    1    2    0    0  0.10742315036E+03  0.12456620354E+03  0.84014301708E+03  0.86517152140E+03  0.12500000000E+03 0.  0.
         25    1    1    2    0    0 -0.10742315036E+03 -0.12456620354E+03  0.85817604680E+03  0.88269337802E+03  0.12500000000E+03 0.  0.
</event>
<event>
 4    0  0.2170991E-002  0.2249282E+03  0.7546771E-02  0.1130261E+00
         21   -1    0    0  502  501  0.00000000000E+00  0.00000000000E+00  0.15710852811E+03  0.15710852811E+03  0.00000000000E+00 0. -1.
         21   -1    0    0  501  502 -0.00000000000E+00 -0.00000000000E+00 -0.32202376630E+03  0.32202376630E+03  0.00000000000E+00 0. -1.
         25    1    1    2    0    0  0.17039476749E+03 -0.67621656370E+02 -0.12174464851E+03  0.25308857074E+03  0.12500000000E+03 0.  0.
         25    1    1    2    0    0 -0.17039476749E+03  0.67621656370E+02 -0.43170589677E+02  0.22604372367E+03  0.12500000000E+03 0.  0.
</event>
<event>
 4    0  0.2170991E-002  0.1843264E+03  0.7546771E-02  0.1163680E+00
         21   -1    0    0  502  501  0.00000000000E+00  0.00000000000E+00  0.53107354338E+02  0.53107354338E+02  0.00000000000E+00 0. -1.
         21   -1    0    0  501  502 -0.00000000000E+00 -0.00000000000E+00 -0.63976470820E+03  0.63976470820E+03  0.00000000000E+00 0. -1.
         25    1    1    2    0    0 -0.11893406496E+03  0.22606038600E+02 -0.17908427102E+03  0.24970486762E+03  0.12500000000E+03 0.  0.
         25    1    1    2    0    0  0.11893406496E+03 -0.22606038600E+02 -0.40757308285E+03  0.44316719492E+03  0.12500000000E+03 0.  0.
</event>
<event>
 4    0  0.2170991E-002  0.2139623E+03  0.7546771E-02  0.1138466E+00
         21   -1    0    0  502  501  0.00000000000E+00  0.00000000000E+00  0.12048031918E+03  0.12048031918E+03  0.00000000000E+00 0. -1.
         21   -1    0    0  501  502 -0.00000000000E+00 -0.00000000000E+00 -0.37997812059E+03  0.37997812059E+03  0.00000000000E+00 0. -1.
         25    1    1    2    0    0 -0.14352144457E+03 -0.61912009229E+02 -0.41272573001E+02  0.20435245832E+03  0.12500000000E+03 0.  0.
         25    1    1    2    0    0  0.14352144457E+03  0.61912009229E+02 -0.21822522841E+03  0.29610598146E+03  0.12500000000E+03 0.  0.
</event>
<event>
 4    0  0.2170991E-002  0.3287501E+03  0.7546771E-02  0.1071691E+00
         21   -1    0    0  502  501  0.00000000000E+00  0.00000000000E+00  0.22700814458E+04  0.22700814458E+04  0.00000000000E+00 0. -1.
         21   -1    0    0  501  502 -0.00000000000E+00 -0.00000000000E+00 -0.47609153620E+02  0.47609153620E+02  0.00000000000E+00 0. -1.
         25    1    1    2    0    0  0.25591036646E+03 -0.10532689334E+03  0.15552716364E+04  0.15846383603E+04  0.12500000000E+03 0.  0.
         25    1    1    2    0    0 -0.25591036646E+03  0.10532689334E+03  0.66720065579E+03  0.73305223907E+03  0.12500000000E+03 0.  0.
</event>
<event>
 4    0  0.2170991E-002  0.2362985E+03  0.7546771E-02  0.1122283E+00
         21   -1    0    0  502  501  0.00000000000E+00  0.00000000000E+00  0.20951326426E+03  0.20951326426E+03  0.00000000000E+00 0.  1.
         21   -1    0    0  501  502 -0.00000000000E+00 -0.00000000000E+00 -0.26650816619E+03  0.26650816619E+03  0.00000000000E+00 0.  1.
         25    1    1    2    0    0 -0.23113934940E+02  0.19886281506E+03 -0.16954806889E+02  0.23662869369E+03  0.12500000000E+03 0.  0.
         25    1    1    2    0    0  0.23113934940E+02 -0.19886281506E+03 -0.40040095039E+02  0.23939273676E+03  0.12500000000E+03 0.  0.
</event>
<event>
 4    0  0.2170991E-002  0.1904312E+03  0.7546771E-02  0.1158073E+00
         21   -1    0    0  502  501  0.00000000000E+00  0.00000000000E+00  0.17355445338E+04  0.17355445338E+04  0.00000000000E+00 0. -1.
         21   -1    0    0  501  502 -0.00000000000E+00 -0.00000000000E+00 -0.20894900958E+02  0.20894900958E+02  0.00000000000E+00 0. -1.
         25    1    1    2    0    0 -0.35216845228E+02 -0.10304739971E+03  0.12894537549E+04  0.13000672978E+04  0.12500000000E+03 0.  0.
         25    1    1    2    0    0  0.35216845228E+02  0.10304739971E+03  0.42519587794E+03  0.45637213696E+03  0.12500000000E+03 0.  0.
</event>
<event>
 4    0  0.2170991E-002  0.2101375E+03  0.7546771E-02  0.1141457E+00
         21   -1    0    0  502  501  0.00000000000E+00  0.00000000000E+00  0.29810807843E+02  0.29810807843E+02  0.00000000000E+00 0.  1.
         21   -1    0    0  501  502 -0.00000000000E+00 -0.00000000000E+00 -0.14812672466E+04  0.14812672466E+04  0.00000000000E+00 0.  1.
         25    1    1    2    0    0  0.15765107935E+03  0.48782699237E+02 -0.59613436062E+03  0.63105846835E+03  0.12500000000E+03 0.  0.
         25    1    1    2    0    0 -0.15765107935E+03 -0.48782699237E+02 -0.85532207819E+03  0.88001958614E+03  0.12500000000E+03 0.  0.
</event>
<event>
 4    0  0.2170991E-002  0.2567079E+03  0.7546771E-02  0.1109137E+00
         21   -1    0    0  502  501  0.00000000000E+00  0.00000000000E+00  0.68380366919E+03  0.68380366919E+03  0.00000000000E+00 0. -1.
         21   -1    0    0  501  502 -0.00000000000E+00 -0.00000000000E+00 -0.96371126914E+02  0.96371126914E+02  0.00000000000E+00 0. -1.
         25    1    1    2    0    0  0.81147714617E+02  0.20417247518E+03  0.22571491640E+03  0.33888578414E+03  0.12500000000E+03 0.  0.
         25    1    1    2    0    0 -0.81147714617E+02 -0.20417247518E+03  0.36171762587E+03  0.44128901196E+03  0.12500000000E+03 0.  0.
</event>
<event>
 4    0  0.2170991E-002  0.2095534E+03  0.7546771E-02  0.1141920E+00
         21   -1    0    0  502  501  0.00000000000E+00  0.00000000000E+00  0.19871710248E+03  0.19871710248E+03  0.00000000000E+00 0. -1.
         21   -1    0    0  501  502 -0.00000000000E+00 -0.00000000000E+00 -0.22098067628E+03  0.22098067628E+03  0.00000000000E+00 0. -1.
         25    1    1    2    0    0 -0.12055384684E+03 -0.16876889587E+02  0.10509037101E+03  0.20368368975E+03  0.12500000000E+03 0.  0.
         25    1    1    2    0    0  0.12055384684E+03  0.16876889587E+02 -0.12735394482E+03  0.21601408901E+03  0.12500000000E+03 0.  0.
</event>
<event>
 4    0  0.2170991E-002  0.2588141E+03  0.7546771E-02  0.1107858E+00
         21   -1    0    0  502  501  0.00000000000E+00  0.00000000000E+00  0.77052815333E+02  0.77052815333E+02  0.00000000000E+00 0.  1.
         21   -1    0    0  501  502 -0.00000000000E+00 -0.00000000000E+00 -0.86933516906E+03  0.86933516906E+03  0.00000000000E+00 0.  1.
         25    1    1    2    0    0  0.22500845209E+03 -0.26643640870E+02 -0.40452658035E+03  0.48021395369E+03  0.12500000000E+03 0.  0.
         25    1    1    2    0    0 -0.22500845209E+03  0.26643640870E+02 -0.38775577337E+03  0.46617403069E+03  0.12500000000E+03 0.  0.
</event>
<event>
 4    0  0.2170991E-002  0.2204520E+03  0.7546771E-02  0.1133547E+00
         21   -1    0    0  502  501  0.00000000000E+00  0.00000000000E+00  0.75805647539E+02  0.75805647539E+02  0.00000000000E+00 0. -1.
         21   -1    0    0  501  502 -0.00000000000E+00 -0.00000000000E+00 -0.64110081335E+03  0.64110081335E+03  0.00000000000E+00 0. -1.
         25    1    1    2    0    0  0.10233256289E+00  0.15160371614E+03 -0.12012667747E+03  0.23030222722E+03  0.12500000000E+03 0.  0.
         25    1    1    2    0    0 -0.10233256289E+00 -0.15160371614E+03 -0.44516848834E+03  0.48660423367E+03  0.12500000000E+03 0.  0.
</event>
<event>
 4    0  0.2170991E-002  0.3079474E+03  0.7546771E-02  0.1081334E+00
         21   -1    0    0  502  501  0.00000000000E+00  0.00000000000E+00  0.22581884878E+03  0.22581884878E+03  0.00000000000E+00 0. -1.
         21   -1    0    0  501  502 -0.00000000000E+00 -0.00000000000E+00 -0.41994545168E+03  0.41994545168E+03  0.00000000000E+00 0.  1.
         25    1    1    2    0    0 -0.22603951378E+02 -0.28050593510E+03 -0.10070752221E+03  0.32397765860E+03  0.12500000000E+03 0.  0.
         25    1    1    2    0    0  0.22603951378E+02  0.28050593510E+03 -0.93419080690E+02  0.32178664186E+03  0.12500000000E+03 0.  0.
</event>
<event>
 4    0  0.2170991E-002  0.2349619E+03  0.7546771E-02  0.1123195E+00
         21   -1    0    0  502  501  0.00000000000E+00  0.00000000000E+00  0.30791885879E+02  0.30791885879E+02  0.00000000000E+00 0.  1.
         21   -1    0    0  501  502 -0.00000000000E+00 -0.00000000000E+00 -0.17929098527E+04  0.17929098527E+04  0.00000000000E+00 0.  1.
         25    1    1    2    0    0 -0.17478300823E+03  0.52610716441E+02 -0.11882369331E+04  0.12086558636E+04  0.12500000000E+03 0.  0.
         25    1    1    2    0    0  0.17478300823E+03 -0.52610716441E+02 -0.57388103367E+03  0.61504587492E+03  0.12500000000E+03 0.  0.
</event>
<event>
 4    0  0.2170991E-002  0.2181930E+03  0.7546771E-02  0.1135237E+00
         21   -1    0    0  502  501  0.00000000000E+00  0.00000000000E+00  0.12363396260E+03  0.12363396260E+03  0.00000000000E+00 0.  1.
         21   -1    0    0  501  502 -0.00000000000E+00 -0.00000000000E+00 -0.38507369980E+03  0.38507369980E+03  0.00000000000E+00 0.  1.
         25    1    1    2    0    0  0.15811218109E+03  0.83252515519E+02 -0.13918600029E+03  0.25870482374E+03  0.12500000000E+03 0.  0.
         25    1    1    2    0    0 -0.15811218109E+03 -0.83252515519E+02 -0.12225373691E+03  0.25000283866E+03  0.12500000000E+03 0.  0.
</event>
<event>
 4    0  0.2170991E-002  0.2493851E+03  0.7546771E-02  0.1113694E+00
         21   -1    0    0  502  501  0.00000000000E+00  0.00000000000E+00  0.78031813821E+02  0.78031813821E+02  0.00000000000E+00 0.  1.
         21   -1    0    0  501  502 -0.00000000000E+00 -0.00000000000E+00 -0.79702043278E+03  0.79702043278E+03  0.00000000000E+00 0.  1.
         25    1    1    2    0    0 -0.17283365454E+03  0.37461231808E+02 -0.57645530084E+03  0.61579260299E+03  0.12500000000E+03 0.  0.
         25    1    1    2    0    0  0.17283365454E+03 -0.37461231808E+02 -0.14253331812E+03  0.25925964361E+03  0.12500000000E+03 0.  0.
</event>
<event>
 4    0  0.2170991E-002  0.2421238E+03  0.7546771E-02  0.1118386E+00
         21   -1    0    0  502  501  0.00000000000E+00  0.00000000000E+00  0.89238223202E+03  0.89238223202E+03  0.00000000000E+00 0.  1.
         21   -1    0    0  501  502 -0.00000000000E+00 -0.00000000000E+00 -0.65693754710E+02  0.65693754710E+02  0.00000000000E+00 0.  1.
         25    1    1    2    0    0  0.59135410948E+02  0.16657945470E+03  0.19885226835E+03  0.29396077320E+03  0.12500000000E+03 0.  0.
         25    1    1    2    0    0 -0.59135410948E+02 -0.16657945470E+03  0.62783620897E+03  0.66411521353E+03  0.12500000000E+03 0.  0.
</event>
<event>
 4    0  0.2170991E-002  0.1997853E+03  0.7546771E-02  0.1149920E+00
         21   -1    0    0  502  501  0.00000000000E+00  0.00000000000E+00  0.15450138315E+03  0.15450138315E+03  0.00000000000E+00 0. -1.
         21   -1    0    0  501  502 -0.00000000000E+00 -0.00000000000E+00 -0.25834170542E+03  0.25834170542E+03  0.00000000000E+00 0. -1.
         25    1    1    2    0    0  0.21232921652E+02  0.12769037602E+03  0.37758568040E+02  0.18386510966E+03  0.12500000000E+03 0.  0.
         25    1    1    2    0    0 -0.21232921652E+02 -0.12769037602E+03 -0.14159889031E+03  0.22897797891E+03  0.12500000000E+03 0.  0.
</event>
<event>
 4    0  0.2170991E-002  0.2029871E+03  0.7546771E-02  0.1147243E+00
         21   -1    0    0  502  501  0.00000000000E+00  0.00000000000E+00  0.11638632844E+03  0.11638632844E+03  0.00000000000E+00 0.  1.
         21   -1    0    0  501  502 -0.00000000000E+00 -0.00000000000E+00 -0.35402578726E+03  0.35402578726E+03  0.00000000000E+00 0.  1.
         25    1    1    2    0    0 -0.40406753489E+02  0.15407146112E+03 -0.10210673692E+03  0.22676310675E+03  0.12500000000E+03 0.  0.
         25    1    1    2    0    0  0.40406753489E+02 -0.15407146112E+03 -0.13553272190E+03  0.24364900895E+03  0.12500000000E+03 0.  0.
</event>
<event>
 4    0  0.2170991E-002  0.2210306E+03  0.7546771E-02  0.1133117E+00
         21   -1    0    0  502  501  0.00000000000E+00  0.00000000000E+00  0.22404012570E+04  0.22404012570E+04  0.00000000000E+00 0.  1.
         21   -1    0    0  501  502 -0.00000000000E+00 -0.00000000000E+00 -0.21806157083E+02  0.21806157083E+02  0.00000000000E+00 0.  1.
         25    1    1    2    0    0  0.12320533049E+03 -0.13374083941E+03  0.10438875298E+04  0.10669547041E+04  0.12500000000E+03 0.  0.
         25    1    1    2    0    0 -0.12320533049E+03  0.13374083941E+03  0.11747075700E+04  0.11952527100E+04  0.12500000000E+03 0.  0.
</event>
<event>
 4    0  0.2170991E-002  0.1667268E+03  0.7546771E-02  0.1181305E+00
         21   -1    0    0  502  501  0.00000000000E+00  0.00000000000E+00  0.25195841392E+02  0.25195841392E+02  0.00000000000E+00 0.  1.
         21   -1    0    0  501  502 -0.00000000000E+00 -0.00000000000E+00 -0.11032700598E+04  0.11032700598E+04  0.00000000000E+00 0.  1.
         25    1    1    2    0    0 -0.76164965532E+02 -0.49546017519E+02 -0.75083652587E+03  0.76657445719E+03  0.12500000000E+03 0.  0.
         25    1    1    2    0    0  0.76164965532E+02  0.49546017519E+02 -0.32723769252E+03  0.36189144399E+03  0.12500000000E+03 0.  0.
</event>
<event>
 4    0  0.2170991E-002  0.3052430E+03  0.7546771E-02  0.1082649E+00
         21   -1    0    0  502  501  0.00000000000E+00  0.00000000000E+00  0.21695456969E+04  0.21695456969E+04  0.00000000000E+00 0.  1.
         21   -1    0    0  501  502 -0.00000000000E+00 -0.00000000000E+00 -0.42945984239E+02  0.42945984239E+02  0.00000000000E+00 0.  1.
         25    1    1    2    0    0 -0.14009184177E+03  0.18091791003E+03  0.16385158109E+04  0.16591311211E+04  0.12500000000E+03 0.  0.
         25    1    1    2    0    0  0.14009184177E+03 -0.18091791003E+03  0.48808390181E+03  0.55336056012E+03  0.12500000000E+03 0.  0.
</event>
<event>
 4    0  0.2170991E-002  0.2273636E+03  0.7546771E-02  0.1128509E+00
         21   -1    0    0  502  501  0.00000000000E+00  0.00000000000E+00  0.10011185953E+04  0.10011185953E+04  0.00000000000E+00 0. -1.
         21   -1    0    0  501  502 -0.00000000000E+00 -0.00000000000E+00 -0.51636430761E+02  0.51636430761E+02  0.00000000000E+00 0. -1.
         25    1    1    2    0    0 -0.51181491559E+02 -0.16469305977E+03  0.29060638724E+03  0.36030601066E+03  0.12500000000E+03 0.  0.
         25    1    1    2    0    0  0.51181491559E+02  0.16469305977E+03  0.65887577732E+03  0.69244901542E+03  0.12500000000E+03 0.  0.
</event>
<event>
 4    0  0.2170991E-002  0.3079203E+03  0.7546771E-02  0.1081347E+00
         21   -1    0    0  502  501  0.00000000000E+00  0.00000000000E+00  0.43325193163E+03  0.43325193163E+03  0.00000000000E+00 0.  1.
         21   -1    0    0  501  502 -0.00000000000E+00 -0.00000000000E+00 -0.21884478146E+03  0.21884478146E+03  0.00000000000E+00 0.  1.
         25    1    1    2    0    0  0.14218697863E+03 -0.10077084125E+03 -0.12675219822E+03  0.24912450520E+03  0.12500000000E+03 0.  0.
         25    1    1    2    0    0 -0.14218697863E+03  0.10077084125E+03  0.34115934839E+03  0.40297220789E+03  0.12500000000E+03 0.  0.
</event>
<event>
 4    0  0.2170991E-002  0.1974699E+03  0.7546771E-02  0.1151891E+00
         21   -1    0    0  502  501  0.00000000000E+00  0.00000000000E+00  0.51643123044E+02  0.51643123044E+02  0.00000000000E+00 0. -1.
         21   -1    0    0  501  502 -0.00000000000E+00 -0.00000000000E+00 -0.75507365919E+03  0.75507365919E+03  0.00000000000E+00 0. -1.
         25    1    1    2    0    0 -0.49321155660E+02  0.42350480484E+02 -0.69098641362E+02  0.15692597564E+03  0.12500000000E+03 0.  0.
         25    1    1    2    0    0  0.49321155660E+02 -0.42350480484E+02 -0.63433189479E+03  0.64979080660E+03  0.12500000000E+03 0.  0.
</event>
<event>
 4    0  0.2170991E-002  0.2643744E+03  0.7546771E-02  0.1104543E+00
         21   -1    0    0  502  501  0.00000000000E+00  0.00000000000E+00  0.27094221774E+03  0.27094221774E+03  0.00000000000E+00 0.  1.
         21   -1    0    0  501  502 -0.00000000000E+00 -0.00000000000E+00 -0.25796581635E+03  0.25796581635E+03  0.00000000000E+00 0.  1.
         25    1    1    2    0    0  0.20600546802E+03  0.93547959246E+02 -0.49020461104E+02  0.26309214952E+03  0.12500000000E+03 0.  0.
         25    1    1    2    0    0 -0.20600546802E+03 -0.93547959246E+02  0.61996862493E+02  0.26581588457E+03  0.12500000000E+03 0.  0.
</event>
<event>
 4    0  0.2170991E-002  0.2850292E+03  0.7546771E-02  0.1092973E+00
         21   -1    0    0  502  501  0.00000000000E+00  0.00000000000E+00  0.28724669400E+03  0.28724669400E+03  0.00000000000E+00 0. -1.
         21   -1    0    0  501  502 -0.00000000000E+00 -0.00000000000E+00 -0.28282884568E+03  0.28282884568E+03  0.00000000000E+00 0. -1.
         25    1    1    2    0    0  0.16656199399E+03  0.51959620815E+02 -0.18534390409E+03  0.28358431343E+03  0.12500000000E+03 0.  0.
         25    1    1    2    0    0 -0.16656199399E+03 -0.51959620815E+02  0.18976175241E+03  0.28649122625E+03  0.12500000000E+03 0.  0.
</event>
<event>
 4    0  0.2170991E-002  0.1914033E+03  0.7546771E-02  0.1157202E+00
         21   -1    0    0  502  501  0.00000000000E+00  0.00000000000E+00  0.51075062029E+03  0.51075062029E+03  0.00000000000E+00 0. -1.
         21   -1    0    0  501  502 -0.00000000000E+00 -0.00000000000E+00 -0.71728205976E+02  0.71728205976E+02  0.00000000000E+00 0. -1.
         25    1    1    2    0    0 -0.14402997156E+03  0.65996005510E+01  0.19683791328E+03  0.27415023535E+03  0.12500000000E+03 0.  0.
         25    1    1    2    0    0  0.14402997156E+03 -0.65996005510E+01  0.24218450103E+03  0.30832859092E+03  0.12500000000E+03 0.  0.
</event>
<event>
 4    0  0.2170991E-002  0.2583543E+03  0.7546771E-02  0.1108136E+00
         21   -1    0    0  502  501  0.00000000000E+00  0.00000000000E+00  0.15954520091E+04  0.15954520091E+04  0.00000000000E+00 0. -1.
         21   -1    0    0  501  502 -0.00000000000E+00 -0.00000000000E+00 -0.41835756982E+02  0.41835756982E+02  0.00000000000E+00 0. -1.
         25    1    1    2    0    0  0.36382757455E+02 -0.87590473720E+02  0.12644606447E+03  0.20151774946E+03  0.12500000000E+03 0.  0.
         25    1    1    2    0    0 -0.36382757455E+02  0.87590473720E+02  0.14271701877E+04  0.14357700167E+04  0.12500000000E+03 0.  0.
</event>
<event>
 4    0  0.2170991E-002  0.2013444E+03  0.7546771E-02  0.1148610E+00
         21   -1    0    0  502  501  0.00000000000E+00  0.00000000000E+00  0.22405630152E+03  0.22405630152E+03  0.00000000000E+00 0.  1.
         21   -1    0    0  501  502 -0.00000000000E+00 -0.00000000000E+00 -0.18093465272E+03  0.18093465272E+03  0.00000000000E+00 0.  1.
         25    1    1    2    0    0  0.31149078184E+02 -0.62131728250E+02  0.16408884232E+03  0.21767123122E+03  0.12500000000E+03 0.  0.
         25    1    1    2    0    0 -0.31149078184E+02  0.62131728250E+02 -0.12096719352E+03  0.18731972303E+03  0.12500000000E+03 0.  0.
</event>
<event>
 4    0  0.2170991E-002  0.1966430E+03  0.7546771E-02  0.1152603E+00
         21   -1    0    0  502  501  0.00000000000E+00  0.00000000000E+00  0.27295236352E+02  0.27295236352E+02  0.00000000000E+00 0.  1.
         21   -1    0    0  501  502 -0.00000000000E+00 -0.00000000000E+00 -0.14166743235E+04  0.14166743235E+04  0.00000000000E+00 0.  1.
         25    1    1    2    0    0  0.14239525936E+01  0.15129890849E+03 -0.73966764219E+03  0.76526244404E+03  0.12500000000E+03 0.  0.
         25    1    1    2    0    0 -0.14239525936E+01 -0.15129890849E+03 -0.64971144499E+03  0.67870711584E+03  0.12500000000E+03 0.  0.
</event>
<event>
 4    0  0.2170991E-002  0.2471871E+03  0.7546771E-02  0.1115096E+00
         21   -1    0    0  502  501  0.00000000000E+00  0.00000000000E+00  0.39796930164E+03  0.39796930164E+03  0.00000000000E+00 0.  1.
         21   -1    0    0  501  502 -0.00000000000E+00 -0.00000000000E+00 -0.15353311977E+03  0.15353311977E+03  0.00000000000E+00 0.  1.
         25    1    1    2    0    0 -0.19782522911E+03 -0.74437812364E+02  0.15378379441E+03  0.28974172051E+03  0.12500000000E+03 0.  0.
         25    1    1    2    0    0  0.19782522911E+03  0.74437812364E+02  0.90652387458E+02  0.26176070090E+03  0.12500000000E+03 0.  0.
</event>
<event>
 4    0  0.2170991E-002  0.2026513E+03  0.7546771E-02  0.1147521E+00
         21   -1    0    0  502  501  0.00000000000E+00  0.00000000000E+00  0.37788995763E+03  0.37788995763E+03  0.00000000000E+00 0. -1.
         21   -1    0    0  501  502 -0.00000000000E+00 -0.00000000000E+00 -0.10867591365E+03  0.10867591365E+03  0.00000000000E+00 0. -1.
         25    1    1    2    0    0 -0.15021550785E+03 -0.40124342201E+02  0.91860527873E+02  0.21963155105E+03  0.12500000000E+03 0.  0.
         25    1    1    2    0    0  0.15021550785E+03  0.40124342201E+02  0.17735351611E+03  0.26693432022E+03  0.12500000000E+03 0.  0.
</event>
<event>
 4    0  0.2170991E-002  0.3317893E+03  0.7546771E-02  0.1070348E+00
         21   -1    0    0  502  501  0.00000000000E+00  0.00000000000E+00  0.15529811404E+03  0.15529811404E+03  0.00000000000E+00 0.  1.
         21   -1    0    0  501  502 -0.00000000000E+00 -0.00000000000E+00 -0.70885695374E+03  0.70885695374E+03  0.00000000000E+00 0.  1.
         25    1    1    2    0    0 -0.17661742903E+03  0.22310907913E+03 -0.12553847622E+03  0.33519589264E+03  0.12500000000E+03 0.  0.
         25    1    1    2    0    0  0.17661742903E+03 -0.22310907913E+03 -0.42802036347E+03  0.52895917515E+03  0.12500000000E+03 0.  0.
</event>
<event>
 4    0  0.2170991E-002  0.4144176E+03  0.7546771E-02  0.1038899E+00
         21   -1    0    0  502  501  0.00000000000E+00  0.00000000000E+00  0.77348783497E+02  0.77348783497E+02  0.00000000000E+00 0. -1.
         21   -1    0    0  501  502 -0.00000000000E+00 -0.00000000000E+00 -0.22203570780E+04  0.22203570780E+04  0.00000000000E+00 0. -1.
         25    1    1    2    0    0  0.15538575698E+03  0.26737017424E+03 -0.17532954722E+04  0.17847413136E+04  0.12500000000E+03 0.  0.
         25    1    1    2    0    0 -0.15538575698E+03 -0.26737017424E+03 -0.38971282223E+03  0.51296454785E+03  0.12500000000E+03 0.  0.
</event>
<event>
 4    0  0.2170991E-002  0.2026980E+03  0.7546771E-02  0.1147482E+00
         21   -1    0    0  502  501  0.00000000000E+00  0.00000000000E+00  0.10250163266E+04  0.10250163266E+04  0.00000000000E+00 0.  1.
         21   -1    0    0  501  502 -0.00000000000E+00 -0.00000000000E+00 -0.40083745366E+02  0.40083745366E+02  0.00000000000E+00 0.  1.
         25    1    1    2    0    0  0.66054987086E+01  0.12053126934E+03  0.21829227453E+03  0.27901243095E+03  0.12500000000E+03 0.  0.
         25    1    1    2    0    0 -0.66054987086E+01 -0.12053126934E+03  0.76664030672E+03  0.78608764103E+03  0.12500000000E+03 0.  0.
</event>
<event>
 4    0  0.2170991E-002  0.2086493E+03  0.7546771E-02  0.1142640E+00
         21   -1    0    0  502  501  0.00000000000E+00  0.00000000000E+00  0.48656166593E+02  0.48656166593E+02  0.00000000000E+00 0.  1.
         21   -1    0    0  501  502 -0.00000000000E+00 -0.00000000000E+00 -0.89473799181E+03  0.89473799181E+03  0.00000000000E+00 0.  1.
         25    1    1    2    0    0  0.66584523822E+02  0.14328145395E+03 -0.54575533695E+03  0.58175335123E+03  0.12500000000E+03 0.  0.
         25    1    1    2    0    0 -0.66584523822E+02 -0.14328145395E+03 -0.30032648827E+03  0.36164080718E+03  0.12500000000E+03 0.  0.
</event>
<event>
 4    0  0.2170991E-002  0.2664459E+03  0.7546771E-02  0.1103331E+00
         21   -1    0    0  502  501  0.00000000000E+00  0.00000000000E+00  0.25620374156E+03  0.25620374156E+03  0.00000000000E+00 0. -1.
         21   -1    0    0  501  502 -0.00000000000E+00 -0.00000000000E+00 -0.27709749027E+03  0.27709749027E+03  0.00000000000E+00 0. -1.
         25    1    1    2    0    0  0.23518888735E+03 -0.24689591068E+01 -0.34769492592E+01  0.26637754723E+03  0.12500000000E+03 0.  0.
         25    1    1    2    0    0 -0.23518888735E+03  0.24689591068E+01 -0.17416799456E+02  0.26692368459E+03  0.12500000000E+03 0.  0.
</event>
<event>
 4    0  0.2170991E-002  0.3404964E+03  0.7546771E-02  0.1066585E+00
         21   -1    0    0  502  501  0.00000000000E+00  0.00000000000E+00  0.20513682550E+03  0.20513682550E+03  0.00000000000E+00 0.  1.
         21   -1    0    0  501  502 -0.00000000000E+00 -0.00000000000E+00 -0.56517290494E+03  0.56517290494E+03  0.00000000000E+00 0.  1.
         25    1    1    2    0    0  0.30851416509E+03  0.39488881770E+02 -0.24762692595E+03  0.41675467160E+03  0.12500000000E+03 0.  0.
         25    1    1    2    0    0 -0.30851416509E+03 -0.39488881770E+02 -0.11240915349E+03  0.35355505884E+03  0.12500000000E+03 0.  0.
</event>
<event>
 4    0  0.2170991E-002  0.2160077E+03  0.7546771E-02  0.1136895E+00
         21   -1    0    0  502  501  0.00000000000E+00  0.00000000000E+00  0.16556996985E+03  0.16556996985E+03  0.00000000000E+00 0.  1.
         21   -1    0    0  501  502 -0.00000000000E+00 -0.00000000000E+00 -0.28181033448E+03  0.28181033448E+03  0.00000000000E+00 0.  1.
         25    1    1    2    0    0  0.14655042919E+03 -0.43298288708E+01 -0.15925923185E+03  0.24996855531E+03  0.12500000000E+03 0.  0.
         25    1    1    2    0    0 -0.14655042919E+03  0.43298288708E+01  0.43018867220E+02  0.19741174902E+03  0.12500000000E+03 0.  0.
</event>
<event>
 4    0  0.2170991E-002  0.3055032E+03  0.7546771E-02  0.1082522E+00
         21   -1    0    0  502  501  0.00000000000E+00  0.00000000000E+00  0.14737857259E+03  0.14737857259E+03  0.00000000000E+00 0.  1.
         21   -1    0    0  501  502 -0.00000000000E+00 -0.00000000000E+00 -0.63328210209E+03  0.63328210209E+03  0.00000000000E+00 0.  1.
         25    1    1    2    0    0  0.82302609919E+02  0.26063769432E+03 -0.17295392907E+03  0.34676186192E+03  0.12500000000E+03 0.  0.
         25    1    1    2    0    0 -0.82302609919E+02 -0.26063769432E+03 -0.31294960044E+03  0.43389881276E+03  0.12500000000E+03 0.  0.
</event>
<event>
 4    0  0.2170991E-002  0.1818987E+03  0.7546771E-02  0.1165978E+00
         21   -1    0    0  502  501  0.00000000000E+00  0.00000000000E+00  0.33431712290E+03  0.33431712290E+03  0.00000000000E+00 0.  1.
         21   -1    0    0  501  502 -0.00000000000E+00 -0.00000000000E+00 -0.98969362945E+02  0.98969362945E+02  0.00000000000E+00 0.  1.
         25    1    1    2    0    0  0.10501529291E+02  0.17317059723E+02 -0.37852113746E+02  0.13216635423E+03  0.12500000000E+03 0.  0.
         25    1    1    2    0    0 -0.10501529291E+02 -0.17317059723E+02  0.27319987370E+03  0.30112013161E+03  0.12500000000E+03 0.  0.
</event>
<event>
 4    0  0.2170991E-002  0.1636461E+03  0.7546771E-02  0.1184641E+00
         21   -1    0    0  502  501  0.00000000000E+00  0.00000000000E+00  0.10875947865E+03  0.10875947865E+03  0.00000000000E+00 0.  1.
         21   -1    0    0  501  502 -0.00000000000E+00 -0.00000000000E+00 -0.24623169536E+03  0.24623169536E+03  0.00000000000E+00 0.  1.
         25    1    1    2    0    0  0.21232584950E+02 -0.52769322908E+01  0.43335001250E+02  0.13409545485E+03  0.12500000000E+03 0.  0.
         25    1    1    2    0    0 -0.21232584950E+02  0.52769322908E+01 -0.18080721796E+03  0.22089571916E+03  0.12500000000E+03 0.  0.
</event>
<event>
 4    0  0.2170991E-002  0.2252271E+03  0.7546771E-02  0.1130045E+00
         21   -1    0    0  502  501  0.00000000000E+00  0.00000000000E+00  0.12374380009E+03  0.12374380009E+03  0.00000000000E+00 0. -1.
         21   -1    0    0  501  502 -0.00000000000E+00 -0.00000000000E+00 -0.40993752265E+03  0.40993752265E+03  0.00000000000E+00 0. -1.
         25    1    1    2    0    0  0.37730797466E+02 -0.92650689139E+02  0.44584180807E+02  0.16619420102E+03  0.12500000000E+03 0.  0.
         25    1    1    2    0    0 -0.37730797466E+02  0.92650689139E+02 -0.33077790336E+03  0.36748712172E+03  0.12500000000E+03 0.  0.
</event>
<event>
 4    0  0.2170991E-002  0.2016435E+03  0.7546771E-02  0.1148360E+00
         21   -1    0    0  502  501  0.00000000000E+00  0.00000000000E+00  0.43152143379E+03  0.43152143379E+03  0.00000000000E+00 0. -1.
         21   -1    0    0  501  502 -0.00000000000E+00 -0.00000000000E+00 -0.94224971135E+02  0.94224971135E+02  0.00000000000E+00 0. -1.
         25    1    1    2    0    0 -0.25780553550E+02 -0.65303972714E+02  0.35349988072E+03  0.38146613409E+03  0.12500000000E+03 0.  0.
         25    1    1    2    0    0  0.25780553550E+02  0.65303972714E+02 -0.16203418064E+02  0.14428027083E+03  0.12500000000E+03 0.  0.
</event>
<event>
 4    0  0.2170991E-002  0.2838992E+03  0.7546771E-02  0.1093578E+00
         21   -1    0    0  502  501  0.00000000000E+00  0.00000000000E+00  0.33533834714E+03  0.33533834714E+03  0.00000000000E+00 0.  1.
         21   -1    0    0  501  502 -0.00000000000E+00 -0.00000000000E+00 -0.24035062979E+03  0.24035062979E+03  0.00000000000E+00 0.  1.
         25    1    1    2    0    0  0.10976938503E+03 -0.14935852491E+03 -0.12991341394E+03  0.25857258550E+03  0.12500000000E+03 0.  0.
         25    1    1    2    0    0 -0.10976938503E+03  0.14935852491E+03  0.22490113129E+03  0.31711639142E+03  0.12500000000E+03 0.  0.
</event>
<event>
 4    0  0.2170991E-002  0.2196228E+03  0.7546771E-02  0.1134165E+00
         21   -1    0    0  502  501  0.00000000000E+00  0.00000000000E+00  0.92233876526E+02  0.92233876526E+02  0.00000000000E+00 0.  1.
         21   -1    0    0  501  502 -0.00000000000E+00 -0.00000000000E+00 -0.52295505549E+03  0.52295505549E+03  0.00000000000E+00 0.  1.
         25    1    1    2    0    0  0.14346267007E+03  0.98534025405E+02 -0.14791997388E+03  0.26037628644E+03  0.12500000000E+03 0.  0.
         25    1    1    2    0    0 -0.14346267007E+03 -0.98534025405E+02 -0.28280120509E+03  0.35481264558E+03  0.12500000000E+03 0.  0.
</event>
<event>
 4    0  0.2170991E-002  0.5085751E+03  0.7546771E-02  0.1011565E+00
         21   -1    0    0  502  501  0.00000000000E+00  0.00000000000E+00  0.52007617734E+03  0.52007617734E+03  0.00000000000E+00 0. -1.
         21   -1    0    0  501  502 -0.00000000000E+00 -0.00000000000E+00 -0.49732845230E+03  0.49732845230E+03  0.00000000000E+00 0.  1.
         25    1    1    2    0    0  0.40107110406E+03 -0.48349613302E+02  0.29398294090E+03  0.51502105313E+03  0.12500000000E+03 0.  0.
         25    1    1    2    0    0 -0.40107110406E+03  0.48349613302E+02 -0.27123521586E+03  0.50238357651E+03  0.12500000000E+03 0.  0.
</event>
<event>
 4    0  0.2170991E-002  0.2082222E+03  0.7546771E-02  0.1142982E+00
         21   -1    0    0  502  501  0.00000000000E+00  0.00000000000E+00  0.40177651580E+03  0.40177651580E+03  0.00000000000E+00 0.  1.
         21   -1    0    0  501  502 -0.00000000000E+00 -0.00000000000E+00 -0.10791192340E+03  0.10791192340E+03  0.00000000000E+00 0.  1.
         25    1    1    2    0    0 -0.32434692150E+02 -0.93845677018E+02  0.31055362593E+03  0.34918129235E+03  0.12500000000E+03 0.  0.
         25    1    1    2    0    0  0.32434692150E+02  0.93845677018E+02 -0.16689033530E+02  0.16050714685E+03  0.12500000000E+03 0.  0.
</event>
<event>
 4    0  0.2170991E-002  0.2078208E+03  0.7546771E-02  0.1143303E+00
         21   -1    0    0  502  501  0.00000000000E+00  0.00000000000E+00  0.55734883087E+03  0.55734883087E+03  0.00000000000E+00 0.  1.
         21   -1    0    0  501  502 -0.00000000000E+00 -0.00000000000E+00 -0.77490947926E+02  0.77490947926E+02  0.00000000000E+00 0.  1.
         25    1    1    2    0    0  0.14400097299E+03  0.62974041674E+02  0.32164666562E+03  0.37918806370E+03  0.12500000000E+03 0.  0.
         25    1    1    2    0    0 -0.14400097299E+03 -0.62974041674E+02  0.15821121732E+03  0.25565171509E+03  0.12500000000E+03 0.  0.
</event>
<event>
 4    0  0.2170991E-002  0.1820729E+03  0.7546771E-02  0.1165812E+00
         21   -1    0    0  502  501  0.00000000000E+00  0.00000000000E+00  0.11552971819E+04  0.11552971819E+04  0.00000000000E+00 0.  1.
         21   -1    0    0  501  502 -0.00000000000E+00 -0.00000000000E+00 -0.28694378739E+02  0.28694378739E+02  0.00000000000E+00 0.  1.
         25    1    1    2    0    0 -0.79482629192E+02 -0.52832737073E+02  0.26500671694E+03  0.30815961200E+03  0.12500000000E+03 0.  0.
         25    1    1    2    0    0  0.79482629192E+02  0.52832737073E+02  0.86159608618E+03  0.87583194859E+03  0.12500000000E+03 0.  0.
</event>
<event>
 4    0  0.2170991E-002  0.3557152E+03  0.7546771E-02  0.1060293E+00
         21   -1    0    0  502  501  0.00000000000E+00  0.00000000000E+00  0.11742481905E+03  0.11742481905E+03  0.00000000000E+00 0. -1.
         21   -1    0    0  501  502 -0.00000000000E+00 -0.00000000000E+00 -0.10775686116E+04  0.10775686116E+04  0.00000000000E+00 0. -1.
         25    1    1    2    0    0  0.29682904697E+03 -0.76828238617E+00 -0.22644069388E+03  0.39371113932E+03  0.12500000000E+03 0.  0.
         25    1    1    2    0    0 -0.29682904697E+03  0.76828238617E+00 -0.73370309863E+03  0.80128229129E+03  0.12500000000E+03 0.  0.
</event>
<event>
 4    0  0.2170991E-002  0.1698404E+03  0.7546771E-02  0.1178014E+00
         21   -1    0    0  502  501  0.00000000000E+00  0.00000000000E+00  0.16752803840E+03  0.16752803840E+03  0.00000000000E+00 0.  1.
         21   -1    0    0  501  502 -0.00000000000E+00 -0.00000000000E+00 -0.17218460090E+03  0.17218460090E+03  0.00000000000E+00 0.  1.
         25    1    1    2    0    0  0.66204494177E+02 -0.66016506343E+02  0.64607330322E+02  0.16893880931E+03  0.12500000000E+03 0.  0.
         25    1    1    2    0    0 -0.66204494177E+02  0.66016506343E+02 -0.69263892824E+02  0.17077382999E+03  0.12500000000E+03 0.  0.
</event>
<event>
 4    0  0.2170991E-002  0.2057925E+03  0.7546771E-02  0.1144942E+00
         21   -1    0    0  502  501  0.00000000000E+00  0.00000000000E+00  0.45057242640E+03  0.45057242640E+03  0.00000000000E+00 0. -1.
         21   -1    0    0  501  502 -0.00000000000E+00 -0.00000000000E+00 -0.93992807768E+02  0.93992807768E+02  0.00000000000E+00 0. -1.
         25    1    1    2    0    0  0.15160440270E+03  0.74771484379E+01  0.97964185330E+02  0.21968564877E+03  0.12500000000E+03 0.  0.
         25    1    1    2    0    0 -0.15160440270E+03 -0.74771484379E+01  0.25861543331E+03  0.32487958540E+03  0.12500000000E+03 0.  0.
</event>
<event>
 4    0  0.2170991E-002  0.2015923E+03  0.7546771E-02  0.1148402E+00
         21   -1    0    0  502  501  0.00000000000E+00  0.00000000000E+00  0.27962076885E+04  0.27962076885E+04  0.00000000000E+00 0.  1.
         21   -1    0    0  501  502 -0.00000000000E+00 -0.00000000000E+00 -0.14533780890E+02  0.14533780890E+02  0.00000000000E+00 0.  1.
         25    1    1    2    0    0 -0.55025927407E+02  0.18956177586E+02  0.24160587841E+04  0.24199901317E+04  0.12500000000E+03 0.  0.
         25    1    1    2    0    0  0.55025927407E+02 -0.18956177586E+02  0.36561512346E+03  0.39075133763E+03  0.12500000000E+03 0.  0.
</event>
<event>
 4    0  0.2170991E-002  0.3817462E+03  0.7546771E-02  0.1050290E+00
         21   -1    0    0  502  501  0.00000000000E+00  0.00000000000E+00  0.67398880062E+03  0.67398880062E+03  0.00000000000E+00 0.  1.
         21   -1    0    0  501  502 -0.00000000000E+00 -0.00000000000E+00 -0.21622047998E+03  0.21622047998E+03  0.00000000000E+00 0.  1.
         25    1    1    2    0    0  0.86613496226E+02  0.25930394775E+03 -0.45465247950E+02  0.30402717612E+03  0.12500000000E+03 0.  0.
         25    1    1    2    0    0 -0.86613496226E+02 -0.25930394775E+03  0.50323356859E+03  0.58618210448E+03  0.12500000000E+03 0.  0.
</event>
<event>
 4    0  0.2170991E-002  0.2417427E+03  0.7546771E-02  0.1118637E+00
         21   -1    0    0  502  501  0.00000000000E+00  0.00000000000E+00  0.73964821396E+03  0.73964821396E+03  0.00000000000E+00 0. -1.
         21   -1    0    0  501  502 -0.00000000000E+00 -0.00000000000E+00 -0.79009877375E+02  0.79009877375E+02  0.00000000000E+00 0. -1.
         25    1    1    2    0    0  0.30226942621E+02 -0.19758460099E+03  0.42089060390E+03  0.48241812057E+03  0.12500000000E+03 0.  0.
         25    1    1    2    0    0 -0.30226942621E+02  0.19758460099E+03  0.23974773268E+03  0.33623997076E+03  0.12500000000E+03 0.  0.
</event>
<event>
 4    0  0.2170991E-002  0.1961718E+03  0.7546771E-02  0.1153010E+00
         21   -1    0    0  502  501  0.00000000000E+00  0.00000000000E+00  0.48166186516E+02  0.48166186516E+02  0.00000000000E+00 0. -1.
         21   -1    0    0  501  502 -0.00000000000E+00 -0.00000000000E+00 -0.79897104974E+03  0.79897104974E+03  0.00000000000E+00 0. -1.
         25    1    1    2    0    0 -0.61715190154E+02  0.13564347956E+03 -0.43047063132E+03  0.47237472696E+03  0.12500000000E+03 0.  0.
         25    1    1    2    0    0  0.61715190154E+02 -0.13564347956E+03 -0.32033423190E+03  0.37476250929E+03  0.12500000000E+03 0.  0.
</event>
<event>
 4    0  0.2170991E-002  0.2022765E+03  0.7546771E-02  0.1147832E+00
         21   -1    0    0  502  501  0.00000000000E+00  0.00000000000E+00  0.16172731162E+04  0.16172731162E+04  0.00000000000E+00 0.  1.
         21   -1    0    0  501  502 -0.00000000000E+00 -0.00000000000E+00 -0.25299247167E+02  0.25299247167E+02  0.00000000000E+00 0.  1.
         25    1    1    2    0    0 -0.12408472410E+03  0.44113557549E+02  0.43401773904E+03  0.47046723851E+03  0.12500000000E+03 0.  0.
         25    1    1    2    0    0  0.12408472410E+03 -0.44113557549E+02  0.11579561300E+04  0.11721051249E+04  0.12500000000E+03 0.  0.
</event>
<event>
 4    0  0.2170991E-002  0.3419756E+03  0.7546771E-02  0.1065958E+00
         21   -1    0    0  502  501  0.00000000000E+00  0.00000000000E+00  0.57128420659E+03  0.57128420659E+03  0.00000000000E+00 0.  1.
         21   -1    0    0  501  502 -0.00000000000E+00 -0.00000000000E+00 -0.20470956117E+03  0.20470956117E+03  0.00000000000E+00 0.  1.
         25    1    1    2    0    0  0.70359635389E+01  0.30673467016E+03  0.27947005616E+03  0.43343301091E+03  0.12500000000E+03 0.  0.
         25    1    1    2    0    0 -0.70359635389E+01 -0.30673467016E+03  0.87104589269E+02  0.34256075685E+03  0.12500000000E+03 0.  0.
</event>
<event>
 4    0  0.2170991E-002  0.1757576E+03  0.7546771E-02  0.1171973E+00
         21   -1    0    0  502  501  0.00000000000E+00  0.00000000000E+00  0.45552759381E+03  0.45552759381E+03  0.00000000000E+00 0. -1.
         21   -1    0    0  501  502 -0.00000000000E+00 -0.00000000000E+00 -0.67813060863E+02  0.67813060863E+02  0.00000000000E+00 0. -1.
         25    1    1    2    0    0 -0.35920161259E+02  0.11463074436E+03  0.15082938372E+03  0.22979331698E+03  0.12500000000E+03 0.  0.
         25    1    1    2    0    0  0.35920161259E+02 -0.11463074436E+03  0.23688514924E+03  0.29354733769E+03  0.12500000000E+03 0.  0.
</event>
<event>
 4    0  0.2170991E-002  0.2105986E+03  0.7546771E-02  0.1141093E+00
         21   -1    0    0  502  501  0.00000000000E+00  0.00000000000E+00  0.28322431178E+03  0.28322431178E+03  0.00000000000E+00 0.  1.
         21   -1    0    0  501  502 -0.00000000000E+00 -0.00000000000E+00 -0.15659587860E+03  0.15659587860E+03  0.00000000000E+00 0.  1.
         25    1    1    2    0    0 -0.17152961515E+02  0.12929189205E+03 -0.49712746894E+02  0.18736855297E+03  0.12500000000E+03 0.  0.
         25    1    1    2    0    0  0.17152961515E+02 -0.12929189205E+03  0.17634118007E+03  0.25245163740E+03  0.12500000000E+03 0.  0.
</event>
<event>
 4    0  0.2170991E-002  0.4361596E+03  0.7546771E-02  0.1031932E+00
         21   -1    0    0  502  501  0.00000000000E+00  0.00000000000E+00  0.81819047194E+03  0.81819047194E+03  0.00000000000E+00 0. -1.
         21   -1    0    0  501  502 -0.00000000000E+00 -0.00000000000E+00 -0.23250717685E+03  0.23250717685E+03  0.00000000000E+00 0. -1.
         25    1    1    2    0    0 -0.15112307604E+03 -0.38909704027E+03  0.31618093668E+03  0.53835868673E+03  0.12500000000E+03 0.  0.
         25    1    1    2    0    0  0.15112307604E+03  0.38909704027E+03  0.26950235840E+03  0.51233896206E+03  0.12500000000E+03 0.  0.
</event>
<event>
 4    0  0.2170991E-002  0.1607051E+03  0.7546771E-02  0.1187903E+00
         21   -1    0    0  502  501  0.00000000000E+00  0.00000000000E+00  0.15977301980E+03  0.15977301980E+03  0.00000000000E+00 0.  1.
         21   -1    0    0  501  502 -0.00000000000E+00 -0.00000000000E+00 -0.16164258001E+03  0.16164258001E+03  0.00000000000E+00 0.  1.
         25    1    1    2    0    0 -0.62985039990E+02  0.16391085351E+02 -0.78171701516E+02  0.16115705960E+03  0.12500000000E+03 0.  0.
         25    1    1    2    0    0  0.62985039990E+02 -0.16391085351E+02  0.76302141309E+02  0.16025854021E+03  0.12500000000E+03 0.  0.
</event>
<event>
 4    0  0.2170991E-002  0.2392940E+03  0.7546771E-02  0.1120264E+00
         21   -1    0    0  502  501  0.00000000000E+00  0.00000000000E+00  0.66187163452E+02  0.66187163452E+02  0.00000000000E+00 0. -1.
         21   -1    0    0  501  502 -0.00000000000E+00 -0.00000000000E+00 -0.86514692085E+03  0.86514692085E+03  0.00000000000E+00 0. -1.
         25    1    1    2    0    0  0.55490126797E+02  0.10397462776E+03 -0.72363261478E+03  0.74374662256E+03  0.12500000000E+03 0.  0.
         25    1    1    2    0    0 -0.55490126797E+02 -0.10397462776E+03 -0.75327142618E+02  0.18758746175E+03  0.12500000000E+03 0.  0.
</event>
<event>
 4    0  0.2170991E-002  0.1855043E+03  0.7546771E-02  0.1162580E+00
         21   -1    0    0  502  501  0.00000000000E+00  0.00000000000E+00  0.37935068897E+02  0.37935068897E+02  0.00000000000E+00 0. -1.
         21   -1    0    0  501  502 -0.00000000000E+00 -0.00000000000E+00 -0.90712486290E+03  0.90712486290E+03  0.00000000000E+00 0. -1.
         25    1    1    2    0    0 -0.62543596855E+02 -0.11497277346E+03 -0.53826619115E+03  0.56787844886E+03  0.12500000000E+03 0.  0.
         25    1    1    2    0    0  0.62543596855E+02  0.11497277346E+03 -0.33092360285E+03  0.37718148294E+03  0.12500000000E+03 0.  0.
</event>
<event>
 4    0  0.2170991E-002  0.2661347E+03  0.7546771E-02  0.1103512E+00
         21   -1    0    0  502  501  0.00000000000E+00  0.00000000000E+00  0.20301257181E+03  0.20301257181E+03  0.00000000000E+00 0.  1.
         21   -1    0    0  501  502 -0.00000000000E+00 -0.00000000000E+00 -0.34888331142E+03  0.34888331142E+03  0.00000000000E+00 0.  1.
         25    1    1    2    0    0 -0.21048497597E+03 -0.12399082021E+02  0.34545093859E+02  0.24753994799E+03  0.12500000000E+03 0.  0.
         25    1    1    2    0    0  0.21048497597E+03  0.12399082021E+02 -0.18041583347E+03  0.30435593523E+03  0.12500000000E+03 0.  0.
</event>
<event>
 4    0  0.2170991E-002  0.2755858E+03  0.7546771E-02  0.1098125E+00
         21   -1    0    0  502  501  0.00000000000E+00  0.00000000000E+00  0.36262859141E+03  0.36262859141E+03  0.00000000000E+00 0. -1.
         21   -1    0    0  501  502 -0.00000000000E+00 -0.00000000000E+00 -0.20943613519E+03  0.20943613519E+03  0.00000000000E+00 0. -1.
         25    1    1    2    0    0  0.19133883677E+03 -0.15385341067E+03  0.69941613262E+02  0.28425033280E+03  0.12500000000E+03 0.  0.
         25    1    1    2    0    0 -0.19133883677E+03  0.15385341067E+03  0.83250842954E+02  0.28781439381E+03  0.12500000000E+03 0.  0.
</event>
<event>
 4    0  0.2170991E-002  0.1659384E+03  0.7546771E-02  0.1182151E+00
         21   -1    0    0  502  501  0.00000000000E+00  0.00000000000E+00  0.14080793962E+04  0.14080793962E+04  0.00000000000E+00 0.  1.
         21   -1    0    0  501  502 -0.00000000000E+00 -0.00000000000E+00 -0.19555389317E+02  0.19555389317E+02  0.00000000000E+00 0.  1.
         25    1    1    2    0    0 -0.82504127461E+02  0.24081931652E+02  0.40493711590E+03  0.43241870717E+03  0.12500000000E+03 0.  0.
         25    1    1    2    0    0  0.82504127461E+02 -0.24081931652E+02  0.98358689098E+03  0.99521607834E+03  0.12500000000E+03 0.  0.
</event>
<event>
 4    0  0.2170991E-002  0.1816758E+03  0.7546771E-02  0.1166191E+00
         21   -1    0    0  502  501  0.00000000000E+00  0.00000000000E+00  0.10224450296E+04  0.10224450296E+04  0.00000000000E+00 0. -1.
         21   -1    0    0  501  502 -0.00000000000E+00 -0.00000000000E+00 -0.32281528943E+02  0.32281528943E+02  0.00000000000E+00 0. -1.
         25    1    1    2    0    0  0.11090656897E+03  0.54103638142E+02  0.36037256739E+03  0.40090005990E+03  0.12500000000E+03 0.  0.
         25    1    1    2    0    0 -0.11090656897E+03 -0.54103638142E+02  0.62979093324E+03  0.65382649862E+03  0.12500000000E+03 0.  0.
</event>
<event>
 4    0  0.2170991E-002  0.2019686E+03  0.7546771E-02  0.1148089E+00
         21   -1    0    0  502  501  0.00000000000E+00  0.00000000000E+00  0.24343102836E+03  0.24343102836E+03  0.00000000000E+00 0.  1.
         21   -1    0    0  501  502 -0.00000000000E+00 -0.00000000000E+00 -0.16756834347E+03  0.16756834347E+03  0.00000000000E+00 0.  1.
         25    1    1    2    0    0  0.12374380318E+03  0.89855113771E+02  0.80857360291E+02  0.21342301424E+03  0.12500000000E+03 0.  0.
         25    1    1    2    0    0 -0.12374380318E+03 -0.89855113771E+02 -0.49946753991E+01  0.19757635759E+03  0.12500000000E+03 0.  0.
</event>
<event>
 4    0  0.2170991E-002  0.1804488E+03  0.7546771E-02  0.1167369E+00
         21   -1    0    0  502  501  0.00000000000E+00  0.00000000000E+00  0.24091259763E+03  0.24091259763E+03  0.00000000000E+00 0. -1.
         21   -1    0    0  501  502 -0.00000000000E+00 -0.00000000000E+00 -0.13516011769E+03  0.13516011769E+03  0.00000000000E+00 0. -1.
         25    1    1    2    0    0 -0.28762113818E+02 -0.12165371855E+03  0.15162033094E+02  0.17743103921E+03  0.12500000000E+03 0.  0.
         25    1    1    2    0    0  0.28762113818E+02  0.12165371855E+03  0.90590446848E+02  0.19864167611E+03  0.12500000000E+03 0.  0.
</event>
<event>
 4    0  0.2170991E-002  0.2001332E+03  0.7546771E-02  0.1149627E+00
         21   -1    0    0  502  501  0.00000000000E+00  0.00000000000E+00  0.17175084777E+03  0.17175084777E+03  0.00000000000E+00 0.  1.
         21   -1    0    0  501  502 -0.00000000000E+00 -0.00000000000E+00 -0.23320575798E+03  0.23320575798E+03  0.00000000000E+00 0.  1.
         25    1    1    2    0    0  0.79351829763E+02 -0.10555209046E+03  0.53860446288E+02  0.18964151540E+03  0.12500000000E+03 0.  0.
         25    1    1    2    0    0 -0.79351829763E+02  0.10555209046E+03 -0.11531535650E+03  0.21531509035E+03  0.12500000000E+03 0.  0.
</event>
<event>
 4    0  0.2170991E-002  0.2550448E+03  0.7546771E-02  0.1110157E+00
         21   -1    0    0  502  501  0.00000000000E+00  0.00000000000E+00  0.13649950072E+03  0.13649950072E+03  0.00000000000E+00 0.  1.
         21   -1    0    0  501  502 -0.00000000000E+00 -0.00000000000E+00 -0.47654293321E+03  0.47654293321E+03  0.00000000000E+00 0.  1.
         25    1    1    2    0    0 -0.21180495329E+03 -0.36227933136E+02 -0.10151650672E+03  0.26852262942E+03  0.12500000000E+03 0.  0.
         25    1    1    2    0    0  0.21180495329E+03  0.36227933136E+02 -0.23852692577E+03  0.34451980450E+03  0.12500000000E+03 0.  0.
</event>
