<event>
 5    0  0.5605075E-005  0.3145408E+03  0.7546771E-02  0.1078190E+00
         21   -1    0    0  502  501  0.00000000000E+00  0.00000000000E+00  0.43865581940E+03  0.43865581940E+03  0.00000000000E+00 0. -1.
         21   -1    0    0  501  502 -0.00000000000E+00 -0.00000000000E+00 -0.22554337166E+03  0.22554337166E+03  0.00000000000E+00 0.  1.
         25    1    1    2    0    0  0.45612597219E+02 -0.62254446178E+02 -0.10092559972E+03  0.17823327908E+03  0.12500000000E+03 0.  0.
         25    1    1    2    0    0 -0.12964794662E+03  0.10878037793E+03  0.14954202753E+03  0.25812705918E+03  0.12500000000E+03 0.  0.
         25    1    1    2    0    0  0.84035349396E+02 -0.46525931754E+02  0.16449601993E+03  0.22783885280E+03  0.12500000000E+03 0.  0.
</event>
<event>
 5    0  0.5605075E-005  0.3479128E+03  0.7546771E-02  0.1063475E+00
         21   -1    0    0  502  501  0.00000000000E+00  0.00000000000E+00  0.21283421216E+03  0.21283421216E+03  0.00000000000E+00 0.  1.
         21   -1    0    0  501  502 -0.00000000000E+00 -0.00000000000E+00 -0.56872101934E+03  0.56872101934E+03  0.00000000000E+00 0.  1.
         25    1    1    2    0    0 -0.25305021068E+03  0.50834184931E+02 -0.97533656449E+02  0.30291308592E+03  0.12500000000E+03 0.  0.
         25    1    1    2    0    0  0.10344706154E+03  0.14197539718E+02 -0.20272707783E+02  0.16413058020E+03  0.12500000000E+03 0.  0.
         25    1    1    2    0    0  0.14960314913E+03 -0.65031724648E+02 -0.23808044295E+03  0.31451156538E+03  0.12500000000E+03 0.  0.
</event>
<event>
 5    0  0.5605075E-005  0.2673046E+03  0.7546771E-02  0.1102832E+00
         21   -1    0    0  502  501  0.00000000000E+00  0.00000000000E+00  0.83713936387E+02  0.83713936387E+02  0.00000000000E+00 0. -1.
         21   -1    0    0  501  502 -0.00000000000E+00 -0.00000000000E+00 -0.85352277843E+03  0.85352277843E+03  0.00000000000E+00 0. -1.
         25    1    1    2    0    0 -0.89147997396E+01  0.53491455987E+02 -0.12360747466E+03  0.18396906617E+03  0.12500000000E+03 0.  0.
         25    1    1    2    0    0 -0.76965470301E+02 -0.14235141523E+03 -0.41689102163E+03  0.46433902803E+03  0.12500000000E+03 0.  0.
         25    1    1    2    0    0  0.85880270041E+02  0.88859959239E+02 -0.22931034575E+03  0.28892862061E+03  0.12500000000E+03 0.  0.
</event>
<event>
 5    0  0.5605075E-005  0.4341651E+03  0.7546771E-02  0.1032552E+00
         21   -1    0    0  502  501  0.00000000000E+00  0.00000000000E+00  0.12237620421E+04  0.12237620421E+04  0.00000000000E+00 0.  1.
         21   -1    0    0  501  502 -0.00000000000E+00 -0.00000000000E+00 -0.15403264601E+03  0.15403264601E+03  0.00000000000E+00 0.  1.
         25    1    1    2    0    0  0.35894278846E+03  0.65370403221E+01  0.28919413850E+03  0.47764098236E+03  0.12500000000E+03 0.  0.
         25    1    1    2    0    0 -0.13355292016E+03 -0.40007712467E+02  0.36011024257E+03  0.40588346399E+03  0.12500000000E+03 0.  0.
         25    1    1    2    0    0 -0.22538986830E+03  0.33470672145E+02  0.42042501500E+03  0.49427024174E+03  0.12500000000E+03 0.  0.
</event>
<event>
 5    0  0.5820153E-005  0.3233230E+03  0.7546771E-02  0.1074130E+00
         21   -1    0    0  502  501  0.00000000000E+00  0.00000000000E+00  0.14387198031E+03  0.14387198031E+03  0.00000000000E+00 0. -1.
         21   -1    0    0  501  502 -0.00000000000E+00 -0.00000000000E+00 -0.72660243737E+03  0.72660243737E+03  0.00000000000E+00 0. -1.
         25    1    1    2    0    0  0.72718765913E+02  0.45309353235E+02 -0.48178911435E+03  0.50506109246E+03  0.12500000000E+03 0.  0.
         25    1    1    2    0    0  0.34696675548E+02 -0.11341111467E+03 -0.39331880420E+02  0.17674257281E+03  0.12500000000E+03 0.  0.
         25    1    1    2    0    0 -0.10741544146E+03  0.68101761434E+02 -0.61609462281E+02  0.18867075242E+03  0.12500000000E+03 0.  0.
</event>
<event>
 5    0  0.5605075E-005  0.5831717E+03  0.7546771E-02  0.9940948E-01
         21   -1    0    0  502  501  0.00000000000E+00  0.00000000000E+00  0.16039328951E+03  0.16039328951E+03  0.00000000000E+00 0.  1.
         21   -1    0    0  501  502 -0.00000000000E+00 -0.00000000000E+00 -0.21203457162E+04  0.21203457162E+04  0.00000000000E+00 0.  1.
         25    1    1    2    0    0 -0.12656621808E+03  0.33698739439E+03 -0.17980845203E+03  0.42134972524E+03  0.12500000000E+03 0.  0.
         25    1    1    2    0    0 -0.33566700401E+02 -0.17894447020E+03 -0.12582019172E+04  0.12774368522E+04  0.12500000000E+03 0.  0.
         25    1    1    2    0    0  0.16013291849E+03 -0.15804292419E+03 -0.52194205746E+03  0.58195242831E+03  0.12500000000E+03 0.  0.
</event>
<event>
 5    0  0.5605075E-005  0.3391787E+03  0.7546771E-02  0.1067146E+00
         21   -1    0    0  502  501  0.00000000000E+00  0.00000000000E+00  0.25189752160E+03  0.25189752160E+03  0.00000000000E+00 0. -1.
         21   -1    0    0  501  502 -0.00000000000E+00 -0.00000000000E+00 -0.45670245975E+03  0.45670245975E+03  0.00000000000E+00 0. -1.
         25    1    1    2    0    0 -0.77105038139E+02 -0.34550604045E+02 -0.57367271096E+02  0.16141541110E+03  0.12500000000E+03 0.  0.
         25    1    1    2    0    0 -0.17145107258E+03 -0.64007211172E+02 -0.11658217719E+03  0.25041724663E+03  0.12500000000E+03 0.  0.
         25    1    1    2    0    0  0.24855611072E+03  0.98557815217E+02 -0.30855489865E+02  0.29676732362E+03  0.12500000000E+03 0.  0.
</event>
<event>
 5    0  0.5605075E-005  0.2894893E+03  0.7546771E-02  0.1090616E+00
         21   -1    0    0  502  501  0.00000000000E+00  0.00000000000E+00  0.18820129609E+04  0.18820129609E+04  0.00000000000E+00 0.  1.
         21   -1    0    0  501  502 -0.00000000000E+00 -0.00000000000E+00 -0.44528939130E+02  0.44528939130E+02  0.00000000000E+00 0.  1.
         25    1    1    2    0    0  0.50864185776E+02 -0.32982926676E+02  0.13962828846E+03  0.19696725054E+03  0.12500000000E+03 0.  0.
         25    1    1    2    0    0 -0.68636243805E+01 -0.60283696705E+02  0.11467818006E+04  0.11551687027E+04  0.12500000000E+03 0.  0.
         25    1    1    2    0    0 -0.44000561395E+02  0.93266623381E+02  0.55107393274E+03  0.57440594686E+03  0.12500000000E+03 0.  0.
</event>
<event>
 5    0  0.5605075E-005  0.3901372E+03  0.7546771E-02  0.1047249E+00
         21   -1    0    0  502  501  0.00000000000E+00  0.00000000000E+00  0.15769428400E+04  0.15769428400E+04  0.00000000000E+00 0. -1.
         21   -1    0    0  501  502 -0.00000000000E+00 -0.00000000000E+00 -0.96520301798E+02  0.96520301798E+02  0.00000000000E+00 0. -1.
         25    1    1    2    0    0 -0.11545530320E+03 -0.53159813331E+02  0.87234249138E+03  0.89037200936E+03  0.12500000000E+03 0.  0.
         25    1    1    2    0    0 -0.10748709093E+03 -0.12810144337E+02  0.44026583957E+03  0.47029414626E+03  0.12500000000E+03 0.  0.
         25    1    1    2    0    0  0.22294239413E+03  0.65969957667E+02  0.16781420730E+03  0.31279698622E+03  0.12500000000E+03 0.  0.
</event>
<event>
 5    0  0.6351273E-005  0.2851821E+03  0.7546771E-02  0.1092892E+00
         21   -1    0    0  502  501  0.00000000000E+00  0.00000000000E+00  0.28302903417E+03  0.28302903417E+03  0.00000000000E+00 0.  1.
         21   -1    0    0  501  502 -0.00000000000E+00 -0.00000000000E+00 -0.28735154365E+03  0.28735154365E+03  0.00000000000E+00 0.  1.
         25    1    1    2    0    0 -0.12945449267E+03  0.49504003987E+02 -0.12072711616E+02  0.18702904172E+03  0.12500000000E+03 0.  0.
         25    1    1    2    0    0 -0.17124470552E+02  0.14388702181E+02 -0.92382948796E+02  0.15703468238E+03  0.12500000000E+03 0.  0.
         25    1    1    2    0    0  0.14657896322E+03 -0.63892706168E+02  0.10013315093E+03  0.22631685371E+03  0.12500000000E+03 0.  0.
</event>
<event>
 5    0  0.5605075E-005  0.2764510E+03  0.7546771E-02  0.1097643E+00
         21   -1    0    0  502  501  0.00000000000E+00  0.00000000000E+00  0.14953281726E+03  0.14953281726E+03  0.00000000000E+00 0. -1.
         21   -1    0    0  501  502 -0.00000000000E+00 -0.00000000000E+00 -0.51109298270E+03  0.51109298270E+03  0.00000000000E+00 0. -1.
         25    1    1    2    0    0 -0.16161629867E+02 -0.13311534151E+03 -0.63774132180E+02  0.19409542076E+03  0.12500000000E+03 0.  0.
         25    1    1    2    0    0 -0.70390527642E+01 -0.10052782013E+02 -0.23246360256E+03  0.26422515627E+03  0.12500000000E+03 0.  0.
         25    1    1    2    0    0  0.23200682631E+02  0.14316812352E+03 -0.65322430698E+02  0.20230522292E+03  0.12500000000E+03 0.  0.
</event>
<event>
 5    0  0.5605075E-005  0.2950684E+03  0.7546771E-02  0.1087732E+00
         21   -1    0    0  502  501  0.00000000000E+00  0.00000000000E+00  0.15481467546E+03  0.15481467546E+03  0.00000000000E+00 0. -1.
         21   -1    0    0  501  502 -0.00000000000E+00 -0.00000000000E+00 -0.56238428367E+03  0.56238428367E+03  0.00000000000E+00 0. -1.
         25    1    1    2    0    0  0.30999913036E+02  0.15341355326E+03 -0.15785769416E+03  0.25503090898E+03  0.12500000000E+03 0.  0.
         25    1    1    2    0    0  0.45001473002E+01  0.60060304043E+02 -0.81508223000E+02  0.16092259588E+03  0.12500000000E+03 0.  0.
         25    1    1    2    0    0 -0.35500060336E+02 -0.21347385730E+03 -0.16820369106E+03  0.30124545427E+03  0.12500000000E+03 0.  0.
</event>
<event>
 5    0  0.5605075E-005  0.2566028E+03  0.7546771E-02  0.1109202E+00
         21   -1    0    0  502  501  0.00000000000E+00  0.00000000000E+00  0.11212082524E+04  0.11212082524E+04  0.00000000000E+00 0. -1.
         21   -1    0    0  501  502 -0.00000000000E+00 -0.00000000000E+00 -0.58726802461E+02  0.58726802461E+02  0.00000000000E+00 0. -1.
         25    1    1    2    0    0 -0.78794361446E+02 -0.95961864351E+02  0.28799106653E+03  0.33761084877E+03  0.12500000000E+03 0.  0.
         25    1    1    2    0    0  0.10010919267E+03  0.69567918327E+02  0.27050767407E+03  0.32196420212E+03  0.12500000000E+03 0.  0.
         25    1    1    2    0    0 -0.21314831224E+02  0.26393946024E+02  0.50398270930E+03  0.52036000393E+03  0.12500000000E+03 0.  0.
</event>
<event>
 5    0  0.5605075E-005  0.3661657E+03  0.7546771E-02  0.1056169E+00
         21   -1    0    0  502  501  0.00000000000E+00  0.00000000000E+00  0.23125761660E+03  0.23125761660E+03  0.00000000000E+00 0. -1.
         21   -1    0    0  501  502 -0.00000000000E+00 -0.00000000000E+00 -0.57977460912E+03  0.57977460912E+03  0.00000000000E+00 0. -1.
         25    1    1    2    0    0 -0.47485858583E+02 -0.32755302014E+02  0.62671165872E+02  0.15126298823E+03  0.12500000000E+03 0.  0.
         25    1    1    2    0    0  0.22355441817E+03 -0.11048189498E+02 -0.92934034434E+02  0.27269098836E+03  0.12500000000E+03 0.  0.
         25    1    1    2    0    0 -0.17606855959E+03  0.43803491511E+02 -0.31825412395E+03  0.38707824914E+03  0.12500000000E+03 0.  0.
</event>
<event>
 5    0  0.5605075E-005  0.3039603E+03  0.7546771E-02  0.1083277E+00
         21   -1    0    0  502  501  0.00000000000E+00  0.00000000000E+00  0.17526341823E+03  0.17526341823E+03  0.00000000000E+00 0. -1.
         21   -1    0    0  501  502 -0.00000000000E+00 -0.00000000000E+00 -0.52715994986E+03  0.52715994986E+03  0.00000000000E+00 0. -1.
         25    1    1    2    0    0  0.53951005111E+02  0.29199110405E+02  0.51598874596E+02  0.14849492537E+03  0.12500000000E+03 0.  0.
         25    1    1    2    0    0 -0.10390460110E+02 -0.27117153847E+02  0.98563107694E+00  0.12833266600E+03  0.12500000000E+03 0.  0.
         25    1    1    2    0    0 -0.43560545001E+02 -0.20819565578E+01 -0.40448103731E+03  0.42559577672E+03  0.12500000000E+03 0.  0.
</event>
<event>
 5    0  0.5622462E-005  0.3902385E+03  0.7546771E-02  0.1047213E+00
         21   -1    0    0  502  501  0.00000000000E+00  0.00000000000E+00  0.30514295298E+03  0.30514295298E+03  0.00000000000E+00 0.  1.
         21   -1    0    0  501  502 -0.00000000000E+00 -0.00000000000E+00 -0.49906467353E+03  0.49906467353E+03  0.00000000000E+00 0.  1.
         25    1    1    2    0    0 -0.25805832105E+02 -0.28301628611E+03 -0.24659635678E+03  0.39648319302E+03  0.12500000000E+03 0.  0.
         25    1    1    2    0    0  0.27290077386E+02  0.14804769566E+03  0.97142956693E+02  0.21845965886E+03  0.12500000000E+03 0.  0.
         25    1    1    2    0    0 -0.14842452812E+01  0.13496859045E+03 -0.44468320455E+02  0.18926477463E+03  0.12500000000E+03 0.  0.
</event>
<event>
 5    0  0.5605075E-005  0.2459278E+03  0.7546771E-02  0.1115906E+00
         21   -1    0    0  502  501  0.00000000000E+00  0.00000000000E+00  0.60000245333E+02  0.60000245333E+02  0.00000000000E+00 0.  1.
         21   -1    0    0  501  502 -0.00000000000E+00 -0.00000000000E+00 -0.10080035302E+04  0.10080035302E+04  0.00000000000E+00 0.  1.
         25    1    1    2    0    0 -0.10107239559E+02 -0.11119900142E+03 -0.30854786803E+03  0.35113268301E+03  0.12500000000E+03 0.  0.
         25    1    1    2    0    0  0.30275919112E+01  0.12164062521E+03 -0.23060333438E+03  0.28915135456E+03  0.12500000000E+03 0.  0.
         25    1    1    2    0    0  0.70796476475E+01 -0.10441623792E+02 -0.40885208241E+03  0.42771973792E+03  0.12500000000E+03 0.  0.
</event>
<event>
 5    0  0.5605075E-005  0.6266397E+03  0.7546771E-02  0.9851628E-01
         21   -1    0    0  502  501  0.00000000000E+00  0.00000000000E+00  0.29292506334E+03  0.29292506334E+03  0.00000000000E+00 0. -1.
         21   -1    0    0  501  502 -0.00000000000E+00 -0.00000000000E+00 -0.13405386495E+04  0.13405386495E+04  0.00000000000E+00 0. -1.
         25    1    1    2    0    0  0.11547067278E+03  0.16203771582E+03 -0.11831316842E+04  0.12062401418E+04  0.12500000000E+03 0.  0.
         25    1    1    2    0    0  0.90156709927E+01 -0.15945930698E+03 -0.31193935712E+01  0.20283807217E+03  0.12500000000E+03 0.  0.
         25    1    1    2    0    0 -0.12448634378E+03 -0.25784088456E+01  0.13863749165E+03  0.22438549879E+03  0.12500000000E+03 0.  0.
</event>
<event>
 5    0  0.6117037E-005  0.3337827E+03  0.7546771E-02  0.1069475E+00
         21   -1    0    0  502  501  0.00000000000E+00  0.00000000000E+00  0.14087000583E+03  0.14087000583E+03  0.00000000000E+00 0. -1.
         21   -1    0    0  501  502 -0.00000000000E+00 -0.00000000000E+00 -0.79087726706E+03  0.79087726706E+03  0.00000000000E+00 0. -1.
         25    1    1    2    0    0  0.29478579565E+02 -0.88615319511E+02 -0.78233125768E+02  0.17454822678E+03  0.12500000000E+03 0.  0.
         25    1    1    2    0    0  0.54158099974E+02  0.76910770954E+02 -0.58519885163E+03  0.60574834910E+03  0.12500000000E+03 0.  0.
         25    1    1    2    0    0 -0.83636679539E+02  0.11704548557E+02  0.13424716168E+02  0.15145069701E+03  0.12500000000E+03 0.  0.
</event>
<event>
 5    0  0.5605075E-005  0.2580846E+03  0.7546771E-02  0.1108300E+00
         21   -1    0    0  502  501  0.00000000000E+00  0.00000000000E+00  0.21012364143E+03  0.21012364143E+03  0.00000000000E+00 0.  1.
         21   -1    0    0  501  502 -0.00000000000E+00 -0.00000000000E+00 -0.31699259354E+03  0.31699259354E+03  0.00000000000E+00 0.  1.
         25    1    1    2    0    0  0.69406261059E+01 -0.18971708672E+02 -0.17564383646E+02  0.12783428958E+03  0.12500000000E+03 0.  0.
         25    1    1    2    0    0  0.19025759514E+02 -0.81676311707E+01  0.10544452843E+03  0.16484003852E+03  0.12500000000E+03 0.  0.
         25    1    1    2    0    0 -0.25966385620E+02  0.27139339843E+02 -0.19474909690E+03  0.23444190686E+03  0.12500000000E+03 0.  0.
</event>
<event>
 5    0  0.5605075E-005  0.4813058E+03  0.7546771E-02  0.1018777E+00
         21   -1    0    0  502  501  0.00000000000E+00  0.00000000000E+00  0.19981183010E+03  0.19981183010E+03  0.00000000000E+00 0.  1.
         21   -1    0    0  501  502 -0.00000000000E+00 -0.00000000000E+00 -0.11593672648E+04  0.11593672648E+04  0.00000000000E+00 0.  1.
         25    1    1    2    0    0  0.24620334672E+02  0.84532421715E+02 -0.29545787141E+03  0.33267438281E+03  0.12500000000E+03 0.  0.
         25    1    1    2    0    0 -0.27862546483E+03  0.20398677374E+03 -0.22983925670E+03  0.43323646826E+03  0.12500000000E+03 0.  0.
         25    1    1    2    0    0  0.25400513015E+03 -0.28851919545E+03 -0.43425830656E+03  0.59326824380E+03  0.12500000000E+03 0.  0.
</event>
<event>
 5    0  0.5605075E-005  0.3219045E+03  0.7546771E-02  0.1074776E+00
         21   -1    0    0  502  501  0.00000000000E+00  0.00000000000E+00  0.26420082739E+03  0.26420082739E+03  0.00000000000E+00 0. -1.
         21   -1    0    0  501  502 -0.00000000000E+00 -0.00000000000E+00 -0.39221120652E+03  0.39221120652E+03  0.00000000000E+00 0. -1.
         25    1    1    2    0    0 -0.13967976959E+03  0.13274324947E+03 -0.17579787511E+03  0.28924228806E+03  0.12500000000E+03 0.  0.
         25    1    1    2    0    0  0.11211298440E+03 -0.16135004369E+03  0.32221993076E+02  0.23508809989E+03  0.12500000000E+03 0.  0.
         25    1    1    2    0    0  0.27566785184E+02  0.28606794224E+02  0.15565502896E+02  0.13208164597E+03  0.12500000000E+03 0.  0.
</event>
<event>
 5    0  0.5605075E-005  0.3383601E+03  0.7546771E-02  0.1067497E+00
         21   -1    0    0  502  501  0.00000000000E+00  0.00000000000E+00  0.37517388870E+03  0.37517388870E+03  0.00000000000E+00 0.  1.
         21   -1    0    0  501  502 -0.00000000000E+00 -0.00000000000E+00 -0.30515872845E+03  0.30515872845E+03  0.00000000000E+00 0.  1.
         25    1    1    2    0    0  0.50304203447E+02 -0.22237398021E+02  0.33718059926E+02  0.14066599561E+03  0.12500000000E+03 0.  0.
         25    1    1    2    0    0 -0.48064187534E+02  0.77546170600E+02  0.24523376013E+03  0.28997960585E+03  0.12500000000E+03 0.  0.
         25    1    1    2    0    0 -0.22400159131E+01 -0.55308772579E+02 -0.20893665981E+03  0.24968701570E+03  0.12500000000E+03 0.  0.
</event>
<event>
 5    0  0.5605075E-005  0.3188758E+03  0.7546771E-02  0.1076168E+00
         21   -1    0    0  502  501  0.00000000000E+00  0.00000000000E+00  0.82060238094E+02  0.82060238094E+02  0.00000000000E+00 0.  1.
         21   -1    0    0  501  502 -0.00000000000E+00 -0.00000000000E+00 -0.12391110080E+04  0.12391110080E+04  0.00000000000E+00 0.  1.
         25    1    1    2    0    0 -0.95490262757E+00  0.23929997425E+02 -0.18300760240E+03  0.22291329963E+03  0.12500000000E+03 0.  0.
         25    1    1    2    0    0 -0.50227738519E+02 -0.17928471604E+03 -0.79303941026E+03  0.82413733161E+03  0.12500000000E+03 0.  0.
         25    1    1    2    0    0  0.51182641146E+02  0.15535471862E+03 -0.18100375724E+03  0.27412061485E+03  0.12500000000E+03 0.  0.
</event>
<event>
 5    0  0.5605075E-005  0.2070352E+03  0.7546771E-02  0.1143936E+00
         21   -1    0    0  502  501  0.00000000000E+00  0.00000000000E+00  0.26565113017E+03  0.26565113017E+03  0.00000000000E+00 0.  1.
         21   -1    0    0  501  502 -0.00000000000E+00 -0.00000000000E+00 -0.16135279999E+03  0.16135279999E+03  0.00000000000E+00 0.  1.
         25    1    1    2    0    0  0.18592412793E+02 -0.32051340413E+01  0.78812868079E+02  0.14897120149E+03  0.12500000000E+03 0.  0.
         25    1    1    2    0    0  0.48343280775E+02 -0.76925021744E+01  0.48412662499E+01  0.13433050750E+03  0.12500000000E+03 0.  0.
         25    1    1    2    0    0 -0.66935693568E+02  0.10897636216E+02  0.20644195857E+02  0.14370222118E+03  0.12500000000E+03 0.  0.
</event>
<event>
 5    0  0.5605075E-005  0.2714193E+03  0.7546771E-02  0.1100470E+00
         21   -1    0    0  502  501  0.00000000000E+00  0.00000000000E+00  0.29115292587E+03  0.29115292587E+03  0.00000000000E+00 0. -1.
         21   -1    0    0  501  502 -0.00000000000E+00 -0.00000000000E+00 -0.25302320122E+03  0.25302320122E+03  0.00000000000E+00 0. -1.
         25    1    1    2    0    0  0.67855365666E+01  0.70405359021E+02 -0.24956162450E+02  0.14577643201E+03  0.12500000000E+03 0.  0.
         25    1    1    2    0    0 -0.13621964319E+03 -0.42152085959E+02  0.97204818692E+02  0.21308769631E+03  0.12500000000E+03 0.  0.
         25    1    1    2    0    0  0.12943410662E+03 -0.28253273062E+02 -0.34118931587E+02  0.18531199877E+03  0.12500000000E+03 0.  0.
</event>
<event>
 5    0  0.5605075E-005  0.2972693E+03  0.7546771E-02  0.1086614E+00
         21   -1    0    0  502  501  0.00000000000E+00  0.00000000000E+00  0.13596333883E+03  0.13596333883E+03  0.00000000000E+00 0. -1.
         21   -1    0    0  501  502 -0.00000000000E+00 -0.00000000000E+00 -0.64994761168E+03  0.64994761168E+03  0.00000000000E+00 0. -1.
         25    1    1    2    0    0 -0.92387458275E+02 -0.14353777825E+03 -0.99270335828E+02  0.23370523273E+03  0.12500000000E+03 0.  0.
         25    1    1    2    0    0  0.47189573174E+02  0.16981852055E+03 -0.32292060070E+03  0.38854587901E+03  0.12500000000E+03 0.  0.
         25    1    1    2    0    0  0.45197885102E+02 -0.26280742301E+02 -0.91793336315E+02  0.16365983877E+03  0.12500000000E+03 0.  0.
</event>
<event>
 5    0  0.5605075E-005  0.2656207E+03  0.7546771E-02  0.1103812E+00
         21   -1    0    0  502  501  0.00000000000E+00  0.00000000000E+00  0.51746727790E+02  0.51746727790E+02  0.00000000000E+00 0. -1.
         21   -1    0    0  501  502 -0.00000000000E+00 -0.00000000000E+00 -0.13634551996E+04  0.13634551996E+04  0.00000000000E+00 0. -1.
         25    1    1    2    0    0 -0.79621374357E+02 -0.82623034877E+02 -0.62984722577E+03  0.65230258083E+03  0.12500000000E+03 0.  0.
         25    1    1    2    0    0  0.99873256400E+02  0.12653052795E+03 -0.46783479735E+03  0.51037147202E+03  0.12500000000E+03 0.  0.
         25    1    1    2    0    0 -0.20251882042E+02 -0.43907493071E+02 -0.21402644865E+03  0.25252787449E+03  0.12500000000E+03 0.  0.
</event>
<event>
 5    0  0.5786589E-005  0.2811809E+03  0.7546771E-02  0.1095046E+00
         21   -1    0    0  502  501  0.00000000000E+00  0.00000000000E+00  0.11245915938E+03  0.11245915938E+03  0.00000000000E+00 0.  1.
         21   -1    0    0  501  502 -0.00000000000E+00 -0.00000000000E+00 -0.70303458087E+03  0.70303458087E+03  0.00000000000E+00 0.  1.
         25    1    1    2    0    0  0.25638635354E+02  0.39541876825E+02 -0.50017766820E+03  0.51770995684E+03  0.12500000000E+03 0.  0.
         25    1    1    2    0    0 -0.67570955042E+01 -0.81855099465E+02 -0.59283799058E+02  0.16088966554E+03  0.12500000000E+03 0.  0.
         25    1    1    2    0    0 -0.18881539849E+02  0.42313222640E+02 -0.31113954236E+02  0.13689411786E+03  0.12500000000E+03 0.  0.
</event>
<event>
 5    0  0.5605075E-005  0.2628375E+03  0.7546771E-02  0.1105450E+00
         21   -1    0    0  502  501  0.00000000000E+00  0.00000000000E+00  0.14934282186E+03  0.14934282186E+03  0.00000000000E+00 0.  1.
         21   -1    0    0  501  502 -0.00000000000E+00 -0.00000000000E+00 -0.46258353836E+03  0.46258353836E+03  0.00000000000E+00 0.  1.
         25    1    1    2    0    0  0.37047001515E+02 -0.67989339742E+02 -0.10771557191E+03  0.18227088378E+03  0.12500000000E+03 0.  0.
         25    1    1    2    0    0 -0.35715396075E+02  0.98295544460E+02  0.25764712521E+02  0.16500431506E+03  0.12500000000E+03 0.  0.
         25    1    1    2    0    0 -0.13316054399E+01 -0.30306204718E+02 -0.23128985711E+03  0.26465116138E+03  0.12500000000E+03 0.  0.
</event>
<event>
 5    0  0.6343207E-005  0.2946887E+03  0.7546771E-02  0.1087926E+00
         21   -1    0    0  502  501  0.00000000000E+00  0.00000000000E+00  0.28773000950E+03  0.28773000950E+03  0.00000000000E+00 0. -1.
         21   -1    0    0  501  502 -0.00000000000E+00 -0.00000000000E+00 -0.30181571157E+03  0.30181571157E+03  0.00000000000E+00 0. -1.
         25    1    1    2    0    0  0.54764246973E+02 -0.55840115809E+02  0.64257000306E+02  0.16084527773E+03  0.12500000000E+03 0.  0.
         25    1    1    2    0    0 -0.17711453240E+03 -0.18400775130E+02 -0.96129987070E+02  0.23785314908E+03  0.12500000000E+03 0.  0.
         25    1    1    2    0    0  0.12235028543E+03  0.74240890939E+02  0.17787284692E+02  0.19084729426E+03  0.12500000000E+03 0.  0.
</event>
<event>
 5    0  0.5605075E-005  0.2522248E+03  0.7546771E-02  0.1111907E+00
         21   -1    0    0  502  501  0.00000000000E+00  0.00000000000E+00  0.76690871068E+03  0.76690871068E+03  0.00000000000E+00 0.  1.
         21   -1    0    0  501  502 -0.00000000000E+00 -0.00000000000E+00 -0.82952972974E+02  0.82952972974E+02  0.00000000000E+00 0.  1.
         25    1    1    2    0    0  0.37747674908E+02  0.30301220397E+02  0.39857908792E+02  0.13984528527E+03  0.12500000000E+03 0.  0.
         25    1    1    2    0    0 -0.69841194261E+02  0.38757928904E+02  0.26585012188E+03  0.30443596497E+03  0.12500000000E+03 0.  0.
         25    1    1    2    0    0  0.32093519353E+02 -0.69059149301E+02  0.37824770704E+03  0.40558043341E+03  0.12500000000E+03 0.  0.
</event>
<event>
 5    0  0.5605075E-005  0.4064496E+03  0.7546771E-02  0.1041569E+00
         21   -1    0    0  502  501  0.00000000000E+00  0.00000000000E+00  0.60371490142E+02  0.60371490142E+02  0.00000000000E+00 0.  1.
         21   -1    0    0  501  502 -0.00000000000E+00 -0.00000000000E+00 -0.27364115005E+04  0.27364115005E+04  0.00000000000E+00 0.  1.
         25    1    1    2    0    0 -0.88469839109E+01 -0.11897824014E+03 -0.14969786597E+04  0.15069187763E+04  0.12500000000E+03 0.  0.
         25    1    1    2    0    0  0.17673609518E+03  0.39831085054E+02 -0.92712919977E+03  0.95289858628E+03  0.12500000000E+03 0.  0.
         25    1    1    2    0    0 -0.16788911127E+03  0.79147155087E+02 -0.25193215086E+03  0.33696562804E+03  0.12500000000E+03 0.  0.
</event>
<event>
 5    0  0.5605075E-005  0.3032823E+03  0.7546771E-02  0.1083611E+00
         21   -1    0    0  502  501  0.00000000000E+00  0.00000000000E+00  0.28742769620E+03  0.28742769620E+03  0.00000000000E+00 0. -1.
         21   -1    0    0  501  502 -0.00000000000E+00 -0.00000000000E+00 -0.32001149391E+03  0.32001149391E+03  0.00000000000E+00 0. -1.
         25    1    1    2    0    0  0.73317417125E+02 -0.13777804702E+03 -0.41014718710E+02  0.20412114306E+03  0.12500000000E+03 0.  0.
         25    1    1    2    0    0  0.40937324039E+02  0.16670590605E+03 -0.56367539275E+02  0.21970212356E+03  0.12500000000E+03 0.  0.
         25    1    1    2    0    0 -0.11425474116E+03 -0.28927859035E+02  0.64798460273E+02  0.18361592349E+03  0.12500000000E+03 0.  0.
</event>
<event>
 5    0  0.5605075E-005  0.3673294E+03  0.7546771E-02  0.1055719E+00
         21   -1    0    0  502  501  0.00000000000E+00  0.00000000000E+00  0.49057291883E+03  0.49057291883E+03  0.00000000000E+00 0. -1.
         21   -1    0    0  501  502 -0.00000000000E+00 -0.00000000000E+00 -0.27504756993E+03  0.27504756993E+03  0.00000000000E+00 0. -1.
         25    1    1    2    0    0 -0.13364028074E+02  0.19791270794E+03  0.30315356288E+03  0.38324289934E+03  0.12500000000E+03 0.  0.
         25    1    1    2    0    0  0.14430140972E+02 -0.82971878182E+02 -0.13892564171E+03  0.20498267113E+03  0.12500000000E+03 0.  0.
         25    1    1    2    0    0 -0.10661128978E+01 -0.11494082976E+03  0.51297427729E+02  0.17739491829E+03  0.12500000000E+03 0.  0.
</event>
<event>
 5    0  0.5605075E-005  0.4376004E+03  0.7546771E-02  0.1031486E+00
         21   -1    0    0  502  501  0.00000000000E+00  0.00000000000E+00  0.64238696987E+03  0.64238696987E+03  0.00000000000E+00 0. -1.
         21   -1    0    0  501  502 -0.00000000000E+00 -0.00000000000E+00 -0.29809773820E+03  0.29809773820E+03  0.00000000000E+00 0. -1.
         25    1    1    2    0    0 -0.58240208387E+01  0.30827447668E+03 -0.42052170048E+02  0.33535124452E+03  0.12500000000E+03 0.  0.
         25    1    1    2    0    0 -0.26125405312E+02 -0.16526316469E+03  0.45676871098E+02  0.21378921151E+03  0.12500000000E+03 0.  0.
         25    1    1    2    0    0  0.31949426151E+02 -0.14301131199E+03  0.34066453061E+03  0.39134425204E+03  0.12500000000E+03 0.  0.
</event>
<event>
 5    0  0.5605075E-005  0.2968206E+03  0.7546771E-02  0.1086841E+00
         21   -1    0    0  502  501  0.00000000000E+00  0.00000000000E+00  0.10724716666E+03  0.10724716666E+03  0.00000000000E+00 0.  1.
         21   -1    0    0  501  502 -0.00000000000E+00 -0.00000000000E+00 -0.82148987241E+03  0.82148987241E+03  0.00000000000E+00 0.  1.
         25    1    1    2    0    0 -0.20986642428E+01  0.61436654480E+01 -0.28505043905E+03  0.31132121968E+03  0.12500000000E+03 0.  0.
         25    1    1    2    0    0 -0.11616039898E+02 -0.49994408658E+02  0.30749185649E+02  0.13858169323E+03  0.12500000000E+03 0.  0.
         25    1    1    2    0    0  0.13714704141E+02  0.43850743210E+02 -0.45994145235E+03  0.47883412616E+03  0.12500000000E+03 0.  0.
</event>
<event>
 5    0  0.5605075E-005  0.2470848E+03  0.7546771E-02  0.1115161E+00
         21   -1    0    0  502  501  0.00000000000E+00  0.00000000000E+00  0.44856261734E+02  0.44856261734E+02  0.00000000000E+00 0. -1.
         21   -1    0    0  501  502 -0.00000000000E+00 -0.00000000000E+00 -0.13610336099E+04  0.13610336099E+04  0.00000000000E+00 0. -1.
         25    1    1    2    0    0  0.37386644585E+02 -0.33443913287E+02 -0.30915289767E+03  0.33721917304E+03  0.12500000000E+03 0.  0.
         25    1    1    2    0    0  0.77534191657E+01  0.65082879219E+02 -0.84514115689E+03  0.85684565223E+03  0.12500000000E+03 0.  0.
         25    1    1    2    0    0 -0.45140063751E+02 -0.31638965933E+02 -0.16188329364E+03  0.21182504639E+03  0.12500000000E+03 0.  0.
</event>
<event>
 5    0  0.5605075E-005  0.2598146E+03  0.7546771E-02  0.1107255E+00
         21   -1    0    0  502  501  0.00000000000E+00  0.00000000000E+00  0.37265457096E+02  0.37265457096E+02  0.00000000000E+00 0.  1.
         21   -1    0    0  501  502 -0.00000000000E+00 -0.00000000000E+00 -0.18114256863E+04  0.18114256863E+04  0.00000000000E+00 0.  1.
         25    1    1    2    0    0  0.54932760217E+00 -0.90831201170E+01 -0.72278485317E+03  0.73357054794E+03  0.12500000000E+03 0.  0.
         25    1    1    2    0    0 -0.10754296721E+03  0.58002237714E+02 -0.32814269269E+03  0.37179614864E+03  0.12500000000E+03 0.  0.
         25    1    1    2    0    0  0.10699363961E+03 -0.48919117597E+02 -0.72323268333E+03  0.74332444681E+03  0.12500000000E+03 0.  0.
</event>
<event>
 5    0  0.5605075E-005  0.3158997E+03  0.7546771E-02  0.1077552E+00
         21   -1    0    0  502  501  0.00000000000E+00  0.00000000000E+00  0.15626998253E+03  0.15626998253E+03  0.00000000000E+00 0. -1.
         21   -1    0    0  501  502 -0.00000000000E+00 -0.00000000000E+00 -0.63859115962E+03  0.63859115962E+03  0.00000000000E+00 0. -1.
         25    1    1    2    0    0 -0.13759420499E+03  0.10962826134E+02  0.50940167598E+01  0.18628821168E+03  0.12500000000E+03 0.  0.
         25    1    1    2    0    0  0.12363184321E+03 -0.10705829997E+03 -0.28713800536E+03  0.35329809845E+03  0.12500000000E+03 0.  0.
         25    1    1    2    0    0  0.13962361774E+02  0.96095473834E+02 -0.20027718849E+03  0.25527483203E+03  0.12500000000E+03 0.  0.
</event>
<event>
 5    0  0.5605075E-005  0.4358072E+03  0.7546771E-02  0.1032041E+00
         21   -1    0    0  502  501  0.00000000000E+00  0.00000000000E+00  0.21088236467E+03  0.21088236467E+03  0.00000000000E+00 0.  1.
         21   -1    0    0  501  502 -0.00000000000E+00 -0.00000000000E+00 -0.90063443807E+03  0.90063443807E+03  0.00000000000E+00 0.  1.
         25    1    1    2    0    0  0.60607328971E+02  0.13964613035E+03 -0.23971226078E+03  0.31025998455E+03  0.12500000000E+03 0.  0.
         25    1    1    2    0    0  0.11631171284E+03 -0.52544539022E+02  0.99279158734E+02  0.20437880146E+03  0.12500000000E+03 0.  0.
         25    1    1    2    0    0 -0.17691904181E+03 -0.87101591333E+02 -0.54931897135E+03  0.59687801673E+03  0.12500000000E+03 0.  0.
</event>
<event>
 5    0  0.5605075E-005  0.3871724E+03  0.7546771E-02  0.1048314E+00
         21   -1    0    0  502  501  0.00000000000E+00  0.00000000000E+00  0.59550264478E+03  0.59550264478E+03  0.00000000000E+00 0.  1.
         21   -1    0    0  501  502 -0.00000000000E+00 -0.00000000000E+00 -0.25172432766E+03  0.25172432766E+03  0.00000000000E+00 0.  1.
         25    1    1    2    0    0  0.26841214551E+02 -0.25090198733E+02  0.41060830069E+03  0.43078317686E+03  0.12500000000E+03 0.  0.
         25    1    1    2    0    0 -0.41049887365E+02  0.15812872961E+03  0.32306651054E+02  0.20822705896E+03  0.12500000000E+03 0.  0.
         25    1    1    2    0    0  0.14208672813E+02 -0.13303853088E+03 -0.99136634628E+02  0.20821673662E+03  0.12500000000E+03 0.  0.
</event>
<event>
 5    0  0.5605075E-005  0.3001251E+03  0.7546771E-02  0.1085178E+00
         21   -1    0    0  502  501  0.00000000000E+00  0.00000000000E+00  0.86124468063E+02  0.86124468063E+02  0.00000000000E+00 0.  1.
         21   -1    0    0  501  502 -0.00000000000E+00 -0.00000000000E+00 -0.10458709110E+04  0.10458709110E+04  0.00000000000E+00 0.  1.
         25    1    1    2    0    0  0.22079338519E+02 -0.10964351068E+02 -0.66775965556E+02  0.14384625042E+03  0.12500000000E+03 0.  0.
         25    1    1    2    0    0  0.13833929549E+03 -0.76777918402E+02 -0.42830993771E+03  0.47339942139E+03  0.12500000000E+03 0.  0.
         25    1    1    2    0    0 -0.16041863401E+03  0.87742269470E+02 -0.46466053965E+03  0.51474970723E+03  0.12500000000E+03 0.  0.
</event>
<event>
 5    0  0.5605075E-005  0.4580392E+03  0.7546771E-02  0.1025351E+00
         21   -1    0    0  502  501  0.00000000000E+00  0.00000000000E+00  0.10151950984E+04  0.10151950984E+04  0.00000000000E+00 0.  1.
         21   -1    0    0  501  502 -0.00000000000E+00 -0.00000000000E+00 -0.20665972874E+03  0.20665972874E+03  0.00000000000E+00 0.  1.
         25    1    1    2    0    0 -0.75860661255E+02  0.32272008450E+03  0.10227640027E+03  0.36876626055E+03  0.12500000000E+03 0.  0.
         25    1    1    2    0    0  0.55225703102E+02 -0.14120817656E+03  0.54465802322E+03  0.57902244315E+03  0.12500000000E+03 0.  0.
         25    1    1    2    0    0  0.20634958154E+02 -0.18151190793E+03  0.16160094615E+03  0.27406612344E+03  0.12500000000E+03 0.  0.
</event>
<event>
 5    0  0.5605075E-005  0.2889749E+03  0.7546771E-02  0.1090886E+00
         21   -1    0    0  502  501  0.00000000000E+00  0.00000000000E+00  0.40381771721E+04  0.40381771721E+04  0.00000000000E+00 0. -1.
         21   -1    0    0  501  502 -0.00000000000E+00 -0.00000000000E+00 -0.20679248367E+02  0.20679248367E+02  0.00000000000E+00 0. -1.
         25    1    1    2    0    0  0.13048390329E+02 -0.70141205307E+02  0.43986252496E+03  0.46281107381E+03  0.12500000000E+03 0.  0.
         25    1    1    2    0    0  0.10358940821E+03  0.92735384975E+02  0.21250783481E+04  0.21332870418E+04  0.12500000000E+03 0.  0.
         25    1    1    2    0    0 -0.11663779853E+03 -0.22594179668E+02  0.14525570507E+04  0.14627583049E+04  0.12500000000E+03 0.  0.
</event>
<event>
 5    0  0.5605075E-005  0.3811669E+03  0.7546771E-02  0.1050503E+00
         21   -1    0    0  502  501  0.00000000000E+00  0.00000000000E+00  0.74109440928E+03  0.74109440928E+03  0.00000000000E+00 0. -1.
         21   -1    0    0  501  502 -0.00000000000E+00 -0.00000000000E+00 -0.19604543883E+03  0.19604543883E+03  0.00000000000E+00 0. -1.
         25    1    1    2    0    0  0.19448851950E+02 -0.17935762113E+03  0.10071971010E+02  0.21971312819E+03  0.12500000000E+03 0.  0.
         25    1    1    2    0    0 -0.23802063257E+00  0.13417373377E+03  0.19117059446E+02  0.18437220357E+03  0.12500000000E+03 0.  0.
         25    1    1    2    0    0 -0.19210831317E+02  0.45183887366E+02  0.51585993999E+03  0.53305451635E+03  0.12500000000E+03 0.  0.
</event>
<event>
 5    0  0.5605075E-005  0.2486516E+03  0.7546771E-02  0.1114160E+00
         21   -1    0    0  502  501  0.00000000000E+00  0.00000000000E+00  0.12044722506E+03  0.12044722506E+03  0.00000000000E+00 0.  1.
         21   -1    0    0  501  502 -0.00000000000E+00 -0.00000000000E+00 -0.51331708517E+03  0.51331708517E+03  0.00000000000E+00 0.  1.
         25    1    1    2    0    0 -0.21441014760E+02 -0.16843549294E+02 -0.33377607782E+02  0.13222135595E+03  0.12500000000E+03 0.  0.
         25    1    1    2    0    0 -0.99879098683E+02 -0.15657727274E+01 -0.10075665761E+03  0.18909042824E+03  0.12500000000E+03 0.  0.
         25    1    1    2    0    0  0.12132011344E+03  0.18409322022E+02 -0.25873559472E+03  0.31245252606E+03  0.12500000000E+03 0.  0.
</event>
<event>
 5    0  0.5605075E-005  0.3249345E+03  0.7546771E-02  0.1073400E+00
         21   -1    0    0  502  501  0.00000000000E+00  0.00000000000E+00  0.14426790906E+04  0.14426790906E+04  0.00000000000E+00 0.  1.
         21   -1    0    0  501  502 -0.00000000000E+00 -0.00000000000E+00 -0.73184962538E+02  0.73184962538E+02  0.00000000000E+00 0.  1.
         25    1    1    2    0    0  0.82121653389E+01 -0.18897972392E+03  0.60411615417E+03  0.64526126758E+03  0.12500000000E+03 0.  0.
         25    1    1    2    0    0  0.10680212813E+03  0.16453198806E+03  0.53461010848E+03  0.58301838543E+03  0.12500000000E+03 0.  0.
         25    1    1    2    0    0 -0.11501429347E+03  0.24447735862E+02  0.23076786547E+03  0.28758440017E+03  0.12500000000E+03 0.  0.
</event>
<event>
 5    0  0.5605075E-005  0.5618169E+03  0.7546771E-02  0.9987952E-01
         21   -1    0    0  502  501  0.00000000000E+00  0.00000000000E+00  0.23970307822E+03  0.23970307822E+03  0.00000000000E+00 0.  1.
         21   -1    0    0  501  502 -0.00000000000E+00 -0.00000000000E+00 -0.13167883236E+04  0.13167883236E+04  0.00000000000E+00 0.  1.
         25    1    1    2    0    0  0.95408536345E+02 -0.41384204198E+02 -0.12953135564E+03  0.20789134965E+03  0.12500000000E+03 0.  0.
         25    1    1    2    0    0 -0.24151287214E+03  0.11859904392E+03 -0.10683341094E+04  0.11087637124E+04  0.12500000000E+03 0.  0.
         25    1    1    2    0    0  0.14610433580E+03 -0.77214839724E+02  0.12078021966E+03  0.23983633977E+03  0.12500000000E+03 0.  0.
</event>
<event>
 5    0  0.5605075E-005  0.2595432E+03  0.7546771E-02  0.1107418E+00
         21   -1    0    0  502  501  0.00000000000E+00  0.00000000000E+00  0.18418880241E+03  0.18418880241E+03  0.00000000000E+00 0. -1.
         21   -1    0    0  501  502 -0.00000000000E+00 -0.00000000000E+00 -0.36572612980E+03  0.36572612980E+03  0.00000000000E+00 0. -1.
         25    1    1    2    0    0 -0.64536431910E+02  0.72099133665E+02 -0.37597331905E+02  0.16248629322E+03  0.12500000000E+03 0.  0.
         25    1    1    2    0    0  0.53738589522E+02  0.40982893082E+02  0.29720017979E+02  0.14517476708E+03  0.12500000000E+03 0.  0.
         25    1    1    2    0    0  0.10797842387E+02 -0.11308202675E+03 -0.17366001347E+03  0.24225387190E+03  0.12500000000E+03 0.  0.
</event>
<event>
 5    0  0.5605075E-005  0.2935693E+03  0.7546771E-02  0.1088500E+00
         21   -1    0    0  502  501  0.00000000000E+00  0.00000000000E+00  0.62424573932E+03  0.62424573932E+03  0.00000000000E+00 0. -1.
         21   -1    0    0  501  502 -0.00000000000E+00 -0.00000000000E+00 -0.13805931005E+03  0.13805931005E+03  0.00000000000E+00 0. -1.
         25    1    1    2    0    0  0.55652282585E+02 -0.40823976359E+02  0.17822918490E+02  0.14389728985E+03  0.12500000000E+03 0.  0.
         25    1    1    2    0    0 -0.16572310379E+03  0.24103104348E+02  0.14520654585E+03  0.25447013131E+03  0.12500000000E+03 0.  0.
         25    1    1    2    0    0  0.11007082121E+03  0.16720872011E+02  0.32315696493E+03  0.36393762821E+03  0.12500000000E+03 0.  0.
</event>
<event>
 5    0  0.5605075E-005  0.2384718E+03  0.7546771E-02  0.1120815E+00
         21   -1    0    0  502  501  0.00000000000E+00  0.00000000000E+00  0.31320689402E+02  0.31320689402E+02  0.00000000000E+00 0. -1.
         21   -1    0    0  501  502 -0.00000000000E+00 -0.00000000000E+00 -0.18156937454E+04  0.18156937454E+04  0.00000000000E+00 0. -1.
         25    1    1    2    0    0  0.94132075176E+02  0.26769128475E+02 -0.42872009147E+03  0.45716884260E+03  0.12500000000E+03 0.  0.
         25    1    1    2    0    0 -0.59542443983E+02 -0.14578686489E+02 -0.10257358733E+04  0.10351410158E+04  0.12500000000E+03 0.  0.
         25    1    1    2    0    0 -0.34589631194E+02 -0.12190441985E+02 -0.32991709121E+03  0.35470457642E+03  0.12500000000E+03 0.  0.
</event>
<event>
 5    0  0.5605075E-005  0.3432318E+03  0.7546771E-02  0.1065428E+00
         21   -1    0    0  502  501  0.00000000000E+00  0.00000000000E+00  0.12105925579E+03  0.12105925579E+03  0.00000000000E+00 0. -1.
         21   -1    0    0  501  502 -0.00000000000E+00 -0.00000000000E+00 -0.97314355311E+03  0.97314355311E+03  0.00000000000E+00 0. -1.
         25    1    1    2    0    0 -0.97991159119E+02 -0.46891022893E+02 -0.27138997927E+03  0.31792853936E+03  0.12500000000E+03 0.  0.
         25    1    1    2    0    0 -0.11489494422E+03 -0.23414476859E+02 -0.46335960077E+03  0.49404069221E+03  0.12500000000E+03 0.  0.
         25    1    1    2    0    0  0.21288610334E+03  0.70305499752E+02 -0.11733471729E+03  0.28223357733E+03  0.12500000000E+03 0.  0.
</event>
<event>
 5    0  0.5605075E-005  0.3020632E+03  0.7546771E-02  0.1084214E+00
         21   -1    0    0  502  501  0.00000000000E+00  0.00000000000E+00  0.73467877815E+02  0.73467877815E+02  0.00000000000E+00 0.  1.
         21   -1    0    0  501  502 -0.00000000000E+00 -0.00000000000E+00 -0.12419326524E+04  0.12419326524E+04  0.00000000000E+00 0.  1.
         25    1    1    2    0    0  0.15677385491E+03 -0.24113237217E+02 -0.33905192709E+03  0.39463996130E+03  0.12500000000E+03 0.  0.
         25    1    1    2    0    0  0.57540726931E+01  0.11910619727E+03 -0.39370309906E+03  0.42993781619E+03  0.12500000000E+03 0.  0.
         25    1    1    2    0    0 -0.16252792761E+03 -0.94992960051E+02 -0.43570974846E+03  0.49082275274E+03  0.12500000000E+03 0.  0.
</event>
<event>
 5    0  0.5605075E-005  0.5519748E+03  0.7546771E-02  0.1001038E+00
         21   -1    0    0  502  501  0.00000000000E+00  0.00000000000E+00  0.11912994987E+04  0.11912994987E+04  0.00000000000E+00 0. -1.
         21   -1    0    0  501  502 -0.00000000000E+00 -0.00000000000E+00 -0.25575109163E+03  0.25575109163E+03  0.00000000000E+00 0. -1.
         25    1    1    2    0    0  0.20168641379E+02 -0.70303114239E+02  0.24764324093E+03  0.28688233955E+03  0.12500000000E+03 0.  0.
         25    1    1    2    0    0  0.42560906575E+03  0.81153183803E+02  0.45947912207E+03  0.64379731259E+03  0.12500000000E+03 0.  0.
         25    1    1    2    0    0 -0.44577770713E+03 -0.10850069564E+02  0.22842604406E+03  0.51637093817E+03  0.12500000000E+03 0.  0.
</event>
<event>
 5    0  0.5605075E-005  0.2545593E+03  0.7546771E-02  0.1110457E+00
         21   -1    0    0  502  501  0.00000000000E+00  0.00000000000E+00  0.18621577615E+03  0.18621577615E+03  0.00000000000E+00 0.  1.
         21   -1    0    0  501  502 -0.00000000000E+00 -0.00000000000E+00 -0.34798588697E+03  0.34798588697E+03  0.00000000000E+00 0.  1.
         25    1    1    2    0    0 -0.33610781500E+02  0.14677294812E+03 -0.57266945374E+02  0.20390312887E+03  0.12500000000E+03 0.  0.
         25    1    1    2    0    0  0.65289970473E+02 -0.10078943060E+03 -0.35299426095E+02  0.17689640767E+03  0.12500000000E+03 0.  0.
         25    1    1    2    0    0 -0.31679188974E+02 -0.45983517517E+02 -0.69203739346E+02  0.15340212657E+03  0.12500000000E+03 0.  0.
</event>
<event>
 5    0  0.5605075E-005  0.2608598E+03  0.7546771E-02  0.1106628E+00
         21   -1    0    0  502  501  0.00000000000E+00  0.00000000000E+00  0.72083428793E+02  0.72083428793E+02  0.00000000000E+00 0. -1.
         21   -1    0    0  501  502 -0.00000000000E+00 -0.00000000000E+00 -0.94401530942E+03  0.94401530942E+03  0.00000000000E+00 0. -1.
         25    1    1    2    0    0 -0.81358462797E+02  0.98659254215E+02 -0.20804767455E+03  0.27433862797E+03  0.12500000000E+03 0.  0.
         25    1    1    2    0    0 -0.23140788189E+02 -0.44227148585E+02 -0.43651811084E+03  0.45679820253E+03  0.12500000000E+03 0.  0.
         25    1    1    2    0    0  0.10449925099E+03 -0.54432105631E+02 -0.22736609525E+03  0.28496190771E+03  0.12500000000E+03 0.  0.
</event>
<event>
 5    0  0.6246822E-005  0.3572661E+03  0.7546771E-02  0.1059672E+00
         21   -1    0    0  502  501  0.00000000000E+00  0.00000000000E+00  0.30100241071E+03  0.30100241071E+03  0.00000000000E+00 0. -1.
         21   -1    0    0  501  502 -0.00000000000E+00 -0.00000000000E+00 -0.42404663795E+03  0.42404663795E+03  0.00000000000E+00 0. -1.
         25    1    1    2    0    0 -0.55299807192E+02 -0.99815678191E+02  0.17233240336E+03  0.24154646662E+03  0.12500000000E+03 0.  0.
         25    1    1    2    0    0 -0.68157070084E+02 -0.46350562053E+02 -0.15388196860E+03  0.21470542859E+03  0.12500000000E+03 0.  0.
         25    1    1    2    0    0  0.12345687728E+03  0.14616624024E+03 -0.14149466199E+03  0.26879715346E+03  0.12500000000E+03 0.  0.
</event>
<event>
 5    0  0.5605075E-005  0.3882222E+03  0.7546771E-02  0.1047936E+00
         21   -1    0    0  502  501  0.00000000000E+00  0.00000000000E+00  0.94980719444E+03  0.94980719444E+03  0.00000000000E+00 0. -1.
         21   -1    0    0  501  502 -0.00000000000E+00 -0.00000000000E+00 -0.15868116013E+03  0.15868116013E+03  0.00000000000E+00 0. -1.
         25    1    1    2    0    0  0.13544162623E+03 -0.25948007440E+02  0.16575500522E+03  0.24923373560E+03  0.12500000000E+03 0.  0.
         25    1    1    2    0    0  0.15166273596E+03 -0.12609310019E+02  0.50205182176E+02  0.20323912147E+03  0.12500000000E+03 0.  0.
         25    1    1    2    0    0 -0.28710436218E+03  0.38557317459E+02  0.57516584692E+03  0.65601549751E+03  0.12500000000E+03 0.  0.
</event>
<event>
 5    0  0.5605075E-005  0.2575863E+03  0.7546771E-02  0.1108602E+00
         21   -1    0    0  502  501  0.00000000000E+00  0.00000000000E+00  0.25026713931E+03  0.25026713931E+03  0.00000000000E+00 0. -1.
         21   -1    0    0  501  502 -0.00000000000E+00 -0.00000000000E+00 -0.26511946909E+03  0.26511946909E+03  0.00000000000E+00 0. -1.
         25    1    1    2    0    0 -0.53357087685E+02  0.95411823007E+02 -0.50440586725E+02  0.17355012983E+03  0.12500000000E+03 0.  0.
         25    1    1    2    0    0  0.11618515932E+03 -0.72070941279E+02 -0.26259153374E+02  0.18710359419E+03  0.12500000000E+03 0.  0.
         25    1    1    2    0    0 -0.62828071635E+02 -0.23340881728E+02  0.61847410317E+02  0.15473288438E+03  0.12500000000E+03 0.  0.
</event>
<event>
 5    0  0.5933072E-005  0.3601979E+03  0.7546771E-02  0.1058506E+00
         21   -1    0    0  502  501  0.00000000000E+00  0.00000000000E+00  0.59262976527E+03  0.59262976527E+03  0.00000000000E+00 0. -1.
         21   -1    0    0  501  502 -0.00000000000E+00 -0.00000000000E+00 -0.21892682806E+03  0.21892682806E+03  0.00000000000E+00 0. -1.
         25    1    1    2    0    0  0.64293600362E+02  0.19319520755E+03  0.21600512153E+03  0.32208891287E+03  0.12500000000E+03 0.  0.
         25    1    1    2    0    0  0.98426783726E+02 -0.66761024264E+02 -0.40726235433E+02  0.17728082910E+03  0.12500000000E+03 0.  0.
         25    1    1    2    0    0 -0.16272038409E+03 -0.12643418328E+03  0.19842405112E+03  0.31218685136E+03  0.12500000000E+03 0.  0.
</event>
<event>
 5    0  0.5605075E-005  0.2270496E+03  0.7546771E-02  0.1128734E+00
         21   -1    0    0  502  501  0.00000000000E+00  0.00000000000E+00  0.26176460691E+03  0.26176460691E+03  0.00000000000E+00 0.  1.
         21   -1    0    0  501  502 -0.00000000000E+00 -0.00000000000E+00 -0.19693845060E+03  0.19693845060E+03  0.00000000000E+00 0.  1.
         25    1    1    2    0    0  0.44628495247E+02  0.90164139620E+01  0.57113377116E+02  0.14477546807E+03  0.12500000000E+03 0.  0.
         25    1    1    2    0    0 -0.87956644079E+02 -0.86643687266E+01  0.69244358178E+02  0.16802149762E+03  0.12500000000E+03 0.  0.
         25    1    1    2    0    0  0.43328148832E+02 -0.35204523542E+00 -0.61531578986E+02  0.14590609182E+03  0.12500000000E+03 0.  0.
</event>
<event>
 5    0  0.6102368E-005  0.3034141E+03  0.7546771E-02  0.1083546E+00
         21   -1    0    0  502  501  0.00000000000E+00  0.00000000000E+00  0.16768250793E+03  0.16768250793E+03  0.00000000000E+00 0.  1.
         21   -1    0    0  501  502 -0.00000000000E+00 -0.00000000000E+00 -0.54901429290E+03  0.54901429290E+03  0.00000000000E+00 0.  1.
         25    1    1    2    0    0  0.13852382242E+02 -0.86952972044E+02  0.63732091190E+02  0.16564868635E+03  0.12500000000E+03 0.  0.
         25    1    1    2    0    0 -0.96733876787E+02  0.18648646989E+02 -0.19749622676E+03  0.25364340034E+03  0.12500000000E+03 0.  0.
         25    1    1    2    0    0  0.82881494545E+02  0.68304325055E+02 -0.24756764941E+03  0.29740471414E+03  0.12500000000E+03 0.  0.
</event>
<event>
 5    0  0.5605075E-005  0.2650929E+03  0.7546771E-02  0.1104121E+00
         21   -1    0    0  502  501  0.00000000000E+00  0.00000000000E+00  0.45586768672E+03  0.45586768672E+03  0.00000000000E+00 0. -1.
         21   -1    0    0  501  502 -0.00000000000E+00 -0.00000000000E+00 -0.15415487519E+03  0.15415487519E+03  0.00000000000E+00 0. -1.
         25    1    1    2    0    0 -0.24823925101E+02 -0.55338043899E+02  0.29798654429E+03  0.32878489463E+03  0.12500000000E+03 0.  0.
         25    1    1    2    0    0  0.30175688533E+01  0.10300614999E+02 -0.51617634266E+02  0.13566351226E+03  0.12500000000E+03 0.  0.
         25    1    1    2    0    0  0.21806356248E+02  0.45037428899E+02  0.55343901509E+02  0.14557415502E+03  0.12500000000E+03 0.  0.
</event>
<event>
 5    0  0.7078828E-005  0.3738987E+03  0.7546771E-02  0.1053212E+00
         21   -1    0    0  502  501  0.00000000000E+00  0.00000000000E+00  0.85794603444E+03  0.85794603444E+03  0.00000000000E+00 0.  1.
         21   -1    0    0  501  502 -0.00000000000E+00 -0.00000000000E+00 -0.16294762869E+03  0.16294762869E+03  0.00000000000E+00 0.  1.
         25    1    1    2    0    0  0.23491196568E+03 -0.44734560459E+02  0.14108415294E+03  0.30449064145E+03  0.12500000000E+03 0.  0.
         25    1    1    2    0    0 -0.18771065894E+03  0.65155774610E+02  0.12347232452E+03  0.26523759418E+03  0.12500000000E+03 0.  0.
         25    1    1    2    0    0 -0.47201306744E+02 -0.20421214151E+02  0.43044192828E+03  0.45116542750E+03  0.12500000000E+03 0.  0.
</event>
<event>
 5    0  0.5605075E-005  0.2984474E+03  0.7546771E-02  0.1086019E+00
         21   -1    0    0  502  501  0.00000000000E+00  0.00000000000E+00  0.10173981716E+03  0.10173981716E+03  0.00000000000E+00 0. -1.
         21   -1    0    0  501  502 -0.00000000000E+00 -0.00000000000E+00 -0.87547659222E+03  0.87547659222E+03  0.00000000000E+00 0. -1.
         25    1    1    2    0    0  0.78130261215E+02 -0.22209550526E+02 -0.61874142527E+03  0.63644603322E+03  0.12500000000E+03 0.  0.
         25    1    1    2    0    0 -0.63591177832E+02  0.14091398550E+02 -0.16167342242E+03  0.21448939584E+03  0.12500000000E+03 0.  0.
         25    1    1    2    0    0 -0.14539083383E+02  0.81181519763E+01  0.66780726354E+01  0.12628098032E+03  0.12500000000E+03 0.  0.
</event>
<event>
 5    0  0.5605075E-005  0.2965130E+03  0.7546771E-02  0.1086997E+00
         21   -1    0    0  502  501  0.00000000000E+00  0.00000000000E+00  0.27110108088E+03  0.27110108088E+03  0.00000000000E+00 0.  1.
         21   -1    0    0  501  502 -0.00000000000E+00 -0.00000000000E+00 -0.32430697411E+03  0.32430697411E+03  0.00000000000E+00 0.  1.
         25    1    1    2    0    0  0.42586182049E+02 -0.11398500150E+02  0.14758988150E+02  0.13336542445E+03  0.12500000000E+03 0.  0.
         25    1    1    2    0    0  0.10175722438E+01  0.43007769013E+02  0.15320045938E+03  0.20235138844E+03  0.12500000000E+03 0.  0.
         25    1    1    2    0    0 -0.43603754293E+02 -0.31609268863E+02 -0.22116534077E+03  0.25969124210E+03  0.12500000000E+03 0.  0.
</event>
<event>
 5    0  0.5605075E-005  0.2811190E+03  0.7546771E-02  0.1095079E+00
         21   -1    0    0  502  501  0.00000000000E+00  0.00000000000E+00  0.51878090048E+03  0.51878090048E+03  0.00000000000E+00 0.  1.
         21   -1    0    0  501  502 -0.00000000000E+00 -0.00000000000E+00 -0.15233390165E+03  0.15233390165E+03  0.00000000000E+00 0.  1.
         25    1    1    2    0    0 -0.40091807171E+02  0.58094206000E+02  0.86179231703E+02  0.16743401611E+03  0.12500000000E+03 0.  0.
         25    1    1    2    0    0 -0.94490693087E+02  0.90424052777E+02  0.10143675255E+03  0.20741122238E+03  0.12500000000E+03 0.  0.
         25    1    1    2    0    0  0.13458250026E+03 -0.14851825878E+03  0.17883101458E+03  0.29626956364E+03  0.12500000000E+03 0.  0.
</event>
<event>
 5    0  0.5605075E-005  0.3507297E+03  0.7546771E-02  0.1062316E+00
         21   -1    0    0  502  501  0.00000000000E+00  0.00000000000E+00  0.91048245547E+03  0.91048245547E+03  0.00000000000E+00 0.  1.
         21   -1    0    0  501  502 -0.00000000000E+00 -0.00000000000E+00 -0.13510564311E+03  0.13510564311E+03  0.00000000000E+00 0.  1.
         25    1    1    2    0    0 -0.13031860923E+03  0.55059268315E+02  0.25667180091E+03  0.31862183905E+03  0.12500000000E+03 0.  0.
         25    1    1    2    0    0 -0.10355731537E+03 -0.15082400989E+03  0.28333661096E+03  0.35968963655E+03  0.12500000000E+03 0.  0.
         25    1    1    2    0    0  0.23387592460E+03  0.95764741578E+02  0.23536840048E+03  0.36727662297E+03  0.12500000000E+03 0.  0.
</event>
<event>
 5    0  0.5605075E-005  0.3201138E+03  0.7546771E-02  0.1075597E+00
         21   -1    0    0  502  501  0.00000000000E+00  0.00000000000E+00  0.57364279222E+02  0.57364279222E+02  0.00000000000E+00 0.  1.
         21   -1    0    0  501  502 -0.00000000000E+00 -0.00000000000E+00 -0.17863524648E+04  0.17863524648E+04  0.00000000000E+00 0.  1.
         25    1    1    2    0    0 -0.16749688166E+03  0.35870397456E+02 -0.39049565999E+03  0.44435768391E+03  0.12500000000E+03 0.  0.
         25    1    1    2    0    0  0.11238453023E+03  0.55226217283E+02 -0.30257692053E+03  0.35051107051E+03  0.12500000000E+03 0.  0.
         25    1    1    2    0    0  0.55112351426E+02 -0.91096614739E+02 -0.10359156051E+04  0.10488479896E+04  0.12500000000E+03 0.  0.
</event>
<event>
 5    0  0.5605075E-005  0.4242887E+03  0.7546771E-02  0.1035679E+00
         21   -1    0    0  502  501  0.00000000000E+00  0.00000000000E+00  0.36968599983E+03  0.36968599983E+03  0.00000000000E+00 0. -1.
         21   -1    0    0  501  502 -0.00000000000E+00 -0.00000000000E+00 -0.48695625496E+03  0.48695625496E+03  0.00000000000E+00 0. -1.
         25    1    1    2    0    0 -0.92967969901E+02  0.33810227619E+03 -0.21854093064E+02  0.37290587817E+03  0.12500000000E+03 0.  0.
         25    1    1    2    0    0  0.38675409481E+02 -0.39733888810E+02 -0.72853171608E+02  0.15494242102E+03  0.12500000000E+03 0.  0.
         25    1    1    2    0    0  0.54292560420E+02 -0.29836838738E+03 -0.22562990461E+02  0.32879395560E+03  0.12500000000E+03 0.  0.
</event>
<event>
 5    0  0.5605075E-005  0.2820802E+03  0.7546771E-02  0.1094558E+00
         21   -1    0    0  502  501  0.00000000000E+00  0.00000000000E+00  0.17371427410E+03  0.17371427410E+03  0.00000000000E+00 0.  1.
         21   -1    0    0  501  502 -0.00000000000E+00 -0.00000000000E+00 -0.45804676918E+03  0.45804676918E+03  0.00000000000E+00 0.  1.
         25    1    1    2    0    0  0.58903699027E+02  0.50689172758E+02 -0.18751115209E+03  0.23837883747E+03  0.12500000000E+03 0.  0.
         25    1    1    2    0    0 -0.16801896570E+02  0.10602670967E+03  0.45569890496E+01  0.16483243928E+03  0.12500000000E+03 0.  0.
         25    1    1    2    0    0 -0.42101802457E+02 -0.15671588243E+03 -0.10137833203E+03  0.22854976653E+03  0.12500000000E+03 0.  0.
</event>
<event>
 5    0  0.5605075E-005  0.2790366E+03  0.7546771E-02  0.1096216E+00
         21   -1    0    0  502  501  0.00000000000E+00  0.00000000000E+00  0.81787148006E+03  0.81787148006E+03  0.00000000000E+00 0. -1.
         21   -1    0    0  501  502 -0.00000000000E+00 -0.00000000000E+00 -0.95200078568E+02  0.95200078568E+02  0.00000000000E+00 0. -1.
         25    1    1    2    0    0  0.10293982975E+03  0.13966902324E+02  0.26382769003E+03  0.30987373709E+03  0.12500000000E+03 0.  0.
         25    1    1    2    0    0 -0.45554342902E+02 -0.70822281092E+02  0.36044769292E+02  0.15496844533E+03  0.12500000000E+03 0.  0.
         25    1    1    2    0    0 -0.57385486848E+02  0.56855378767E+02  0.42279894217E+03  0.44822937621E+03  0.12500000000E+03 0.  0.
</event>
<event>
 5    0  0.5605075E-005  0.3296134E+03  0.7546771E-02  0.1071308E+00
         21   -1    0    0  502  501  0.00000000000E+00  0.00000000000E+00  0.72815899039E+02  0.72815899039E+02  0.00000000000E+00 0.  1.
         21   -1    0    0  501  502 -0.00000000000E+00 -0.00000000000E+00 -0.14920506969E+04  0.14920506969E+04  0.00000000000E+00 0.  1.
         25    1    1    2    0    0 -0.18709192121E+01 -0.80732822657E+02 -0.13778593338E+03  0.20280841312E+03  0.12500000000E+03 0.  0.
         25    1    1    2    0    0 -0.70024243332E+01  0.27933060482E+02 -0.76278673911E+02  0.14924049688E+03  0.12500000000E+03 0.  0.
         25    1    1    2    0    0  0.88733435454E+01  0.52799762174E+02 -0.12051701906E+04  0.12128176860E+04  0.12500000000E+03 0.  0.
</event>
<event>
 5    0  0.5605075E-005  0.3803370E+03  0.7546771E-02  0.1050809E+00
         21   -1    0    0  502  501  0.00000000000E+00  0.00000000000E+00  0.50276550732E+03  0.50276550732E+03  0.00000000000E+00 0.  1.
         21   -1    0    0  501  502 -0.00000000000E+00 -0.00000000000E+00 -0.28772110437E+03  0.28772110437E+03  0.00000000000E+00 0.  1.
         25    1    1    2    0    0 -0.13428407834E+03  0.10158688698E+03  0.13914553030E+02  0.21016832323E+03  0.12500000000E+03 0.  0.
         25    1    1    2    0    0 -0.14082958519E+03 -0.13796565840E+03  0.43120477068E+02  0.23738548925E+03  0.12500000000E+03 0.  0.
         25    1    1    2    0    0  0.27511366352E+03  0.36378771421E+02  0.15800937285E+03  0.34293279921E+03  0.12500000000E+03 0.  0.
</event>
<event>
 5    0  0.5605075E-005  0.3044684E+03  0.7546771E-02  0.1083028E+00
         21   -1    0    0  502  501  0.00000000000E+00  0.00000000000E+00  0.10516173832E+03  0.10516173832E+03  0.00000000000E+00 0.  1.
         21   -1    0    0  501  502 -0.00000000000E+00 -0.00000000000E+00 -0.88150873169E+03  0.88150873169E+03  0.00000000000E+00 0.  1.
         25    1    1    2    0    0  0.30517928913E+02 -0.40998867826E+02 -0.47301948462E+02  0.14308992095E+03  0.12500000000E+03 0.  0.
         25    1    1    2    0    0 -0.38132680424E+02 -0.11491286807E+03 -0.14587793422E+03  0.22707804882E+03  0.12500000000E+03 0.  0.
         25    1    1    2    0    0  0.76147515109E+01  0.15591173589E+03 -0.58316711068E+03  0.61650250025E+03  0.12500000000E+03 0.  0.
</event>
<event>
 5    0  0.5605075E-005  0.3222017E+03  0.7546771E-02  0.1074640E+00
         21   -1    0    0  502  501  0.00000000000E+00  0.00000000000E+00  0.27878544695E+03  0.27878544695E+03  0.00000000000E+00 0.  1.
         21   -1    0    0  501  502 -0.00000000000E+00 -0.00000000000E+00 -0.37237934342E+03  0.37237934342E+03  0.00000000000E+00 0. -1.
         25    1    1    2    0    0 -0.14932692768E+03  0.94166853288E+02  0.11406494259E+02  0.21661263975E+03  0.12500000000E+03 0.  0.
         25    1    1    2    0    0 -0.54859167541E+02 -0.36317187862E+02 -0.12340010690E+03  0.18756612909E+03  0.12500000000E+03 0.  0.
         25    1    1    2    0    0  0.20418609522E+03 -0.57849665426E+02  0.18399716178E+02  0.24698602152E+03  0.12500000000E+03 0.  0.
</event>
<event>
 5    0  0.5605075E-005  0.2860535E+03  0.7546771E-02  0.1092428E+00
         21   -1    0    0  502  501  0.00000000000E+00  0.00000000000E+00  0.48746318582E+03  0.48746318582E+03  0.00000000000E+00 0. -1.
         21   -1    0    0  501  502 -0.00000000000E+00 -0.00000000000E+00 -0.16786213665E+03  0.16786213665E+03  0.00000000000E+00 0. -1.
         25    1    1    2    0    0 -0.12448034576E+03 -0.72084213291E+02  0.97369515106E+01  0.19081744813E+03  0.12500000000E+03 0.  0.
         25    1    1    2    0    0 -0.35081806125E+01  0.16328800837E+01  0.36465044261E+02  0.13026769777E+03  0.12500000000E+03 0.  0.
         25    1    1    2    0    0  0.12798852637E+03  0.70451333208E+02  0.27339905340E+03  0.33424017657E+03  0.12500000000E+03 0.  0.
</event>
<event>
 5    0  0.5605075E-005  0.2114550E+03  0.7546771E-02  0.1140419E+00
         21   -1    0    0  502  501  0.00000000000E+00  0.00000000000E+00  0.12021284203E+03  0.12021284203E+03  0.00000000000E+00 0. -1.
         21   -1    0    0  501  502 -0.00000000000E+00 -0.00000000000E+00 -0.37195058591E+03  0.37195058591E+03  0.00000000000E+00 0. -1.
         25    1    1    2    0    0  0.51518990313E+02  0.21276709275E+02 -0.45105920641E+02  0.14410568621E+03  0.12500000000E+03 0.  0.
         25    1    1    2    0    0 -0.80497419002E+02  0.57025712586E+01 -0.11601633475E+03  0.18867205335E+03  0.12500000000E+03 0.  0.
         25    1    1    2    0    0  0.28978428689E+02 -0.26979280534E+02 -0.90615488490E+02  0.15938568838E+03  0.12500000000E+03 0.  0.
</event>
<event>
 5    0  0.5875648E-005  0.3357215E+03  0.7546771E-02  0.1068633E+00
         21   -1    0    0  502  501  0.00000000000E+00  0.00000000000E+00  0.30177137277E+03  0.30177137277E+03  0.00000000000E+00 0.  1.
         21   -1    0    0  501  502 -0.00000000000E+00 -0.00000000000E+00 -0.37349119473E+03  0.37349119473E+03  0.00000000000E+00 0.  1.
         25    1    1    2    0    0  0.76600734056E+02 -0.12463857775E+03 -0.58119870757E+02  0.20101086264E+03  0.12500000000E+03 0.  0.
         25    1    1    2    0    0 -0.15145839528E+03  0.18284961051E+03 -0.11011841110E+03  0.29004256589E+03  0.12500000000E+03 0.  0.
         25    1    1    2    0    0  0.74857661221E+02 -0.58211032765E+02  0.96518459901E+02  0.18420913897E+03  0.12500000000E+03 0.  0.
</event>
<event>
 5    0  0.5605075E-005  0.4085023E+03  0.7546771E-02  0.1040875E+00
         21   -1    0    0  502  501  0.00000000000E+00  0.00000000000E+00  0.26531655000E+03  0.26531655000E+03  0.00000000000E+00 0. -1.
         21   -1    0    0  501  502 -0.00000000000E+00 -0.00000000000E+00 -0.62896252404E+03  0.62896252404E+03  0.00000000000E+00 0. -1.
         25    1    1    2    0    0  0.25983161221E+03  0.11747724625E+03 -0.16270465162E+03  0.35129926523E+03  0.12500000000E+03 0.  0.
         25    1    1    2    0    0 -0.21228110529E+03  0.18162551725E+02 -0.24451957886E+03  0.34757440987E+03  0.12500000000E+03 0.  0.
         25    1    1    2    0    0 -0.47550506926E+02 -0.13563979797E+03  0.43578256436E+02  0.19540539895E+03  0.12500000000E+03 0.  0.
</event>
<event>
 5    0  0.5605075E-005  0.4234997E+03  0.7546771E-02  0.1035933E+00
         21   -1    0    0  502  501  0.00000000000E+00  0.00000000000E+00  0.40234507937E+03  0.40234507937E+03  0.00000000000E+00 0.  1.
         21   -1    0    0  501  502 -0.00000000000E+00 -0.00000000000E+00 -0.44576661327E+03  0.44576661327E+03  0.00000000000E+00 0.  1.
         25    1    1    2    0    0 -0.70174969543E+02  0.18742922292E+03 -0.21119230230E+03  0.31667243092E+03  0.12500000000E+03 0.  0.
         25    1    1    2    0    0  0.91528604320E+02  0.78710075452E+02 -0.30129942794E+02  0.17636772618E+03  0.12500000000E+03 0.  0.
         25    1    1    2    0    0 -0.21353634777E+02 -0.26613929837E+03  0.19790071120E+03  0.35507153554E+03  0.12500000000E+03 0.  0.
</event>
<event>
 5    0  0.5605075E-005  0.2715468E+03  0.7546771E-02  0.1100398E+00
         21   -1    0    0  502  501  0.00000000000E+00  0.00000000000E+00  0.32717538290E+02  0.32717538290E+02  0.00000000000E+00 0.  1.
         21   -1    0    0  501  502 -0.00000000000E+00 -0.00000000000E+00 -0.22537655990E+04  0.22537655990E+04  0.00000000000E+00 0.  1.
         25    1    1    2    0    0  0.53798230928E+02 -0.38787163002E+02 -0.25720077278E+03  0.29355737290E+03  0.12500000000E+03 0.  0.
         25    1    1    2    0    0  0.22306493081E+02  0.78882503072E+02 -0.51798010483E+03  0.53911818549E+03  0.12500000000E+03 0.  0.
         25    1    1    2    0    0 -0.76104724009E+02 -0.40095340070E+02 -0.14458671831E+04  0.14538075789E+04  0.12500000000E+03 0.  0.
</event>
<event>
 5    0  0.5605075E-005  0.4200027E+03  0.7546771E-02  0.1037065E+00
         21   -1    0    0  502  501  0.00000000000E+00  0.00000000000E+00  0.50156709626E+03  0.50156709626E+03  0.00000000000E+00 0.  1.
         21   -1    0    0  501  502 -0.00000000000E+00 -0.00000000000E+00 -0.35170229679E+03  0.35170229679E+03  0.00000000000E+00 0.  1.
         25    1    1    2    0    0  0.11582302292E+03  0.53686697902E+02 -0.72658920426E+02  0.19287704085E+03  0.12500000000E+03 0.  0.
         25    1    1    2    0    0  0.97618927931E+02  0.18009877123E+03 -0.22480001497E+02  0.24102981757E+03  0.12500000000E+03 0.  0.
         25    1    1    2    0    0 -0.21344195085E+03 -0.23378546913E+03  0.24500372138E+03  0.41936253463E+03  0.12500000000E+03 0.  0.
</event>
<event>
 5    0  0.5605075E-005  0.2138336E+03  0.7546771E-02  0.1138566E+00
         21   -1    0    0  502  501  0.00000000000E+00  0.00000000000E+00  0.19639388793E+03  0.19639388793E+03  0.00000000000E+00 0.  1.
         21   -1    0    0  501  502 -0.00000000000E+00 -0.00000000000E+00 -0.23282202584E+03  0.23282202584E+03  0.00000000000E+00 0.  1.
         25    1    1    2    0    0  0.46263050853E+02  0.37697592783E+02  0.31079889867E+02  0.14195893043E+03  0.12500000000E+03 0.  0.
         25    1    1    2    0    0 -0.74148611837E+02 -0.19113578372E+02 -0.14135010265E+02  0.14726895135E+03  0.12500000000E+03 0.  0.
         25    1    1    2    0    0  0.27885560984E+02 -0.18584014411E+02 -0.53373017512E+02  0.13998803199E+03  0.12500000000E+03 0.  0.
</event>
<event>
 5    0  0.5605075E-005  0.5336452E+03  0.7546771E-02  0.1005352E+00
         21   -1    0    0  502  501  0.00000000000E+00  0.00000000000E+00  0.20732080916E+03  0.20732080916E+03  0.00000000000E+00 0. -1.
         21   -1    0    0  501  502 -0.00000000000E+00 -0.00000000000E+00 -0.13736065559E+04  0.13736065559E+04  0.00000000000E+00 0. -1.
         25    1    1    2    0    0  0.27272250319E+03  0.31525911695E+02 -0.76882615729E+03  0.82588746630E+03  0.12500000000E+03 0.  0.
         25    1    1    2    0    0 -0.23180145456E+03 -0.24463750956E+03 -0.11466091787E+03  0.37729504569E+03  0.12500000000E+03 0.  0.
         25    1    1    2    0    0 -0.40921048638E+02  0.21311159787E+03 -0.28279867158E+03  0.37774485306E+03  0.12500000000E+03 0.  0.
</event>
<event>
 5    0  0.5605075E-005  0.5420237E+03  0.7546771E-02  0.1003357E+00
         21   -1    0    0  502  501  0.00000000000E+00  0.00000000000E+00  0.45586782026E+03  0.45586782026E+03  0.00000000000E+00 0.  1.
         21   -1    0    0  501  502 -0.00000000000E+00 -0.00000000000E+00 -0.64446238581E+03  0.64446238581E+03  0.00000000000E+00 0.  1.
         25    1    1    2    0    0 -0.43598622553E+03 -0.76439639980E+01 -0.23764777820E+03  0.51209753517E+03  0.12500000000E+03 0.  0.
         25    1    1    2    0    0  0.97280198381E+02  0.11930767335E+03  0.68567836101E+02  0.20981969894E+03  0.12500000000E+03 0.  0.
         25    1    1    2    0    0  0.33870602715E+03 -0.11166370935E+03 -0.19514623450E+02  0.37841297195E+03  0.12500000000E+03 0.  0.
</event>
<event>
 5    0  0.5605075E-005  0.3043037E+03  0.7546771E-02  0.1083109E+00
         21   -1    0    0  502  501  0.00000000000E+00  0.00000000000E+00  0.75043001316E+02  0.75043001316E+02  0.00000000000E+00 0.  1.
         21   -1    0    0  501  502 -0.00000000000E+00 -0.00000000000E+00 -0.12339690480E+04  0.12339690480E+04  0.00000000000E+00 0.  1.
         25    1    1    2    0    0  0.14059320807E+02 -0.16491311442E+03 -0.51634034533E+03  0.55644078933E+03  0.12500000000E+03 0.  0.
         25    1    1    2    0    0 -0.12235143732E+03  0.64379007229E+02 -0.40722095376E+03  0.44784867530E+03  0.12500000000E+03 0.  0.
         25    1    1    2    0    0  0.10829211652E+03  0.10053410720E+03 -0.23536474758E+03  0.30472258468E+03  0.12500000000E+03 0.  0.
</event>
<event>
 5    0  0.5605075E-005  0.3881671E+03  0.7546771E-02  0.1047956E+00
         21   -1    0    0  502  501  0.00000000000E+00  0.00000000000E+00  0.33452409432E+03  0.33452409432E+03  0.00000000000E+00 0. -1.
         21   -1    0    0  501  502 -0.00000000000E+00 -0.00000000000E+00 -0.45041203418E+03  0.45041203418E+03  0.00000000000E+00 0. -1.
         25    1    1    2    0    0  0.17321981357E+03 -0.40038771439E+02 -0.19018508519E+03  0.28879676878E+03  0.12500000000E+03 0.  0.
         25    1    1    2    0    0 -0.15302121348E+03  0.10726090394E+03  0.20342843811E+03  0.30319716806E+03  0.12500000000E+03 0.  0.
         25    1    1    2    0    0 -0.20198600091E+02 -0.67222132502E+02 -0.12913129278E+03  0.19294219165E+03  0.12500000000E+03 0.  0.
</event>
<event>
 5    0  0.5605075E-005  0.3937273E+03  0.7546771E-02  0.1045974E+00
         21   -1    0    0  502  501  0.00000000000E+00  0.00000000000E+00  0.97225107332E+02  0.97225107332E+02  0.00000000000E+00 0.  1.
         21   -1    0    0  501  502 -0.00000000000E+00 -0.00000000000E+00 -0.15944559972E+04  0.15944559972E+04  0.00000000000E+00 0. -1.
         25    1    1    2    0    0 -0.94132783420E+02  0.25794004412E+03 -0.52753046811E+03  0.60770670727E+03  0.12500000000E+03 0.  0.
         25    1    1    2    0    0  0.20630755081E+03 -0.14179105979E+03 -0.58296991202E+03  0.64664242707E+03  0.12500000000E+03 0.  0.
         25    1    1    2    0    0 -0.11217476739E+03 -0.11614898433E+03 -0.38673050978E+03  0.43733197024E+03  0.12500000000E+03 0.  0.
</event>
<event>
 5    0  0.5605075E-005  0.2670873E+03  0.7546771E-02  0.1102958E+00
         21   -1    0    0  502  501  0.00000000000E+00  0.00000000000E+00  0.15416573392E+04  0.15416573392E+04  0.00000000000E+00 0.  1.
         21   -1    0    0  501  502 -0.00000000000E+00 -0.00000000000E+00 -0.46272030627E+02  0.46272030627E+02  0.00000000000E+00 0.  1.
         25    1    1    2    0    0 -0.12535356365E+03  0.72839688160E+02  0.42798905389E+03  0.46884834045E+03  0.12500000000E+03 0.  0.
         25    1    1    2    0    0 -0.14642172247E+02 -0.21857986979E+02  0.58845249695E+03  0.60215737641E+03  0.12500000000E+03 0.  0.
         25    1    1    2    0    0  0.13999573590E+03 -0.50981701182E+02  0.47894375778E+03  0.51692365301E+03  0.12500000000E+03 0.  0.
</event>
<event>
 5    0  0.5605075E-005  0.3483822E+03  0.7546771E-02  0.1063281E+00
         21   -1    0    0  502  501  0.00000000000E+00  0.00000000000E+00  0.39453879465E+03  0.39453879465E+03  0.00000000000E+00 0.  1.
         21   -1    0    0  501  502 -0.00000000000E+00 -0.00000000000E+00 -0.30762548561E+03  0.30762548561E+03  0.00000000000E+00 0.  1.
         25    1    1    2    0    0 -0.38850037279E+02  0.65502895778E+02 -0.40004999866E+02  0.15174107804E+03  0.12500000000E+03 0.  0.
         25    1    1    2    0    0  0.17000841240E+03 -0.20712178342E+03  0.12349281086E+03  0.32043371824E+03  0.12500000000E+03 0.  0.
         25    1    1    2    0    0 -0.13115837512E+03  0.14161888764E+03  0.34254980371E+01  0.22998948397E+03  0.12500000000E+03 0.  0.
</event>
<event>
 5    0  0.5605075E-005  0.3059586E+03  0.7546771E-02  0.1082299E+00
         21   -1    0    0  502  501  0.00000000000E+00  0.00000000000E+00  0.91412488765E+02  0.91412488765E+02  0.00000000000E+00 0. -1.
         21   -1    0    0  501  502 -0.00000000000E+00 -0.00000000000E+00 -0.10240467191E+04  0.10240467191E+04  0.00000000000E+00 0. -1.
         25    1    1    2    0    0  0.55298333804E+02  0.15965438219E+03 -0.33037972123E+03  0.39156504909E+03  0.12500000000E+03 0.  0.
         25    1    1    2    0    0  0.10008701347E+03 -0.42389532142E+02 -0.30658076794E+03  0.34846958256E+03  0.12500000000E+03 0.  0.
         25    1    1    2    0    0 -0.15538534727E+03 -0.11726485005E+03 -0.29567374116E+03  0.37542457620E+03  0.12500000000E+03 0.  0.
</event>
<event>
 5    0  0.5605075E-005  0.3573098E+03  0.7546771E-02  0.1059654E+00
         21   -1    0    0  502  501  0.00000000000E+00  0.00000000000E+00  0.59401666898E+03  0.59401666898E+03  0.00000000000E+00 0. -1.
         21   -1    0    0  501  502 -0.00000000000E+00 -0.00000000000E+00 -0.21492710810E+03  0.21492710810E+03  0.00000000000E+00 0. -1.
         25    1    1    2    0    0 -0.35522033718E+01 -0.93592948715E+02 -0.14346799805E+01  0.15620280569E+03  0.12500000000E+03 0.  0.
         25    1    1    2    0    0 -0.12891835794E+03  0.12569153875E+03 -0.11283097492E+02  0.21947804951E+03  0.12500000000E+03 0.  0.
         25    1    1    2    0    0  0.13247056131E+03 -0.32098590035E+02  0.39180733835E+03  0.43326292188E+03  0.12500000000E+03 0.  0.
</event>
<event>
 5    0  0.5605075E-005  0.3536713E+03  0.7546771E-02  0.1061118E+00
         21   -1    0    0  502  501  0.00000000000E+00  0.00000000000E+00  0.74118126016E+02  0.74118126016E+02  0.00000000000E+00 0.  1.
         21   -1    0    0  501  502 -0.00000000000E+00 -0.00000000000E+00 -0.16876216725E+04  0.16876216725E+04  0.00000000000E+00 0.  1.
         25    1    1    2    0    0 -0.50385578798E+02  0.24534359860E+03 -0.79976467251E+03  0.84733742943E+03  0.12500000000E+03 0.  0.
         25    1    1    2    0    0 -0.11478859375E+01 -0.19955515820E+03 -0.30100591769E+03  0.38216899572E+03  0.12500000000E+03 0.  0.
         25    1    1    2    0    0  0.51533464736E+02 -0.45788440404E+02 -0.51273295632E+03  0.53223337340E+03  0.12500000000E+03 0.  0.
</event>
<event>
 5    0  0.5605075E-005  0.4228030E+03  0.7546771E-02  0.1036158E+00
         21   -1    0    0  502  501  0.00000000000E+00  0.00000000000E+00  0.67658049350E+03  0.67658049350E+03  0.00000000000E+00 0. -1.
         21   -1    0    0  501  502 -0.00000000000E+00 -0.00000000000E+00 -0.26421450697E+03  0.26421450697E+03  0.00000000000E+00 0. -1.
         25    1    1    2    0    0 -0.20986095523E+03  0.13208118998E+03 -0.42337067088E+01  0.27772285745E+03  0.12500000000E+03 0.  0.
         25    1    1    2    0    0 -0.96018038508E+02 -0.65404606921E+02  0.86719911478E+02  0.19142248920E+03  0.12500000000E+03 0.  0.
         25    1    1    2    0    0  0.30587899374E+03 -0.66676583055E+02  0.32987978176E+03  0.47164965383E+03  0.12500000000E+03 0.  0.
</event>
<event>
 5    0  0.6085138E-005  0.3783925E+03  0.7546771E-02  0.1051530E+00
         21   -1    0    0  502  501  0.00000000000E+00  0.00000000000E+00  0.85365052426E+03  0.85365052426E+03  0.00000000000E+00 0. -1.
         21   -1    0    0  501  502 -0.00000000000E+00 -0.00000000000E+00 -0.16772770883E+03  0.16772770883E+03  0.00000000000E+00 0. -1.
         25    1    1    2    0    0  0.84353289600E+01 -0.19544640179E+02 -0.80734029354E+02  0.15032009590E+03  0.12500000000E+03 0.  0.
         25    1    1    2    0    0 -0.10143657055E+03 -0.11688515891E+03  0.45827754082E+03  0.49959465833E+03  0.12500000000E+03 0.  0.
         25    1    1    2    0    0  0.93001241592E+02  0.13642979909E+03  0.30837930396E+03  0.37146347886E+03  0.12500000000E+03 0.  0.
</event>
<event>
 5    0  0.5605075E-005  0.2623394E+03  0.7546771E-02  0.1105746E+00
         21   -1    0    0  502  501  0.00000000000E+00  0.00000000000E+00  0.99484894711E+02  0.99484894711E+02  0.00000000000E+00 0.  1.
         21   -1    0    0  501  502 -0.00000000000E+00 -0.00000000000E+00 -0.69178321958E+03  0.69178321958E+03  0.00000000000E+00 0.  1.
         25    1    1    2    0    0  0.47256835047E+02  0.89949848889E+02 -0.34872067207E+03  0.38412926327E+03  0.12500000000E+03 0.  0.
         25    1    1    2    0    0  0.60194488698E+02 -0.27614496803E+02 -0.15518720497E+03  0.20998572687E+03  0.12500000000E+03 0.  0.
         25    1    1    2    0    0 -0.10745132375E+03 -0.62335352086E+02 -0.88390447833E+02  0.19715312415E+03  0.12500000000E+03 0.  0.
</event>
<event>
 5    0  0.5605075E-005  0.2643614E+03  0.7546771E-02  0.1104551E+00
         21   -1    0    0  502  501  0.00000000000E+00  0.00000000000E+00  0.10555492018E+04  0.10555492018E+04  0.00000000000E+00 0.  1.
         21   -1    0    0  501  502 -0.00000000000E+00 -0.00000000000E+00 -0.66209073118E+02  0.66209073118E+02  0.00000000000E+00 0.  1.
         25    1    1    2    0    0  0.12926644062E+03 -0.35716018902E+02  0.65355709482E+03  0.67878370846E+03  0.12500000000E+03 0.  0.
         25    1    1    2    0    0 -0.80347633206E+02  0.35308412410E+02  0.20425480239E+03  0.25504401669E+03  0.12500000000E+03 0.  0.
         25    1    1    2    0    0 -0.48918807410E+02  0.40760649166E+00  0.13152823144E+03  0.18793054975E+03  0.12500000000E+03 0.  0.
</event>
<event>
 5    0  0.5605075E-005  0.2719175E+03  0.7546771E-02  0.1100187E+00
         21   -1    0    0  502  501  0.00000000000E+00  0.00000000000E+00  0.26977446113E+04  0.26977446113E+04  0.00000000000E+00 0.  1.
         21   -1    0    0  501  502 -0.00000000000E+00 -0.00000000000E+00 -0.27407754118E+02  0.27407754118E+02  0.00000000000E+00 0.  1.
         25    1    1    2    0    0 -0.29979710309E+02 -0.13101515498E+03  0.74802380488E+03  0.77021319551E+03  0.12500000000E+03 0.  0.
         25    1    1    2    0    0 -0.50300115017E+02  0.76230507497E+02  0.14161878283E+04  0.14246242160E+04  0.12500000000E+03 0.  0.
         25    1    1    2    0    0  0.80279825327E+02  0.54784647480E+02  0.50612522407E+03  0.53031495396E+03  0.12500000000E+03 0.  0.
</event>
<event>
 5    0  0.5605075E-005  0.3801402E+03  0.7546771E-02  0.1050882E+00
         21   -1    0    0  502  501  0.00000000000E+00  0.00000000000E+00  0.24944473598E+03  0.24944473598E+03  0.00000000000E+00 0. -1.
         21   -1    0    0  501  502 -0.00000000000E+00 -0.00000000000E+00 -0.57931283574E+03  0.57931283574E+03  0.00000000000E+00 0. -1.
         25    1    1    2    0    0  0.86729503526E+02  0.12610090199E+03 -0.17427039232E+03  0.26347412378E+03  0.12500000000E+03 0.  0.
         25    1    1    2    0    0  0.15831434173E+03 -0.15295921248E+03 -0.11088438193E+02  0.25339278787E+03  0.12500000000E+03 0.  0.
         25    1    1    2    0    0 -0.24504384526E+03  0.26858310489E+02 -0.14450926925E+03  0.31189066007E+03  0.12500000000E+03 0.  0.
</event>
<event>
 5    0  0.5605075E-005  0.1018427E+04  0.7546771E-02  0.9288562E-01
         21   -1    0    0  502  501  0.00000000000E+00  0.00000000000E+00  0.52201574539E+03  0.52201574539E+03  0.00000000000E+00 0.  1.
         21   -1    0    0  501  502 -0.00000000000E+00 -0.00000000000E+00 -0.19869021957E+04  0.19869021957E+04  0.00000000000E+00 0. -1.
         25    1    1    2    0    0  0.37772430631E+03 -0.35265149058E+03 -0.12022691460E+04  0.13145778124E+04  0.12500000000E+03 0.  0.
         25    1    1    2    0    0 -0.32271468619E+02 -0.27463777809E+03 -0.34876031757E+03  0.46230521947E+03  0.12500000000E+03 0.  0.
         25    1    1    2    0    0 -0.34545283769E+03  0.62728926866E+03  0.86143013242E+02  0.73203490926E+03  0.12500000000E+03 0.  0.
</event>
<event>
 5    0  0.5605075E-005  0.3247776E+03  0.7546771E-02  0.1073471E+00
         21   -1    0    0  502  501  0.00000000000E+00  0.00000000000E+00  0.60711223580E+03  0.60711223580E+03  0.00000000000E+00 0. -1.
         21   -1    0    0  501  502 -0.00000000000E+00 -0.00000000000E+00 -0.17374129737E+03  0.17374129737E+03  0.00000000000E+00 0. -1.
         25    1    1    2    0    0  0.20202206987E+03 -0.54010210699E+02  0.97725411580E+02  0.26249814408E+03  0.12500000000E+03 0.  0.
         25    1    1    2    0    0  0.27633261021E+02  0.10217445452E+02  0.88974270002E+02  0.15623512418E+03  0.12500000000E+03 0.  0.
         25    1    1    2    0    0 -0.22965533089E+03  0.43792765247E+02  0.24667125685E+03  0.36212026490E+03  0.12500000000E+03 0.  0.
</event>
<event>
 5    0  0.5605075E-005  0.2745688E+03  0.7546771E-02  0.1098693E+00
         21   -1    0    0  502  501  0.00000000000E+00  0.00000000000E+00  0.14852807657E+03  0.14852807657E+03  0.00000000000E+00 0.  1.
         21   -1    0    0  501  502 -0.00000000000E+00 -0.00000000000E+00 -0.50756767398E+03  0.50756767398E+03  0.00000000000E+00 0.  1.
         25    1    1    2    0    0  0.82925329688E+02 -0.64124353364E+01 -0.28271262224E+03  0.32010803864E+03  0.12500000000E+03 0.  0.
         25    1    1    2    0    0 -0.11236774184E+03  0.66054252378E+02 -0.71728899592E+02  0.19431857529E+03  0.12500000000E+03 0.  0.
         25    1    1    2    0    0  0.29442412157E+02 -0.59641817042E+02 -0.45980755836E+01  0.14166913663E+03  0.12500000000E+03 0.  0.
</event>
<event>
 5    0  0.5605075E-005  0.3028611E+03  0.7546771E-02  0.1083819E+00
         21   -1    0    0  502  501  0.00000000000E+00  0.00000000000E+00  0.14491384552E+03  0.14491384552E+03  0.00000000000E+00 0. -1.
         21   -1    0    0  501  502 -0.00000000000E+00 -0.00000000000E+00 -0.63296113408E+03  0.63296113408E+03  0.00000000000E+00 0. -1.
         25    1    1    2    0    0 -0.41372411880E+02  0.29268765407E+02 -0.16998849505E+03  0.21700098051E+03  0.12500000000E+03 0.  0.
         25    1    1    2    0    0  0.10024857121E+02  0.12120611647E+03 -0.31808205562E+03  0.36275696346E+03  0.12500000000E+03 0.  0.
         25    1    1    2    0    0  0.31347554759E+02 -0.15047488188E+03  0.23262109184E-01  0.19811703563E+03  0.12500000000E+03 0.  0.
</event>
<event>
 5    0  0.5605075E-005  0.2812683E+03  0.7546771E-02  0.1094998E+00
         21   -1    0    0  502  501  0.00000000000E+00  0.00000000000E+00  0.30818186409E+03  0.30818186409E+03  0.00000000000E+00 0. -1.
         21   -1    0    0  501  502 -0.00000000000E+00 -0.00000000000E+00 -0.25670519096E+03  0.25670519096E+03  0.00000000000E+00 0. -1.
         25    1    1    2    0    0  0.29850991553E+02  0.32786958208E+02  0.11289558544E+02  0.13311093290E+03  0.12500000000E+03 0.  0.
         25    1    1    2    0    0 -0.28052365761E+02 -0.10554019838E+03  0.16987762943E+03  0.23750595293E+03  0.12500000000E+03 0.  0.
         25    1    1    2    0    0 -0.17986257918E+01  0.72753240176E+02 -0.12969051484E+03  0.19427016922E+03  0.12500000000E+03 0.  0.
</event>
<event>
 5    0  0.5605075E-005  0.4642039E+03  0.7546771E-02  0.1023569E+00
         21   -1    0    0  502  501  0.00000000000E+00  0.00000000000E+00  0.91412305325E+03  0.91412305325E+03  0.00000000000E+00 0.  1.
         21   -1    0    0  501  502 -0.00000000000E+00 -0.00000000000E+00 -0.23572892567E+03  0.23572892567E+03  0.00000000000E+00 0.  1.
         25    1    1    2    0    0  0.15649665481E+03 -0.20652571264E+03  0.37095893052E+02  0.29007788304E+03  0.12500000000E+03 0.  0.
         25    1    1    2    0    0 -0.28919678148E+03  0.21184124667E+03  0.50646809738E+03  0.63296637025E+03  0.12500000000E+03 0.  0.
         25    1    1    2    0    0  0.13270012668E+03 -0.53155340297E+01  0.13483013715E+03  0.22680772563E+03  0.12500000000E+03 0.  0.
</event>
<event>
 5    0  0.5605075E-005  0.3354096E+03  0.7546771E-02  0.1068768E+00
         21   -1    0    0  502  501  0.00000000000E+00  0.00000000000E+00  0.36280543766E+03  0.36280543766E+03  0.00000000000E+00 0.  1.
         21   -1    0    0  501  502 -0.00000000000E+00 -0.00000000000E+00 -0.31008251461E+03  0.31008251461E+03  0.00000000000E+00 0.  1.
         25    1    1    2    0    0 -0.25885442969E+02 -0.20905018176E+03 -0.13890646863E+03  0.28158842604E+03  0.12500000000E+03 0.  0.
         25    1    1    2    0    0  0.26505489066E+02  0.12701386793E+03  0.15425847183E+03  0.23718292462E+03  0.12500000000E+03 0.  0.
         25    1    1    2    0    0 -0.62004609677E+00  0.82036313829E+02  0.37370919848E+02  0.15411660162E+03  0.12500000000E+03 0.  0.
</event>
<event>
 5    0  0.5605075E-005  0.3165851E+03  0.7546771E-02  0.1077232E+00
         21   -1    0    0  502  501  0.00000000000E+00  0.00000000000E+00  0.21571528977E+03  0.21571528977E+03  0.00000000000E+00 0.  1.
         21   -1    0    0  501  502 -0.00000000000E+00 -0.00000000000E+00 -0.46462232038E+03  0.46462232038E+03  0.00000000000E+00 0.  1.
         25    1    1    2    0    0 -0.51290337188E+02 -0.36825207968E+02 -0.17538648941E+03  0.22443755323E+03  0.12500000000E+03 0.  0.
         25    1    1    2    0    0 -0.10283411035E+03 -0.92225286340E+02  0.44295567402E+02  0.19148747996E+03  0.12500000000E+03 0.  0.
         25    1    1    2    0    0  0.15412444754E+03  0.12905049431E+03 -0.11781610860E+03  0.26441257696E+03  0.12500000000E+03 0.  0.
</event>
<event>
 5    0  0.5605075E-005  0.4819392E+03  0.7546771E-02  0.1018604E+00
         21   -1    0    0  502  501  0.00000000000E+00  0.00000000000E+00  0.26952430636E+03  0.26952430636E+03  0.00000000000E+00 0.  1.
         21   -1    0    0  501  502 -0.00000000000E+00 -0.00000000000E+00 -0.86176042345E+03  0.86176042345E+03  0.00000000000E+00 0.  1.
         25    1    1    2    0    0  0.64118824949E+02 -0.38503543703E+03 -0.23736103442E+03  0.47363358426E+03  0.12500000000E+03 0.  0.
         25    1    1    2    0    0 -0.35701622136E+02  0.37470108566E+03 -0.34998669245E+03  0.52895292259E+03  0.12500000000E+03 0.  0.
         25    1    1    2    0    0 -0.28417202813E+02  0.10334351365E+02 -0.48883902257E+01  0.12869822296E+03  0.12500000000E+03 0.  0.
</event>
<event>
 5    0  0.5605075E-005  0.3311576E+03  0.7546771E-02  0.1070626E+00
         21   -1    0    0  502  501  0.00000000000E+00  0.00000000000E+00  0.54824789506E+03  0.54824789506E+03  0.00000000000E+00 0. -1.
         21   -1    0    0  501  502 -0.00000000000E+00 -0.00000000000E+00 -0.20002879191E+03  0.20002879191E+03  0.00000000000E+00 0. -1.
         25    1    1    2    0    0 -0.62651598916E+01 -0.60240642427E+02  0.40635369693E+03  0.42943743926E+03  0.12500000000E+03 0.  0.
         25    1    1    2    0    0  0.28608247872E+01 -0.47711532880E+02  0.21341942588E+02  0.13551772283E+03  0.12500000000E+03 0.  0.
         25    1    1    2    0    0  0.34043351044E+01  0.10795217531E+03 -0.79476536371E+02  0.18332152488E+03  0.12500000000E+03 0.  0.
</event>
<event>
 5    0  0.5605075E-005  0.3084272E+03  0.7546771E-02  0.1081102E+00
         21   -1    0    0  502  501  0.00000000000E+00  0.00000000000E+00  0.12797339433E+03  0.12797339433E+03  0.00000000000E+00 0.  1.
         21   -1    0    0  501  502 -0.00000000000E+00 -0.00000000000E+00 -0.74333671867E+03  0.74333671867E+03  0.00000000000E+00 0.  1.
         25    1    1    2    0    0 -0.42325939855E+02 -0.77399499349E+02 -0.32639723788E+03  0.36047513725E+03  0.12500000000E+03 0.  0.
         25    1    1    2    0    0 -0.13265684448E+03  0.35749196395E+02 -0.20399922342E+03  0.27589223727E+03  0.12500000000E+03 0.  0.
         25    1    1    2    0    0  0.17498278433E+03  0.41650302954E+02 -0.84966863035E+02  0.23494273848E+03  0.12500000000E+03 0.  0.
</event>
<event>
 5    0  0.5605075E-005  0.3709589E+03  0.7546771E-02  0.1054327E+00
         21   -1    0    0  502  501  0.00000000000E+00  0.00000000000E+00  0.22422091856E+03  0.22422091856E+03  0.00000000000E+00 0. -1.
         21   -1    0    0  501  502 -0.00000000000E+00 -0.00000000000E+00 -0.61372740378E+03  0.61372740378E+03  0.00000000000E+00 0. -1.
         25    1    1    2    0    0 -0.23996757804E+03  0.77294406651E+02 -0.16411628029E+03  0.32575760508E+03  0.12500000000E+03 0.  0.
         25    1    1    2    0    0  0.25284730703E+03 -0.12730281643E+03 -0.93478051784E+02  0.32326601106E+03  0.12500000000E+03 0.  0.
         25    1    1    2    0    0 -0.12879728985E+02  0.50008409778E+02 -0.13191215314E+03  0.18892470620E+03  0.12500000000E+03 0.  0.
</event>
<event>
 5    0  0.5605075E-005  0.2605002E+03  0.7546771E-02  0.1106843E+00
         21   -1    0    0  502  501  0.00000000000E+00  0.00000000000E+00  0.60586451184E+03  0.60586451184E+03  0.00000000000E+00 0.  1.
         21   -1    0    0  501  502 -0.00000000000E+00 -0.00000000000E+00 -0.11200580457E+03  0.11200580457E+03  0.00000000000E+00 0.  1.
         25    1    1    2    0    0 -0.48312805993E+02 -0.96475166869E+02  0.45015155712E+02  0.17115183110E+03  0.12500000000E+03 0.  0.
         25    1    1    2    0    0  0.86243974497E+02  0.90776472921E+02  0.21153239474E+03  0.27577045744E+03  0.12500000000E+03 0.  0.
         25    1    1    2    0    0 -0.37931168505E+02  0.56986939484E+01  0.23731115682E+03  0.27094802788E+03  0.12500000000E+03 0.  0.
</event>
<event>
 5    0  0.5605075E-005  0.2684169E+03  0.7546771E-02  0.1102189E+00
         21   -1    0    0  502  501  0.00000000000E+00  0.00000000000E+00  0.33240827153E+03  0.33240827153E+03  0.00000000000E+00 0. -1.
         21   -1    0    0  501  502 -0.00000000000E+00 -0.00000000000E+00 -0.21674433107E+03  0.21674433107E+03  0.00000000000E+00 0. -1.
         25    1    1    2    0    0 -0.47714219887E+01 -0.62101907959E+02  0.14406052668E+03  0.20064358646E+03  0.12500000000E+03 0.  0.
         25    1    1    2    0    0  0.31500584549E+02 -0.18329174284E+02 -0.11559915566E+03  0.17411608268E+03  0.12500000000E+03 0.  0.
         25    1    1    2    0    0 -0.26729162560E+02  0.80431082243E+02  0.87202569448E+02  0.17439293346E+03  0.12500000000E+03 0.  0.
</event>
<event>
 5    0  0.5605075E-005  0.6265253E+03  0.7546771E-02  0.9851853E-01
         21   -1    0    0  502  501  0.00000000000E+00  0.00000000000E+00  0.62247015602E+03  0.62247015602E+03  0.00000000000E+00 0.  1.
         21   -1    0    0  501  502 -0.00000000000E+00 -0.00000000000E+00 -0.63060683224E+03  0.63060683224E+03  0.00000000000E+00 0.  1.
         25    1    1    2    0    0  0.68793653985E+02 -0.36932885862E+03  0.21369865232E+03  0.44992053370E+03  0.12500000000E+03 0.  0.
         25    1    1    2    0    0  0.17417084897E+03 -0.88002366992E+02 -0.11927703699E+03  0.26063751223E+03  0.12500000000E+03 0.  0.
         25    1    1    2    0    0 -0.24296450296E+03  0.45733122561E+03 -0.10255829154E+03  0.54251894233E+03  0.12500000000E+03 0.  0.
</event>
<event>
 5    0  0.5605075E-005  0.3289055E+03  0.7546771E-02  0.1071622E+00
         21   -1    0    0  502  501  0.00000000000E+00  0.00000000000E+00  0.16806101944E+03  0.16806101944E+03  0.00000000000E+00 0. -1.
         21   -1    0    0  501  502 -0.00000000000E+00 -0.00000000000E+00 -0.64368773305E+03  0.64368773305E+03  0.00000000000E+00 0.  1.
         25    1    1    2    0    0  0.63420761290E+02 -0.21232671530E+03 -0.53075825516E+02  0.25989780731E+03  0.12500000000E+03 0.  0.
         25    1    1    2    0    0 -0.23746500149E+02  0.14661521326E+03 -0.16198025133E+03  0.25282903087E+03  0.12500000000E+03 0.  0.
         25    1    1    2    0    0 -0.39674261142E+02  0.65711502037E+02 -0.26057063676E+03  0.29902191431E+03  0.12500000000E+03 0.  0.
</event>
<event>
 5    0  0.5605075E-005  0.3040813E+03  0.7546771E-02  0.1083218E+00
         21   -1    0    0  502  501  0.00000000000E+00  0.00000000000E+00  0.61946680267E+03  0.61946680267E+03  0.00000000000E+00 0. -1.
         21   -1    0    0  501  502 -0.00000000000E+00 -0.00000000000E+00 -0.14926615681E+03  0.14926615681E+03  0.00000000000E+00 0. -1.
         25    1    1    2    0    0  0.13191409525E+03 -0.59150585619E+02  0.12408410002E+03  0.22786395982E+03  0.12500000000E+03 0.  0.
         25    1    1    2    0    0 -0.22173515055E+03  0.36829287991E+02  0.24599337514E+03  0.35589410512E+03  0.12500000000E+03 0.  0.
         25    1    1    2    0    0  0.89821055301E+02  0.22321297629E+02  0.10012317069E+03  0.18497489455E+03  0.12500000000E+03 0.  0.
</event>
<event>
 5    0  0.5605075E-005  0.2188299E+03  0.7546771E-02  0.1134758E+00
         21   -1    0    0  502  501  0.00000000000E+00  0.00000000000E+00  0.36119842720E+03  0.36119842720E+03  0.00000000000E+00 0.  1.
         21   -1    0    0  501  502 -0.00000000000E+00 -0.00000000000E+00 -0.13257673220E+03  0.13257673220E+03  0.00000000000E+00 0.  1.
         25    1    1    2    0    0  0.11923916681E+02  0.97129289339E+00  0.61354521988E+02  0.13975872269E+03  0.12500000000E+03 0.  0.
         25    1    1    2    0    0  0.18820083330E+01  0.23686303157E+02  0.18511324532E+03  0.22462523568E+03  0.12500000000E+03 0.  0.
         25    1    1    2    0    0 -0.13805925013E+02 -0.24657596050E+02 -0.17846072312E+02  0.12939120104E+03  0.12500000000E+03 0.  0.
</event>
<event>
 5    0  0.5605075E-005  0.2502900E+03  0.7546771E-02  0.1113122E+00
         21   -1    0    0  502  501  0.00000000000E+00  0.00000000000E+00  0.42442262655E+02  0.42442262655E+02  0.00000000000E+00 0.  1.
         21   -1    0    0  501  502 -0.00000000000E+00 -0.00000000000E+00 -0.14760073147E+04  0.14760073147E+04  0.00000000000E+00 0.  1.
         25    1    1    2    0    0  0.23004719842E+02 -0.20008267066E+02 -0.93817191363E+03  0.94695358250E+03  0.12500000000E+03 0.  0.
         25    1    1    2    0    0 -0.37630662694E+02 -0.50955371863E+02 -0.23018612142E+03  0.26948685903E+03  0.12500000000E+03 0.  0.
         25    1    1    2    0    0  0.14625942852E+02  0.70963638930E+02 -0.26520701696E+03  0.30200913578E+03  0.12500000000E+03 0.  0.
</event>
<event>
 5    0  0.5605075E-005  0.2971410E+03  0.7546771E-02  0.1086679E+00
         21   -1    0    0  502  501  0.00000000000E+00  0.00000000000E+00  0.70575276291E+02  0.70575276291E+02  0.00000000000E+00 0. -1.
         21   -1    0    0  501  502 -0.00000000000E+00 -0.00000000000E+00 -0.12510443001E+04  0.12510443001E+04  0.00000000000E+00 0. -1.
         25    1    1    2    0    0  0.20355610460E+03  0.35899410315E+01 -0.61021142381E+03  0.65530981768E+03  0.12500000000E+03 0.  0.
         25    1    1    2    0    0 -0.11703083646E+03 -0.61513791887E+02 -0.30245522762E+03  0.35296505208E+03  0.12500000000E+03 0.  0.
         25    1    1    2    0    0 -0.86525268140E+02  0.57923850855E+02 -0.26780237239E+03  0.31334470664E+03  0.12500000000E+03 0.  0.
</event>
<event>
 5    0  0.5605075E-005  0.2435580E+03  0.7546771E-02  0.1117445E+00
         21   -1    0    0  502  501  0.00000000000E+00  0.00000000000E+00  0.70741284317E+03  0.70741284317E+03  0.00000000000E+00 0.  1.
         21   -1    0    0  501  502 -0.00000000000E+00 -0.00000000000E+00 -0.83855548565E+02  0.83855548565E+02  0.00000000000E+00 0.  1.
         25    1    1    2    0    0 -0.87697210450E+02  0.84331039315E+02  0.13836834500E+03  0.22265067664E+03  0.12500000000E+03 0.  0.
         25    1    1    2    0    0  0.94064613240E+01  0.23783748244E+01  0.20980417016E+03  0.24441139089E+03  0.12500000000E+03 0.  0.
         25    1    1    2    0    0  0.78290749126E+02 -0.86709414139E+02  0.27538477945E+03  0.32420632420E+03  0.12500000000E+03 0.  0.
</event>
<event>
 5    0  0.5605075E-005  0.2515220E+03  0.7546771E-02  0.1112347E+00
         21   -1    0    0  502  501  0.00000000000E+00  0.00000000000E+00  0.40237749613E+03  0.40237749613E+03  0.00000000000E+00 0.  1.
         21   -1    0    0  501  502 -0.00000000000E+00 -0.00000000000E+00 -0.15722373663E+03  0.15722373663E+03  0.00000000000E+00 0.  1.
         25    1    1    2    0    0  0.79753748646E+02  0.49247393494E+02  0.98472130843E+02  0.18468277327E+03  0.12500000000E+03 0.  0.
         25    1    1    2    0    0 -0.22086554456E+02 -0.35499690051E+02 -0.44336390525E+02  0.13906386808E+03  0.12500000000E+03 0.  0.
         25    1    1    2    0    0 -0.57667194189E+02 -0.13747703443E+02  0.19101801919E+03  0.23585459141E+03  0.12500000000E+03 0.  0.
</event>
<event>
 5    0  0.6132394E-005  0.2810762E+03  0.7546771E-02  0.1095103E+00
         21   -1    0    0  502  501  0.00000000000E+00  0.00000000000E+00  0.39718834318E+03  0.39718834318E+03  0.00000000000E+00 0.  1.
         21   -1    0    0  501  502 -0.00000000000E+00 -0.00000000000E+00 -0.19890779633E+03  0.19890779633E+03  0.00000000000E+00 0.  1.
         25    1    1    2    0    0  0.11935318004E+03  0.19308021948E+02  0.57939725233E+02  0.18330300886E+03  0.12500000000E+03 0.  0.
         25    1    1    2    0    0 -0.33376831191E+02  0.96600560905E+02 -0.21004992889E+02  0.16282472464E+03  0.12500000000E+03 0.  0.
         25    1    1    2    0    0 -0.85976348853E+02 -0.11590858285E+03  0.16134581451E+03  0.24996840601E+03  0.12500000000E+03 0.  0.
</event>
<event>
 5    0  0.5605075E-005  0.3035556E+03  0.7546771E-02  0.1083477E+00
         21   -1    0    0  502  501  0.00000000000E+00  0.00000000000E+00  0.25284397459E+03  0.25284397459E+03  0.00000000000E+00 0. -1.
         21   -1    0    0  501  502 -0.00000000000E+00 -0.00000000000E+00 -0.36443817310E+03  0.36443817310E+03  0.00000000000E+00 0. -1.
         25    1    1    2    0    0 -0.12312358207E+03 -0.85441234912E+02  0.49802555040E+02  0.20140733744E+03  0.12500000000E+03 0.  0.
         25    1    1    2    0    0  0.22514422876E+02  0.15386698057E+03 -0.13133475253E+03  0.23886348438E+03  0.12500000000E+03 0.  0.
         25    1    1    2    0    0  0.10060915919E+03 -0.68425745656E+02 -0.30062001013E+02  0.17701132587E+03  0.12500000000E+03 0.  0.
</event>
<event>
 5    0  0.5605075E-005  0.5322899E+03  0.7546771E-02  0.1005678E+00
         21   -1    0    0  502  501  0.00000000000E+00  0.00000000000E+00  0.17979258902E+03  0.17979258902E+03  0.00000000000E+00 0. -1.
         21   -1    0    0  501  502 -0.00000000000E+00 -0.00000000000E+00 -0.15758853119E+04  0.15758853119E+04  0.00000000000E+00 0. -1.
         25    1    1    2    0    0 -0.99759373924E+02  0.53549167883E+02 -0.86974448097E+02  0.18976037702E+03  0.12500000000E+03 0.  0.
         25    1    1    2    0    0  0.28741101229E+03 -0.34073078208E+03 -0.51875820746E+03  0.69529679537E+03  0.12500000000E+03 0.  0.
         25    1    1    2    0    0 -0.18765163837E+03  0.28718161420E+03 -0.79036006727E+03  0.87062072848E+03  0.12500000000E+03 0.  0.
</event>
<event>
 5    0  0.8232863E-005  0.3949087E+03  0.7546771E-02  0.1045557E+00
         21   -1    0    0  502  501  0.00000000000E+00  0.00000000000E+00  0.19492683200E+03  0.19492683200E+03  0.00000000000E+00 0.  1.
         21   -1    0    0  501  502 -0.00000000000E+00 -0.00000000000E+00 -0.80005871434E+03  0.80005871434E+03  0.00000000000E+00 0.  1.
         25    1    1    2    0    0 -0.36519036937E+02 -0.11239125644E+03  0.33791904281E+02  0.17530638145E+03  0.12500000000E+03 0.  0.
         25    1    1    2    0    0 -0.13158665269E+03  0.20931478447E+03 -0.40804712099E+03  0.49320906228E+03  0.12500000000E+03 0.  0.
         25    1    1    2    0    0  0.16810568963E+03 -0.96923528036E+02 -0.23087666563E+03  0.32647010262E+03  0.12500000000E+03 0.  0.
</event>
<event>
 5    0  0.5605075E-005  0.2569249E+03  0.7546771E-02  0.1109005E+00
         21   -1    0    0  502  501  0.00000000000E+00  0.00000000000E+00  0.30225608088E+03  0.30225608088E+03  0.00000000000E+00 0.  1.
         21   -1    0    0  501  502 -0.00000000000E+00 -0.00000000000E+00 -0.21839231992E+03  0.21839231992E+03  0.00000000000E+00 0.  1.
         25    1    1    2    0    0 -0.16239032790E+02 -0.55030255849E+02 -0.56887625154E+02  0.14883963565E+03  0.12500000000E+03 0.  0.
         25    1    1    2    0    0 -0.10324047179E+03  0.53408495936E+02  0.80136554322E+02  0.18856810385E+03  0.12500000000E+03 0.  0.
         25    1    1    2    0    0  0.11947950458E+03  0.16217599126E+01  0.60614831789E+02  0.18324066129E+03  0.12500000000E+03 0.  0.
</event>
<event>
 5    0  0.5605075E-005  0.2573430E+03  0.7546771E-02  0.1108750E+00
         21   -1    0    0  502  501  0.00000000000E+00  0.00000000000E+00  0.73490011925E+02  0.73490011925E+02  0.00000000000E+00 0. -1.
         21   -1    0    0  501  502 -0.00000000000E+00 -0.00000000000E+00 -0.90114870650E+03  0.90114870650E+03  0.00000000000E+00 0. -1.
         25    1    1    2    0    0 -0.14654587475E+02  0.23787117946E+02 -0.14284824961E+03  0.19186246723E+03  0.12500000000E+03 0.  0.
         25    1    1    2    0    0 -0.10303358683E+03 -0.99858502911E+02 -0.31493801149E+03  0.36796547623E+03  0.12500000000E+03 0.  0.
         25    1    1    2    0    0  0.11768817430E+03  0.76071384965E+02 -0.36987243348E+03  0.41481077497E+03  0.12500000000E+03 0.  0.
</event>
<event>
 5    0  0.5605075E-005  0.2805942E+03  0.7546771E-02  0.1095365E+00
         21   -1    0    0  502  501  0.00000000000E+00  0.00000000000E+00  0.13143026559E+04  0.13143026559E+04  0.00000000000E+00 0. -1.
         21   -1    0    0  501  502 -0.00000000000E+00 -0.00000000000E+00 -0.59904853512E+02  0.59904853512E+02  0.00000000000E+00 0. -1.
         25    1    1    2    0    0 -0.84502814248E+02  0.95744635279E+02  0.51124498908E+03  0.54157566384E+03  0.12500000000E+03 0.  0.
         25    1    1    2    0    0 -0.16236651925E+02 -0.14077689183E+03  0.52557683457E+03  0.55851389524E+03  0.12500000000E+03 0.  0.
         25    1    1    2    0    0  0.10073946617E+03  0.45032256549E+02  0.21757597875E+03  0.27411795035E+03  0.12500000000E+03 0.  0.
</event>
<event>
 5    0  0.5605075E-005  0.2857129E+03  0.7546771E-02  0.1092609E+00
         21   -1    0    0  502  501  0.00000000000E+00  0.00000000000E+00  0.25872784177E+03  0.25872784177E+03  0.00000000000E+00 0. -1.
         21   -1    0    0  501  502 -0.00000000000E+00 -0.00000000000E+00 -0.31551249523E+03  0.31551249523E+03  0.00000000000E+00 0. -1.
         25    1    1    2    0    0  0.62617567867E+02  0.59007567524E+02  0.12940978866E+03  0.19943607054E+03  0.12500000000E+03 0.  0.
         25    1    1    2    0    0 -0.54090660683E+02 -0.30948214262E+01 -0.19436986259E+03  0.23736052953E+03  0.12500000000E+03 0.  0.
         25    1    1    2    0    0 -0.85269071846E+01 -0.55912746098E+02  0.81754204660E+01  0.13744373693E+03  0.12500000000E+03 0.  0.
</event>
<event>
 5    0  0.5605075E-005  0.2374571E+03  0.7546771E-02  0.1121498E+00
         21   -1    0    0  502  501  0.00000000000E+00  0.00000000000E+00  0.42937173857E+03  0.42937173857E+03  0.00000000000E+00 0. -1.
         21   -1    0    0  501  502 -0.00000000000E+00 -0.00000000000E+00 -0.13132183911E+03  0.13132183911E+03  0.00000000000E+00 0. -1.
         25    1    1    2    0    0  0.33975310704E+02  0.82340392549E+02  0.31306736381E+02  0.15665048268E+03  0.12500000000E+03 0.  0.
         25    1    1    2    0    0 -0.73552087516E+02 -0.35609293116E+02  0.75037221100E+02  0.16713322795E+03  0.12500000000E+03 0.  0.
         25    1    1    2    0    0  0.39576776813E+02 -0.46731099433E+02  0.19170594198E+03  0.23690986705E+03  0.12500000000E+03 0.  0.
</event>
<event>
 5    0  0.5605075E-005  0.2654021E+03  0.7546771E-02  0.1103940E+00
         21   -1    0    0  502  501  0.00000000000E+00  0.00000000000E+00  0.23413560656E+03  0.23413560656E+03  0.00000000000E+00 0.  1.
         21   -1    0    0  501  502 -0.00000000000E+00 -0.00000000000E+00 -0.30084403678E+03  0.30084403678E+03  0.00000000000E+00 0.  1.
         25    1    1    2    0    0  0.30741224581E+02  0.14663133133E+03  0.30317053632E+02  0.19745858796E+03  0.12500000000E+03 0.  0.
         25    1    1    2    0    0 -0.24658026242E+02 -0.20012794810E+02  0.10737799134E+02  0.12941727298E+03  0.12500000000E+03 0.  0.
         25    1    1    2    0    0 -0.60831983398E+01 -0.12661853652E+03 -0.10776328298E+03  0.20810378241E+03  0.12500000000E+03 0.  0.
</event>
<event>
 5    0  0.5605075E-005  0.3888251E+03  0.7546771E-02  0.1047719E+00
         21   -1    0    0  502  501  0.00000000000E+00  0.00000000000E+00  0.38844151688E+03  0.38844151688E+03  0.00000000000E+00 0.  1.
         21   -1    0    0  501  502 -0.00000000000E+00 -0.00000000000E+00 -0.38920907421E+03  0.38920907421E+03  0.00000000000E+00 0.  1.
         25    1    1    2    0    0  0.11825800666E+03  0.90737309013E+02  0.85752515198E+02  0.21259517692E+03  0.12500000000E+03 0.  0.
         25    1    1    2    0    0 -0.43210815804E+02 -0.26500326898E+03 -0.14597384862E+03  0.33019277953E+03  0.12500000000E+03 0.  0.
         25    1    1    2    0    0 -0.75047190852E+02  0.17426595997E+03  0.59453776096E+02  0.23486263464E+03  0.12500000000E+03 0.  0.
</event>
<event>
 5    0  0.5605075E-005  0.3326955E+03  0.7546771E-02  0.1069950E+00
         21   -1    0    0  502  501  0.00000000000E+00  0.00000000000E+00  0.24825715173E+04  0.24825715173E+04  0.00000000000E+00 0.  1.
         21   -1    0    0  501  502 -0.00000000000E+00 -0.00000000000E+00 -0.44585328665E+02  0.44585328665E+02  0.00000000000E+00 0.  1.
         25    1    1    2    0    0  0.17072028066E+03  0.23828565286E+02  0.99999173827E+03  0.10224097473E+04  0.12500000000E+03 0.  0.
         25    1    1    2    0    0 -0.71931454837E+02 -0.94582870521E+02  0.11851319004E+04  0.11976154119E+04  0.12500000000E+03 0.  0.
         25    1    1    2    0    0 -0.98788825827E+02  0.70754305235E+02  0.25286255000E+03  0.30713168676E+03  0.12500000000E+03 0.  0.
</event>
<event>
 5    0  0.5605075E-005  0.3391717E+03  0.7546771E-02  0.1067149E+00
         21   -1    0    0  502  501  0.00000000000E+00  0.00000000000E+00  0.43844062440E+03  0.43844062440E+03  0.00000000000E+00 0.  1.
         21   -1    0    0  501  502 -0.00000000000E+00 -0.00000000000E+00 -0.26237865247E+03  0.26237865247E+03  0.00000000000E+00 0.  1.
         25    1    1    2    0    0  0.42737970632E+02 -0.19213504979E+02  0.61477620963E+02  0.14697003363E+03  0.12500000000E+03 0.  0.
         25    1    1    2    0    0  0.58777102341E+02  0.75749006729E+02  0.27673656365E+03  0.31843489984E+03  0.12500000000E+03 0.  0.
         25    1    1    2    0    0 -0.10151507297E+03 -0.56535501750E+02 -0.16215221268E+03  0.23541434340E+03  0.12500000000E+03 0.  0.
</event>
<event>
 5    0  0.5605075E-005  0.5922306E+03  0.7546771E-02  0.9921658E-01
         21   -1    0    0  502  501  0.00000000000E+00  0.00000000000E+00  0.21301719133E+03  0.21301719133E+03  0.00000000000E+00 0.  1.
         21   -1    0    0  501  502 -0.00000000000E+00 -0.00000000000E+00 -0.16465198435E+04  0.16465198435E+04  0.00000000000E+00 0.  1.
         25    1    1    2    0    0  0.14010636267E+03  0.40860325190E+02 -0.19422930987E+03  0.27322039427E+03  0.12500000000E+03 0.  0.
         25    1    1    2    0    0 -0.38391931281E+03  0.33072649423E+03 -0.74872195402E+03  0.91267936164E+03  0.12500000000E+03 0.  0.
         25    1    1    2    0    0  0.24381295014E+03 -0.37158681942E+03 -0.49055138833E+03  0.67363727896E+03  0.12500000000E+03 0.  0.
</event>
<event>
 5    0  0.5605075E-005  0.2651263E+03  0.7546771E-02  0.1104102E+00
         21   -1    0    0  502  501  0.00000000000E+00  0.00000000000E+00  0.22086792283E+03  0.22086792283E+03  0.00000000000E+00 0.  1.
         21   -1    0    0  501  502 -0.00000000000E+00 -0.00000000000E+00 -0.31825338586E+03  0.31825338586E+03  0.00000000000E+00 0.  1.
         25    1    1    2    0    0  0.78049447149E+02 -0.56469539181E+02  0.29561736739E+02  0.16055971268E+03  0.12500000000E+03 0.  0.
         25    1    1    2    0    0  0.24142894293E+02  0.10412414662E+03  0.51955845896E+01  0.16455002690E+03  0.12500000000E+03 0.  0.
         25    1    1    2    0    0 -0.10219234144E+03 -0.47654607434E+02 -0.13214278436E+03  0.21401156912E+03  0.12500000000E+03 0.  0.
</event>
<event>
 5    0  0.5605075E-005  0.2853166E+03  0.7546771E-02  0.1092820E+00
         21   -1    0    0  502  501  0.00000000000E+00  0.00000000000E+00  0.37382252845E+03  0.37382252845E+03  0.00000000000E+00 0.  1.
         21   -1    0    0  501  502 -0.00000000000E+00 -0.00000000000E+00 -0.21776522535E+03  0.21776522535E+03  0.00000000000E+00 0.  1.
         25    1    1    2    0    0 -0.98843778701E+02  0.10881093151E+03  0.13742910486E+03  0.23690012720E+03  0.12500000000E+03 0.  0.
         25    1    1    2    0    0  0.14627977583E+03 -0.10354584177E+03  0.29300602977E+02  0.22046097047E+03  0.12500000000E+03 0.  0.
         25    1    1    2    0    0 -0.47435997130E+02 -0.52650897402E+01 -0.10672404741E+02  0.13422665613E+03  0.12500000000E+03 0.  0.
</event>
<event>
 5    0  0.5605075E-005  0.5784853E+03  0.7546771E-02  0.9951076E-01
         21   -1    0    0  502  501  0.00000000000E+00  0.00000000000E+00  0.65056819460E+03  0.65056819460E+03  0.00000000000E+00 0.  1.
         21   -1    0    0  501  502 -0.00000000000E+00 -0.00000000000E+00 -0.51438926615E+03  0.51438926615E+03  0.00000000000E+00 0.  1.
         25    1    1    2    0    0  0.22710136094E+03  0.48442984171E+02  0.17452911714E+03  0.31623909244E+03  0.12500000000E+03 0.  0.
         25    1    1    2    0    0  0.10197170050E+03 -0.26774599987E+03  0.19929909220E+03  0.37071724576E+03  0.12500000000E+03 0.  0.
         25    1    1    2    0    0 -0.32907306144E+03  0.21930301570E+03 -0.23764928088E+03  0.47800112256E+03  0.12500000000E+03 0.  0.
</event>
<event>
 5    0  0.5605075E-005  0.2803003E+03  0.7546771E-02  0.1095525E+00
         21   -1    0    0  502  501  0.00000000000E+00  0.00000000000E+00  0.10932371599E+03  0.10932371599E+03  0.00000000000E+00 0.  1.
         21   -1    0    0  501  502 -0.00000000000E+00 -0.00000000000E+00 -0.71867533763E+03  0.71867533763E+03  0.00000000000E+00 0.  1.
         25    1    1    2    0    0  0.18455787829E+01  0.86664486055E+02 -0.48913688976E+03  0.51224411781E+03  0.12500000000E+03 0.  0.
         25    1    1    2    0    0  0.52515754470E+02 -0.75425949064E+02 -0.60908009909E+02  0.16667862470E+03  0.12500000000E+03 0.  0.
         25    1    1    2    0    0 -0.54361333253E+02 -0.11238536991E+02 -0.59306721972E+02  0.14907631112E+03  0.12500000000E+03 0.  0.
</event>
<event>
 5    0  0.5605075E-005  0.2261697E+03  0.7546771E-02  0.1129365E+00
         21   -1    0    0  502  501  0.00000000000E+00  0.00000000000E+00  0.30324306979E+03  0.30324306979E+03  0.00000000000E+00 0. -1.
         21   -1    0    0  501  502 -0.00000000000E+00 -0.00000000000E+00 -0.16868557006E+03  0.16868557006E+03  0.00000000000E+00 0. -1.
         25    1    1    2    0    0  0.93639127625E+02  0.60764963152E+02  0.76139055164E+02  0.18407287332E+03  0.12500000000E+03 0.  0.
         25    1    1    2    0    0 -0.59672705514E+02 -0.28266017241E+02  0.61753041471E+02  0.15426677427E+03  0.12500000000E+03 0.  0.
         25    1    1    2    0    0 -0.33966422111E+02 -0.32498945911E+02 -0.33345969077E+01  0.13358899226E+03  0.12500000000E+03 0.  0.
</event>
<event>
 5    0  0.5605075E-005  0.2427649E+03  0.7546771E-02  0.1117965E+00
         21   -1    0    0  502  501  0.00000000000E+00  0.00000000000E+00  0.20175957990E+02  0.20175957990E+02  0.00000000000E+00 0. -1.
         21   -1    0    0  501  502 -0.00000000000E+00 -0.00000000000E+00 -0.29210405954E+04  0.29210405954E+04  0.00000000000E+00 0. -1.
         25    1    1    2    0    0 -0.72370063963E+02 -0.27802376563E+02 -0.15268246889E+04  0.15338934217E+04  0.12500000000E+03 0.  0.
         25    1    1    2    0    0  0.11284089151E+03  0.21726417753E+02 -0.67587239529E+03  0.69687416277E+03  0.12500000000E+03 0.  0.
         25    1    1    2    0    0 -0.40470827548E+02  0.60759588102E+01 -0.69816755318E+03  0.71044896895E+03  0.12500000000E+03 0.  0.
</event>
<event>
 5    0  0.7935289E-005  0.4245482E+03  0.7546771E-02  0.1035596E+00
         21   -1    0    0  502  501  0.00000000000E+00  0.00000000000E+00  0.46295366925E+03  0.46295366925E+03  0.00000000000E+00 0.  1.
         21   -1    0    0  501  502 -0.00000000000E+00 -0.00000000000E+00 -0.38932870652E+03  0.38932870652E+03  0.00000000000E+00 0.  1.
         25    1    1    2    0    0 -0.15611357180E+03  0.99999800780E+02  0.16399507689E+03  0.27729189080E+03  0.12500000000E+03 0.  0.
         25    1    1    2    0    0  0.13130093763E+03 -0.21428309613E+03  0.11873003214E+03  0.30476056510E+03  0.12500000000E+03 0.  0.
         25    1    1    2    0    0  0.24812634175E+02  0.11428329535E+03 -0.20910014630E+03  0.27022991987E+03  0.12500000000E+03 0.  0.
</event>
<event>
 5    0  0.5605075E-005  0.3790878E+03  0.7546771E-02  0.1051271E+00
         21   -1    0    0  502  501  0.00000000000E+00  0.00000000000E+00  0.37349340311E+03  0.37349340311E+03  0.00000000000E+00 0.  1.
         21   -1    0    0  501  502 -0.00000000000E+00 -0.00000000000E+00 -0.38476606180E+03  0.38476606180E+03  0.00000000000E+00 0.  1.
         25    1    1    2    0    0 -0.63494782489E+02 -0.14413913903E+03 -0.96503110611E+02  0.22303705782E+03  0.12500000000E+03 0.  0.
         25    1    1    2    0    0  0.16663384578E+03 -0.99739195934E+02  0.72760499065E+02  0.24214424624E+03  0.12500000000E+03 0.  0.
         25    1    1    2    0    0 -0.10313906329E+03  0.24387833497E+03  0.12469952855E+02  0.29307816085E+03  0.12500000000E+03 0.  0.
</event>
<event>
 5    0  0.5605075E-005  0.4675804E+03  0.7546771E-02  0.1022605E+00
         21   -1    0    0  502  501  0.00000000000E+00  0.00000000000E+00  0.23228979538E+03  0.23228979538E+03  0.00000000000E+00 0.  1.
         21   -1    0    0  501  502 -0.00000000000E+00 -0.00000000000E+00 -0.94120101254E+03  0.94120101254E+03  0.00000000000E+00 0.  1.
         25    1    1    2    0    0 -0.21484327699E+03 -0.27980337704E+03 -0.56417771664E+03  0.67702958534E+03  0.12500000000E+03 0.  0.
         25    1    1    2    0    0  0.80407233591E+02  0.24228738123E+03 -0.58475568264E+02  0.29019457335E+03  0.12500000000E+03 0.  0.
         25    1    1    2    0    0  0.13443604340E+03  0.37515995811E+02 -0.86257932256E+02  0.20626664923E+03  0.12500000000E+03 0.  0.
</event>
<event>
 5    0  0.5605075E-005  0.2846975E+03  0.7546771E-02  0.1093151E+00
         21   -1    0    0  502  501  0.00000000000E+00  0.00000000000E+00  0.18543542516E+03  0.18543542516E+03  0.00000000000E+00 0.  1.
         21   -1    0    0  501  502 -0.00000000000E+00 -0.00000000000E+00 -0.43709377625E+03  0.43709377625E+03  0.00000000000E+00 0.  1.
         25    1    1    2    0    0  0.57914034908E+02  0.92955700305E+02 -0.14437794221E+03  0.22014719588E+03  0.12500000000E+03 0.  0.
         25    1    1    2    0    0 -0.15881683509E+03 -0.10303029836E+03 -0.63577728524E+02  0.23559532476E+03  0.12500000000E+03 0.  0.
         25    1    1    2    0    0  0.10090280018E+03  0.10074598051E+02 -0.43702680351E+02  0.16678668076E+03  0.12500000000E+03 0.  0.
</event>
<event>
 5    0  0.5605075E-005  0.2765064E+03  0.7546771E-02  0.1097613E+00
         21   -1    0    0  502  501  0.00000000000E+00  0.00000000000E+00  0.38692316128E+03  0.38692316128E+03  0.00000000000E+00 0.  1.
         21   -1    0    0  501  502 -0.00000000000E+00 -0.00000000000E+00 -0.19759940931E+03  0.19759940931E+03  0.00000000000E+00 0.  1.
         25    1    1    2    0    0  0.79916862409E+02 -0.17201764339E+02  0.63010123357E+02  0.16210453800E+03  0.12500000000E+03 0.  0.
         25    1    1    2    0    0 -0.13766238149E+03  0.41440553969E+02  0.18975474099E+03  0.26888680243E+03  0.12500000000E+03 0.  0.
         25    1    1    2    0    0  0.57745519085E+02 -0.24238789630E+02 -0.63441112371E+02  0.15353123017E+03  0.12500000000E+03 0.  0.
</event>
<event>
 5    0  0.7032805E-005  0.3394851E+03  0.7546771E-02  0.1067015E+00
         21   -1    0    0  502  501  0.00000000000E+00  0.00000000000E+00  0.43373926062E+03  0.43373926062E+03  0.00000000000E+00 0. -1.
         21   -1    0    0  501  502 -0.00000000000E+00 -0.00000000000E+00 -0.26571292403E+03  0.26571292403E+03  0.00000000000E+00 0. -1.
         25    1    1    2    0    0  0.35913300971E+02 -0.16004891509E+03  0.15343018712E+03  0.25704327015E+03  0.12500000000E+03 0.  0.
         25    1    1    2    0    0  0.24597971702E+02 -0.57067914708E+02 -0.87987309116E+02  0.16501082894E+03  0.12500000000E+03 0.  0.
         25    1    1    2    0    0 -0.60511272673E+02  0.21711682980E+03  0.10258345859E+03  0.27739808557E+03  0.12500000000E+03 0.  0.
</event>
<event>
 5    0  0.5605075E-005  0.4855527E+03  0.7546771E-02  0.1017620E+00
         21   -1    0    0  502  501  0.00000000000E+00  0.00000000000E+00  0.96983659365E+03  0.96983659365E+03  0.00000000000E+00 0.  1.
         21   -1    0    0  501  502 -0.00000000000E+00 -0.00000000000E+00 -0.24309401257E+03  0.24309401257E+03  0.00000000000E+00 0.  1.
         25    1    1    2    0    0 -0.21796244592E+03  0.18683309004E+03 -0.65203701709E+02  0.31982925771E+03  0.12500000000E+03 0.  0.
         25    1    1    2    0    0  0.41375232026E+02 -0.53050599871E+02  0.41283013661E+03  0.43655469034E+03  0.12500000000E+03 0.  0.
         25    1    1    2    0    0  0.17658721390E+03 -0.13378249017E+03  0.37911614619E+03  0.45654665817E+03  0.12500000000E+03 0.  0.
</event>
<event>
 5    0  0.5605075E-005  0.2672177E+03  0.7546771E-02  0.1102883E+00
         21   -1    0    0  502  501  0.00000000000E+00  0.00000000000E+00  0.35648198878E+03  0.35648198878E+03  0.00000000000E+00 0. -1.
         21   -1    0    0  501  502 -0.00000000000E+00 -0.00000000000E+00 -0.20030555142E+03  0.20030555142E+03  0.00000000000E+00 0. -1.
         25    1    1    2    0    0  0.82030765303E+02 -0.25920530857E+02  0.50121589005E+02  0.15980642684E+03  0.12500000000E+03 0.  0.
         25    1    1    2    0    0 -0.13967263385E+03  0.14049341735E+02  0.16178592335E+03  0.24800305168E+03  0.12500000000E+03 0.  0.
         25    1    1    2    0    0  0.57641868543E+02  0.11871189122E+02 -0.55731074997E+02  0.14897806168E+03  0.12500000000E+03 0.  0.
</event>
<event>
 5    0  0.5605075E-005  0.3420542E+03  0.7546771E-02  0.1065924E+00
         21   -1    0    0  502  501  0.00000000000E+00  0.00000000000E+00  0.43221019060E+03  0.43221019060E+03  0.00000000000E+00 0.  1.
         21   -1    0    0  501  502 -0.00000000000E+00 -0.00000000000E+00 -0.27070418657E+03  0.27070418657E+03  0.00000000000E+00 0.  1.
         25    1    1    2    0    0  0.17399656374E+03  0.28964291573E+02  0.17296241113E+02  0.21688221304E+03  0.12500000000E+03 0.  0.
         25    1    1    2    0    0  0.11726651695E+02 -0.12008409429E+03 -0.44552052932E+02  0.17935325333E+03  0.12500000000E+03 0.  0.
         25    1    1    2    0    0 -0.18572321543E+03  0.91119802714E+02  0.18876181585E+03  0.30667891078E+03  0.12500000000E+03 0.  0.
</event>
<event>
 5    0  0.5605075E-005  0.2407720E+03  0.7546771E-02  0.1119280E+00
         21   -1    0    0  502  501  0.00000000000E+00  0.00000000000E+00  0.32528256771E+04  0.32528256771E+04  0.00000000000E+00 0.  1.
         21   -1    0    0  501  502 -0.00000000000E+00 -0.00000000000E+00 -0.17821782176E+02  0.17821782176E+02  0.00000000000E+00 0.  1.
         25    1    1    2    0    0  0.58236352027E+02 -0.76629847134E+02  0.20105922014E+04  0.20167720760E+04  0.12500000000E+03 0.  0.
         25    1    1    2    0    0 -0.45749144315E+02  0.38595508989E+02  0.59575911196E+03  0.61166699846E+03  0.12500000000E+03 0.  0.
         25    1    1    2    0    0 -0.12487207712E+02  0.38034338145E+02  0.62865258157E+03  0.64220838483E+03  0.12500000000E+03 0.  0.
</event>
<event>
 5    0  0.5605075E-005  0.3900966E+03  0.7546771E-02  0.1047264E+00
         21   -1    0    0  502  501  0.00000000000E+00  0.00000000000E+00  0.54992916831E+03  0.54992916831E+03  0.00000000000E+00 0. -1.
         21   -1    0    0  501  502 -0.00000000000E+00 -0.00000000000E+00 -0.27671803832E+03  0.27671803832E+03  0.00000000000E+00 0. -1.
         25    1    1    2    0    0  0.84010987943E+02 -0.51701034416E+02  0.41766301707E+03  0.44698796279E+03  0.12500000000E+03 0.  0.
         25    1    1    2    0    0 -0.13577001332E+03 -0.36416028441E+02 -0.59979247915E+02  0.19743893695E+03  0.12500000000E+03 0.  0.
         25    1    1    2    0    0  0.51759025378E+02  0.88117062857E+02 -0.84472639167E+02  0.18222030689E+03  0.12500000000E+03 0.  0.
</event>
<event>
 5    0  0.5605075E-005  0.2558767E+03  0.7546771E-02  0.1109646E+00
         21   -1    0    0  502  501  0.00000000000E+00  0.00000000000E+00  0.19977360507E+03  0.19977360507E+03  0.00000000000E+00 0.  1.
         21   -1    0    0  501  502 -0.00000000000E+00 -0.00000000000E+00 -0.32773544644E+03  0.32773544644E+03  0.00000000000E+00 0.  1.
         25    1    1    2    0    0 -0.53414780223E+02 -0.25859082190E+02 -0.38072615328E+02  0.14351430213E+03  0.12500000000E+03 0.  0.
         25    1    1    2    0    0  0.27659665185E+02 -0.62725591027E+02 -0.15935172732E+03  0.21381657992E+03  0.12500000000E+03 0.  0.
         25    1    1    2    0    0  0.25755115037E+02  0.88584673217E+02  0.69462501280E+02  0.17017816947E+03  0.12500000000E+03 0.  0.
</event>
<event>
 5    0  0.5605075E-005  0.2954213E+03  0.7546771E-02  0.1087552E+00
         21   -1    0    0  502  501  0.00000000000E+00  0.00000000000E+00  0.19199246206E+03  0.19199246206E+03  0.00000000000E+00 0.  1.
         21   -1    0    0  501  502 -0.00000000000E+00 -0.00000000000E+00 -0.45456875217E+03  0.45456875217E+03  0.00000000000E+00 0.  1.
         25    1    1    2    0    0 -0.14220820602E+03  0.19480968520E+02 -0.18019669261E+02  0.19118679472E+03  0.12500000000E+03 0.  0.
         25    1    1    2    0    0  0.15886481996E+03 -0.95534815064E+02 -0.20391002521E+03  0.30260408175E+03  0.12500000000E+03 0.  0.
         25    1    1    2    0    0 -0.16656613943E+02  0.76053846544E+02 -0.40646595641E+02  0.15277033776E+03  0.12500000000E+03 0.  0.
</event>
<event>
 5    0  0.5605075E-005  0.2631243E+03  0.7546771E-02  0.1105280E+00
         21   -1    0    0  502  501  0.00000000000E+00  0.00000000000E+00  0.10736040119E+04  0.10736040119E+04  0.00000000000E+00 0. -1.
         21   -1    0    0  501  502 -0.00000000000E+00 -0.00000000000E+00 -0.64487856793E+02  0.64487856793E+02  0.00000000000E+00 0. -1.
         25    1    1    2    0    0  0.46272036715E+02 -0.55701059415E+02  0.26753696274E+03  0.30404725921E+03  0.12500000000E+03 0.  0.
         25    1    1    2    0    0 -0.10024223957E+02  0.89466071916E+02  0.65785603276E+03  0.67565096235E+03  0.12500000000E+03 0.  0.
         25    1    1    2    0    0 -0.36247812758E+02 -0.33765012502E+02  0.83723159624E+02  0.15839364715E+03  0.12500000000E+03 0.  0.
</event>
<event>
 5    0  0.5605075E-005  0.4682569E+03  0.7546771E-02  0.1022413E+00
         21   -1    0    0  502  501  0.00000000000E+00  0.00000000000E+00  0.13637071350E+03  0.13637071350E+03  0.00000000000E+00 0.  1.
         21   -1    0    0  501  502 -0.00000000000E+00 -0.00000000000E+00 -0.16078567313E+04  0.16078567313E+04  0.00000000000E+00 0.  1.
         25    1    1    2    0    0  0.94769961973E+01  0.25309946184E+03 -0.76971643374E+03  0.81990093267E+03  0.12500000000E+03 0.  0.
         25    1    1    2    0    0 -0.72550507712E+01 -0.38572385030E+03 -0.56946557983E+03  0.69910769633E+03  0.12500000000E+03 0.  0.
         25    1    1    2    0    0 -0.22219454261E+01  0.13262438847E+03 -0.13230400428E+03  0.22521881584E+03  0.12500000000E+03 0.  0.
</event>
<event>
 5    0  0.5605075E-005  0.2622018E+03  0.7546771E-02  0.1105828E+00
         21   -1    0    0  502  501  0.00000000000E+00  0.00000000000E+00  0.25978474939E+03  0.25978474939E+03  0.00000000000E+00 0.  1.
         21   -1    0    0  501  502 -0.00000000000E+00 -0.00000000000E+00 -0.26464139989E+03  0.26464139989E+03  0.00000000000E+00 0.  1.
         25    1    1    2    0    0  0.48221789218E+02  0.49833895789E+02  0.11105005690E+03  0.18101346155E+03  0.12500000000E+03 0.  0.
         25    1    1    2    0    0  0.16770084720E+02 -0.78855623560E+02 -0.13174531386E+03  0.19869895025E+03  0.12500000000E+03 0.  0.
         25    1    1    2    0    0 -0.64991873938E+02  0.29021727771E+02  0.15838606462E+02  0.14471373748E+03  0.12500000000E+03 0.  0.
</event>
<event>
 5    0  0.5605075E-005  0.6071321E+03  0.7546771E-02  0.9890719E-01
         21   -1    0    0  502  501  0.00000000000E+00  0.00000000000E+00  0.42622693068E+03  0.42622693068E+03  0.00000000000E+00 0.  1.
         21   -1    0    0  501  502 -0.00000000000E+00 -0.00000000000E+00 -0.86481966856E+03  0.86481966856E+03  0.00000000000E+00 0.  1.
         25    1    1    2    0    0  0.11765788387E+03  0.26841005351E+03  0.17237981507E+02  0.31907598228E+03  0.12500000000E+03 0.  0.
         25    1    1    2    0    0 -0.30589650748E+02  0.26933812441E+03 -0.13603255375E+03  0.32803750955E+03  0.12500000000E+03 0.  0.
         25    1    1    2    0    0 -0.87068233126E+02 -0.53774817792E+03 -0.31979816564E+03  0.64393310741E+03  0.12500000000E+03 0.  0.
</event>
<event>
 5    0  0.5605075E-005  0.2293299E+03  0.7546771E-02  0.1127112E+00
         21   -1    0    0  502  501  0.00000000000E+00  0.00000000000E+00  0.62504531955E+03  0.62504531955E+03  0.00000000000E+00 0.  1.
         21   -1    0    0  501  502 -0.00000000000E+00 -0.00000000000E+00 -0.84141433376E+02  0.84141433376E+02  0.00000000000E+00 0.  1.
         25    1    1    2    0    0 -0.45655914722E+02  0.30080726537E+02  0.18205166045E+03  0.22750191149E+03  0.12500000000E+03 0.  0.
         25    1    1    2    0    0  0.11106119537E+03 -0.16565412519E+02  0.12976805852E+03  0.21230579601E+03  0.12500000000E+03 0.  0.
         25    1    1    2    0    0 -0.65405280649E+02 -0.13515314018E+02  0.22908416721E+03  0.26937904543E+03  0.12500000000E+03 0.  0.
</event>
<event>
 5    0  0.5605075E-005  0.2265356E+03  0.7546771E-02  0.1129102E+00
         21   -1    0    0  502  501  0.00000000000E+00  0.00000000000E+00  0.34396027561E+03  0.34396027561E+03  0.00000000000E+00 0. -1.
         21   -1    0    0  501  502 -0.00000000000E+00 -0.00000000000E+00 -0.14919857991E+03  0.14919857991E+03  0.00000000000E+00 0. -1.
         25    1    1    2    0    0  0.83148747865E+01 -0.23785865970E+02 -0.35039344997E+01  0.12756246360E+03  0.12500000000E+03 0.  0.
         25    1    1    2    0    0  0.62364230101E+02 -0.45542246429E+02  0.10809707586E+03  0.18240989889E+03  0.12500000000E+03 0.  0.
         25    1    1    2    0    0 -0.70679104887E+02  0.69328112399E+02  0.90168554342E+02  0.18318649303E+03  0.12500000000E+03 0.  0.
</event>
<event>
 5    0  0.5605075E-005  0.2936993E+03  0.7546771E-02  0.1088433E+00
         21   -1    0    0  502  501  0.00000000000E+00  0.00000000000E+00  0.14111454236E+03  0.14111454236E+03  0.00000000000E+00 0. -1.
         21   -1    0    0  501  502 -0.00000000000E+00 -0.00000000000E+00 -0.61127145971E+03  0.61127145971E+03  0.00000000000E+00 0. -1.
         25    1    1    2    0    0 -0.83651453901E+02 -0.60702391328E+02 -0.13024289882E+03  0.20801576562E+03  0.12500000000E+03 0.  0.
         25    1    1    2    0    0  0.15671816297E+03  0.15395476680E+03 -0.19348470963E+03  0.31831428759E+03  0.12500000000E+03 0.  0.
         25    1    1    2    0    0 -0.73066709073E+02 -0.93252375471E+02 -0.14642930891E+03  0.22605594886E+03  0.12500000000E+03 0.  0.
</event>
<event>
 5    0  0.5605075E-005  0.2562143E+03  0.7546771E-02  0.1109439E+00
         21   -1    0    0  502  501  0.00000000000E+00  0.00000000000E+00  0.52779447420E+03  0.52779447420E+03  0.00000000000E+00 0. -1.
         21   -1    0    0  501  502 -0.00000000000E+00 -0.00000000000E+00 -0.12437752924E+03  0.12437752924E+03  0.00000000000E+00 0. -1.
         25    1    1    2    0    0  0.64054731934E+01  0.10205663824E+03  0.61559838090E+02  0.17283287060E+03  0.12500000000E+03 0.  0.
         25    1    1    2    0    0 -0.80424316227E+01  0.44638800489E+02  0.19939192305E+03  0.23966527114E+03  0.12500000000E+03 0.  0.
         25    1    1    2    0    0  0.16369584294E+01 -0.14669543873E+03  0.14246518383E+03  0.23967386169E+03  0.12500000000E+03 0.  0.
</event>
<event>
 5    0  0.5605075E-005  0.3525103E+03  0.7546771E-02  0.1061589E+00
         21   -1    0    0  502  501  0.00000000000E+00  0.00000000000E+00  0.13537543997E+04  0.13537543997E+04  0.00000000000E+00 0. -1.
         21   -1    0    0  501  502 -0.00000000000E+00 -0.00000000000E+00 -0.91791784461E+02  0.91791784461E+02  0.00000000000E+00 0. -1.
         25    1    1    2    0    0 -0.14928286403E+03  0.31315530621E+02  0.51187255580E+03  0.54854767280E+03  0.12500000000E+03 0.  0.
         25    1    1    2    0    0 -0.92780803176E+02  0.10140266540E+03  0.23753548569E+03  0.30156074836E+03  0.12500000000E+03 0.  0.
         25    1    1    2    0    0  0.24206366721E+03 -0.13271819602E+03  0.51255457371E+03  0.59543776296E+03  0.12500000000E+03 0.  0.
</event>
<event>
 5    0  0.6060935E-005  0.3141387E+03  0.7546771E-02  0.1078379E+00
         21   -1    0    0  502  501  0.00000000000E+00  0.00000000000E+00  0.97560907082E+02  0.97560907082E+02  0.00000000000E+00 0. -1.
         21   -1    0    0  501  502 -0.00000000000E+00 -0.00000000000E+00 -0.10115024905E+04  0.10115024905E+04  0.00000000000E+00 0. -1.
         25    1    1    2    0    0 -0.42430827475E+02  0.11400938226E+03 -0.14945752235E+03  0.22969776958E+03  0.12500000000E+03 0.  0.
         25    1    1    2    0    0 -0.58564139704E+02  0.56712050187E+02 -0.51847705359E+03  0.53952708013E+03  0.12500000000E+03 0.  0.
         25    1    1    2    0    0  0.10099496718E+03 -0.17072143245E+03 -0.24600700749E+03  0.33983854789E+03  0.12500000000E+03 0.  0.
</event>
<event>
 5    0  0.5605075E-005  0.2501035E+03  0.7546771E-02  0.1113239E+00
         21   -1    0    0  502  501  0.00000000000E+00  0.00000000000E+00  0.30505951705E+04  0.30505951705E+04  0.00000000000E+00 0.  1.
         21   -1    0    0  501  502 -0.00000000000E+00 -0.00000000000E+00 -0.20504777821E+02  0.20504777821E+02  0.00000000000E+00 0.  1.
         25    1    1    2    0    0 -0.41677803657E+02 -0.39276763825E+02  0.94861395367E+03  0.95852654454E+03  0.12500000000E+03 0.  0.
         25    1    1    2    0    0 -0.91200917408E+02 -0.40453016975E+02  0.10419222180E+04  0.10541256862E+04  0.12500000000E+03 0.  0.
         25    1    1    2    0    0  0.13287872107E+03  0.79729780800E+02  0.10395542210E+04  0.10584477176E+04  0.12500000000E+03 0.  0.
</event>
<event>
 5    0  0.5605075E-005  0.3133449E+03  0.7546771E-02  0.1078754E+00
         21   -1    0    0  502  501  0.00000000000E+00  0.00000000000E+00  0.85117906743E+02  0.85117906743E+02  0.00000000000E+00 0.  1.
         21   -1    0    0  501  502 -0.00000000000E+00 -0.00000000000E+00 -0.11535175549E+04  0.11535175549E+04  0.00000000000E+00 0.  1.
         25    1    1    2    0    0 -0.23578666741E+02 -0.14192410165E+03 -0.23019200360E+03  0.29885073645E+03  0.12500000000E+03 0.  0.
         25    1    1    2    0    0  0.11210585449E+03 -0.53036071663E+02 -0.37945187996E+03  0.41831719630E+03  0.12500000000E+03 0.  0.
         25    1    1    2    0    0 -0.88527187754E+02  0.19496017331E+03 -0.45875576457E+03  0.52146752888E+03  0.12500000000E+03 0.  0.
</event>
<event>
 5    0  0.5605075E-005  0.3675515E+03  0.7546771E-02  0.1055633E+00
         21   -1    0    0  502  501  0.00000000000E+00  0.00000000000E+00  0.26894437880E+03  0.26894437880E+03  0.00000000000E+00 0.  1.
         21   -1    0    0  501  502 -0.00000000000E+00 -0.00000000000E+00 -0.50231235881E+03  0.50231235881E+03  0.00000000000E+00 0.  1.
         25    1    1    2    0    0 -0.13043462322E+02  0.10522058796E+03  0.15016439121E+03  0.22229675757E+03  0.12500000000E+03 0.  0.
         25    1    1    2    0    0  0.83397855773E+02 -0.17708286077E+03 -0.23223968871E+03  0.32844149393E+03  0.12500000000E+03 0.  0.
         25    1    1    2    0    0 -0.70354393451E+02  0.71862272813E+02 -0.15129268251E+03  0.22051848610E+03  0.12500000000E+03 0.  0.
</event>
<event>
 5    0  0.5605075E-005  0.3139826E+03  0.7546771E-02  0.1078452E+00
         21   -1    0    0  502  501  0.00000000000E+00  0.00000000000E+00  0.16627691694E+04  0.16627691694E+04  0.00000000000E+00 0.  1.
         21   -1    0    0  501  502 -0.00000000000E+00 -0.00000000000E+00 -0.59289709710E+02  0.59289709710E+02  0.00000000000E+00 0.  1.
         25    1    1    2    0    0  0.57398439845E+02 -0.56222500285E+02  0.51460370731E+03  0.53562816021E+03  0.12500000000E+03 0.  0.
         25    1    1    2    0    0  0.31627749015E+02 -0.93388782839E+02  0.13489301575E+03  0.20866936758E+03  0.12500000000E+03 0.  0.
         25    1    1    2    0    0 -0.89026188860E+02  0.14961128312E+03  0.95398273664E+03  0.97776135133E+03  0.12500000000E+03 0.  0.
</event>
<event>
 5    0  0.5605075E-005  0.2964855E+03  0.7546771E-02  0.1087011E+00
         21   -1    0    0  502  501  0.00000000000E+00  0.00000000000E+00  0.82518611881E+02  0.82518611881E+02  0.00000000000E+00 0.  1.
         21   -1    0    0  501  502 -0.00000000000E+00 -0.00000000000E+00 -0.10652585602E+04  0.10652585602E+04  0.00000000000E+00 0. -1.
         25    1    1    2    0    0 -0.12396088239E+02  0.17868327925E+03 -0.31575321974E+03  0.38393550638E+03  0.12500000000E+03 0.  0.
         25    1    1    2    0    0  0.10805649411E+03 -0.11516723829E+03 -0.39133693395E+03  0.44012418085E+03  0.12500000000E+03 0.  0.
         25    1    1    2    0    0 -0.95660405875E+02 -0.63516040959E+02 -0.27564979458E+03  0.32371748480E+03  0.12500000000E+03 0.  0.
</event>
<event>
 5    0  0.5605075E-005  0.3912296E+03  0.7546771E-02  0.1046860E+00
         21   -1    0    0  502  501  0.00000000000E+00  0.00000000000E+00  0.19286885914E+03  0.19286885914E+03  0.00000000000E+00 0. -1.
         21   -1    0    0  501  502 -0.00000000000E+00 -0.00000000000E+00 -0.79359920691E+03  0.79359920691E+03  0.00000000000E+00 0.  1.
         25    1    1    2    0    0 -0.19218950438E+02  0.77275584970E+02 -0.24859029067E+03  0.28941841113E+03  0.12500000000E+03 0.  0.
         25    1    1    2    0    0  0.23821663977E+03 -0.65272241702E+02 -0.16835319498E+02  0.27733744965E+03  0.12500000000E+03 0.  0.
         25    1    1    2    0    0 -0.21899768933E+03 -0.12003343268E+02 -0.33530473761E+03  0.41971220526E+03  0.12500000000E+03 0.  0.
</event>
<event>
 5    0  0.5605075E-005  0.3589954E+03  0.7546771E-02  0.1058982E+00
         21   -1    0    0  502  501  0.00000000000E+00  0.00000000000E+00  0.10891158767E+03  0.10891158767E+03  0.00000000000E+00 0.  1.
         21   -1    0    0  501  502 -0.00000000000E+00 -0.00000000000E+00 -0.11833242312E+04  0.11833242312E+04  0.00000000000E+00 0.  1.
         25    1    1    2    0    0 -0.12465279846E+03  0.10858416219E+03 -0.41368118460E+03  0.46269424347E+03  0.12500000000E+03 0.  0.
         25    1    1    2    0    0 -0.12352586307E+03 -0.10899466966E+03 -0.17944837549E+03  0.27379772885E+03  0.12500000000E+03 0.  0.
         25    1    1    2    0    0  0.24817866153E+03  0.41050746479E+00 -0.48128308340E+03  0.55574384650E+03  0.12500000000E+03 0.  0.
</event>
<event>
 5    0  0.5605075E-005  0.3258642E+03  0.7546771E-02  0.1072982E+00
         21   -1    0    0  502  501  0.00000000000E+00  0.00000000000E+00  0.23773141976E+04  0.23773141976E+04  0.00000000000E+00 0. -1.
         21   -1    0    0  501  502 -0.00000000000E+00 -0.00000000000E+00 -0.44666986707E+02  0.44666986707E+02  0.00000000000E+00 0. -1.
         25    1    1    2    0    0 -0.13395253355E+03 -0.11967495476E+03  0.93942186385E+03  0.96457442135E+03  0.12500000000E+03 0.  0.
         25    1    1    2    0    0  0.14680448252E+03  0.18570695985E+03  0.69237547388E+03  0.74232568853E+03  0.12500000000E+03 0.  0.
         25    1    1    2    0    0 -0.12851948967E+02 -0.66032005089E+02  0.70084987320E+03  0.71508107446E+03  0.12500000000E+03 0.  0.
</event>
<event>
 5    0  0.5605075E-005  0.3317801E+03  0.7546771E-02  0.1070352E+00
         21   -1    0    0  502  501  0.00000000000E+00  0.00000000000E+00  0.11704244341E+03  0.11704244341E+03  0.00000000000E+00 0.  1.
         21   -1    0    0  501  502 -0.00000000000E+00 -0.00000000000E+00 -0.94049671832E+03  0.94049671832E+03  0.00000000000E+00 0.  1.
         25    1    1    2    0    0 -0.10843440803E+03 -0.88476143333E+02 -0.14307456448E+03  0.23596902293E+03  0.12500000000E+03 0.  0.
         25    1    1    2    0    0  0.22789965070E+03 -0.67386356266E+01 -0.43324145148E+03  0.50527894799E+03  0.12500000000E+03 0.  0.
         25    1    1    2    0    0 -0.11946524267E+03  0.95214778959E+02 -0.24713825895E+03  0.31629119080E+03  0.12500000000E+03 0.  0.
</event>
<event>
 5    0  0.5605075E-005  0.4365562E+03  0.7546771E-02  0.1031809E+00
         21   -1    0    0  502  501  0.00000000000E+00  0.00000000000E+00  0.38536583133E+03  0.38536583133E+03  0.00000000000E+00 0. -1.
         21   -1    0    0  501  502 -0.00000000000E+00 -0.00000000000E+00 -0.49454643739E+03  0.49454643739E+03  0.00000000000E+00 0. -1.
         25    1    1    2    0    0  0.38976159421E+02  0.26097441914E+03  0.20152074949E+03  0.35477091330E+03  0.12500000000E+03 0.  0.
         25    1    1    2    0    0  0.22393270655E+02 -0.18337450124E+03 -0.65134965875E+02  0.23236873726E+03  0.12500000000E+03 0.  0.
         25    1    1    2    0    0 -0.61369430076E+02 -0.77599917900E+02 -0.24556638967E+03  0.29277261816E+03  0.12500000000E+03 0.  0.
</event>
<event>
 5    0  0.5605075E-005  0.2431098E+03  0.7546771E-02  0.1117738E+00
         21   -1    0    0  502  501  0.00000000000E+00  0.00000000000E+00  0.63079034496E+02  0.63079034496E+02  0.00000000000E+00 0.  1.
         21   -1    0    0  501  502 -0.00000000000E+00 -0.00000000000E+00 -0.93695776281E+03  0.93695776281E+03  0.00000000000E+00 0.  1.
         25    1    1    2    0    0 -0.76532203771E+02  0.46512757852E+02 -0.25474411245E+03  0.29755701585E+03  0.12500000000E+03 0.  0.
         25    1    1    2    0    0  0.36748551413E+02  0.43774939142E+02 -0.13432017259E+03  0.19218119078E+03  0.12500000000E+03 0.  0.
         25    1    1    2    0    0  0.39783652358E+02 -0.90287696994E+02 -0.48481444329E+03  0.51029859067E+03  0.12500000000E+03 0.  0.
</event>
<event>
 5    0  0.5605075E-005  0.4999262E+03  0.7546771E-02  0.1013798E+00
         21   -1    0    0  502  501  0.00000000000E+00  0.00000000000E+00  0.18665833339E+03  0.18665833339E+03  0.00000000000E+00 0.  1.
         21   -1    0    0  501  502 -0.00000000000E+00 -0.00000000000E+00 -0.13389500277E+04  0.13389500277E+04  0.00000000000E+00 0.  1.
         25    1    1    2    0    0  0.31567655665E+03  0.50139769183E+02 -0.77399981189E+03  0.84667962872E+03  0.12500000000E+03 0.  0.
         25    1    1    2    0    0 -0.63882252486E+02 -0.87603075512E+02  0.43100875056E+02  0.17099101278E+03  0.12500000000E+03 0.  0.
         25    1    1    2    0    0 -0.25179430416E+03  0.37463306329E+02 -0.42139275742E+03  0.50793771955E+03  0.12500000000E+03 0.  0.
</event>
<event>
 5    0  0.5605075E-005  0.2244520E+03  0.7546771E-02  0.1130607E+00
         21   -1    0    0  502  501  0.00000000000E+00  0.00000000000E+00  0.59424520349E+03  0.59424520349E+03  0.00000000000E+00 0. -1.
         21   -1    0    0  501  502 -0.00000000000E+00 -0.00000000000E+00 -0.84777623936E+02  0.84777623936E+02  0.00000000000E+00 0. -1.
         25    1    1    2    0    0  0.35546701005E+02  0.51434772668E+02  0.11034094720E+03  0.17807085225E+03  0.12500000000E+03 0.  0.
         25    1    1    2    0    0  0.61433507850E+02 -0.19999714975E+02  0.16870454472E+03  0.21968224301E+03  0.12500000000E+03 0.  0.
         25    1    1    2    0    0 -0.96980208855E+02 -0.31435057693E+02  0.23042208764E+03  0.28126973217E+03  0.12500000000E+03 0.  0.
</event>
<event>
 5    0  0.5605075E-005  0.2546335E+03  0.7546771E-02  0.1110411E+00
         21   -1    0    0  502  501  0.00000000000E+00  0.00000000000E+00  0.89332503810E+02  0.89332503810E+02  0.00000000000E+00 0.  1.
         21   -1    0    0  501  502 -0.00000000000E+00 -0.00000000000E+00 -0.72580742328E+03  0.72580742328E+03  0.00000000000E+00 0.  1.
         25    1    1    2    0    0  0.89741942086E+00 -0.22149309771E+01 -0.35892176512E+03  0.38007307818E+03  0.12500000000E+03 0.  0.
         25    1    1    2    0    0 -0.10969572579E+03 -0.11305233899E+02 -0.16312281689E+03  0.23322738682E+03  0.12500000000E+03 0.  0.
         25    1    1    2    0    0  0.10879830637E+03  0.13520164876E+02 -0.11443033746E+03  0.20183946209E+03  0.12500000000E+03 0.  0.
</event>
<event>
 5    0  0.5605075E-005  0.3050395E+03  0.7546771E-02  0.1082748E+00
         21   -1    0    0  502  501  0.00000000000E+00  0.00000000000E+00  0.32350297423E+03  0.32350297423E+03  0.00000000000E+00 0. -1.
         21   -1    0    0  501  502 -0.00000000000E+00 -0.00000000000E+00 -0.28762978723E+03  0.28762978723E+03  0.00000000000E+00 0. -1.
         25    1    1    2    0    0  0.17032260634E+03  0.31442104919E+02  0.61430155530E+02  0.22225449422E+03  0.12500000000E+03 0.  0.
         25    1    1    2    0    0  0.46144747690E+02  0.59738264109E+01 -0.27187801596E+02  0.13612200739E+03  0.12500000000E+03 0.  0.
         25    1    1    2    0    0 -0.21646735403E+03 -0.37415931330E+02  0.16308330648E+01  0.25275625985E+03  0.12500000000E+03 0.  0.
</event>
<event>
 5    0  0.5697284E-005  0.3968127E+03  0.7546771E-02  0.1044889E+00
         21   -1    0    0  502  501  0.00000000000E+00  0.00000000000E+00  0.56914180555E+03  0.56914180555E+03  0.00000000000E+00 0.  1.
         21   -1    0    0  501  502 -0.00000000000E+00 -0.00000000000E+00 -0.27666270605E+03  0.27666270605E+03  0.00000000000E+00 0.  1.
         25    1    1    2    0    0  0.13491569875E+03 -0.17259341454E+03 -0.63851485016E+02  0.26017829397E+03  0.12500000000E+03 0.  0.
         25    1    1    2    0    0 -0.26450497704E+02  0.54685089974E+02  0.35627414818E+03  0.38242169990E+03  0.12500000000E+03 0.  0.
         25    1    1    2    0    0 -0.10846520105E+03  0.11790832457E+03  0.56436332322E-01  0.20320451773E+03  0.12500000000E+03 0.  0.
</event>
<event>
 5    0  0.5605075E-005  0.2517210E+03  0.7546771E-02  0.1112222E+00
         21   -1    0    0  502  501  0.00000000000E+00  0.00000000000E+00  0.31985987064E+03  0.31985987064E+03  0.00000000000E+00 0.  1.
         21   -1    0    0  501  502 -0.00000000000E+00 -0.00000000000E+00 -0.19809756283E+03  0.19809756283E+03  0.00000000000E+00 0.  1.
         25    1    1    2    0    0 -0.45344566898E+02 -0.24442401015E+02  0.11503321628E+03  0.17751394752E+03  0.12500000000E+03 0.  0.
         25    1    1    2    0    0  0.33799472457E+02  0.95637091320E+02  0.78690403668E+02  0.17918157607E+03  0.12500000000E+03 0.  0.
         25    1    1    2    0    0  0.11545094441E+02 -0.71194690305E+02 -0.71961312134E+02  0.16126190988E+03  0.12500000000E+03 0.  0.
</event>
<event>
 5    0  0.5605075E-005  0.3264398E+03  0.7546771E-02  0.1072723E+00
         21   -1    0    0  502  501  0.00000000000E+00  0.00000000000E+00  0.29831304484E+04  0.29831304484E+04  0.00000000000E+00 0. -1.
         21   -1    0    0  501  502 -0.00000000000E+00 -0.00000000000E+00 -0.35721850809E+02  0.35721850809E+02  0.00000000000E+00 0. -1.
         25    1    1    2    0    0  0.78858873930E+02 -0.17392388313E+03  0.16224843160E+04  0.16384592137E+04  0.12500000000E+03 0.  0.
         25    1    1    2    0    0  0.74637932409E+02  0.85065932711E+02  0.64560643703E+03  0.66726284581E+03  0.12500000000E+03 0.  0.
         25    1    1    2    0    0 -0.15349680634E+03  0.88857950422E+02  0.67931784457E+03  0.71313023976E+03  0.12500000000E+03 0.  0.
</event>
<event>
 5    0  0.5605075E-005  0.3780638E+03  0.7546771E-02  0.1051652E+00
         21   -1    0    0  502  501  0.00000000000E+00  0.00000000000E+00  0.74423936185E+03  0.74423936185E+03  0.00000000000E+00 0.  1.
         21   -1    0    0  501  502 -0.00000000000E+00 -0.00000000000E+00 -0.19205141910E+03  0.19205141910E+03  0.00000000000E+00 0.  1.
         25    1    1    2    0    0 -0.10039941174E+03 -0.20375530896E+03 -0.17007391614E+02  0.25982786451E+03  0.12500000000E+03 0.  0.
         25    1    1    2    0    0  0.65190307159E+02  0.18647813226E+03  0.34352354405E+03  0.41552051126E+03  0.12500000000E+03 0.  0.
         25    1    1    2    0    0  0.35209104579E+02  0.17277176699E+02  0.22567179031E+03  0.26094240519E+03  0.12500000000E+03 0.  0.
</event>
<event>
 5    0  0.5605075E-005  0.3480327E+03  0.7546771E-02  0.1063425E+00
         21   -1    0    0  502  501  0.00000000000E+00  0.00000000000E+00  0.33017896571E+03  0.33017896571E+03  0.00000000000E+00 0.  1.
         21   -1    0    0  501  502 -0.00000000000E+00 -0.00000000000E+00 -0.36685186488E+03  0.36685186488E+03  0.00000000000E+00 0.  1.
         25    1    1    2    0    0 -0.22598033263E+03 -0.37500301569E+02  0.68070933181E+02  0.26968877488E+03  0.12500000000E+03 0.  0.
         25    1    1    2    0    0  0.47054342970E+02 -0.97544608222E+01  0.63039873760E+02  0.14801448031E+03  0.12500000000E+03 0.  0.
         25    1    1    2    0    0  0.17892598966E+03  0.47254762391E+02 -0.16778370611E+03  0.27932757540E+03  0.12500000000E+03 0.  0.
</event>
<event>
 5    0  0.5605075E-005  0.3237146E+03  0.7546771E-02  0.1073952E+00
         21   -1    0    0  502  501  0.00000000000E+00  0.00000000000E+00  0.40700487370E+03  0.40700487370E+03  0.00000000000E+00 0.  1.
         21   -1    0    0  501  502 -0.00000000000E+00 -0.00000000000E+00 -0.25746909003E+03  0.25746909003E+03  0.00000000000E+00 0.  1.
         25    1    1    2    0    0  0.13280209502E+03  0.11458987211E+03  0.10605429738E+03  0.24008279660E+03  0.12500000000E+03 0.  0.
         25    1    1    2    0    0  0.33298437932E+02  0.60641645832E+02  0.52894485205E+02  0.15234507456E+03  0.12500000000E+03 0.  0.
         25    1    1    2    0    0 -0.16610053295E+03 -0.17523151794E+03 -0.94129989199E+01  0.27204609256E+03  0.12500000000E+03 0.  0.
</event>
<event>
 5    0  0.5605075E-005  0.2505441E+03  0.7546771E-02  0.1112961E+00
         21   -1    0    0  502  501  0.00000000000E+00  0.00000000000E+00  0.16660150888E+03  0.16660150888E+03  0.00000000000E+00 0.  1.
         21   -1    0    0  501  502 -0.00000000000E+00 -0.00000000000E+00 -0.37678145369E+03  0.37678145369E+03  0.00000000000E+00 0.  1.
         25    1    1    2    0    0  0.80193964316E+02  0.12831235564E+01  0.43495518093E+02  0.15475651331E+03  0.12500000000E+03 0.  0.
         25    1    1    2    0    0 -0.58775806515E+02 -0.57706278928E+02 -0.92729438435E+02  0.17609190445E+03  0.12500000000E+03 0.  0.
         25    1    1    2    0    0 -0.21418157800E+02  0.56423155372E+02 -0.16094602447E+03  0.21253454481E+03  0.12500000000E+03 0.  0.
</event>
<event>
 5    0  0.5605075E-005  0.2340257E+03  0.7546771E-02  0.1123838E+00
         21   -1    0    0  502  501  0.00000000000E+00  0.00000000000E+00  0.76861351383E+02  0.76861351383E+02  0.00000000000E+00 0.  1.
         21   -1    0    0  501  502 -0.00000000000E+00 -0.00000000000E+00 -0.71255610353E+03  0.71255610353E+03  0.00000000000E+00 0.  1.
         25    1    1    2    0    0  0.80446299730E+02 -0.65381301717E+02 -0.13522777833E+03  0.21132409656E+03  0.12500000000E+03 0.  0.
         25    1    1    2    0    0  0.38182474011E+01  0.75112150170E+01 -0.18091032165E+03  0.22005576985E+03  0.12500000000E+03 0.  0.
         25    1    1    2    0    0 -0.84264547131E+02  0.57870086700E+02 -0.31955665216E+03  0.35803758850E+03  0.12500000000E+03 0.  0.
</event>
<event>
 5    0  0.5605075E-005  0.2851162E+03  0.7546771E-02  0.1092927E+00
         21   -1    0    0  502  501  0.00000000000E+00  0.00000000000E+00  0.18659220032E+04  0.18659220032E+04  0.00000000000E+00 0.  1.
         21   -1    0    0  501  502 -0.00000000000E+00 -0.00000000000E+00 -0.43566266661E+02  0.43566266661E+02  0.00000000000E+00 0.  1.
         25    1    1    2    0    0 -0.18650308894E+03 -0.17217437894E+02  0.99671837232E+03  0.10218377347E+04  0.12500000000E+03 0.  0.
         25    1    1    2    0    0  0.63083927416E+02  0.45118674235E+02  0.40828451372E+03  0.43397755795E+03  0.12500000000E+03 0.  0.
         25    1    1    2    0    0  0.12341916153E+03 -0.27901236340E+02  0.41735285048E+03  0.45367297718E+03  0.12500000000E+03 0.  0.
</event>
<event>
 5    0  0.5861053E-005  0.3067058E+03  0.7546771E-02  0.1081936E+00
         21   -1    0    0  502  501  0.00000000000E+00  0.00000000000E+00  0.67346423176E+03  0.67346423176E+03  0.00000000000E+00 0.  1.
         21   -1    0    0  501  502 -0.00000000000E+00 -0.00000000000E+00 -0.13967842454E+03  0.13967842454E+03  0.00000000000E+00 0.  1.
         25    1    1    2    0    0  0.54037940322E+02 -0.94870967344E+02  0.55441671008E+02  0.17498393733E+03  0.12500000000E+03 0.  0.
         25    1    1    2    0    0 -0.86025049529E+02 -0.50181942152E+02  0.49328417167E+02  0.16726275498E+03  0.12500000000E+03 0.  0.
         25    1    1    2    0    0  0.31987109207E+02  0.14505290950E+03  0.42901571905E+03  0.47089596399E+03  0.12500000000E+03 0.  0.
</event>
<event>
 5    0  0.5605075E-005  0.3838088E+03  0.7546771E-02  0.1049535E+00
         21   -1    0    0  502  501  0.00000000000E+00  0.00000000000E+00  0.22987208617E+03  0.22987208617E+03  0.00000000000E+00 0.  1.
         21   -1    0    0  501  502 -0.00000000000E+00 -0.00000000000E+00 -0.64083101711E+03  0.64083101711E+03  0.00000000000E+00 0.  1.
         25    1    1    2    0    0 -0.57294032320E+02  0.16845112220E+02 -0.37737376062E+03  0.40199790939E+03  0.12500000000E+03 0.  0.
         25    1    1    2    0    0  0.54397405352E+02 -0.18036022941E+03 -0.10704987104E+03  0.25014708663E+03  0.12500000000E+03 0.  0.
         25    1    1    2    0    0  0.28966269685E+01  0.16351511719E+03  0.73464700722E+02  0.21855810726E+03  0.12500000000E+03 0.  0.
</event>
<event>
 5    0  0.5605075E-005  0.2639731E+03  0.7546771E-02  0.1104779E+00
         21   -1    0    0  502  501  0.00000000000E+00  0.00000000000E+00  0.46876744132E+02  0.46876744132E+02  0.00000000000E+00 0. -1.
         21   -1    0    0  501  502 -0.00000000000E+00 -0.00000000000E+00 -0.14864898704E+04  0.14864898704E+04  0.00000000000E+00 0. -1.
         25    1    1    2    0    0  0.68099281591E+02 -0.29676863391E+02 -0.56570280817E+03  0.58409151299E+03  0.12500000000E+03 0.  0.
         25    1    1    2    0    0 -0.60556360892E+02  0.29070850016E+02 -0.12239431215E+03  0.18739678442E+03  0.12500000000E+03 0.  0.
         25    1    1    2    0    0 -0.75429206989E+01  0.60601337457E+00 -0.75151600592E+03  0.76187831709E+03  0.12500000000E+03 0.  0.
</event>
<event>
 5    0  0.5605075E-005  0.3041478E+03  0.7546771E-02  0.1083185E+00
         21   -1    0    0  502  501  0.00000000000E+00  0.00000000000E+00  0.41496620568E+03  0.41496620568E+03  0.00000000000E+00 0. -1.
         21   -1    0    0  501  502 -0.00000000000E+00 -0.00000000000E+00 -0.22292384665E+03  0.22292384665E+03  0.00000000000E+00 0. -1.
         25    1    1    2    0    0 -0.47015529939E+02  0.64095678917E+02  0.29486682883E+02  0.15104032766E+03  0.12500000000E+03 0.  0.
         25    1    1    2    0    0  0.23091108036E+02 -0.21036262322E+03  0.20787763521E+02  0.24666325959E+03  0.12500000000E+03 0.  0.
         25    1    1    2    0    0  0.23924421903E+02  0.14626694431E+03  0.14176791262E+03  0.24018646509E+03  0.12500000000E+03 0.  0.
</event>
<event>
 5    0  0.5605075E-005  0.2357611E+03  0.7546771E-02  0.1122649E+00
         21   -1    0    0  502  501  0.00000000000E+00  0.00000000000E+00  0.51311033087E+02  0.51311033087E+02  0.00000000000E+00 0.  1.
         21   -1    0    0  501  502 -0.00000000000E+00 -0.00000000000E+00 -0.10832617529E+04  0.10832617529E+04  0.00000000000E+00 0.  1.
         25    1    1    2    0    0 -0.43445378588E+02 -0.13962885823E+02 -0.42506207677E+03  0.44540457138E+03  0.12500000000E+03 0.  0.
         25    1    1    2    0    0  0.10399240867E+01  0.31856680069E+02 -0.50568429889E+03  0.52187885534E+03  0.12500000000E+03 0.  0.
         25    1    1    2    0    0  0.42405454501E+02 -0.17893794246E+02 -0.10120434413E+03  0.16728935924E+03  0.12500000000E+03 0.  0.
</event>
<event>
 5    0  0.5605075E-005  0.4025731E+03  0.7546771E-02  0.1042892E+00
         21   -1    0    0  502  501  0.00000000000E+00  0.00000000000E+00  0.23489210459E+04  0.23489210459E+04  0.00000000000E+00 0. -1.
         21   -1    0    0  501  502 -0.00000000000E+00 -0.00000000000E+00 -0.68995535593E+02  0.68995535593E+02  0.00000000000E+00 0. -1.
         25    1    1    2    0    0  0.37835943005E+01 -0.17711744999E+03  0.45844593308E+03  0.50713171882E+03  0.12500000000E+03 0.  0.
         25    1    1    2    0    0  0.54113468760E+02  0.30110329208E+03  0.69995967773E+03  0.77405426841E+03  0.12500000000E+03 0.  0.
         25    1    1    2    0    0 -0.57897063060E+02 -0.12398584209E+03  0.11215198995E+04  0.11367305943E+04  0.12500000000E+03 0.  0.
</event>
<event>
 5    0  0.5605075E-005  0.6019052E+03  0.7546771E-02  0.9901461E-01
         21   -1    0    0  502  501  0.00000000000E+00  0.00000000000E+00  0.11110927064E+04  0.11110927064E+04  0.00000000000E+00 0. -1.
         21   -1    0    0  501  502 -0.00000000000E+00 -0.00000000000E+00 -0.32606627052E+03  0.32606627052E+03  0.00000000000E+00 0. -1.
         25    1    1    2    0    0  0.74255337353E+02 -0.42676050887E+03  0.30292594879E+03  0.54316435588E+03  0.12500000000E+03 0.  0.
         25    1    1    2    0    0 -0.25106875053E+03  0.42426611736E+03  0.22033187332E+03  0.55426382728E+03  0.12500000000E+03 0.  0.
         25    1    1    2    0    0  0.17681341317E+03  0.24943915071E+01  0.26176861374E+03  0.33973079373E+03  0.12500000000E+03 0.  0.
</event>
<event>
 5    0  0.5605075E-005  0.2241449E+03  0.7546771E-02  0.1130830E+00
         21   -1    0    0  502  501  0.00000000000E+00  0.00000000000E+00  0.66138452830E+03  0.66138452830E+03  0.00000000000E+00 0.  1.
         21   -1    0    0  501  502 -0.00000000000E+00 -0.00000000000E+00 -0.75963251079E+02  0.75963251079E+02  0.00000000000E+00 0.  1.
         25    1    1    2    0    0  0.57114868725E+02 -0.44720906580E+02  0.15120447279E+03  0.20916467270E+03  0.12500000000E+03 0.  0.
         25    1    1    2    0    0 -0.28128749482E+02  0.76880155986E+02  0.32096442596E+03  0.35404088417E+03  0.12500000000E+03 0.  0.
         25    1    1    2    0    0 -0.28986119243E+02 -0.32159249406E+02  0.11325237848E+03  0.17414222251E+03  0.12500000000E+03 0.  0.
</event>
<event>
 5    0  0.5605075E-005  0.4370542E+03  0.7546771E-02  0.1031655E+00
         21   -1    0    0  502  501  0.00000000000E+00  0.00000000000E+00  0.98560160253E+02  0.98560160253E+02  0.00000000000E+00 0.  1.
         21   -1    0    0  501  502 -0.00000000000E+00 -0.00000000000E+00 -0.19380684432E+04  0.19380684432E+04  0.00000000000E+00 0.  1.
         25    1    1    2    0    0 -0.11029235933E+03 -0.52923000657E+02 -0.11960042230E+04  0.12087250928E+04  0.12500000000E+03 0.  0.
         25    1    1    2    0    0  0.21173909378E+03 -0.36042995387E+02 -0.12588525914E+03  0.27857609341E+03  0.12500000000E+03 0.  0.
         25    1    1    2    0    0 -0.10144673445E+03  0.88965996044E+02 -0.51761880085E+03  0.54932741728E+03  0.12500000000E+03 0.  0.
</event>
<event>
 5    0  0.5605075E-005  0.4577410E+03  0.7546771E-02  0.1025438E+00
         21   -1    0    0  502  501  0.00000000000E+00  0.00000000000E+00  0.27393922882E+03  0.27393922882E+03  0.00000000000E+00 0.  1.
         21   -1    0    0  501  502 -0.00000000000E+00 -0.00000000000E+00 -0.76486594477E+03  0.76486594477E+03  0.00000000000E+00 0.  1.
         25    1    1    2    0    0  0.76731986678E+02  0.64229830980E+02 -0.62653126105E+02  0.17194092933E+03  0.12500000000E+03 0.  0.
         25    1    1    2    0    0 -0.22397158739E+03 -0.26520788810E+03 -0.16117749905E+02  0.36930106651E+03  0.12500000000E+03 0.  0.
         25    1    1    2    0    0  0.14723960071E+03  0.20097805712E+03 -0.41215583993E+03  0.49756317775E+03  0.12500000000E+03 0.  0.
</event>
<event>
 5    0  0.5605075E-005  0.3812596E+03  0.7546771E-02  0.1050469E+00
         21   -1    0    0  502  501  0.00000000000E+00  0.00000000000E+00  0.15357930677E+04  0.15357930677E+04  0.00000000000E+00 0.  1.
         21   -1    0    0  501  502 -0.00000000000E+00 -0.00000000000E+00 -0.94647431723E+02  0.94647431723E+02  0.00000000000E+00 0.  1.
         25    1    1    2    0    0  0.13669689120E+03  0.27325414547E+03  0.57400826636E+03  0.66216641257E+03  0.12500000000E+03 0.  0.
         25    1    1    2    0    0  0.11204057221E+02 -0.56256293919E+02  0.32858011739E+03  0.35620246356E+03  0.12500000000E+03 0.  0.
         25    1    1    2    0    0 -0.14790094842E+03 -0.21699785155E+03  0.53855725227E+03  0.61207162334E+03  0.12500000000E+03 0.  0.
</event>
<event>
 5    0  0.5605075E-005  0.3186048E+03  0.7546771E-02  0.1076293E+00
         21   -1    0    0  502  501  0.00000000000E+00  0.00000000000E+00  0.32066939087E+03  0.32066939087E+03  0.00000000000E+00 0.  1.
         21   -1    0    0  501  502 -0.00000000000E+00 -0.00000000000E+00 -0.31655341499E+03  0.31655341499E+03  0.00000000000E+00 0.  1.
         25    1    1    2    0    0  0.16483154458E+03 -0.12728181358E+03  0.64384337184E+01  0.24297438463E+03  0.12500000000E+03 0.  0.
         25    1    1    2    0    0 -0.36931013637E+02 -0.34665956499E+02  0.55990473263E+02  0.14603274086E+03  0.12500000000E+03 0.  0.
         25    1    1    2    0    0 -0.12790053095E+03  0.16194777007E+03 -0.58312931098E+02  0.24821568037E+03  0.12500000000E+03 0.  0.
</event>
<event>
 5    0  0.5605075E-005  0.3107796E+03  0.7546771E-02  0.1079973E+00
         21   -1    0    0  502  501  0.00000000000E+00  0.00000000000E+00  0.70110680190E+03  0.70110680190E+03  0.00000000000E+00 0. -1.
         21   -1    0    0  501  502 -0.00000000000E+00 -0.00000000000E+00 -0.13775922380E+03  0.13775922380E+03  0.00000000000E+00 0. -1.
         25    1    1    2    0    0  0.15261096563E+03  0.16552086662E+03  0.35675721504E+03  0.43998633456E+03  0.12500000000E+03 0.  0.
         25    1    1    2    0    0 -0.66874032850E+02 -0.96869627407E+02  0.78012760651E+02  0.18859175965E+03  0.12500000000E+03 0.  0.
         25    1    1    2    0    0 -0.85736932779E+02 -0.68651239210E+02  0.12857760241E+03  0.21028793149E+03  0.12500000000E+03 0.  0.
</event>
<event>
 5    0  0.5605075E-005  0.5166776E+03  0.7546771E-02  0.1009515E+00
         21   -1    0    0  502  501  0.00000000000E+00  0.00000000000E+00  0.41537320149E+03  0.41537320149E+03  0.00000000000E+00 0.  1.
         21   -1    0    0  501  502 -0.00000000000E+00 -0.00000000000E+00 -0.64268885291E+03  0.64268885291E+03  0.00000000000E+00 0.  1.
         25    1    1    2    0    0 -0.69736512417E+02  0.23975242065E+03 -0.83575604568E+01  0.27935506652E+03  0.12500000000E+03 0.  0.
         25    1    1    2    0    0 -0.15627585447E+03 -0.39644763994E+03 -0.15103029460E+03  0.46907144849E+03  0.12500000000E+03 0.  0.
         25    1    1    2    0    0  0.22601236688E+03  0.15669521929E+03 -0.67927796361E+02  0.30963553939E+03  0.12500000000E+03 0.  0.
</event>
<event>
 5    0  0.5605075E-005  0.2506401E+03  0.7546771E-02  0.1112901E+00
         21   -1    0    0  502  501  0.00000000000E+00  0.00000000000E+00  0.92096840492E+03  0.92096840492E+03  0.00000000000E+00 0. -1.
         21   -1    0    0  501  502 -0.00000000000E+00 -0.00000000000E+00 -0.68211302186E+02  0.68211302186E+02  0.00000000000E+00 0. -1.
         25    1    1    2    0    0  0.10986850429E+03  0.10711344553E+03  0.36563105031E+03  0.41575887651E+03  0.12500000000E+03 0.  0.
         25    1    1    2    0    0 -0.80147284361E+02 -0.35003894116E+02  0.21002907086E+03  0.25958827092E+03  0.12500000000E+03 0.  0.
         25    1    1    2    0    0 -0.29721219924E+02 -0.72109551415E+02  0.27709698156E+03  0.31383255967E+03  0.12500000000E+03 0.  0.
</event>
<event>
 5    0  0.5605075E-005  0.2723983E+03  0.7546771E-02  0.1099915E+00
         21   -1    0    0  502  501  0.00000000000E+00  0.00000000000E+00  0.19453278879E+03  0.19453278879E+03  0.00000000000E+00 0. -1.
         21   -1    0    0  501  502 -0.00000000000E+00 -0.00000000000E+00 -0.38143101236E+03  0.38143101236E+03  0.00000000000E+00 0. -1.
         25    1    1    2    0    0  0.84917993504E+02 -0.48579067741E+02 -0.84148172711E+02  0.17965774799E+03  0.12500000000E+03 0.  0.
         25    1    1    2    0    0 -0.12145718936E+02 -0.10323710186E+03 -0.90952211865E+02  0.18628666762E+03  0.12500000000E+03 0.  0.
         25    1    1    2    0    0 -0.72772274569E+02  0.15181616960E+03 -0.11797838990E+02  0.21001938554E+03  0.12500000000E+03 0.  0.
</event>
<event>
 5    0  0.5605075E-005  0.3712426E+03  0.7546771E-02  0.1054219E+00
         21   -1    0    0  502  501  0.00000000000E+00  0.00000000000E+00  0.35664649352E+04  0.35664649352E+04  0.00000000000E+00 0.  1.
         21   -1    0    0  501  502 -0.00000000000E+00 -0.00000000000E+00 -0.38643602830E+02  0.38643602830E+02  0.00000000000E+00 0.  1.
         25    1    1    2    0    0 -0.12028551097E+03  0.56375281115E+02  0.58112789260E+03  0.60908242794E+03  0.12500000000E+03 0.  0.
         25    1    1    2    0    0 -0.17188024617E+03 -0.31817546077E+02  0.94582221465E+03  0.96992774833E+03  0.12500000000E+03 0.  0.
         25    1    1    2    0    0  0.29216575714E+03 -0.24557735039E+02  0.20008712251E+04  0.20260983617E+04  0.12500000000E+03 0.  0.
</event>
<event>
 5    0  0.5605075E-005  0.4164433E+03  0.7546771E-02  0.1038230E+00
         21   -1    0    0  502  501  0.00000000000E+00  0.00000000000E+00  0.11473717614E+04  0.11473717614E+04  0.00000000000E+00 0.  1.
         21   -1    0    0  501  502 -0.00000000000E+00 -0.00000000000E+00 -0.15114983549E+03  0.15114983549E+03  0.00000000000E+00 0.  1.
         25    1    1    2    0    0 -0.18330424760E+02 -0.27727215387E+03  0.36086678234E+03  0.47229830233E+03  0.12500000000E+03 0.  0.
         25    1    1    2    0    0 -0.57297171226E+02  0.19886805581E+03  0.61294834602E+03  0.65890981502E+03  0.12500000000E+03 0.  0.
         25    1    1    2    0    0  0.75627595986E+02  0.78404098055E+02  0.22406797575E+02  0.16731347956E+03  0.12500000000E+03 0.  0.
</event>
<event>
 5    0  0.5953918E-005  0.3296318E+03  0.7546771E-02  0.1071300E+00
         21   -1    0    0  502  501  0.00000000000E+00  0.00000000000E+00  0.17432271190E+03  0.17432271190E+03  0.00000000000E+00 0.  1.
         21   -1    0    0  501  502 -0.00000000000E+00 -0.00000000000E+00 -0.62331012233E+03  0.62331012233E+03  0.00000000000E+00 0.  1.
         25    1    1    2    0    0  0.15321812325E+02 -0.22584164888E+03 -0.10654487477E+03  0.27967126889E+03  0.12500000000E+03 0.  0.
         25    1    1    2    0    0 -0.47122712221E+02  0.57327122159E+02 -0.24401850747E+03  0.28403693585E+03  0.12500000000E+03 0.  0.
         25    1    1    2    0    0  0.31800899896E+02  0.16851452673E+03 -0.98424028190E+02  0.23392462948E+03  0.12500000000E+03 0.  0.
</event>
<event>
 5    0  0.5605075E-005  0.3211000E+03  0.7546771E-02  0.1075144E+00
         21   -1    0    0  502  501  0.00000000000E+00  0.00000000000E+00  0.37234635659E+03  0.37234635659E+03  0.00000000000E+00 0. -1.
         21   -1    0    0  501  502 -0.00000000000E+00 -0.00000000000E+00 -0.27690676855E+03  0.27690676855E+03  0.00000000000E+00 0. -1.
         25    1    1    2    0    0 -0.10055286511E+02  0.15832946145E+03  0.14872166810E+03  0.25082356690E+03  0.12500000000E+03 0.  0.
         25    1    1    2    0    0  0.93513614940E+02 -0.14895933187E+03  0.42550889868E+02  0.21993011835E+03  0.12500000000E+03 0.  0.
         25    1    1    2    0    0 -0.83458328429E+02 -0.93701295842E+01 -0.95832969931E+02  0.17849943988E+03  0.12500000000E+03 0.  0.
</event>
<event>
 5    0  0.5605075E-005  0.3333634E+03  0.7546771E-02  0.1069658E+00
         21   -1    0    0  502  501  0.00000000000E+00  0.00000000000E+00  0.18199254270E+04  0.18199254270E+04  0.00000000000E+00 0. -1.
         21   -1    0    0  501  502 -0.00000000000E+00 -0.00000000000E+00 -0.61063562989E+02  0.61063562989E+02  0.00000000000E+00 0. -1.
         25    1    1    2    0    0  0.12388567879E+03 -0.99379935435E+02  0.21406156993E+03  0.29440004874E+03  0.12500000000E+03 0.  0.
         25    1    1    2    0    0 -0.16600400437E+03  0.52869646256E+02  0.77156442287E+03  0.80080533690E+03  0.12500000000E+03 0.  0.
         25    1    1    2    0    0  0.42118325580E+02  0.46510289179E+02  0.77323587124E+03  0.78578360438E+03  0.12500000000E+03 0.  0.
</event>
<event>
 5    0  0.5605075E-005  0.4532916E+03  0.7546771E-02  0.1026745E+00
         21   -1    0    0  502  501  0.00000000000E+00  0.00000000000E+00  0.17185266745E+04  0.17185266745E+04  0.00000000000E+00 0.  1.
         21   -1    0    0  501  502 -0.00000000000E+00 -0.00000000000E+00 -0.11956359787E+03  0.11956359787E+03  0.00000000000E+00 0.  1.
         25    1    1    2    0    0  0.16918694038E+03  0.59923770104E+02  0.12325695218E+04  0.12518257487E+04  0.12500000000E+03 0.  0.
         25    1    1    2    0    0 -0.26361169374E+03 -0.16582937331E+02  0.20311327593E+03  0.35587374411E+03  0.12500000000E+03 0.  0.
         25    1    1    2    0    0  0.94424753363E+02 -0.43340832774E+02  0.16328027890E+03  0.23039077957E+03  0.12500000000E+03 0.  0.
</event>
<event>
 5    0  0.5605075E-005  0.2399974E+03  0.7546771E-02  0.1119795E+00
         21   -1    0    0  502  501  0.00000000000E+00  0.00000000000E+00  0.11294768771E+04  0.11294768771E+04  0.00000000000E+00 0. -1.
         21   -1    0    0  501  502 -0.00000000000E+00 -0.00000000000E+00 -0.50995947688E+02  0.50995947688E+02  0.00000000000E+00 0. -1.
         25    1    1    2    0    0 -0.39471749533E+02 -0.59688378665E+02  0.26412576070E+03  0.30084570634E+03  0.12500000000E+03 0.  0.
         25    1    1    2    0    0 -0.81739567000E+02  0.18657741366E+02  0.31288475409E+03  0.34720503664E+03  0.12500000000E+03 0.  0.
         25    1    1    2    0    0  0.12121131653E+03  0.41030637299E+02  0.50147041463E+03  0.53242208181E+03  0.12500000000E+03 0.  0.
</event>
<event>
 5    0  0.5605075E-005  0.6362451E+03  0.7546771E-02  0.9832937E-01
         21   -1    0    0  502  501  0.00000000000E+00  0.00000000000E+00  0.25458756753E+04  0.25458756753E+04  0.00000000000E+00 0. -1.
         21   -1    0    0  501  502 -0.00000000000E+00 -0.00000000000E+00 -0.15900534159E+03  0.15900534159E+03  0.00000000000E+00 0. -1.
         25    1    1    2    0    0 -0.20650569073E+03 -0.16650509787E+03  0.93187580088E+03  0.97692684280E+03  0.12500000000E+03 0.  0.
         25    1    1    2    0    0  0.73688209667E+02  0.37390651361E+03  0.21006572856E+03  0.45275671556E+03  0.12500000000E+03 0.  0.
         25    1    1    2    0    0  0.13281748107E+03 -0.20740141574E+03  0.12449288042E+04  0.12751974585E+04  0.12500000000E+03 0.  0.
</event>
<event>
 5    0  0.5605075E-005  0.2868506E+03  0.7546771E-02  0.1092005E+00
         21   -1    0    0  502  501  0.00000000000E+00  0.00000000000E+00  0.46285104193E+03  0.46285104193E+03  0.00000000000E+00 0. -1.
         21   -1    0    0  501  502 -0.00000000000E+00 -0.00000000000E+00 -0.17777482376E+03  0.17777482376E+03  0.00000000000E+00 0. -1.
         25    1    1    2    0    0  0.24568555901E+02 -0.10713979814E+03  0.21750685101E+03  0.27389191394E+03  0.12500000000E+03 0.  0.
         25    1    1    2    0    0 -0.10190436542E+03  0.36907072929E+02 -0.41646502520E+02  0.17060499083E+03  0.12500000000E+03 0.  0.
         25    1    1    2    0    0  0.77335809516E+02  0.70232725214E+02  0.10921586967E+03  0.19612896092E+03  0.12500000000E+03 0.  0.
</event>
<event>
 5    0  0.5605075E-005  0.2331624E+03  0.7546771E-02  0.1124434E+00
         21   -1    0    0  502  501  0.00000000000E+00  0.00000000000E+00  0.61711184538E+03  0.61711184538E+03  0.00000000000E+00 0. -1.
         21   -1    0    0  501  502 -0.00000000000E+00 -0.00000000000E+00 -0.88095379236E+02  0.88095379236E+02  0.00000000000E+00 0. -1.
         25    1    1    2    0    0 -0.35431319982E+02 -0.35782246318E+02  0.13100335773E+03  0.18794314918E+03  0.12500000000E+03 0.  0.
         25    1    1    2    0    0  0.54844613100E+02  0.29931103175E+02  0.52510312590E+02  0.14928541607E+03  0.12500000000E+03 0.  0.
         25    1    1    2    0    0 -0.19413293118E+02  0.58511431424E+01  0.34550279582E+03  0.36797865936E+03  0.12500000000E+03 0.  0.
</event>
<event>
 5    0  0.5605075E-005  0.3453411E+03  0.7546771E-02  0.1064544E+00
         21   -1    0    0  502  501  0.00000000000E+00  0.00000000000E+00  0.13844603932E+03  0.13844603932E+03  0.00000000000E+00 0.  1.
         21   -1    0    0  501  502 -0.00000000000E+00 -0.00000000000E+00 -0.86142204700E+03  0.86142204700E+03  0.00000000000E+00 0.  1.
         25    1    1    2    0    0  0.88633832591E+02 -0.86138274960E+02 -0.25917211528E+03  0.31316280755E+03  0.12500000000E+03 0.  0.
         25    1    1    2    0    0 -0.13872732085E+03  0.11831614500E+03 -0.20185769783E+02  0.22198298362E+03  0.12500000000E+03 0.  0.
         25    1    1    2    0    0  0.50093488256E+02 -0.32177870038E+02 -0.44361812261E+03  0.46472229514E+03  0.12500000000E+03 0.  0.
</event>
<event>
 5    0  0.5605075E-005  0.2626148E+03  0.7546771E-02  0.1105582E+00
         21   -1    0    0  502  501  0.00000000000E+00  0.00000000000E+00  0.39102694643E+03  0.39102694643E+03  0.00000000000E+00 0. -1.
         21   -1    0    0  501  502 -0.00000000000E+00 -0.00000000000E+00 -0.17637284172E+03  0.17637284172E+03  0.00000000000E+00 0. -1.
         25    1    1    2    0    0 -0.64933579132E+02  0.65469248702E+02  0.19734120148E+03  0.25113968628E+03  0.12500000000E+03 0.  0.
         25    1    1    2    0    0  0.94438725075E+02  0.24490908735E+02  0.62897748302E+00  0.15856819674E+03  0.12500000000E+03 0.  0.
         25    1    1    2    0    0 -0.29505145943E+02 -0.89960157437E+02  0.16683925748E+02  0.15769190512E+03  0.12500000000E+03 0.  0.
</event>
<event>
 5    0  0.5605075E-005  0.3674547E+03  0.7546771E-02  0.1055670E+00
         21   -1    0    0  502  501  0.00000000000E+00  0.00000000000E+00  0.30304390227E+03  0.30304390227E+03  0.00000000000E+00 0. -1.
         21   -1    0    0  501  502 -0.00000000000E+00 -0.00000000000E+00 -0.44555576468E+03  0.44555576468E+03  0.00000000000E+00 0.  1.
         25    1    1    2    0    0 -0.13869111867E+03 -0.25535382953E+02 -0.25055851533E+02  0.19010543884E+03  0.12500000000E+03 0.  0.
         25    1    1    2    0    0  0.28234947464E+03  0.67991731934E+02  0.24629122089E+02  0.31713671357E+03  0.12500000000E+03 0.  0.
         25    1    1    2    0    0 -0.14365835597E+03 -0.42456348980E+02 -0.14208513297E+03  0.24135751453E+03  0.12500000000E+03 0.  0.
</event>
<event>
 5    0  0.5605075E-005  0.3310100E+03  0.7546771E-02  0.1070691E+00
         21   -1    0    0  502  501  0.00000000000E+00  0.00000000000E+00  0.13657712911E+03  0.13657712911E+03  0.00000000000E+00 0.  1.
         21   -1    0    0  501  502 -0.00000000000E+00 -0.00000000000E+00 -0.80223979066E+03  0.80223979066E+03  0.00000000000E+00 0.  1.
         25    1    1    2    0    0  0.68682414517E+02  0.20280573000E+03 -0.25697614835E+03  0.35708427437E+03  0.12500000000E+03 0.  0.
         25    1    1    2    0    0 -0.56678307705E+02 -0.92347431858E+02 -0.37674968606E+03  0.41146786591E+03  0.12500000000E+03 0.  0.
         25    1    1    2    0    0 -0.12004106812E+02 -0.11045829814E+03 -0.31936827145E+02  0.17026477949E+03  0.12500000000E+03 0.  0.
</event>
<event>
 5    0  0.5605075E-005  0.3193032E+03  0.7546771E-02  0.1075970E+00
         21   -1    0    0  502  501  0.00000000000E+00  0.00000000000E+00  0.11955968241E+03  0.11955968241E+03  0.00000000000E+00 0.  1.
         21   -1    0    0  501  502 -0.00000000000E+00 -0.00000000000E+00 -0.85275021676E+03  0.85275021676E+03  0.00000000000E+00 0.  1.
         25    1    1    2    0    0  0.69365092882E+02  0.11320713645E+03 -0.29998696243E+02  0.18480339183E+03  0.12500000000E+03 0.  0.
         25    1    1    2    0    0 -0.49211817906E+02  0.53480531811E+02 -0.26481660020E+03  0.30171974090E+03  0.12500000000E+03 0.  0.
         25    1    1    2    0    0 -0.20153274976E+02 -0.16668766826E+03 -0.43837523791E+03  0.48578676645E+03  0.12500000000E+03 0.  0.
</event>
<event>
 5    0  0.5605075E-005  0.2947061E+03  0.7546771E-02  0.1087917E+00
         21   -1    0    0  502  501  0.00000000000E+00  0.00000000000E+00  0.68204732586E+02  0.68204732586E+02  0.00000000000E+00 0.  1.
         21   -1    0    0  501  502 -0.00000000000E+00 -0.00000000000E+00 -0.12733970242E+04  0.12733970242E+04  0.00000000000E+00 0.  1.
         25    1    1    2    0    0 -0.20432124410E+02  0.36819688332E+02 -0.36929721118E+03  0.39214613519E+03  0.12500000000E+03 0.  0.
         25    1    1    2    0    0  0.39878322182E+02 -0.14635459511E+03 -0.71887547435E+03  0.74526297085E+03  0.12500000000E+03 0.  0.
         25    1    1    2    0    0 -0.19446197772E+02  0.10953490678E+03 -0.11701960606E+03  0.20419265073E+03  0.12500000000E+03 0.  0.
</event>
<event>
 5    0  0.5605075E-005  0.3033053E+03  0.7546771E-02  0.1083600E+00
         21   -1    0    0  502  501  0.00000000000E+00  0.00000000000E+00  0.10106737152E+03  0.10106737152E+03  0.00000000000E+00 0.  1.
         21   -1    0    0  501  502 -0.00000000000E+00 -0.00000000000E+00 -0.91022543333E+03  0.91022543333E+03  0.00000000000E+00 0.  1.
         25    1    1    2    0    0 -0.37501478999E+02  0.11966813703E+03 -0.11864937574E+03  0.21314196750E+03  0.12500000000E+03 0.  0.
         25    1    1    2    0    0  0.57306978982E+02  0.45557745263E+02 -0.11129077062E+03  0.18267521348E+03  0.12500000000E+03 0.  0.
         25    1    1    2    0    0 -0.19805499983E+02 -0.16522588229E+03 -0.57921791544E+03  0.61547562387E+03  0.12500000000E+03 0.  0.
</event>
<event>
 5    0  0.5605075E-005  0.2998776E+03  0.7546771E-02  0.1085302E+00
         21   -1    0    0  502  501  0.00000000000E+00  0.00000000000E+00  0.19344867712E+03  0.19344867712E+03  0.00000000000E+00 0. -1.
         21   -1    0    0  501  502 -0.00000000000E+00 -0.00000000000E+00 -0.46486024267E+03  0.46486024267E+03  0.00000000000E+00 0. -1.
         25    1    1    2    0    0 -0.22040185708E+02 -0.85354164727E+02  0.71719231332E+00  0.15295952925E+03  0.12500000000E+03 0.  0.
         25    1    1    2    0    0 -0.10714185795E+02 -0.68612369754E+02  0.26444723004E+02  0.14541930558E+03  0.12500000000E+03 0.  0.
         25    1    1    2    0    0  0.32754371504E+02  0.15396653448E+03 -0.29857348087E+03  0.35993008497E+03  0.12500000000E+03 0.  0.
</event>
<event>
 5    0  0.5605075E-005  0.2097957E+03  0.7546771E-02  0.1141728E+00
         21   -1    0    0  502  501  0.00000000000E+00  0.00000000000E+00  0.66385345588E+02  0.66385345588E+02  0.00000000000E+00 0. -1.
         21   -1    0    0  501  502 -0.00000000000E+00 -0.00000000000E+00 -0.66301123633E+03  0.66301123633E+03  0.00000000000E+00 0. -1.
         25    1    1    2    0    0 -0.56438857755E+02  0.33383520101E+02 -0.22979964199E+03  0.26968996929E+03  0.12500000000E+03 0.  0.
         25    1    1    2    0    0  0.72115977205E+02 -0.35955275485E+02 -0.22805393018E+03  0.27226290801E+03  0.12500000000E+03 0.  0.
         25    1    1    2    0    0 -0.15677119449E+02  0.25717553848E+01 -0.13877231857E+03  0.18744370462E+03  0.12500000000E+03 0.  0.
</event>
<event>
 5    0  0.7007616E-005  0.3515401E+03  0.7546771E-02  0.1061985E+00
         21   -1    0    0  502  501  0.00000000000E+00  0.00000000000E+00  0.44510666662E+03  0.44510666662E+03  0.00000000000E+00 0. -1.
         21   -1    0    0  501  502 -0.00000000000E+00 -0.00000000000E+00 -0.27764229605E+03  0.27764229605E+03  0.00000000000E+00 0. -1.
         25    1    1    2    0    0  0.11251951636E+03  0.42152904002E+02  0.27358379787E+03  0.32389906350E+03  0.12500000000E+03 0.  0.
         25    1    1    2    0    0 -0.16720271941E+03 -0.10548459007E+03 -0.70095778592E+02  0.24417650644E+03  0.12500000000E+03 0.  0.
         25    1    1    2    0    0  0.54683203050E+02  0.63331686065E+02 -0.36023648703E+02  0.15467339274E+03  0.12500000000E+03 0.  0.
</event>
<event>
 5    0  0.5605075E-005  0.4240363E+03  0.7546771E-02  0.1035761E+00
         21   -1    0    0  502  501  0.00000000000E+00  0.00000000000E+00  0.33024651502E+03  0.33024651502E+03  0.00000000000E+00 0.  1.
         21   -1    0    0  501  502 -0.00000000000E+00 -0.00000000000E+00 -0.54446219699E+03  0.54446219699E+03  0.00000000000E+00 0.  1.
         25    1    1    2    0    0  0.11158217949E+03  0.63131150915E+02 -0.94653945097E+02  0.20253516810E+03  0.12500000000E+03 0.  0.
         25    1    1    2    0    0 -0.24691675069E+03  0.38103033712E+02 -0.28916677288E+03  0.40207231375E+03  0.12500000000E+03 0.  0.
         25    1    1    2    0    0  0.13533457119E+03 -0.10123418463E+03  0.16960503600E+03  0.27010123016E+03  0.12500000000E+03 0.  0.
</event>
<event>
 5    0  0.5605075E-005  0.2865962E+03  0.7546771E-02  0.1092140E+00
         21   -1    0    0  502  501  0.00000000000E+00  0.00000000000E+00  0.66119012940E+03  0.66119012940E+03  0.00000000000E+00 0. -1.
         21   -1    0    0  501  502 -0.00000000000E+00 -0.00000000000E+00 -0.12422652865E+03  0.12422652865E+03  0.00000000000E+00 0. -1.
         25    1    1    2    0    0  0.48611035646E+02  0.21001218786E+02  0.45047893235E+03  0.47048948178E+03  0.12500000000E+03 0.  0.
         25    1    1    2    0    0 -0.94405277285E+02  0.27339233852E+02  0.26886541961E+02  0.16126895617E+03  0.12500000000E+03 0.  0.
         25    1    1    2    0    0  0.45794241640E+02 -0.48340452638E+02  0.59598126444E+02  0.15365822010E+03  0.12500000000E+03 0.  0.
</event>
<event>
 5    0  0.5605075E-005  0.3078656E+03  0.7546771E-02  0.1081373E+00
         21   -1    0    0  502  501  0.00000000000E+00  0.00000000000E+00  0.77586108542E+03  0.77586108542E+03  0.00000000000E+00 0.  1.
         21   -1    0    0  501  502 -0.00000000000E+00 -0.00000000000E+00 -0.12216263339E+03  0.12216263339E+03  0.00000000000E+00 0.  1.
         25    1    1    2    0    0  0.15503364335E+03 -0.23576184093E+02  0.38371040367E+03  0.43295489478E+03  0.12500000000E+03 0.  0.
         25    1    1    2    0    0 -0.47243937431E+02 -0.10035494288E+03  0.15921161071E+03  0.23081689966E+03  0.12500000000E+03 0.  0.
         25    1    1    2    0    0 -0.10778970592E+03  0.12393112697E+03  0.11077643764E+03  0.23425192437E+03  0.12500000000E+03 0.  0.
</event>
<event>
 5    0  0.5605075E-005  0.2184434E+03  0.7546771E-02  0.1135049E+00
         21   -1    0    0  502  501  0.00000000000E+00  0.00000000000E+00  0.22630334724E+02  0.22630334724E+02  0.00000000000E+00 0.  1.
         21   -1    0    0  501  502 -0.00000000000E+00 -0.00000000000E+00 -0.21085647421E+04  0.21085647421E+04  0.00000000000E+00 0.  1.
         25    1    1    2    0    0  0.57334904290E+02  0.99908969349E+01 -0.10857270599E+04  0.10944475126E+04  0.12500000000E+03 0.  0.
         25    1    1    2    0    0 -0.72250788667E+02 -0.20065767783E+02 -0.49702721490E+03  0.51796125709E+03  0.12500000000E+03 0.  0.
         25    1    1    2    0    0  0.14915884377E+02  0.10074870848E+02 -0.50318013253E+03  0.51878630707E+03  0.12500000000E+03 0.  0.
</event>
<event>
 5    0  0.5605075E-005  0.2421323E+03  0.7546771E-02  0.1118380E+00
         21   -1    0    0  502  501  0.00000000000E+00  0.00000000000E+00  0.18538309713E+03  0.18538309713E+03  0.00000000000E+00 0. -1.
         21   -1    0    0  501  502 -0.00000000000E+00 -0.00000000000E+00 -0.31625340570E+03  0.31625340570E+03  0.00000000000E+00 0. -1.
         25    1    1    2    0    0 -0.79352073956E+02 -0.65708142827E+02  0.41877902746E+02  0.16731129792E+03  0.12500000000E+03 0.  0.
         25    1    1    2    0    0  0.61460871222E+02  0.43927318029E+02 -0.43668988400E+02  0.15244352564E+03  0.12500000000E+03 0.  0.
         25    1    1    2    0    0  0.17891202734E+02  0.21780824798E+02 -0.12907922292E+03  0.18188167927E+03  0.12500000000E+03 0.  0.
</event>
<event>
 5    0  0.5605075E-005  0.2803474E+03  0.7546771E-02  0.1095499E+00
         21   -1    0    0  502  501  0.00000000000E+00  0.00000000000E+00  0.10162168951E+04  0.10162168951E+04  0.00000000000E+00 0.  1.
         21   -1    0    0  501  502 -0.00000000000E+00 -0.00000000000E+00 -0.77340421375E+02  0.77340421375E+02  0.00000000000E+00 0.  1.
         25    1    1    2    0    0 -0.20946015959E+02 -0.22113100253E+02  0.62734118996E+02  0.14313732732E+03  0.12500000000E+03 0.  0.
         25    1    1    2    0    0 -0.67850135655E+02 -0.93120453491E+02  0.32364353382E+03  0.36557515883E+03  0.12500000000E+03 0.  0.
         25    1    1    2    0    0  0.88796151614E+02  0.11523355374E+03  0.55249882086E+03  0.58484483027E+03  0.12500000000E+03 0.  0.
</event>
<event>
 5    0  0.5605075E-005  0.2863180E+03  0.7546771E-02  0.1092287E+00
         21   -1    0    0  502  501  0.00000000000E+00  0.00000000000E+00  0.42101124243E+02  0.42101124243E+02  0.00000000000E+00 0.  1.
         21   -1    0    0  501  502 -0.00000000000E+00 -0.00000000000E+00 -0.19471692280E+04  0.19471692280E+04  0.00000000000E+00 0.  1.
         25    1    1    2    0    0  0.56505153887E+02  0.75064466508E+02 -0.10460856593E+04  0.10577087091E+04  0.12500000000E+03 0.  0.
         25    1    1    2    0    0  0.15863701298E+02 -0.14777516884E+03 -0.39395240604E+03  0.43921823251E+03  0.12500000000E+03 0.  0.
         25    1    1    2    0    0 -0.72368855185E+02  0.72710702336E+02 -0.46503003833E+03  0.49234341062E+03  0.12500000000E+03 0.  0.
</event>
<event>
 5    0  0.5605075E-005  0.2400242E+03  0.7546771E-02  0.1119777E+00
         21   -1    0    0  502  501  0.00000000000E+00  0.00000000000E+00  0.64127545545E+03  0.64127545545E+03  0.00000000000E+00 0. -1.
         21   -1    0    0  501  502 -0.00000000000E+00 -0.00000000000E+00 -0.89839105110E+02  0.89839105110E+02  0.00000000000E+00 0. -1.
         25    1    1    2    0    0  0.51564207597E+02  0.53994224181E+02  0.28429419349E+03  0.31940950549E+03  0.12500000000E+03 0.  0.
         25    1    1    2    0    0  0.30728655845E+02 -0.92714936865E+02  0.13884230099E+03  0.21081388558E+03  0.12500000000E+03 0.  0.
         25    1    1    2    0    0 -0.82292863442E+02  0.38720712684E+02  0.12829985586E+03  0.20089116949E+03  0.12500000000E+03 0.  0.
</event>
<event>
 5    0  0.5605075E-005  0.2699491E+03  0.7546771E-02  0.1101309E+00
         21   -1    0    0  502  501  0.00000000000E+00  0.00000000000E+00  0.37662599849E+03  0.37662599849E+03  0.00000000000E+00 0. -1.
         21   -1    0    0  501  502 -0.00000000000E+00 -0.00000000000E+00 -0.19348770231E+03  0.19348770231E+03  0.00000000000E+00 0. -1.
         25    1    1    2    0    0 -0.23547848732E+02  0.11500595034E+03 -0.71486750608E+01  0.17163033924E+03  0.12500000000E+03 0.  0.
         25    1    1    2    0    0 -0.77673071224E+02 -0.10337728625E+03  0.14489428735E+03  0.23095307708E+03  0.12500000000E+03 0.  0.
         25    1    1    2    0    0  0.10122091996E+03 -0.11628664084E+02  0.45392683887E+02  0.16753028447E+03  0.12500000000E+03 0.  0.
</event>
<event>
 5    0  0.5605075E-005  0.2763934E+03  0.7546771E-02  0.1097675E+00
         21   -1    0    0  502  501  0.00000000000E+00  0.00000000000E+00  0.39226916162E+03  0.39226916162E+03  0.00000000000E+00 0.  1.
         21   -1    0    0  501  502 -0.00000000000E+00 -0.00000000000E+00 -0.19474722183E+03  0.19474722183E+03  0.00000000000E+00 0.  1.
         25    1    1    2    0    0  0.38381113430E+02 -0.10408202293E+03  0.21798198859E+03  0.27467676406E+03  0.12500000000E+03 0.  0.
         25    1    1    2    0    0  0.45768656316E+02  0.85061906151E+02  0.63972420707E+01  0.15810193701E+03  0.12500000000E+03 0.  0.
         25    1    1    2    0    0 -0.84149769746E+02  0.19020116783E+02 -0.26857290872E+02  0.15423768237E+03  0.12500000000E+03 0.  0.
</event>
<event>
 5    0  0.5605075E-005  0.2539318E+03  0.7546771E-02  0.1110845E+00
         21   -1    0    0  502  501  0.00000000000E+00  0.00000000000E+00  0.65650662004E+02  0.65650662004E+02  0.00000000000E+00 0.  1.
         21   -1    0    0  501  502 -0.00000000000E+00 -0.00000000000E+00 -0.98218910261E+03  0.98218910261E+03  0.00000000000E+00 0.  1.
         25    1    1    2    0    0 -0.51767752097E+02  0.88914893596E+02 -0.22056412646E+03  0.27360426229E+03  0.12500000000E+03 0.  0.
         25    1    1    2    0    0 -0.27308500451E+02 -0.12452592249E+03 -0.28841601134E+03  0.33920680295E+03  0.12500000000E+03 0.  0.
         25    1    1    2    0    0  0.79076252548E+02  0.35611028895E+02 -0.40755830281E+03  0.43502869938E+03  0.12500000000E+03 0.  0.
</event>
<event>
 5    0  0.5605075E-005  0.3102775E+03  0.7546771E-02  0.1080213E+00
         21   -1    0    0  502  501  0.00000000000E+00  0.00000000000E+00  0.42380809293E+03  0.42380809293E+03  0.00000000000E+00 0. -1.
         21   -1    0    0  501  502 -0.00000000000E+00 -0.00000000000E+00 -0.22715975686E+03  0.22715975686E+03  0.00000000000E+00 0. -1.
         25    1    1    2    0    0  0.17209448482E+03 -0.31790773018E+02  0.79879540864E+02  0.22941862610E+03  0.12500000000E+03 0.  0.
         25    1    1    2    0    0 -0.44530112892E+02  0.96886296740E+02  0.15699258045E+03  0.22724778496E+03  0.12500000000E+03 0.  0.
         25    1    1    2    0    0 -0.12756437193E+03 -0.65095523723E+02 -0.40223785252E+02  0.19430143873E+03  0.12500000000E+03 0.  0.
</event>
<event>
 5    0  0.5605075E-005  0.2887697E+03  0.7546771E-02  0.1090993E+00
         21   -1    0    0  502  501  0.00000000000E+00  0.00000000000E+00  0.24059990875E+03  0.24059990875E+03  0.00000000000E+00 0.  1.
         21   -1    0    0  501  502 -0.00000000000E+00 -0.00000000000E+00 -0.34658353935E+03  0.34658353935E+03  0.00000000000E+00 0.  1.
         25    1    1    2    0    0 -0.87558919144E+02 -0.15431032329E+03  0.38545420988E+01  0.21706703502E+03  0.12500000000E+03 0.  0.
         25    1    1    2    0    0  0.13293384781E+03  0.10353333832E+03 -0.49804463976E+02  0.21562941513E+03  0.12500000000E+03 0.  0.
         25    1    1    2    0    0 -0.45374928662E+02  0.50776984967E+02 -0.60033708728E+02  0.15448699795E+03  0.12500000000E+03 0.  0.
</event>
<event>
 5    0  0.5605075E-005  0.3181519E+03  0.7546771E-02  0.1076503E+00
         21   -1    0    0  502  501  0.00000000000E+00  0.00000000000E+00  0.12806388933E+04  0.12806388933E+04  0.00000000000E+00 0. -1.
         21   -1    0    0  501  502 -0.00000000000E+00 -0.00000000000E+00 -0.79039170804E+02  0.79039170804E+02  0.00000000000E+00 0. -1.
         25    1    1    2    0    0 -0.80899415818E+02  0.81573690947E+02  0.22197013167E+03  0.27945432880E+03  0.12500000000E+03 0.  0.
         25    1    1    2    0    0  0.12532850101E+03  0.66060522946E+02  0.19756002051E+03  0.27336091081E+03  0.12500000000E+03 0.  0.
         25    1    1    2    0    0 -0.44429085189E+02 -0.14763421389E+03  0.78206957030E+03  0.80686282447E+03  0.12500000000E+03 0.  0.
</event>
<event>
 5    0  0.5605075E-005  0.2521571E+03  0.7546771E-02  0.1111949E+00
         21   -1    0    0  502  501  0.00000000000E+00  0.00000000000E+00  0.55804631848E+03  0.55804631848E+03  0.00000000000E+00 0. -1.
         21   -1    0    0  501  502 -0.00000000000E+00 -0.00000000000E+00 -0.11393890692E+03  0.11393890692E+03  0.00000000000E+00 0. -1.
         25    1    1    2    0    0 -0.88925517388E+02 -0.13741001971E+02  0.13646959593E+02  0.15462148067E+03  0.12500000000E+03 0.  0.
         25    1    1    2    0    0  0.40919458535E+02  0.50178677410E+02  0.15811625702E+03  0.21170274558E+03  0.12500000000E+03 0.  0.
         25    1    1    2    0    0  0.48006058852E+02 -0.36437675438E+02  0.27234419495E+03  0.30566099915E+03  0.12500000000E+03 0.  0.
</event>
<event>
 5    0  0.5605075E-005  0.3456457E+03  0.7546771E-02  0.1064417E+00
         21   -1    0    0  502  501  0.00000000000E+00  0.00000000000E+00  0.12455716200E+04  0.12455716200E+04  0.00000000000E+00 0. -1.
         21   -1    0    0  501  502 -0.00000000000E+00 -0.00000000000E+00 -0.95916536887E+02  0.95916536887E+02  0.00000000000E+00 0. -1.
         25    1    1    2    0    0  0.92486909299E+02  0.13028982442E+03  0.12034116187E+03  0.23587340244E+03  0.12500000000E+03 0.  0.
         25    1    1    2    0    0  0.38714650833E+02  0.57020660565E+02  0.34617459183E+03  0.37444896575E+03  0.12500000000E+03 0.  0.
         25    1    1    2    0    0 -0.13120156013E+03 -0.18731048499E+03  0.68313932940E+03  0.73116578868E+03  0.12500000000E+03 0.  0.
</event>
<event>
 5    0  0.5605075E-005  0.4028378E+03  0.7546771E-02  0.1042801E+00
         21   -1    0    0  502  501  0.00000000000E+00  0.00000000000E+00  0.78374293221E+02  0.78374293221E+02  0.00000000000E+00 0. -1.
         21   -1    0    0  501  502 -0.00000000000E+00 -0.00000000000E+00 -0.20705546797E+04  0.20705546797E+04  0.00000000000E+00 0. -1.
         25    1    1    2    0    0  0.11205518430E+03  0.24383841860E+03 -0.54783622293E+03  0.62270624364E+03  0.12500000000E+03 0.  0.
         25    1    1    2    0    0  0.15110153749E+02 -0.20187114164E+03 -0.11853552356E+04  0.12089964057E+04  0.12500000000E+03 0.  0.
         25    1    1    2    0    0 -0.12716533805E+03 -0.41967276965E+02 -0.25898892798E+03  0.31722632355E+03  0.12500000000E+03 0.  0.
</event>
<event>
 5    0  0.5757600E-005  0.4029147E+03  0.7546771E-02  0.1042775E+00
         21   -1    0    0  502  501  0.00000000000E+00  0.00000000000E+00  0.75250989640E+03  0.75250989640E+03  0.00000000000E+00 0.  1.
         21   -1    0    0  501  502 -0.00000000000E+00 -0.00000000000E+00 -0.21573173044E+03  0.21573173044E+03  0.00000000000E+00 0.  1.
         25    1    1    2    0    0 -0.12470467364E+03  0.12934122446E+03  0.36493590286E+03  0.42553921226E+03  0.12500000000E+03 0.  0.
         25    1    1    2    0    0  0.16600704546E+03  0.11010024591E+03  0.37234385394E+02  0.23810040476E+03  0.12500000000E+03 0.  0.
         25    1    1    2    0    0 -0.41302371818E+02 -0.23944147037E+03  0.13460787770E+03  0.30460200983E+03  0.12500000000E+03 0.  0.
</event>
<event>
 5    0  0.5605075E-005  0.3616204E+03  0.7546771E-02  0.1057944E+00
         21   -1    0    0  502  501  0.00000000000E+00  0.00000000000E+00  0.11706315574E+03  0.11706315574E+03  0.00000000000E+00 0.  1.
         21   -1    0    0  501  502 -0.00000000000E+00 -0.00000000000E+00 -0.11170833186E+04  0.11170833186E+04  0.00000000000E+00 0.  1.
         25    1    1    2    0    0  0.13064951537E+03  0.14562797045E+03 -0.17765948293E+03  0.29234345130E+03  0.12500000000E+03 0.  0.
         25    1    1    2    0    0 -0.32290476590E+02  0.68998346407E+02 -0.51096984112E+03  0.53152481148E+03  0.12500000000E+03 0.  0.
         25    1    1    2    0    0 -0.98359038778E+02 -0.21462631686E+03 -0.31139083882E+03  0.41027821158E+03  0.12500000000E+03 0.  0.
</event>
<event>
 5    0  0.5605075E-005  0.2591536E+03  0.7546771E-02  0.1107653E+00
         21   -1    0    0  502  501  0.00000000000E+00  0.00000000000E+00  0.42044094867E+02  0.42044094867E+02  0.00000000000E+00 0.  1.
         21   -1    0    0  501  502 -0.00000000000E+00 -0.00000000000E+00 -0.15973845925E+04  0.15973845925E+04  0.00000000000E+00 0.  1.
         25    1    1    2    0    0 -0.75570500578E+01 -0.35239390998E+02 -0.95324651508E+03  0.96208255477E+03  0.12500000000E+03 0.  0.
         25    1    1    2    0    0 -0.75795567544E+02  0.37846431974E+02 -0.22066907727E+03  0.26738953259E+03  0.12500000000E+03 0.  0.
         25    1    1    2    0    0  0.83352617602E+02 -0.26070409765E+01 -0.38142490531E+03  0.40995660003E+03  0.12500000000E+03 0.  0.
</event>
<event>
 5    0  0.6292279E-005  0.3543096E+03  0.7546771E-02  0.1060860E+00
         21   -1    0    0  502  501  0.00000000000E+00  0.00000000000E+00  0.36203955775E+03  0.36203955775E+03  0.00000000000E+00 0. -1.
         21   -1    0    0  501  502 -0.00000000000E+00 -0.00000000000E+00 -0.34674477813E+03  0.34674477813E+03  0.00000000000E+00 0. -1.
         25    1    1    2    0    0  0.13357245556E+03 -0.97273494611E+02 -0.16093856921E+03  0.26235463918E+03  0.12500000000E+03 0.  0.
         25    1    1    2    0    0 -0.14729227363E+03 -0.52090968022E+02  0.14860700985E+03  0.24923387851E+03  0.12500000000E+03 0.  0.
         25    1    1    2    0    0  0.13719818064E+02  0.14936446263E+03  0.27626338984E+02  0.19719581819E+03  0.12500000000E+03 0.  0.
</event>
<event>
 5    0  0.5605075E-005  0.2345827E+03  0.7546771E-02  0.1123455E+00
         21   -1    0    0  502  501  0.00000000000E+00  0.00000000000E+00  0.41343133803E+02  0.41343133803E+02  0.00000000000E+00 0. -1.
         21   -1    0    0  501  502 -0.00000000000E+00 -0.00000000000E+00 -0.13310322092E+04  0.13310322092E+04  0.00000000000E+00 0. -1.
         25    1    1    2    0    0  0.58939004021E+02  0.85393179479E+02 -0.66081239305E+03  0.68048792797E+03  0.12500000000E+03 0.  0.
         25    1    1    2    0    0  0.19049986458E+02 -0.54524706844E+02 -0.28603274895E+03  0.31745169571E+03  0.12500000000E+03 0.  0.
         25    1    1    2    0    0 -0.77988990479E+02 -0.30868472635E+02 -0.34284393341E+03  0.37443571933E+03  0.12500000000E+03 0.  0.
</event>
<event>
 5    0  0.5605075E-005  0.3150983E+03  0.7546771E-02  0.1077928E+00
         21   -1    0    0  502  501  0.00000000000E+00  0.00000000000E+00  0.76417206475E+02  0.76417206475E+02  0.00000000000E+00 0.  1.
         21   -1    0    0  501  502 -0.00000000000E+00 -0.00000000000E+00 -0.12992749987E+04  0.12992749987E+04  0.00000000000E+00 0.  1.
         25    1    1    2    0    0  0.10692037626E+03  0.14182879832E+03 -0.85723620731E+03  0.88432250340E+03  0.12500000000E+03 0.  0.
         25    1    1    2    0    0 -0.87626481441E+02 -0.13124786215E+03 -0.22076052372E+03  0.29877183669E+03  0.12500000000E+03 0.  0.
         25    1    1    2    0    0 -0.19293894821E+02 -0.10580936175E+02 -0.14486106123E+03  0.19259786512E+03  0.12500000000E+03 0.  0.
</event>
<event>
 5    0  0.5605075E-005  0.3415495E+03  0.7546771E-02  0.1066138E+00
         21   -1    0    0  502  501  0.00000000000E+00  0.00000000000E+00  0.17398713008E+03  0.17398713008E+03  0.00000000000E+00 0. -1.
         21   -1    0    0  501  502 -0.00000000000E+00 -0.00000000000E+00 -0.67048665190E+03  0.67048665190E+03  0.00000000000E+00 0. -1.
         25    1    1    2    0    0  0.10394305441E+01  0.15254312074E+03 -0.30002002753E+03  0.35903690761E+03  0.12500000000E+03 0.  0.
         25    1    1    2    0    0 -0.11813834036E+03 -0.14417548255E+03  0.28941194153E+00  0.22442887736E+03  0.12500000000E+03 0.  0.
         25    1    1    2    0    0  0.11709890982E+03 -0.83676381924E+01 -0.19676890622E+03  0.26100799701E+03  0.12500000000E+03 0.  0.
</event>
<event>
 5    0  0.5605075E-005  0.2271855E+03  0.7546771E-02  0.1128637E+00
         21   -1    0    0  502  501  0.00000000000E+00  0.00000000000E+00  0.70364990321E+02  0.70364990321E+02  0.00000000000E+00 0. -1.
         21   -1    0    0  501  502 -0.00000000000E+00 -0.00000000000E+00 -0.73350738102E+03  0.73350738102E+03  0.00000000000E+00 0. -1.
         25    1    1    2    0    0 -0.92688525055E+02  0.39202754651E+02 -0.31293787695E+03  0.35168612921E+03  0.12500000000E+03 0.  0.
         25    1    1    2    0    0  0.79433997185E+02  0.13743970271E+02 -0.16452064518E+03  0.22178976378E+03  0.12500000000E+03 0.  0.
         25    1    1    2    0    0  0.13254527870E+02 -0.52946724922E+02 -0.18568386856E+03  0.23039647834E+03  0.12500000000E+03 0.  0.
</event>
<event>
 5    0  0.5838700E-005  0.3033600E+03  0.7546771E-02  0.1083573E+00
         21   -1    0    0  502  501  0.00000000000E+00  0.00000000000E+00  0.22921689608E+03  0.22921689608E+03  0.00000000000E+00 0.  1.
         21   -1    0    0  501  502 -0.00000000000E+00 -0.00000000000E+00 -0.40148570913E+03  0.40148570913E+03  0.00000000000E+00 0.  1.
         25    1    1    2    0    0  0.68984317427E+02 -0.17032283494E+03  0.55251012932E+02  0.22901174333E+03  0.12500000000E+03 0.  0.
         25    1    1    2    0    0 -0.66757939424E+02  0.12660651756E+03 -0.88316583669E+02  0.20954868579E+03  0.12500000000E+03 0.  0.
         25    1    1    2    0    0 -0.22263780026E+01  0.43716317384E+02 -0.13920324231E+03  0.19214217609E+03  0.12500000000E+03 0.  0.
</event>
<event>
 5    0  0.5605075E-005  0.2195579E+03  0.7546771E-02  0.1134213E+00
         21   -1    0    0  502  501  0.00000000000E+00  0.00000000000E+00  0.19662260363E+03  0.19662260363E+03  0.00000000000E+00 0. -1.
         21   -1    0    0  501  502 -0.00000000000E+00 -0.00000000000E+00 -0.24516852321E+03  0.24516852321E+03  0.00000000000E+00 0. -1.
         25    1    1    2    0    0  0.31109878503E+02 -0.47244623242E+01 -0.87933704391E+00  0.12890274752E+03  0.12500000000E+03 0.  0.
         25    1    1    2    0    0  0.76596279722E+01  0.49914257994E+02  0.49634413357E+02  0.14366167910E+03  0.12500000000E+03 0.  0.
         25    1    1    2    0    0 -0.38769506475E+02 -0.45189795670E+02 -0.97300995898E+02  0.16922670022E+03  0.12500000000E+03 0.  0.
</event>
<event>
 5    0  0.5605075E-005  0.2838044E+03  0.7546771E-02  0.1093629E+00
         21   -1    0    0  502  501  0.00000000000E+00  0.00000000000E+00  0.71965982856E+03  0.71965982856E+03  0.00000000000E+00 0.  1.
         21   -1    0    0  501  502 -0.00000000000E+00 -0.00000000000E+00 -0.11192080933E+03  0.11192080933E+03  0.00000000000E+00 0.  1.
         25    1    1    2    0    0 -0.65581249451E+02  0.61123037915E+02  0.27074636656E+03  0.31139287251E+03  0.12500000000E+03 0.  0.
         25    1    1    2    0    0 -0.55911030124E+02  0.75978066676E+02  0.21827552189E+03  0.26864086316E+03  0.12500000000E+03 0.  0.
         25    1    1    2    0    0  0.12149227957E+03 -0.13710110459E+03  0.11871713079E+03  0.25154690222E+03  0.12500000000E+03 0.  0.
</event>
<event>
 5    0  0.5605075E-005  0.2884171E+03  0.7546771E-02  0.1091179E+00
         21   -1    0    0  502  501  0.00000000000E+00  0.00000000000E+00  0.10966076943E+04  0.10966076943E+04  0.00000000000E+00 0. -1.
         21   -1    0    0  501  502 -0.00000000000E+00 -0.00000000000E+00 -0.75856116399E+02  0.75856116399E+02  0.00000000000E+00 0. -1.
         25    1    1    2    0    0  0.11133845609E+02 -0.52278808678E+02  0.89417012792E+02  0.16271889421E+03  0.12500000000E+03 0.  0.
         25    1    1    2    0    0 -0.61145280587E+02 -0.11019931489E+03  0.38011656729E+03  0.41951905686E+03  0.12500000000E+03 0.  0.
         25    1    1    2    0    0  0.50011434977E+02  0.16247812356E+03  0.55121799785E+03  0.59022585967E+03  0.12500000000E+03 0.  0.
</event>
<event>
 5    0  0.5605075E-005  0.3276468E+03  0.7546771E-02  0.1072183E+00
         21   -1    0    0  502  501  0.00000000000E+00  0.00000000000E+00  0.10292028044E+04  0.10292028044E+04  0.00000000000E+00 0. -1.
         21   -1    0    0  501  502 -0.00000000000E+00 -0.00000000000E+00 -0.10430636616E+03  0.10430636616E+03  0.00000000000E+00 0. -1.
         25    1    1    2    0    0 -0.46018854110E+02  0.15043800007E+02  0.39446027199E+02  0.13973202895E+03  0.12500000000E+03 0.  0.
         25    1    1    2    0    0 -0.27390177457E+02  0.14649947517E+03  0.21919825488E+03  0.29306175627E+03  0.12500000000E+03 0.  0.
         25    1    1    2    0    0  0.73409031567E+02 -0.16154327517E+03  0.66625215612E+03  0.70071538531E+03  0.12500000000E+03 0.  0.
</event>
<event>
 5    0  0.5605075E-005  0.2665991E+03  0.7546771E-02  0.1103242E+00
         21   -1    0    0  502  501  0.00000000000E+00  0.00000000000E+00  0.26249807376E+03  0.26249807376E+03  0.00000000000E+00 0.  1.
         21   -1    0    0  501  502 -0.00000000000E+00 -0.00000000000E+00 -0.27076421161E+03  0.27076421161E+03  0.00000000000E+00 0.  1.
         25    1    1    2    0    0 -0.31909637351E+02 -0.12903045821E+03 -0.16394770985E+02  0.18319626802E+03  0.12500000000E+03 0.  0.
         25    1    1    2    0    0  0.57280244124E+01  0.16909230848E+03  0.35815089743E+02  0.21338401933E+03  0.12500000000E+03 0.  0.
         25    1    1    2    0    0  0.26181612939E+02 -0.40061850270E+02 -0.27686456607E+02  0.13668199802E+03  0.12500000000E+03 0.  0.
</event>
<event>
 5    0  0.5605075E-005  0.3585648E+03  0.7546771E-02  0.1059154E+00
         21   -1    0    0  502  501  0.00000000000E+00  0.00000000000E+00  0.19808519437E+03  0.19808519437E+03  0.00000000000E+00 0.  1.
         21   -1    0    0  501  502 -0.00000000000E+00 -0.00000000000E+00 -0.64905762727E+03  0.64905762727E+03  0.00000000000E+00 0.  1.
         25    1    1    2    0    0 -0.21834934231E+02  0.19830968747E+03 -0.32939517755E+03  0.40488230326E+03  0.12500000000E+03 0.  0.
         25    1    1    2    0    0  0.50935108043E+02  0.48428874361E+02 -0.69289089848E+02  0.15926618937E+03  0.12500000000E+03 0.  0.
         25    1    1    2    0    0 -0.29100173812E+02 -0.24673856183E+03 -0.52288165499E+02  0.28299432902E+03  0.12500000000E+03 0.  0.
</event>
<event>
 5    0  0.5605075E-005  0.3446037E+03  0.7546771E-02  0.1064852E+00
         21   -1    0    0  502  501  0.00000000000E+00  0.00000000000E+00  0.68314904388E+03  0.68314904388E+03  0.00000000000E+00 0. -1.
         21   -1    0    0  501  502 -0.00000000000E+00 -0.00000000000E+00 -0.17382985638E+03  0.17382985638E+03  0.00000000000E+00 0. -1.
         25    1    1    2    0    0 -0.11947222369E+03  0.21118354464E+03  0.16603452400E+03  0.31947545277E+03  0.12500000000E+03 0.  0.
         25    1    1    2    0    0  0.38609426854E+02 -0.70781943227E+01  0.22079812086E+03  0.25674422847E+03  0.12500000000E+03 0.  0.
         25    1    1    2    0    0  0.80862796836E+02 -0.20410535032E+03  0.12248654263E+03  0.28075921902E+03  0.12500000000E+03 0.  0.
</event>
<event>
 5    0  0.5605075E-005  0.2324760E+03  0.7546771E-02  0.1124909E+00
         21   -1    0    0  502  501  0.00000000000E+00  0.00000000000E+00  0.44011781944E+02  0.44011781944E+02  0.00000000000E+00 0.  1.
         21   -1    0    0  501  502 -0.00000000000E+00 -0.00000000000E+00 -0.12279684494E+04  0.12279684494E+04  0.00000000000E+00 0.  1.
         25    1    1    2    0    0  0.25597744390E+02  0.31130440412E+02 -0.20333137189E+03  0.24205990092E+03  0.12500000000E+03 0.  0.
         25    1    1    2    0    0 -0.10447260114E+03 -0.35615515283E+02 -0.53743187314E+03  0.56270863471E+03  0.12500000000E+03 0.  0.
         25    1    1    2    0    0  0.78874856751E+02  0.44850748717E+01 -0.44319342239E+03  0.46721169567E+03  0.12500000000E+03 0.  0.
</event>
<event>
 5    0  0.5605075E-005  0.2887674E+03  0.7546771E-02  0.1090994E+00
         21   -1    0    0  502  501  0.00000000000E+00  0.00000000000E+00  0.10019650265E+04  0.10019650265E+04  0.00000000000E+00 0.  1.
         21   -1    0    0  501  502 -0.00000000000E+00 -0.00000000000E+00 -0.83223065924E+02  0.83223065924E+02  0.00000000000E+00 0.  1.
         25    1    1    2    0    0  0.53778481119E+02 -0.59956864826E+02  0.87802670229E+02  0.17268833073E+03  0.12500000000E+03 0.  0.
         25    1    1    2    0    0 -0.76660457178E+02  0.13832229520E+02  0.12336068481E+03  0.19212239543E+03  0.12500000000E+03 0.  0.
         25    1    1    2    0    0  0.22881976059E+02  0.46124635306E+02  0.70757860557E+03  0.72037736630E+03  0.12500000000E+03 0.  0.
</event>
<event>
 5    0  0.5605075E-005  0.3418480E+03  0.7546771E-02  0.1066012E+00
         21   -1    0    0  502  501  0.00000000000E+00  0.00000000000E+00  0.29103463330E+03  0.29103463330E+03  0.00000000000E+00 0. -1.
         21   -1    0    0  501  502 -0.00000000000E+00 -0.00000000000E+00 -0.40153313973E+03  0.40153313973E+03  0.00000000000E+00 0. -1.
         25    1    1    2    0    0 -0.57558463495E+02  0.12874710381E+03  0.10596482515E+03  0.21619976325E+03  0.12500000000E+03 0.  0.
         25    1    1    2    0    0  0.18820459209E+02 -0.22318378387E+03 -0.91743418693E+02  0.27240973907E+03  0.12500000000E+03 0.  0.
         25    1    1    2    0    0  0.38738004286E+02  0.94436680064E+02 -0.12471991289E+03  0.20395827071E+03  0.12500000000E+03 0.  0.
</event>
<event>
 5    0  0.5605075E-005  0.2925620E+03  0.7546771E-02  0.1089019E+00
         21   -1    0    0  502  501  0.00000000000E+00  0.00000000000E+00  0.39504876850E+03  0.39504876850E+03  0.00000000000E+00 0. -1.
         21   -1    0    0  501  502 -0.00000000000E+00 -0.00000000000E+00 -0.21666314659E+03  0.21666314659E+03  0.00000000000E+00 0. -1.
         25    1    1    2    0    0  0.74204011089E+02  0.23630770302E+02  0.19078754777E+03  0.24101771087E+03  0.12500000000E+03 0.  0.
         25    1    1    2    0    0 -0.11400521972E+03  0.26274766777E+02 -0.10657750382E+03  0.20167131133E+03  0.12500000000E+03 0.  0.
         25    1    1    2    0    0  0.39801208626E+02 -0.49905537079E+02  0.94175577955E+02  0.16902289289E+03  0.12500000000E+03 0.  0.
</event>
<event>
 5    0  0.5889734E-005  0.2733534E+03  0.7546771E-02  0.1099376E+00
         21   -1    0    0  502  501  0.00000000000E+00  0.00000000000E+00  0.59635945065E+03  0.59635945065E+03  0.00000000000E+00 0. -1.
         21   -1    0    0  501  502 -0.00000000000E+00 -0.00000000000E+00 -0.12529709403E+03  0.12529709403E+03  0.00000000000E+00 0. -1.
         25    1    1    2    0    0 -0.15720132516E+03  0.37428541238E+02  0.27010109660E+03  0.33866318772E+03  0.12500000000E+03 0.  0.
         25    1    1    2    0    0  0.65633870968E+02  0.18427605119E+02  0.29826719955E+02  0.14547169784E+03  0.12500000000E+03 0.  0.
         25    1    1    2    0    0  0.91567454189E+02 -0.55856146357E+02  0.17113454005E+03  0.23752165912E+03  0.12500000000E+03 0.  0.
</event>
<event>
 5    0  0.5605075E-005  0.2311273E+03  0.7546771E-02  0.1125849E+00
         21   -1    0    0  502  501  0.00000000000E+00  0.00000000000E+00  0.75579131914E+02  0.75579131914E+02  0.00000000000E+00 0. -1.
         21   -1    0    0  501  502 -0.00000000000E+00 -0.00000000000E+00 -0.70680658797E+03  0.70680658797E+03  0.00000000000E+00 0. -1.
         25    1    1    2    0    0 -0.23553904060E+02 -0.95977178611E+02 -0.12630568414E+03  0.20333354632E+03  0.12500000000E+03 0.  0.
         25    1    1    2    0    0  0.29057146325E+02  0.92335681899E+02 -0.27102884341E+03  0.31377034574E+03  0.12500000000E+03 0.  0.
         25    1    1    2    0    0 -0.55032422653E+01  0.36414967121E+01 -0.23389292850E+03  0.26528182783E+03  0.12500000000E+03 0.  0.
</event>
<event>
 5    0  0.6489174E-005  0.4395374E+03  0.7546771E-02  0.1030889E+00
         21   -1    0    0  502  501  0.00000000000E+00  0.00000000000E+00  0.15845228103E+03  0.15845228103E+03  0.00000000000E+00 0. -1.
         21   -1    0    0  501  502 -0.00000000000E+00 -0.00000000000E+00 -0.12192511628E+04  0.12192511628E+04  0.00000000000E+00 0. -1.
         25    1    1    2    0    0  0.21635569669E+02 -0.12789192681E+03 -0.66290438625E+03  0.68694371540E+03  0.12500000000E+03 0.  0.
         25    1    1    2    0    0  0.77062656905E+01 -0.99534764114E+02  0.53984516988E+02  0.16883685579E+03  0.12500000000E+03 0.  0.
         25    1    1    2    0    0 -0.29341835360E+02  0.22742669093E+03 -0.45187901253E+03  0.52192287267E+03  0.12500000000E+03 0.  0.
</event>
<event>
 5    0  0.5605075E-005  0.6788938E+03  0.7546771E-02  0.9754023E-01
         21   -1    0    0  502  501  0.00000000000E+00  0.00000000000E+00  0.33435913925E+03  0.33435913925E+03  0.00000000000E+00 0.  1.
         21   -1    0    0  501  502 -0.00000000000E+00 -0.00000000000E+00 -0.13784484120E+04  0.13784484120E+04  0.00000000000E+00 0.  1.
         25    1    1    2    0    0  0.81635399990E+02 -0.98925680020E+01 -0.34084899674E+02  0.15345677508E+03  0.12500000000E+03 0.  0.
         25    1    1    2    0    0 -0.46280098986E+03 -0.32932582020E+03 -0.81010603599E+03  0.99726478009E+03  0.12500000000E+03 0.  0.
         25    1    1    2    0    0  0.38116558987E+03  0.33921838820E+03 -0.19989833705E+03  0.56208599604E+03  0.12500000000E+03 0.  0.
</event>
<event>
 5    0  0.5605075E-005  0.2732471E+03  0.7546771E-02  0.1099435E+00
         21   -1    0    0  502  501  0.00000000000E+00  0.00000000000E+00  0.32070212891E+02  0.32070212891E+02  0.00000000000E+00 0. -1.
         21   -1    0    0  501  502 -0.00000000000E+00 -0.00000000000E+00 -0.23281406677E+04  0.23281406677E+04  0.00000000000E+00 0. -1.
         25    1    1    2    0    0  0.83838588769E+02 -0.25952896617E+02 -0.70033417761E+03  0.71679524422E+03  0.12500000000E+03 0.  0.
         25    1    1    2    0    0 -0.15569661262E+03 -0.32108970419E+02 -0.54627945364E+03  0.58251065452E+03  0.12500000000E+03 0.  0.
         25    1    1    2    0    0  0.71858023848E+02  0.58061867035E+02 -0.10494568236E+04  0.10609049819E+04  0.12500000000E+03 0.  0.
</event>
<event>
 5    0  0.5605075E-005  0.2698971E+03  0.7546771E-02  0.1101338E+00
         21   -1    0    0  502  501  0.00000000000E+00  0.00000000000E+00  0.39092725085E+03  0.39092725085E+03  0.00000000000E+00 0. -1.
         21   -1    0    0  501  502 -0.00000000000E+00 -0.00000000000E+00 -0.18633765078E+03  0.18633765078E+03  0.00000000000E+00 0. -1.
         25    1    1    2    0    0 -0.69396340204E+02 -0.16744335542E+02  0.66846368506E+02  0.15871251302E+03  0.12500000000E+03 0.  0.
         25    1    1    2    0    0 -0.29480119667E+02 -0.12418389276E+03  0.91975127247E+02  0.20093566311E+03  0.12500000000E+03 0.  0.
         25    1    1    2    0    0  0.98876459870E+02  0.14092822830E+03  0.45768104308E+02  0.21761672551E+03  0.12500000000E+03 0.  0.
</event>
<event>
 5    0  0.5605075E-005  0.3023001E+03  0.7546771E-02  0.1084096E+00
         21   -1    0    0  502  501  0.00000000000E+00  0.00000000000E+00  0.18596956321E+03  0.18596956321E+03  0.00000000000E+00 0. -1.
         21   -1    0    0  501  502 -0.00000000000E+00 -0.00000000000E+00 -0.49139958511E+03  0.49139958511E+03  0.00000000000E+00 0. -1.
         25    1    1    2    0    0 -0.25874143531E+02  0.91450860342E+02 -0.28688514686E+03  0.32704864875E+03  0.12500000000E+03 0.  0.
         25    1    1    2    0    0  0.24345412694E+02 -0.14948338283E+03 -0.61799976475E+02  0.20586941967E+03  0.12500000000E+03 0.  0.
         25    1    1    2    0    0  0.15287308367E+01  0.58032522488E+02  0.43255101436E+02  0.14445107990E+03  0.12500000000E+03 0.  0.
</event>
<event>
 5    0  0.5605075E-005  0.3761422E+03  0.7546771E-02  0.1052369E+00
         21   -1    0    0  502  501  0.00000000000E+00  0.00000000000E+00  0.27298177339E+03  0.27298177339E+03  0.00000000000E+00 0.  1.
         21   -1    0    0  501  502 -0.00000000000E+00 -0.00000000000E+00 -0.51828711695E+03  0.51828711695E+03  0.00000000000E+00 0.  1.
         25    1    1    2    0    0 -0.13607770240E+03  0.17878914729E+03  0.89804775338E+02  0.27234646675E+03  0.12500000000E+03 0.  0.
         25    1    1    2    0    0 -0.42508989809E+02 -0.41715952287E+02 -0.10857332890E+03  0.17595568374E+03  0.12500000000E+03 0.  0.
         25    1    1    2    0    0  0.17858669221E+03 -0.13707319500E+03 -0.22653679000E+03  0.34296673985E+03  0.12500000000E+03 0.  0.
</event>
<event>
 5    0  0.5605075E-005  0.2549761E+03  0.7546771E-02  0.1110200E+00
         21   -1    0    0  502  501  0.00000000000E+00  0.00000000000E+00  0.19736830611E+02  0.19736830611E+02  0.00000000000E+00 0.  1.
         21   -1    0    0  501  502 -0.00000000000E+00 -0.00000000000E+00 -0.32939837257E+04  0.32939837257E+04  0.00000000000E+00 0.  1.
         25    1    1    2    0    0 -0.27923971326E+02  0.45088588214E+02 -0.37201603132E+03  0.39602229296E+03  0.12500000000E+03 0.  0.
         25    1    1    2    0    0  0.69835112346E+02  0.30325246438E+02 -0.12656154100E+04  0.12740502068E+04  0.12500000000E+03 0.  0.
         25    1    1    2    0    0 -0.41911141020E+02 -0.75413834652E+02 -0.16366154538E+04  0.16436480566E+04  0.12500000000E+03 0.  0.
</event>
<event>
 5    0  0.5665402E-005  0.2852974E+03  0.7546771E-02  0.1092830E+00
         21   -1    0    0  502  501  0.00000000000E+00  0.00000000000E+00  0.28297332862E+03  0.28297332862E+03  0.00000000000E+00 0.  1.
         21   -1    0    0  501  502 -0.00000000000E+00 -0.00000000000E+00 -0.28764061762E+03  0.28764061762E+03  0.00000000000E+00 0.  1.
         25    1    1    2    0    0  0.15588467986E+02 -0.13543469490E+03  0.12339655022E+02  0.18537212304E+03  0.12500000000E+03 0.  0.
         25    1    1    2    0    0  0.10292447138E+02  0.17197268090E+03  0.72786894301E+02  0.22495214919E+03  0.12500000000E+03 0.  0.
         25    1    1    2    0    0 -0.25880915123E+02 -0.36537986003E+02 -0.89793838323E+02  0.16028967400E+03  0.12500000000E+03 0.  0.
</event>
<event>
 5    0  0.5605075E-005  0.3066688E+03  0.7546771E-02  0.1081954E+00
         21   -1    0    0  502  501  0.00000000000E+00  0.00000000000E+00  0.13833210467E+03  0.13833210467E+03  0.00000000000E+00 0.  1.
         21   -1    0    0  501  502 -0.00000000000E+00 -0.00000000000E+00 -0.67985491289E+03  0.67985491289E+03  0.00000000000E+00 0.  1.
         25    1    1    2    0    0 -0.33312676372E+02 -0.26618368164E+01 -0.21600572624E+03  0.25179414916E+03  0.12500000000E+03 0.  0.
         25    1    1    2    0    0  0.21323121605E+02  0.88888977886E+02  0.48720745804E+02  0.16234111302E+03  0.12500000000E+03 0.  0.
         25    1    1    2    0    0  0.11989554767E+02 -0.86227141070E+02 -0.37423782778E+03  0.40405175538E+03  0.12500000000E+03 0.  0.
</event>
<event>
 5    0  0.5605075E-005  0.2435959E+03  0.7546771E-02  0.1117420E+00
         21   -1    0    0  502  501  0.00000000000E+00  0.00000000000E+00  0.61750529049E+03  0.61750529049E+03  0.00000000000E+00 0. -1.
         21   -1    0    0  501  502 -0.00000000000E+00 -0.00000000000E+00 -0.96094697045E+02  0.96094697045E+02  0.00000000000E+00 0. -1.
         25    1    1    2    0    0  0.31058625310E+02  0.11423449069E+02  0.59192123088E+02  0.14221055105E+03  0.12500000000E+03 0.  0.
         25    1    1    2    0    0  0.70560947058E+02  0.11646815989E+02  0.33560345658E+03  0.36519744748E+03  0.12500000000E+03 0.  0.
         25    1    1    2    0    0 -0.10161957237E+03 -0.23070265058E+02  0.12661501378E+03  0.20619198901E+03  0.12500000000E+03 0.  0.
</event>
<event>
 5    0  0.5605075E-005  0.2119794E+03  0.7546771E-02  0.1140008E+00
         21   -1    0    0  502  501  0.00000000000E+00  0.00000000000E+00  0.21067043139E+03  0.21067043139E+03  0.00000000000E+00 0.  1.
         21   -1    0    0  501  502 -0.00000000000E+00 -0.00000000000E+00 -0.21329644417E+03  0.21329644417E+03  0.00000000000E+00 0.  1.
         25    1    1    2    0    0 -0.62472629524E+02  0.21432216883E+02  0.34823206423E+02  0.14560159706E+03  0.12500000000E+03 0.  0.
         25    1    1    2    0    0 -0.85066191677E+01 -0.58641514701E+01  0.10923527975E+02  0.12590104966E+03  0.12500000000E+03 0.  0.
         25    1    1    2    0    0  0.70979248692E+02 -0.15568065413E+02 -0.48372747184E+02  0.15246422884E+03  0.12500000000E+03 0.  0.
</event>
<event>
 5    0  0.5605075E-005  0.2760683E+03  0.7546771E-02  0.1097856E+00
         21   -1    0    0  502  501  0.00000000000E+00  0.00000000000E+00  0.57268494810E+02  0.57268494810E+02  0.00000000000E+00 0. -1.
         21   -1    0    0  501  502 -0.00000000000E+00 -0.00000000000E+00 -0.13308142272E+04  0.13308142272E+04  0.00000000000E+00 0. -1.
         25    1    1    2    0    0 -0.19517626319E+02 -0.55404369869E+02 -0.31870548068E+03  0.34734531140E+03  0.12500000000E+03 0.  0.
         25    1    1    2    0    0 -0.30966311930E+02  0.15914184736E+03 -0.73380024691E+03  0.76182205430E+03  0.12500000000E+03 0.  0.
         25    1    1    2    0    0  0.50483938250E+02 -0.10373747749E+03 -0.22104000476E+03  0.27891535626E+03  0.12500000000E+03 0.  0.
</event>
<event>
 5    0  0.5605075E-005  0.2952136E+03  0.7546771E-02  0.1087658E+00
         21   -1    0    0  502  501  0.00000000000E+00  0.00000000000E+00  0.89067843289E+03  0.89067843289E+03  0.00000000000E+00 0.  1.
         21   -1    0    0  501  502 -0.00000000000E+00 -0.00000000000E+00 -0.97847944239E+02  0.97847944239E+02  0.00000000000E+00 0.  1.
         25    1    1    2    0    0  0.40371594928E+02  0.42607440135E+02  0.48906598437E+03  0.50818874122E+03  0.12500000000E+03 0.  0.
         25    1    1    2    0    0 -0.23357627890E+02 -0.14417266944E+03  0.23698684640E+03  0.30515422782E+03  0.12500000000E+03 0.  0.
         25    1    1    2    0    0 -0.17013967038E+02  0.10156522930E+03  0.66777657891E+02  0.17518340809E+03  0.12500000000E+03 0.  0.
</event>
<event>
 5    0  0.5605075E-005  0.3013726E+03  0.7546771E-02  0.1084556E+00
         21   -1    0    0  502  501  0.00000000000E+00  0.00000000000E+00  0.57051449425E+03  0.57051449425E+03  0.00000000000E+00 0.  1.
         21   -1    0    0  501  502 -0.00000000000E+00 -0.00000000000E+00 -0.15919923116E+03  0.15919923116E+03  0.00000000000E+00 0.  1.
         25    1    1    2    0    0  0.18007099608E+03 -0.44103915379E+01  0.63931789037E+02  0.22837970319E+03  0.12500000000E+03 0.  0.
         25    1    1    2    0    0 -0.68899352741E+02  0.43853664889E+02  0.49289205845E+02  0.15724086792E+03  0.12500000000E+03 0.  0.
         25    1    1    2    0    0 -0.11117164334E+03 -0.39443273351E+02  0.29809426821E+03  0.34409315429E+03  0.12500000000E+03 0.  0.
</event>
<event>
 5    0  0.5605075E-005  0.2247275E+03  0.7546771E-02  0.1130407E+00
         21   -1    0    0  502  501  0.00000000000E+00  0.00000000000E+00  0.13207427062E+03  0.13207427062E+03  0.00000000000E+00 0. -1.
         21   -1    0    0  501  502 -0.00000000000E+00 -0.00000000000E+00 -0.38237928557E+03  0.38237928557E+03  0.00000000000E+00 0. -1.
         25    1    1    2    0    0  0.36631529155E+01  0.28653658919E+02 -0.18595393654E+03  0.22591661597E+03  0.12500000000E+03 0.  0.
         25    1    1    2    0    0 -0.27121800786E+02  0.88216520083E+00  0.24989921945E+02  0.13032983731E+03  0.12500000000E+03 0.  0.
         25    1    1    2    0    0  0.23458647871E+02 -0.29535824119E+02 -0.89341000358E+02  0.15820710291E+03  0.12500000000E+03 0.  0.
</event>
<event>
 5    0  0.5875065E-005  0.3104898E+03  0.7546771E-02  0.1080111E+00
         21   -1    0    0  502  501  0.00000000000E+00  0.00000000000E+00  0.46548832733E+03  0.46548832733E+03  0.00000000000E+00 0.  1.
         21   -1    0    0  501  502 -0.00000000000E+00 -0.00000000000E+00 -0.20710273839E+03  0.20710273839E+03  0.00000000000E+00 0.  1.
         25    1    1    2    0    0  0.11089386897E+03 -0.16660176834E+03  0.10461352585E+03  0.25811351995E+03  0.12500000000E+03 0.  0.
         25    1    1    2    0    0  0.20505686614E+02  0.13321975748E+03  0.16458400742E+02  0.18456398869E+03  0.12500000000E+03 0.  0.
         25    1    1    2    0    0 -0.13139955559E+03  0.33382010864E+02  0.13731366236E+03  0.22991355708E+03  0.12500000000E+03 0.  0.
</event>
<event>
 5    0  0.5605075E-005  0.2345769E+03  0.7546771E-02  0.1123459E+00
         21   -1    0    0  502  501  0.00000000000E+00  0.00000000000E+00  0.12141517782E+04  0.12141517782E+04  0.00000000000E+00 0.  1.
         21   -1    0    0  501  502 -0.00000000000E+00 -0.00000000000E+00 -0.45320777108E+02  0.45320777108E+02  0.00000000000E+00 0.  1.
         25    1    1    2    0    0  0.22694927097E+02 -0.10761260590E+03  0.43341135769E+03  0.46429078996E+03  0.12500000000E+03 0.  0.
         25    1    1    2    0    0  0.47648320115E+02  0.30805759817E+02  0.28656642975E+03  0.31774939167E+03  0.12500000000E+03 0.  0.
         25    1    1    2    0    0 -0.70343247212E+02  0.76806846082E+02  0.44885321369E+03  0.47743237372E+03  0.12500000000E+03 0.  0.
</event>
<event>
 5    0  0.5605075E-005  0.2112000E+03  0.7546771E-02  0.1140619E+00
         21   -1    0    0  502  501  0.00000000000E+00  0.00000000000E+00  0.15448281603E+03  0.15448281603E+03  0.00000000000E+00 0.  1.
         21   -1    0    0  501  502 -0.00000000000E+00 -0.00000000000E+00 -0.28874036649E+03  0.28874036649E+03  0.00000000000E+00 0.  1.
         25    1    1    2    0    0 -0.82392685560E+02 -0.29380957750E+02 -0.44161930179E+02  0.15883032264E+03  0.12500000000E+03 0.  0.
         25    1    1    2    0    0  0.28239225779E+02  0.23691428940E+02 -0.65467212067E+02  0.14584132999E+03  0.12500000000E+03 0.  0.
         25    1    1    2    0    0  0.54153459781E+02  0.56895288101E+01 -0.24628408220E+02  0.13855152989E+03  0.12500000000E+03 0.  0.
</event>
<event>
 5    0  0.5605075E-005  0.3356349E+03  0.7546771E-02  0.1068670E+00
         21   -1    0    0  502  501  0.00000000000E+00  0.00000000000E+00  0.23281303733E+03  0.23281303733E+03  0.00000000000E+00 0.  1.
         21   -1    0    0  501  502 -0.00000000000E+00 -0.00000000000E+00 -0.48386795636E+03  0.48386795636E+03  0.00000000000E+00 0.  1.
         25    1    1    2    0    0  0.62254574391E+01  0.11642594893E+03 -0.14648914656E+03  0.22511736487E+03  0.12500000000E+03 0.  0.
         25    1    1    2    0    0 -0.13385213581E+03  0.13081636176E+02 -0.18122016958E+03  0.25797921104E+03  0.12500000000E+03 0.  0.
         25    1    1    2    0    0  0.12762667837E+03 -0.12950758511E+03  0.76654397110E+02  0.23358441778E+03  0.12500000000E+03 0.  0.
</event>
<event>
 5    0  0.5605075E-005  0.3538341E+03  0.7546771E-02  0.1061052E+00
         21   -1    0    0  502  501  0.00000000000E+00  0.00000000000E+00  0.12774971639E+03  0.12774971639E+03  0.00000000000E+00 0.  1.
         21   -1    0    0  501  502 -0.00000000000E+00 -0.00000000000E+00 -0.98003003456E+03  0.98003003456E+03  0.00000000000E+00 0.  1.
         25    1    1    2    0    0 -0.12368975527E+03  0.11048964211E+02 -0.62762582580E+03  0.65188987750E+03  0.12500000000E+03 0.  0.
         25    1    1    2    0    0 -0.26691841073E+02 -0.11171073869E+03 -0.14066308545E+03  0.22046053417E+03  0.12500000000E+03 0.  0.
         25    1    1    2    0    0  0.15038159634E+03  0.10066177447E+03 -0.83991406921E+02  0.23542933928E+03  0.12500000000E+03 0.  0.
</event>
<event>
 5    0  0.5605075E-005  0.3227069E+03  0.7546771E-02  0.1074410E+00
         21   -1    0    0  502  501  0.00000000000E+00  0.00000000000E+00  0.84727725113E+03  0.84727725113E+03  0.00000000000E+00 0. -1.
         21   -1    0    0  501  502 -0.00000000000E+00 -0.00000000000E+00 -0.12291108819E+03  0.12291108819E+03  0.00000000000E+00 0. -1.
         25    1    1    2    0    0  0.10301376501E+03 -0.95614211220E+02  0.49079854246E+03  0.52560643304E+03  0.12500000000E+03 0.  0.
         25    1    1    2    0    0 -0.17158027858E+03  0.20532932092E+02  0.16415758784E+03  0.26913585221E+03  0.12500000000E+03 0.  0.
         25    1    1    2    0    0  0.68566513573E+02  0.75081279128E+02  0.69410032637E+02  0.17544605407E+03  0.12500000000E+03 0.  0.
</event>
<event>
 5    0  0.5858715E-005  0.2535860E+03  0.7546771E-02  0.1111059E+00
         21   -1    0    0  502  501  0.00000000000E+00  0.00000000000E+00  0.40782931835E+03  0.40782931835E+03  0.00000000000E+00 0.  1.
         21   -1    0    0  501  502 -0.00000000000E+00 -0.00000000000E+00 -0.15767836613E+03  0.15767836613E+03  0.00000000000E+00 0.  1.
         25    1    1    2    0    0 -0.25706248100E+02 -0.55784586251E+02  0.10659844656E+03  0.17538802714E+03  0.12500000000E+03 0.  0.
         25    1    1    2    0    0  0.10779320244E+03 -0.95878909235E+01  0.15484125933E+03  0.22652178203E+03  0.12500000000E+03 0.  0.
         25    1    1    2    0    0 -0.82086954338E+02  0.65372477174E+02 -0.11288753676E+02  0.16359787530E+03  0.12500000000E+03 0.  0.
</event>
<event>
 5    0  0.5605075E-005  0.3699955E+03  0.7546771E-02  0.1054695E+00
         21   -1    0    0  502  501  0.00000000000E+00  0.00000000000E+00  0.39743023594E+03  0.39743023594E+03  0.00000000000E+00 0. -1.
         21   -1    0    0  501  502 -0.00000000000E+00 -0.00000000000E+00 -0.34445459656E+03  0.34445459656E+03  0.00000000000E+00 0. -1.
         25    1    1    2    0    0  0.23272762379E+03 -0.12557664041E+02  0.21021837744E+03  0.33784109876E+03  0.12500000000E+03 0.  0.
         25    1    1    2    0    0 -0.14043440128E+03 -0.45067277394E+02 -0.13729896404E+03  0.23712630829E+03  0.12500000000E+03 0.  0.
         25    1    1    2    0    0 -0.92293222510E+02  0.57624941435E+02 -0.19943774019E+02  0.16691742545E+03  0.12500000000E+03 0.  0.
</event>
<event>
 5    0  0.5605075E-005  0.3090843E+03  0.7546771E-02  0.1080786E+00
         21   -1    0    0  502  501  0.00000000000E+00  0.00000000000E+00  0.60952359709E+03  0.60952359709E+03  0.00000000000E+00 0.  1.
         21   -1    0    0  501  502 -0.00000000000E+00 -0.00000000000E+00 -0.15673406755E+03  0.15673406755E+03  0.00000000000E+00 0.  1.
         25    1    1    2    0    0  0.13684480292E+03  0.92050762227E+01  0.13462766744E+03  0.22926151521E+03  0.12500000000E+03 0.  0.
         25    1    1    2    0    0  0.11840541247E+02 -0.14237206838E+03  0.19125267246E+03  0.26946723177E+03  0.12500000000E+03 0.  0.
         25    1    1    2    0    0 -0.14868534417E+03  0.13316699215E+03  0.12690918964E+03  0.26752891766E+03  0.12500000000E+03 0.  0.
</event>
<event>
 5    0  0.5605075E-005  0.2647271E+03  0.7546771E-02  0.1104336E+00
         21   -1    0    0  502  501  0.00000000000E+00  0.00000000000E+00  0.47681224691E+02  0.47681224691E+02  0.00000000000E+00 0. -1.
         21   -1    0    0  501  502 -0.00000000000E+00 -0.00000000000E+00 -0.14697702737E+04  0.14697702737E+04  0.00000000000E+00 0. -1.
         25    1    1    2    0    0 -0.57678067563E+02 -0.99228723868E+02 -0.43926606216E+03  0.47090633091E+03  0.12500000000E+03 0.  0.
         25    1    1    2    0    0 -0.12853885470E+02  0.11867182793E+03 -0.28074576299E+03  0.32968380087E+03  0.12500000000E+03 0.  0.
         25    1    1    2    0    0  0.70531953033E+02 -0.19443104066E+02 -0.70207722388E+03  0.71686136664E+03  0.12500000000E+03 0.  0.
</event>
<event>
 5    0  0.5605075E-005  0.3980690E+03  0.7546771E-02  0.1044450E+00
         21   -1    0    0  502  501  0.00000000000E+00  0.00000000000E+00  0.61735082718E+03  0.61735082718E+03  0.00000000000E+00 0. -1.
         21   -1    0    0  501  502 -0.00000000000E+00 -0.00000000000E+00 -0.25667560465E+03  0.25667560465E+03  0.00000000000E+00 0. -1.
         25    1    1    2    0    0  0.43625366365E+02 -0.57893073641E+02  0.48392144804E+03  0.50503440322E+03  0.12500000000E+03 0.  0.
         25    1    1    2    0    0 -0.63261002159E+02  0.13862654545E+03 -0.80815338509E+02  0.21301500519E+03  0.12500000000E+03 0.  0.
         25    1    1    2    0    0  0.19635635793E+02 -0.80733471813E+02 -0.42430887003E+02  0.15597702342E+03  0.12500000000E+03 0.  0.
</event>
<event>
 5    0  0.5605075E-005  0.2865331E+03  0.7546771E-02  0.1092173E+00
         21   -1    0    0  502  501  0.00000000000E+00  0.00000000000E+00  0.12238715236E+03  0.12238715236E+03  0.00000000000E+00 0.  1.
         21   -1    0    0  501  502 -0.00000000000E+00 -0.00000000000E+00 -0.67083184038E+03  0.67083184038E+03  0.00000000000E+00 0.  1.
         25    1    1    2    0    0  0.41208456226E+02  0.19257273114E+03 -0.22956133971E+03  0.32727022830E+03  0.12500000000E+03 0.  0.
         25    1    1    2    0    0  0.23603900901E+02 -0.61569702770E+02 -0.17935727742E+03  0.22834624017E+03  0.12500000000E+03 0.  0.
         25    1    1    2    0    0 -0.64812357127E+02 -0.13100302837E+03 -0.13952607090E+03  0.23760252427E+03  0.12500000000E+03 0.  0.
</event>
<event>
 5    0  0.5605075E-005  0.2844333E+03  0.7546771E-02  0.1093292E+00
         21   -1    0    0  502  501  0.00000000000E+00  0.00000000000E+00  0.33789430133E+02  0.33789430133E+02  0.00000000000E+00 0.  1.
         21   -1    0    0  501  502 -0.00000000000E+00 -0.00000000000E+00 -0.23943086426E+04  0.23943086426E+04  0.00000000000E+00 0.  1.
         25    1    1    2    0    0 -0.10546814376E+03 -0.41182776173E+02 -0.10006387135E+04  0.10147523763E+04  0.12500000000E+03 0.  0.
         25    1    1    2    0    0  0.29141263471E+02  0.15292191670E+03 -0.76265086628E+03  0.78834996650E+03  0.12500000000E+03 0.  0.
         25    1    1    2    0    0  0.76326880290E+02 -0.11173914053E+03 -0.59722963268E+03  0.62499572985E+03  0.12500000000E+03 0.  0.
</event>
<event>
 5    0  0.5605075E-005  0.4082836E+03  0.7546771E-02  0.1040949E+00
         21   -1    0    0  502  501  0.00000000000E+00  0.00000000000E+00  0.39235878160E+03  0.39235878160E+03  0.00000000000E+00 0. -1.
         21   -1    0    0  501  502 -0.00000000000E+00 -0.00000000000E+00 -0.42485467903E+03  0.42485467903E+03  0.00000000000E+00 0. -1.
         25    1    1    2    0    0  0.20948556842E+03 -0.87353534700E+02 -0.96522101593E+02  0.27650743118E+03  0.12500000000E+03 0.  0.
         25    1    1    2    0    0  0.96061738442E+01 -0.12485691455E+03 -0.62458480430E+02  0.18763685529E+03  0.12500000000E+03 0.  0.
         25    1    1    2    0    0 -0.21909174227E+03  0.21221044925E+03  0.12648468459E+03  0.35306917415E+03  0.12500000000E+03 0.  0.
</event>
<event>
 5    0  0.5605075E-005  0.2994209E+03  0.7546771E-02  0.1085530E+00
         21   -1    0    0  502  501  0.00000000000E+00  0.00000000000E+00  0.76526187791E+02  0.76526187791E+02  0.00000000000E+00 0.  1.
         21   -1    0    0  501  502 -0.00000000000E+00 -0.00000000000E+00 -0.11715321158E+04  0.11715321158E+04  0.00000000000E+00 0.  1.
         25    1    1    2    0    0 -0.10853235263E+03 -0.14969370833E+03 -0.63496807536E+03  0.67305046958E+03  0.12500000000E+03 0.  0.
         25    1    1    2    0    0  0.58188712534E+01  0.12235488756E+03 -0.18440388687E+03  0.25423290752E+03  0.12500000000E+03 0.  0.
         25    1    1    2    0    0  0.10271348137E+03  0.27338820770E+02 -0.27563396583E+03  0.32077492654E+03  0.12500000000E+03 0.  0.
</event>
<event>
 5    0  0.5605075E-005  0.3148899E+03  0.7546771E-02  0.1078025E+00
         21   -1    0    0  502  501  0.00000000000E+00  0.00000000000E+00  0.17110017897E+04  0.17110017897E+04  0.00000000000E+00 0. -1.
         21   -1    0    0  501  502 -0.00000000000E+00 -0.00000000000E+00 -0.57951796994E+02  0.57951796994E+02  0.00000000000E+00 0. -1.
         25    1    1    2    0    0 -0.11439883924E+03 -0.13206544183E+03  0.50353517251E+03  0.54744958243E+03  0.12500000000E+03 0.  0.
         25    1    1    2    0    0  0.27772424773E+02 -0.20683088671E+02  0.14684644469E+03  0.19592849729E+03  0.12500000000E+03 0.  0.
         25    1    1    2    0    0  0.86626414469E+02  0.15274853050E+03  0.10026683755E+04  0.10255755070E+04  0.12500000000E+03 0.  0.
</event>
<event>
 5    0  0.5605075E-005  0.3181215E+03  0.7546771E-02  0.1076517E+00
         21   -1    0    0  502  501  0.00000000000E+00  0.00000000000E+00  0.44453088583E+03  0.44453088583E+03  0.00000000000E+00 0.  1.
         21   -1    0    0  501  502 -0.00000000000E+00 -0.00000000000E+00 -0.22765859411E+03  0.22765859411E+03  0.00000000000E+00 0.  1.
         25    1    1    2    0    0 -0.55721924184E+02  0.55887671145E+02 -0.42777070952E+02  0.15389360747E+03  0.12500000000E+03 0.  0.
         25    1    1    2    0    0  0.44218677317E+02 -0.81535320371E+02 -0.65454580381E+02  0.16885674989E+03  0.12500000000E+03 0.  0.
         25    1    1    2    0    0  0.11503246867E+02  0.25647649226E+02  0.32510394305E+03  0.34943912257E+03  0.12500000000E+03 0.  0.
</event>
<event>
 5    0  0.5605075E-005  0.2821305E+03  0.7546771E-02  0.1094531E+00
         21   -1    0    0  502  501  0.00000000000E+00  0.00000000000E+00  0.13068215682E+04  0.13068215682E+04  0.00000000000E+00 0. -1.
         21   -1    0    0  501  502 -0.00000000000E+00 -0.00000000000E+00 -0.60909323305E+02  0.60909323305E+02  0.00000000000E+00 0. -1.
         25    1    1    2    0    0 -0.51594800529E+02 -0.38312401450E+02  0.31920791693E+03  0.34878153302E+03  0.12500000000E+03 0.  0.
         25    1    1    2    0    0  0.13070332523E+03 -0.10922313640E+03  0.40106993652E+03  0.45331572522E+03  0.12500000000E+03 0.  0.
         25    1    1    2    0    0 -0.79108524699E+02  0.14753553785E+03  0.52563439141E+03  0.56563363322E+03  0.12500000000E+03 0.  0.
</event>
<event>
 5    0  0.5605075E-005  0.2456259E+03  0.7546771E-02  0.1116101E+00
         21   -1    0    0  502  501  0.00000000000E+00  0.00000000000E+00  0.89844683399E+03  0.89844683399E+03  0.00000000000E+00 0. -1.
         21   -1    0    0  501  502 -0.00000000000E+00 -0.00000000000E+00 -0.67151538144E+02  0.67151538144E+02  0.00000000000E+00 0. -1.
         25    1    1    2    0    0  0.38392543426E+02 -0.28920354101E+01  0.14201874291E+03  0.19307168253E+03  0.12500000000E+03 0.  0.
         25    1    1    2    0    0 -0.20051404635E+02 -0.11830884201E+03  0.36352905034E+03  0.40271256668E+03  0.12500000000E+03 0.  0.
         25    1    1    2    0    0 -0.18341138791E+02  0.12120087742E+03  0.32574750260E+03  0.36981412292E+03  0.12500000000E+03 0.  0.
</event>
<event>
 5    0  0.5605075E-005  0.4378579E+03  0.7546771E-02  0.1031406E+00
         21   -1    0    0  502  501  0.00000000000E+00  0.00000000000E+00  0.11921124367E+04  0.11921124367E+04  0.00000000000E+00 0. -1.
         21   -1    0    0  501  502 -0.00000000000E+00 -0.00000000000E+00 -0.16082336469E+03  0.16082336469E+03  0.00000000000E+00 0. -1.
         25    1    1    2    0    0  0.19681441443E+01 -0.73421524885E+02  0.18715232511E+03  0.23673949122E+03  0.12500000000E+03 0.  0.
         25    1    1    2    0    0  0.18644727619E+03  0.16628884523E+02 -0.15391457893E+02  0.22561250758E+03  0.12500000000E+03 0.  0.
         25    1    1    2    0    0 -0.18841542033E+03  0.56792640362E+02  0.85952820483E+03  0.89058380264E+03  0.12500000000E+03 0.  0.
</event>
<event>
 5    0  0.5605075E-005  0.2837897E+03  0.7546771E-02  0.1093637E+00
         21   -1    0    0  502  501  0.00000000000E+00  0.00000000000E+00  0.11078160812E+04  0.11078160812E+04  0.00000000000E+00 0.  1.
         21   -1    0    0  501  502 -0.00000000000E+00 -0.00000000000E+00 -0.72698515300E+02  0.72698515300E+02  0.00000000000E+00 0.  1.
         25    1    1    2    0    0  0.17870229355E+02 -0.10350946842E+03  0.86707681824E+02  0.18486962227E+03  0.12500000000E+03 0.  0.
         25    1    1    2    0    0 -0.67491188642E+02  0.88260595308E+02  0.49743638719E+03  0.52479801117E+03  0.12500000000E+03 0.  0.
         25    1    1    2    0    0  0.49620959287E+02  0.15248873112E+02  0.45097349688E+03  0.47084696306E+03  0.12500000000E+03 0.  0.
</event>
<event>
 5    0  0.5605075E-005  0.3156587E+03  0.7546771E-02  0.1077665E+00
         21   -1    0    0  502  501  0.00000000000E+00  0.00000000000E+00  0.44935522393E+03  0.44935522393E+03  0.00000000000E+00 0.  1.
         21   -1    0    0  501  502 -0.00000000000E+00 -0.00000000000E+00 -0.22174083858E+03  0.22174083858E+03  0.00000000000E+00 0.  1.
         25    1    1    2    0    0 -0.37690850165E+02  0.29535432749E+02  0.34211124143E+02  0.13816056959E+03  0.12500000000E+03 0.  0.
         25    1    1    2    0    0  0.84521480713E+02  0.12292962123E+03  0.25532188588E+03  0.32104491568E+03  0.12500000000E+03 0.  0.
         25    1    1    2    0    0 -0.46830630547E+02 -0.15246505398E+03 -0.61918624675E+02  0.21189057724E+03  0.12500000000E+03 0.  0.
</event>
<event>
 5    0  0.5605075E-005  0.5654056E+03  0.7546771E-02  0.9979897E-01
         21   -1    0    0  502  501  0.00000000000E+00  0.00000000000E+00  0.15344740728E+04  0.15344740728E+04  0.00000000000E+00 0.  1.
         21   -1    0    0  501  502 -0.00000000000E+00 -0.00000000000E+00 -0.20833426536E+03  0.20833426536E+03  0.00000000000E+00 0. -1.
         25    1    1    2    0    0 -0.42711934580E+02  0.21360655292E+03  0.16680066316E+03  0.30149548924E+03  0.12500000000E+03 0.  0.
         25    1    1    2    0    0  0.37412081526E+03 -0.28891013415E+03  0.58592793695E+03  0.76313301418E+03  0.12500000000E+03 0.  0.
         25    1    1    2    0    0 -0.33140888068E+03  0.75303581239E+02  0.57341120735E+03  0.67817983474E+03  0.12500000000E+03 0.  0.
</event>
<event>
 5    0  0.5605075E-005  0.2766034E+03  0.7546771E-02  0.1097559E+00
         21   -1    0    0  502  501  0.00000000000E+00  0.00000000000E+00  0.22182851649E+03  0.22182851649E+03  0.00000000000E+00 0. -1.
         21   -1    0    0  501  502 -0.00000000000E+00 -0.00000000000E+00 -0.34490352480E+03  0.34490352480E+03  0.00000000000E+00 0. -1.
         25    1    1    2    0    0  0.12249328226E+03 -0.74438751341E+02 -0.21458736839E+02  0.19139281409E+03  0.12500000000E+03 0.  0.
         25    1    1    2    0    0  0.17383873150E+02 -0.15361605248E+02 -0.10865916378E+03  0.16724231473E+03  0.12500000000E+03 0.  0.
         25    1    1    2    0    0 -0.13987715541E+03  0.89800356590E+02  0.70428923047E+01  0.20809691247E+03  0.12500000000E+03 0.  0.
</event>
<event>
 5    0  0.5605075E-005  0.2620178E+03  0.7546771E-02  0.1105937E+00
         21   -1    0    0  502  501  0.00000000000E+00  0.00000000000E+00  0.20804586978E+03  0.20804586978E+03  0.00000000000E+00 0.  1.
         21   -1    0    0  501  502 -0.00000000000E+00 -0.00000000000E+00 -0.32999130207E+03  0.32999130207E+03  0.00000000000E+00 0.  1.
         25    1    1    2    0    0 -0.55469446028E+02  0.24584665766E+02  0.58056540850E+02  0.15058827036E+03  0.12500000000E+03 0.  0.
         25    1    1    2    0    0  0.10048330738E+03  0.56936187293E+02 -0.33335757492E+02  0.17342115561E+03  0.12500000000E+03 0.  0.
         25    1    1    2    0    0 -0.45013861354E+02 -0.81520853059E+02 -0.14666621565E+03  0.21402774589E+03  0.12500000000E+03 0.  0.
</event>
<event>
 5    0  0.5605075E-005  0.3544824E+03  0.7546771E-02  0.1060790E+00
         21   -1    0    0  502  501  0.00000000000E+00  0.00000000000E+00  0.73996915398E+03  0.73996915398E+03  0.00000000000E+00 0.  1.
         21   -1    0    0  501  502 -0.00000000000E+00 -0.00000000000E+00 -0.16981490200E+03  0.16981490200E+03  0.00000000000E+00 0.  1.
         25    1    1    2    0    0  0.49739830501E+02  0.27818474910E+03  0.23667973675E+03  0.38923399538E+03  0.12500000000E+03 0.  0.
         25    1    1    2    0    0  0.17272202602E+01 -0.17420535985E+03  0.25398208420E+03  0.33238891346E+03  0.12500000000E+03 0.  0.
         25    1    1    2    0    0 -0.51467050761E+02 -0.10397938925E+03  0.79492431034E+02  0.18816114714E+03  0.12500000000E+03 0.  0.
</event>
<event>
 5    0  0.5787520E-005  0.4752639E+03  0.7546771E-02  0.1020445E+00
         21   -1    0    0  502  501  0.00000000000E+00  0.00000000000E+00  0.32441487143E+03  0.32441487143E+03  0.00000000000E+00 0.  1.
         21   -1    0    0  501  502 -0.00000000000E+00 -0.00000000000E+00 -0.69625586138E+03  0.69625586138E+03  0.00000000000E+00 0.  1.
         25    1    1    2    0    0 -0.16944812866E+03  0.18087974032E+03 -0.29789233852E+03  0.40717931445E+03  0.12500000000E+03 0.  0.
         25    1    1    2    0    0  0.44889718927E+02  0.13373435180E+03  0.99613003937E+02  0.21318469520E+03  0.12500000000E+03 0.  0.
         25    1    1    2    0    0  0.12455840973E+03 -0.31461409212E+03 -0.17356165537E+03  0.40030672316E+03  0.12500000000E+03 0.  0.
</event>
<event>
 5    0  0.5605075E-005  0.2721726E+03  0.7546771E-02  0.1100043E+00
         21   -1    0    0  502  501  0.00000000000E+00  0.00000000000E+00  0.68502085962E+02  0.68502085962E+02  0.00000000000E+00 0.  1.
         21   -1    0    0  501  502 -0.00000000000E+00 -0.00000000000E+00 -0.10813964040E+04  0.10813964040E+04  0.00000000000E+00 0.  1.
         25    1    1    2    0    0 -0.96314076813E+02 -0.70432481678E+02 -0.35955522322E+03  0.39892617665E+03  0.12500000000E+03 0.  0.
         25    1    1    2    0    0  0.63362486302E+02 -0.23461510333E+02 -0.96744812443E+02  0.17190056973E+03  0.12500000000E+03 0.  0.
         25    1    1    2    0    0  0.32951590511E+02  0.93893992010E+02 -0.55659428237E+03  0.57907174358E+03  0.12500000000E+03 0.  0.
</event>
<event>
 5    0  0.5605075E-005  0.2679683E+03  0.7546771E-02  0.1102448E+00
         21   -1    0    0  502  501  0.00000000000E+00  0.00000000000E+00  0.63606289267E+02  0.63606289267E+02  0.00000000000E+00 0.  1.
         21   -1    0    0  501  502 -0.00000000000E+00 -0.00000000000E+00 -0.11289292249E+04  0.11289292249E+04  0.00000000000E+00 0.  1.
         25    1    1    2    0    0 -0.87860830720E+02  0.25446701010E+02 -0.28417892205E+03  0.32365061394E+03  0.12500000000E+03 0.  0.
         25    1    1    2    0    0 -0.68852202268E+02 -0.90049925866E+02 -0.31437309496E+03  0.35679834324E+03  0.12500000000E+03 0.  0.
         25    1    1    2    0    0  0.15671303299E+03  0.64603224855E+02 -0.46677091861E+03  0.51208655697E+03  0.12500000000E+03 0.  0.
</event>
<event>
 5    0  0.5605075E-005  0.3720138E+03  0.7546771E-02  0.1053926E+00
         21   -1    0    0  502  501  0.00000000000E+00  0.00000000000E+00  0.25261463774E+03  0.25261463774E+03  0.00000000000E+00 0.  1.
         21   -1    0    0  501  502 -0.00000000000E+00 -0.00000000000E+00 -0.54784743655E+03  0.54784743655E+03  0.00000000000E+00 0.  1.
         25    1    1    2    0    0  0.89211287069E+02  0.20819020229E+03 -0.80281411119E+02  0.27087251437E+03  0.12500000000E+03 0.  0.
         25    1    1    2    0    0 -0.53709197026E+02  0.70452527104E+02 -0.15188224168E+03  0.21573467908E+03  0.12500000000E+03 0.  0.
         25    1    1    2    0    0 -0.35502090043E+02 -0.27864272940E+03 -0.63069146010E+02  0.31385488083E+03  0.12500000000E+03 0.  0.
</event>
<event>
 5    0  0.5605075E-005  0.3921970E+03  0.7546771E-02  0.1046516E+00
         21   -1    0    0  502  501  0.00000000000E+00  0.00000000000E+00  0.80707908771E+03  0.80707908771E+03  0.00000000000E+00 0.  1.
         21   -1    0    0  501  502 -0.00000000000E+00 -0.00000000000E+00 -0.19058660698E+03  0.19058660698E+03  0.00000000000E+00 0.  1.
         25    1    1    2    0    0 -0.18602039756E+03 -0.18634245304E+01  0.54199131976E+02  0.23058535635E+03  0.12500000000E+03 0.  0.
         25    1    1    2    0    0  0.30739041976E+03 -0.24785570422E+02  0.28302204061E+03  0.43684055458E+03  0.12500000000E+03 0.  0.
         25    1    1    2    0    0 -0.12137002220E+03  0.26648994952E+02  0.27927130815E+03  0.33023978376E+03  0.12500000000E+03 0.  0.
</event>
<event>
 5    0  0.5605075E-005  0.3002809E+03  0.7546771E-02  0.1085100E+00
         21   -1    0    0  502  501  0.00000000000E+00  0.00000000000E+00  0.45695222755E+02  0.45695222755E+02  0.00000000000E+00 0. -1.
         21   -1    0    0  501  502 -0.00000000000E+00 -0.00000000000E+00 -0.19732616939E+04  0.19732616939E+04  0.00000000000E+00 0. -1.
         25    1    1    2    0    0  0.15194858833E+03 -0.94818645245E+02 -0.47959379686E+03  0.52698591914E+03  0.12500000000E+03 0.  0.
         25    1    1    2    0    0 -0.17346735669E+03  0.27647932382E+02 -0.90873869552E+03  0.93396271271E+03  0.12500000000E+03 0.  0.
         25    1    1    2    0    0  0.21518768357E+02  0.67170712864E+02 -0.53923397876E+03  0.55800828480E+03  0.12500000000E+03 0.  0.
</event>
<event>
 5    0  0.5605075E-005  0.2529444E+03  0.7546771E-02  0.1111458E+00
         21   -1    0    0  502  501  0.00000000000E+00  0.00000000000E+00  0.95862545709E+03  0.95862545709E+03  0.00000000000E+00 0.  1.
         21   -1    0    0  501  502 -0.00000000000E+00 -0.00000000000E+00 -0.66742310603E+02  0.66742310603E+02  0.00000000000E+00 0.  1.
         25    1    1    2    0    0 -0.11182701404E+03 -0.87416447362E+02  0.31394971265E+03  0.36651921970E+03  0.12500000000E+03 0.  0.
         25    1    1    2    0    0  0.56711420262E+02 -0.70169946058E+01  0.35635645793E+03  0.38194286027E+03  0.12500000000E+03 0.  0.
         25    1    1    2    0    0  0.55115593780E+02  0.94433441968E+02  0.22157697590E+03  0.27690568772E+03  0.12500000000E+03 0.  0.
</event>
<event>
 5    0  0.5605075E-005  0.4104381E+03  0.7546771E-02  0.1040224E+00
         21   -1    0    0  502  501  0.00000000000E+00  0.00000000000E+00  0.33402921362E+03  0.33402921362E+03  0.00000000000E+00 0.  1.
         21   -1    0    0  501  502 -0.00000000000E+00 -0.00000000000E+00 -0.50432547874E+03  0.50432547874E+03  0.00000000000E+00 0.  1.
         25    1    1    2    0    0  0.17438828200E+03 -0.15739218322E+03 -0.31453550395E+03  0.41199654790E+03  0.12500000000E+03 0.  0.
         25    1    1    2    0    0 -0.60733283086E+02  0.14852306719E+03  0.15663933548E+03  0.25672653657E+03  0.12500000000E+03 0.  0.
         25    1    1    2    0    0 -0.11365499892E+03  0.88691160281E+01 -0.12400096652E+02  0.16963160789E+03  0.12500000000E+03 0.  0.
</event>
<event>
 5    0  0.5605075E-005  0.3786282E+03  0.7546771E-02  0.1051442E+00
         21   -1    0    0  502  501  0.00000000000E+00  0.00000000000E+00  0.83880498524E+03  0.83880498524E+03  0.00000000000E+00 0. -1.
         21   -1    0    0  501  502 -0.00000000000E+00 -0.00000000000E+00 -0.17090897794E+03  0.17090897794E+03  0.00000000000E+00 0. -1.
         25    1    1    2    0    0 -0.49991381291E+02  0.34580987377E+02 -0.42537942350E+02  0.14535975864E+03  0.12500000000E+03 0.  0.
         25    1    1    2    0    0  0.15719743715E+03  0.26744134325E+02  0.64626399863E+03  0.67728017754E+03  0.12500000000E+03 0.  0.
         25    1    1    2    0    0 -0.10720605586E+03 -0.61325121702E+02  0.64169951029E+02  0.18707402700E+03  0.12500000000E+03 0.  0.
</event>
<event>
 5    0  0.6709145E-005  0.2904829E+03  0.7546771E-02  0.1090097E+00
         21   -1    0    0  502  501  0.00000000000E+00  0.00000000000E+00  0.20186064071E+03  0.20186064071E+03  0.00000000000E+00 0.  1.
         21   -1    0    0  501  502 -0.00000000000E+00 -0.00000000000E+00 -0.41801285402E+03  0.41801285402E+03  0.00000000000E+00 0.  1.
         25    1    1    2    0    0 -0.12705506132E+03  0.14725606887E+03 -0.13517390229E+03  0.26781396955E+03  0.12500000000E+03 0.  0.
         25    1    1    2    0    0  0.42728422336E+02 -0.10076920411E+03  0.15895739971E+02  0.16690663594E+03  0.12500000000E+03 0.  0.
         25    1    1    2    0    0  0.84326638986E+02 -0.46486864759E+02 -0.96874050995E+02  0.18515288924E+03  0.12500000000E+03 0.  0.
</event>
<event>
 5    0  0.5605075E-005  0.3283458E+03  0.7546771E-02  0.1071871E+00
         21   -1    0    0  502  501  0.00000000000E+00  0.00000000000E+00  0.28716879385E+03  0.28716879385E+03  0.00000000000E+00 0. -1.
         21   -1    0    0  501  502 -0.00000000000E+00 -0.00000000000E+00 -0.37542719234E+03  0.37542719234E+03  0.00000000000E+00 0. -1.
         25    1    1    2    0    0  0.37092963898E+02 -0.69255396662E+02 -0.40797479627E+02  0.15317190435E+03  0.12500000000E+03 0.  0.
         25    1    1    2    0    0  0.64788249780E+02  0.20716020205E+03  0.78721498419E+02  0.26255464372E+03  0.12500000000E+03 0.  0.
         25    1    1    2    0    0 -0.10188121368E+03 -0.13790480539E+03 -0.12618241728E+03  0.24686943813E+03  0.12500000000E+03 0.  0.
</event>
<event>
 5    0  0.5605075E-005  0.2657294E+03  0.7546771E-02  0.1103749E+00
         21   -1    0    0  502  501  0.00000000000E+00  0.00000000000E+00  0.23927801605E+04  0.23927801605E+04  0.00000000000E+00 0.  1.
         21   -1    0    0  501  502 -0.00000000000E+00 -0.00000000000E+00 -0.29510487316E+02  0.29510487316E+02  0.00000000000E+00 0.  1.
         25    1    1    2    0    0  0.20876316383E+02  0.99821889750E+01  0.22001816595E+03  0.25410324286E+03  0.12500000000E+03 0.  0.
         25    1    1    2    0    0  0.37984919133E+02  0.63051462642E+02  0.61089297303E+03  0.62788021591E+03  0.12500000000E+03 0.  0.
         25    1    1    2    0    0 -0.58861235516E+02 -0.73033651617E+02  0.15323585342E+04  0.15403071891E+04  0.12500000000E+03 0.  0.
</event>
<event>
 5    0  0.5605075E-005  0.3502547E+03  0.7546771E-02  0.1062511E+00
         21   -1    0    0  502  501  0.00000000000E+00  0.00000000000E+00  0.37659641033E+03  0.37659641033E+03  0.00000000000E+00 0. -1.
         21   -1    0    0  501  502 -0.00000000000E+00 -0.00000000000E+00 -0.32575549327E+03  0.32575549327E+03  0.00000000000E+00 0. -1.
         25    1    1    2    0    0  0.43252264038E+02 -0.51851531622E+01  0.23567556743E+03  0.27030652460E+03  0.12500000000E+03 0.  0.
         25    1    1    2    0    0  0.35128838950E+02  0.12064022605E+03 -0.12807542222E+02  0.17769955713E+03  0.12500000000E+03 0.  0.
         25    1    1    2    0    0 -0.78381102987E+02 -0.11545507289E+03 -0.17202710815E+03  0.25434582186E+03  0.12500000000E+03 0.  0.
</event>
<event>
 5    0  0.6402206E-005  0.3526747E+03  0.7546771E-02  0.1061523E+00
         21   -1    0    0  502  501  0.00000000000E+00  0.00000000000E+00  0.97171088677E+03  0.97171088677E+03  0.00000000000E+00 0. -1.
         21   -1    0    0  501  502 -0.00000000000E+00 -0.00000000000E+00 -0.12800044003E+03  0.12800044003E+03  0.00000000000E+00 0. -1.
         25    1    1    2    0    0  0.13456667152E+03 -0.16485639206E+03  0.28055985281E+03  0.37366381962E+03  0.12500000000E+03 0.  0.
         25    1    1    2    0    0 -0.10373895716E+03  0.96414059922E+02  0.54777658001E+03  0.57943215633E+03  0.12500000000E+03 0.  0.
         25    1    1    2    0    0 -0.30827714366E+02  0.68442332139E+02  0.15374013920E+02  0.14661535085E+03  0.12500000000E+03 0.  0.
</event>
<event>
 5    0  0.5605075E-005  0.3492546E+03  0.7546771E-02  0.1062921E+00
         21   -1    0    0  502  501  0.00000000000E+00  0.00000000000E+00  0.34932594410E+03  0.34932594410E+03  0.00000000000E+00 0.  1.
         21   -1    0    0  501  502 -0.00000000000E+00 -0.00000000000E+00 -0.34918332692E+03  0.34918332692E+03  0.00000000000E+00 0.  1.
         25    1    1    2    0    0  0.80861649765E+02  0.22646252403E+03 -0.25024415521E+02  0.27216741643E+03  0.12500000000E+03 0.  0.
         25    1    1    2    0    0 -0.13339449337E+03 -0.22379038994E+03  0.33741314633E+01  0.28898549143E+03  0.12500000000E+03 0.  0.
         25    1    1    2    0    0  0.52532843606E+02 -0.26721340909E+01  0.21792901232E+02  0.13735636317E+03  0.12500000000E+03 0.  0.
</event>
<event>
 5    0  0.5605075E-005  0.2982658E+03  0.7546771E-02  0.1086111E+00
         21   -1    0    0  502  501  0.00000000000E+00  0.00000000000E+00  0.21901365566E+04  0.21901365566E+04  0.00000000000E+00 0.  1.
         21   -1    0    0  501  502 -0.00000000000E+00 -0.00000000000E+00 -0.40619608141E+02  0.40619608141E+02  0.00000000000E+00 0.  1.
         25    1    1    2    0    0 -0.14641692348E+02  0.66867898360E+02  0.29135172128E+03  0.32434013085E+03  0.12500000000E+03 0.  0.
         25    1    1    2    0    0  0.21402725347E+02  0.63078537188E+02  0.24348710619E+03  0.28168768058E+03  0.12500000000E+03 0.  0.
         25    1    1    2    0    0 -0.67610329990E+01 -0.12994643555E+03  0.16146781210E+04  0.16247283533E+04  0.12500000000E+03 0.  0.
</event>
<event>
 5    0  0.5605075E-005  0.3966059E+03  0.7546771E-02  0.1044961E+00
         21   -1    0    0  502  501  0.00000000000E+00  0.00000000000E+00  0.52267597318E+03  0.52267597318E+03  0.00000000000E+00 0. -1.
         21   -1    0    0  501  502 -0.00000000000E+00 -0.00000000000E+00 -0.30094412236E+03  0.30094412236E+03  0.00000000000E+00 0. -1.
         25    1    1    2    0    0 -0.29110086166E+02 -0.12975347191E+03 -0.30730711436E+02  0.18507495026E+03  0.12500000000E+03 0.  0.
         25    1    1    2    0    0 -0.12756162904E+03  0.27921761306E+03  0.18499001721E+03  0.37957970324E+03  0.12500000000E+03 0.  0.
         25    1    1    2    0    0  0.15667171520E+03 -0.14946414115E+03  0.67472545048E+02  0.25896544204E+03  0.12500000000E+03 0.  0.
</event>
<event>
 5    0  0.5605075E-005  0.5144084E+03  0.7546771E-02  0.1010085E+00
         21   -1    0    0  502  501  0.00000000000E+00  0.00000000000E+00  0.68678331273E+03  0.68678331273E+03  0.00000000000E+00 0.  1.
         21   -1    0    0  501  502 -0.00000000000E+00 -0.00000000000E+00 -0.38529765193E+03  0.38529765193E+03  0.00000000000E+00 0.  1.
         25    1    1    2    0    0 -0.29657093994E+03 -0.62361621389E+02 -0.68238658304E+02  0.33485042739E+03  0.12500000000E+03 0.  0.
         25    1    1    2    0    0 -0.42203238079E+02 -0.12921070059E+03  0.25091547644E+03  0.31154469144E+03  0.12500000000E+03 0.  0.
         25    1    1    2    0    0  0.33877417802E+03  0.19157232198E+03  0.11880884266E+03  0.42568584582E+03  0.12500000000E+03 0.  0.
</event>
<event>
 5    0  0.5605075E-005  0.2431007E+03  0.7546771E-02  0.1117744E+00
         21   -1    0    0  502  501  0.00000000000E+00  0.00000000000E+00  0.35364947204E+03  0.35364947204E+03  0.00000000000E+00 0. -1.
         21   -1    0    0  501  502 -0.00000000000E+00 -0.00000000000E+00 -0.16710886528E+03  0.16710886528E+03  0.00000000000E+00 0. -1.
         25    1    1    2    0    0  0.12797650693E+03  0.31528223845E+02  0.98427583232E+02  0.20660349553E+03  0.12500000000E+03 0.  0.
         25    1    1    2    0    0 -0.10696961220E+03 -0.52337349964E+02  0.58981766143E+02  0.18244326480E+03  0.12500000000E+03 0.  0.
         25    1    1    2    0    0 -0.21006894737E+02  0.20809126119E+02  0.29131257386E+02  0.13171157699E+03  0.12500000000E+03 0.  0.
</event>
<event>
 5    0  0.5605075E-005  0.3166800E+03  0.7546771E-02  0.1077187E+00
         21   -1    0    0  502  501  0.00000000000E+00  0.00000000000E+00  0.12000046933E+04  0.12000046933E+04  0.00000000000E+00 0. -1.
         21   -1    0    0  501  502 -0.00000000000E+00 -0.00000000000E+00 -0.83571538743E+02  0.83571538743E+02  0.00000000000E+00 0. -1.
         25    1    1    2    0    0  0.16557797020E+02  0.57341109357E+02  0.20781962758E+03  0.24975219933E+03  0.12500000000E+03 0.  0.
         25    1    1    2    0    0  0.18278744175E+03 -0.10945250093E+03  0.38524440806E+03  0.45763451876E+03  0.12500000000E+03 0.  0.
         25    1    1    2    0    0 -0.19934523877E+03  0.52111391569E+02  0.52336911896E+03  0.57618951399E+03  0.12500000000E+03 0.  0.
</event>
<event>
 5    0  0.5605075E-005  0.5745995E+03  0.7546771E-02  0.9959552E-01
         21   -1    0    0  502  501  0.00000000000E+00  0.00000000000E+00  0.68968240736E+03  0.68968240736E+03  0.00000000000E+00 0.  1.
         21   -1    0    0  501  502 -0.00000000000E+00 -0.00000000000E+00 -0.47871978334E+03  0.47871978334E+03  0.00000000000E+00 0.  1.
         25    1    1    2    0    0 -0.70022751729E+02  0.21907721493E+03  0.18095131523E+03  0.31822380544E+03  0.12500000000E+03 0.  0.
         25    1    1    2    0    0 -0.28985806911E+03 -0.82453956510E+02  0.22956771696E+03  0.39892692544E+03  0.12500000000E+03 0.  0.
         25    1    1    2    0    0  0.35988082084E+03 -0.13662325842E+03 -0.19955640817E+03  0.45125145982E+03  0.12500000000E+03 0.  0.
</event>
<event>
 5    0  0.5605075E-005  0.3298713E+03  0.7546771E-02  0.1071194E+00
         21   -1    0    0  502  501  0.00000000000E+00  0.00000000000E+00  0.83102807612E+03  0.83102807612E+03  0.00000000000E+00 0. -1.
         21   -1    0    0  501  502 -0.00000000000E+00 -0.00000000000E+00 -0.13094034239E+03  0.13094034239E+03  0.00000000000E+00 0. -1.
         25    1    1    2    0    0  0.14799645045E+03 -0.91588010709E+02  0.39849002040E+03  0.45244956560E+03  0.12500000000E+03 0.  0.
         25    1    1    2    0    0 -0.16508142380E+03 -0.57828851905E+02  0.15175882630E+03  0.26315735589E+03  0.12500000000E+03 0.  0.
         25    1    1    2    0    0  0.17084973350E+02  0.14941686261E+03  0.14983888703E+03  0.24636149702E+03  0.12500000000E+03 0.  0.
</event>
<event>
 5    0  0.5605075E-005  0.3437286E+03  0.7546771E-02  0.1065219E+00
         21   -1    0    0  502  501  0.00000000000E+00  0.00000000000E+00  0.40914965236E+03  0.40914965236E+03  0.00000000000E+00 0.  1.
         21   -1    0    0  501  502 -0.00000000000E+00 -0.00000000000E+00 -0.28876804671E+03  0.28876804671E+03  0.00000000000E+00 0.  1.
         25    1    1    2    0    0 -0.10332569749E+03  0.95963854730E+02  0.14406048991E+03  0.23719967523E+03  0.12500000000E+03 0.  0.
         25    1    1    2    0    0  0.33967975126E+02 -0.20761365302E+03  0.72748383751E+02  0.25529312484E+03  0.12500000000E+03 0.  0.
         25    1    1    2    0    0  0.69357722367E+02  0.11164979829E+03 -0.96427268017E+02  0.20542489899E+03  0.12500000000E+03 0.  0.
</event>
<event>
 5    0  0.5605075E-005  0.3060204E+03  0.7546771E-02  0.1082269E+00
         21   -1    0    0  502  501  0.00000000000E+00  0.00000000000E+00  0.14710123844E+03  0.14710123844E+03  0.00000000000E+00 0. -1.
         21   -1    0    0  501  502 -0.00000000000E+00 -0.00000000000E+00 -0.63662628139E+03  0.63662628139E+03  0.00000000000E+00 0. -1.
         25    1    1    2    0    0  0.35247994338E+02  0.12827360165E+02 -0.17648890556E+03  0.21950010492E+03  0.12500000000E+03 0.  0.
         25    1    1    2    0    0 -0.18006185829E+03  0.71296622624E+02 -0.26227831573E+03  0.34917101270E+03  0.12500000000E+03 0.  0.
         25    1    1    2    0    0  0.14481386395E+03 -0.84123982789E+02 -0.50757821657E+02  0.21505640221E+03  0.12500000000E+03 0.  0.
</event>
<event>
 5    0  0.5605075E-005  0.4045405E+03  0.7546771E-02  0.1042219E+00
         21   -1    0    0  502  501  0.00000000000E+00  0.00000000000E+00  0.76442117081E+02  0.76442117081E+02  0.00000000000E+00 0. -1.
         21   -1    0    0  501  502 -0.00000000000E+00 -0.00000000000E+00 -0.21408750148E+04  0.21408750148E+04  0.00000000000E+00 0. -1.
         25    1    1    2    0    0 -0.17881619042E+03 -0.14616527102E+03 -0.70701333801E+03  0.75420976958E+03  0.12500000000E+03 0.  0.
         25    1    1    2    0    0 -0.95973303659E+02 -0.13020541084E+01 -0.18267792454E+03  0.24126498808E+03  0.12500000000E+03 0.  0.
         25    1    1    2    0    0  0.27478949408E+03  0.14746732513E+03 -0.11747416352E+04  0.12218423742E+04  0.12500000000E+03 0.  0.
</event>
<event>
 5    0  0.5605075E-005  0.4212148E+03  0.7546771E-02  0.1036672E+00
         21   -1    0    0  502  501  0.00000000000E+00  0.00000000000E+00  0.16291344543E+03  0.16291344543E+03  0.00000000000E+00 0.  1.
         21   -1    0    0  501  502 -0.00000000000E+00 -0.00000000000E+00 -0.10890563501E+04  0.10890563501E+04  0.00000000000E+00 0.  1.
         25    1    1    2    0    0  0.13316944225E+02  0.74174710722E+01 -0.72496677684E+03  0.73582211668E+03  0.12500000000E+03 0.  0.
         25    1    1    2    0    0  0.18400341269E+03  0.49024727315E+02 -0.53124423672E+02  0.23389716578E+03  0.12500000000E+03 0.  0.
         25    1    1    2    0    0 -0.19732035691E+03 -0.56442198387E+02 -0.14805170411E+03  0.28225051302E+03  0.12500000000E+03 0.  0.
</event>
<event>
 5    0  0.5605075E-005  0.2946756E+03  0.7546771E-02  0.1087933E+00
         21   -1    0    0  502  501  0.00000000000E+00  0.00000000000E+00  0.31413822676E+03  0.31413822676E+03  0.00000000000E+00 0.  1.
         21   -1    0    0  501  502 -0.00000000000E+00 -0.00000000000E+00 -0.27641883579E+03  0.27641883579E+03  0.00000000000E+00 0.  1.
         25    1    1    2    0    0  0.72719502346E+02  0.59762125627E+02  0.97630824591E+02  0.18443539680E+03  0.12500000000E+03 0.  0.
         25    1    1    2    0    0 -0.66187841739E+01  0.10118670151E+03  0.45622513727E+02  0.16729904550E+03  0.12500000000E+03 0.  0.
         25    1    1    2    0    0 -0.66100718172E+02 -0.16094882714E+03 -0.10553394735E+03  0.23882262025E+03  0.12500000000E+03 0.  0.
</event>
<event>
 5    0  0.5605075E-005  0.4715857E+03  0.7546771E-02  0.1021474E+00
         21   -1    0    0  502  501  0.00000000000E+00  0.00000000000E+00  0.33084436296E+03  0.33084436296E+03  0.00000000000E+00 0.  1.
         21   -1    0    0  501  502 -0.00000000000E+00 -0.00000000000E+00 -0.67219853941E+03  0.67219853941E+03  0.00000000000E+00 0.  1.
         25    1    1    2    0    0 -0.41347000721E+02 -0.13936321758E+03 -0.13882298744E+03  0.23670340666E+03  0.12500000000E+03 0.  0.
         25    1    1    2    0    0  0.33266649224E+03 -0.32326955496E+02 -0.85360608387E+01  0.35694522191E+03  0.12500000000E+03 0.  0.
         25    1    1    2    0    0 -0.29131949151E+03  0.17169017307E+03 -0.19399512818E+03  0.40939427380E+03  0.12500000000E+03 0.  0.
</event>
<event>
 5    0  0.5605075E-005  0.5998507E+03  0.7546771E-02  0.9905716E-01
         21   -1    0    0  502  501  0.00000000000E+00  0.00000000000E+00  0.69356701452E+03  0.69356701452E+03  0.00000000000E+00 0.  1.
         21   -1    0    0  501  502 -0.00000000000E+00 -0.00000000000E+00 -0.51879747885E+03  0.51879747885E+03  0.00000000000E+00 0.  1.
         25    1    1    2    0    0 -0.73987608847E+02 -0.41717275369E+03  0.31133707014E+03  0.54042857430E+03  0.12500000000E+03 0.  0.
         25    1    1    2    0    0  0.61225770695E+02  0.45198058699E+03  0.13526178796E+02  0.47312049578E+03  0.12500000000E+03 0.  0.
         25    1    1    2    0    0  0.12761838152E+02 -0.34807833307E+02 -0.15009371327E+03  0.19881542328E+03  0.12500000000E+03 0.  0.
</event>
<event>
 5    0  0.5605075E-005  0.2605558E+03  0.7546771E-02  0.1106810E+00
         21   -1    0    0  502  501  0.00000000000E+00  0.00000000000E+00  0.26845596197E+02  0.26845596197E+02  0.00000000000E+00 0. -1.
         21   -1    0    0  501  502 -0.00000000000E+00 -0.00000000000E+00 -0.25288810032E+04  0.25288810032E+04  0.00000000000E+00 0. -1.
         25    1    1    2    0    0  0.71173242407E+01 -0.11051802709E+03 -0.88184719916E+03  0.89752123835E+03  0.12500000000E+03 0.  0.
         25    1    1    2    0    0  0.76365367767E+02 -0.26055554963E+02 -0.61940612984E+03  0.63702395168E+03  0.12500000000E+03 0.  0.
         25    1    1    2    0    0 -0.83482692008E+02  0.13657358205E+03 -0.10007820780E+04  0.10211814094E+04  0.12500000000E+03 0.  0.
</event>
<event>
 5    0  0.5605075E-005  0.3192338E+03  0.7546771E-02  0.1076002E+00
         21   -1    0    0  502  501  0.00000000000E+00  0.00000000000E+00  0.15714292760E+03  0.15714292760E+03  0.00000000000E+00 0.  1.
         21   -1    0    0  501  502 -0.00000000000E+00 -0.00000000000E+00 -0.64851909362E+03  0.64851909362E+03  0.00000000000E+00 0.  1.
         25    1    1    2    0    0  0.12125263542E+03  0.60332830318E+02 -0.21857063665E+03  0.28590273734E+03  0.12500000000E+03 0.  0.
         25    1    1    2    0    0  0.30478143882E+02  0.11560527379E+02  0.47063949870E+02  0.13748664817E+03  0.12500000000E+03 0.  0.
         25    1    1    2    0    0 -0.15173077931E+03 -0.71893357698E+02 -0.31986947923E+03  0.38227263571E+03  0.12500000000E+03 0.  0.
</event>
<event>
 5    0  0.5605075E-005  0.5362597E+03  0.7546771E-02  0.1004725E+00
         21   -1    0    0  502  501  0.00000000000E+00  0.00000000000E+00  0.72581598034E+03  0.72581598034E+03  0.00000000000E+00 0.  1.
         21   -1    0    0  501  502 -0.00000000000E+00 -0.00000000000E+00 -0.39620848544E+03  0.39620848544E+03  0.00000000000E+00 0. -1.
         25    1    1    2    0    0  0.46039749644E+02 -0.26415784220E+03  0.13098493767E+02  0.29613441996E+03  0.12500000000E+03 0.  0.
         25    1    1    2    0    0 -0.26412561470E+03 -0.10363915163E+03  0.74342563877E+02  0.31883417460E+03  0.12500000000E+03 0.  0.
         25    1    1    2    0    0  0.21808586505E+03  0.36779699383E+03  0.24216643725E+03  0.50705587122E+03  0.12500000000E+03 0.  0.
</event>
<event>
 5    0  0.5605075E-005  0.3096855E+03  0.7546771E-02  0.1080497E+00
         21   -1    0    0  502  501  0.00000000000E+00  0.00000000000E+00  0.24142718632E+02  0.24142718632E+02  0.00000000000E+00 0.  1.
         21   -1    0    0  501  502 -0.00000000000E+00 -0.00000000000E+00 -0.39724234748E+04  0.39724234748E+04  0.00000000000E+00 0.  1.
         25    1    1    2    0    0  0.47336571041E+02  0.13732895738E+03 -0.79243849136E+03  0.81528139686E+03  0.12500000000E+03 0.  0.
         25    1    1    2    0    0 -0.10245255682E+03  0.17305906261E+02 -0.79524486069E+03  0.81168676793E+03  0.12500000000E+03 0.  0.
         25    1    1    2    0    0  0.55115985774E+02 -0.15463486364E+03 -0.23605974042E+04  0.23695980287E+04  0.12500000000E+03 0.  0.
</event>
<event>
 5    0  0.5605075E-005  0.3028551E+03  0.7546771E-02  0.1083822E+00
         21   -1    0    0  502  501  0.00000000000E+00  0.00000000000E+00  0.14009547860E+03  0.14009547860E+03  0.00000000000E+00 0.  1.
         21   -1    0    0  501  502 -0.00000000000E+00 -0.00000000000E+00 -0.65470513733E+03  0.65470513733E+03  0.00000000000E+00 0.  1.
         25    1    1    2    0    0 -0.11368761481E+03 -0.87329792649E+02 -0.58115954248E+02  0.19888144857E+03  0.12500000000E+03 0.  0.
         25    1    1    2    0    0  0.81893127863E+02  0.15992733913E+03 -0.35287266929E+03  0.41524373436E+03  0.12500000000E+03 0.  0.
         25    1    1    2    0    0  0.31794486949E+02 -0.72597546482E+02 -0.10362103520E+03  0.18067543300E+03  0.12500000000E+03 0.  0.
</event>
<event>
 5    0  0.5605075E-005  0.2728799E+03  0.7546771E-02  0.1099643E+00
         21   -1    0    0  502  501  0.00000000000E+00  0.00000000000E+00  0.78359957497E+02  0.78359957497E+02  0.00000000000E+00 0.  1.
         21   -1    0    0  501  502 -0.00000000000E+00 -0.00000000000E+00 -0.95027391826E+03  0.95027391826E+03  0.00000000000E+00 0.  1.
         25    1    1    2    0    0  0.25517602244E+02  0.10513991549E+03 -0.78793788608E+02  0.18313659104E+03  0.12500000000E+03 0.  0.
         25    1    1    2    0    0  0.31031915805E+02 -0.80948116342E+02 -0.45688057783E+03  0.48153965541E+03  0.12500000000E+03 0.  0.
         25    1    1    2    0    0 -0.56549518049E+02 -0.24191799150E+02 -0.33623959432E+03  0.36395762931E+03  0.12500000000E+03 0.  0.
</event>
<event>
 5    0  0.5605075E-005  0.3272245E+03  0.7546771E-02  0.1072372E+00
         21   -1    0    0  502  501  0.00000000000E+00  0.00000000000E+00  0.36996923397E+03  0.36996923397E+03  0.00000000000E+00 0. -1.
         21   -1    0    0  501  502 -0.00000000000E+00 -0.00000000000E+00 -0.28941826190E+03  0.28941826190E+03  0.00000000000E+00 0. -1.
         25    1    1    2    0    0 -0.90510430554E+02  0.35272783509E+02 -0.10853375979E+03  0.19193979345E+03  0.12500000000E+03 0.  0.
         25    1    1    2    0    0 -0.75541077025E+02  0.91672034839E+02  0.13237413274E+03  0.21738934497E+03  0.12500000000E+03 0.  0.
         25    1    1    2    0    0  0.16605150758E+03 -0.12694481835E+03  0.56710599119E+02  0.25005835744E+03  0.12500000000E+03 0.  0.
</event>
<event>
 5    0  0.5952298E-005  0.2614718E+03  0.7546771E-02  0.1106262E+00
         21   -1    0    0  502  501  0.00000000000E+00  0.00000000000E+00  0.17983481569E+03  0.17983481569E+03  0.00000000000E+00 0.  1.
         21   -1    0    0  501  502 -0.00000000000E+00 -0.00000000000E+00 -0.38016843885E+03  0.38016843885E+03  0.00000000000E+00 0.  1.
         25    1    1    2    0    0 -0.30140192926E+02 -0.25164193169E+02  0.20892919323E+02  0.13267698340E+03  0.12500000000E+03 0.  0.
         25    1    1    2    0    0 -0.11233830738E+03 -0.22522372949E+02 -0.90653596882E+02  0.19227643437E+03  0.12500000000E+03 0.  0.
         25    1    1    2    0    0  0.14247850030E+03  0.47686566118E+02 -0.13057294560E+03  0.23504983676E+03  0.12500000000E+03 0.  0.
</event>
<event>
 5    0  0.5605075E-005  0.5395836E+03  0.7546771E-02  0.1003934E+00
         21   -1    0    0  502  501  0.00000000000E+00  0.00000000000E+00  0.31880183463E+03  0.31880183463E+03  0.00000000000E+00 0.  1.
         21   -1    0    0  501  502 -0.00000000000E+00 -0.00000000000E+00 -0.91326473781E+03  0.91326473781E+03  0.00000000000E+00 0.  1.
         25    1    1    2    0    0  0.57975337985E+01  0.29701659145E+03 -0.59860047240E+03  0.67985291980E+03  0.12500000000E+03 0.  0.
         25    1    1    2    0    0 -0.46804673093E+02 -0.30015639526E+03 -0.13996191300E+03  0.35706984769E+03  0.12500000000E+03 0.  0.
         25    1    1    2    0    0  0.41007139295E+02  0.31398038045E+01  0.14409948221E+03  0.19514380496E+03  0.12500000000E+03 0.  0.
</event>
<event>
 5    0  0.5605075E-005  0.2474509E+03  0.7546771E-02  0.1114926E+00
         21   -1    0    0  502  501  0.00000000000E+00  0.00000000000E+00  0.30951912704E+03  0.30951912704E+03  0.00000000000E+00 0. -1.
         21   -1    0    0  501  502 -0.00000000000E+00 -0.00000000000E+00 -0.19782935471E+03  0.19782935471E+03  0.00000000000E+00 0. -1.
         25    1    1    2    0    0  0.40530440735E+01 -0.10758669884E+03 -0.49529612219E+02  0.17224838873E+03  0.12500000000E+03 0.  0.
         25    1    1    2    0    0 -0.52799326292E+02  0.77255598018E+02  0.82054077998E+02  0.17639180253E+03  0.12500000000E+03 0.  0.
         25    1    1    2    0    0  0.48746282218E+02  0.30331100826E+02  0.79165306555E+02  0.15870829049E+03  0.12500000000E+03 0.  0.
</event>
<event>
 5    0  0.5605075E-005  0.2644935E+03  0.7546771E-02  0.1104473E+00
         21   -1    0    0  502  501  0.00000000000E+00  0.00000000000E+00  0.70343295498E+03  0.70343295498E+03  0.00000000000E+00 0.  1.
         21   -1    0    0  501  502 -0.00000000000E+00 -0.00000000000E+00 -0.99450588613E+02  0.99450588613E+02  0.00000000000E+00 0.  1.
         25    1    1    2    0    0  0.49462331784E+02 -0.90596289233E+02  0.13064235626E+03  0.20819854740E+03  0.12500000000E+03 0.  0.
         25    1    1    2    0    0 -0.98328685194E+02  0.10083504554E+03  0.39831482481E+03  0.44058590128E+03  0.12500000000E+03 0.  0.
         25    1    1    2    0    0  0.48866353410E+02 -0.10238756311E+02  0.75025185297E+02  0.15409909492E+03  0.12500000000E+03 0.  0.
</event>
<event>
 5    0  0.5605075E-005  0.2099000E+03  0.7546771E-02  0.1141645E+00
         21   -1    0    0  502  501  0.00000000000E+00  0.00000000000E+00  0.49696164402E+02  0.49696164402E+02  0.00000000000E+00 0.  1.
         21   -1    0    0  501  502 -0.00000000000E+00 -0.00000000000E+00 -0.88654750208E+03  0.88654750208E+03  0.00000000000E+00 0.  1.
         25    1    1    2    0    0 -0.14114295310E+01  0.10280821900E+02 -0.19273769580E+03  0.22995761960E+03  0.12500000000E+03 0.  0.
         25    1    1    2    0    0  0.58050687328E+02  0.33014412352E+02 -0.37909598590E+03  0.40472039762E+03  0.12500000000E+03 0.  0.
         25    1    1    2    0    0 -0.56639257797E+02 -0.43295234252E+02 -0.26501765598E+03  0.30156564926E+03  0.12500000000E+03 0.  0.
</event>
<event>
 5    0  0.5605075E-005  0.2314990E+03  0.7546771E-02  0.1125589E+00
         21   -1    0    0  502  501  0.00000000000E+00  0.00000000000E+00  0.86064313010E+02  0.86064313010E+02  0.00000000000E+00 0. -1.
         21   -1    0    0  501  502 -0.00000000000E+00 -0.00000000000E+00 -0.62269485884E+03  0.62269485884E+03  0.00000000000E+00 0. -1.
         25    1    1    2    0    0 -0.91991845904E+02  0.48872768609E+02 -0.16498566883E+03  0.23172466020E+03  0.12500000000E+03 0.  0.
         25    1    1    2    0    0  0.80887636232E+02 -0.44707307706E+01 -0.11595231567E+03  0.18876635462E+03  0.12500000000E+03 0.  0.
         25    1    1    2    0    0  0.11104209672E+02 -0.44402037838E+02 -0.25569256133E+03  0.28826815703E+03  0.12500000000E+03 0.  0.
</event>
<event>
 5    0  0.5605075E-005  0.4998420E+03  0.7546771E-02  0.1013820E+00
         21   -1    0    0  502  501  0.00000000000E+00  0.00000000000E+00  0.78379696626E+03  0.78379696626E+03  0.00000000000E+00 0. -1.
         21   -1    0    0  501  502 -0.00000000000E+00 -0.00000000000E+00 -0.31875862439E+03  0.31875862439E+03  0.00000000000E+00 0. -1.
         25    1    1    2    0    0  0.14535653073E+03  0.28047242477E+03 -0.38011197370E+02  0.34185253137E+03  0.12500000000E+03 0.  0.
         25    1    1    2    0    0 -0.65314462977E+02 -0.16193717900E+03 -0.86156347893E+01  0.21491593282E+03  0.12500000000E+03 0.  0.
         25    1    1    2    0    0 -0.80042067757E+02 -0.11853524576E+03  0.51166517402E+03  0.54578712646E+03  0.12500000000E+03 0.  0.
</event>
<event>
 5    0  0.5605075E-005  0.3917020E+03  0.7546771E-02  0.1046691E+00
         21   -1    0    0  502  501  0.00000000000E+00  0.00000000000E+00  0.66016771485E+03  0.66016771485E+03  0.00000000000E+00 0. -1.
         21   -1    0    0  501  502 -0.00000000000E+00 -0.00000000000E+00 -0.23241138890E+03  0.23241138890E+03  0.00000000000E+00 0. -1.
         25    1    1    2    0    0 -0.93563682248E+02 -0.28780879561E+03  0.17023726787E+03  0.36904443206E+03  0.12500000000E+03 0.  0.
         25    1    1    2    0    0  0.20513363693E+02  0.25275643963E+03  0.84193134577E+02  0.29499169441E+03  0.12500000000E+03 0.  0.
         25    1    1    2    0    0  0.73050318556E+02  0.35052355982E+02  0.17332592350E+03  0.22854297727E+03  0.12500000000E+03 0.  0.
</event>
<event>
 5    0  0.5605075E-005  0.2312821E+03  0.7546771E-02  0.1125741E+00
         21   -1    0    0  502  501  0.00000000000E+00  0.00000000000E+00  0.79640460846E+02  0.79640460846E+02  0.00000000000E+00 0.  1.
         21   -1    0    0  501  502 -0.00000000000E+00 -0.00000000000E+00 -0.67166105625E+03  0.67166105625E+03  0.00000000000E+00 0.  1.
         25    1    1    2    0    0 -0.66806187770E+02 -0.36912255889E+01 -0.36602638574E+03  0.39252644105E+03  0.12500000000E+03 0.  0.
         25    1    1    2    0    0  0.19594424541E+02 -0.19789538398E+02 -0.16796979503E+03  0.21122125685E+03  0.12500000000E+03 0.  0.
         25    1    1    2    0    0  0.47211763229E+02  0.23480763987E+02 -0.58024414639E+02  0.14755381919E+03  0.12500000000E+03 0.  0.
</event>
<event>
 5    0  0.5605075E-005  0.2346704E+03  0.7546771E-02  0.1123395E+00
         21   -1    0    0  502  501  0.00000000000E+00  0.00000000000E+00  0.10602579662E+03  0.10602579662E+03  0.00000000000E+00 0. -1.
         21   -1    0    0  501  502 -0.00000000000E+00 -0.00000000000E+00 -0.51940380480E+03  0.51940380480E+03  0.00000000000E+00 0. -1.
         25    1    1    2    0    0  0.40715969385E+02 -0.89049235441E+02 -0.74563000023E+02  0.17542006005E+03  0.12500000000E+03 0.  0.
         25    1    1    2    0    0 -0.17023707782E+02  0.10547432962E+03 -0.15588491075E+03  0.22658275803E+03  0.12500000000E+03 0.  0.
         25    1    1    2    0    0 -0.23692261603E+02 -0.16425094183E+02 -0.18293009740E+03  0.22342678334E+03  0.12500000000E+03 0.  0.
</event>
<event>
 5    0  0.5605075E-005  0.3347040E+03  0.7546771E-02  0.1069074E+00
         21   -1    0    0  502  501  0.00000000000E+00  0.00000000000E+00  0.18953027828E+03  0.18953027828E+03  0.00000000000E+00 0.  1.
         21   -1    0    0  501  502 -0.00000000000E+00 -0.00000000000E+00 -0.59107569559E+03  0.59107569559E+03  0.00000000000E+00 0.  1.
         25    1    1    2    0    0  0.12364582459E+03  0.44815765128E+02 -0.82473526196E+02  0.19930786554E+03  0.12500000000E+03 0.  0.
         25    1    1    2    0    0  0.10906759103E+03  0.26523087442E+02 -0.24633902532E+03  0.29817298499E+03  0.12500000000E+03 0.  0.
         25    1    1    2    0    0 -0.23271341563E+03 -0.71338852569E+02 -0.72732865789E+02  0.28312512334E+03  0.12500000000E+03 0.  0.
</event>
<event>
 5    0  0.5605075E-005  0.2871330E+03  0.7546771E-02  0.1091856E+00
         21   -1    0    0  502  501  0.00000000000E+00  0.00000000000E+00  0.13686458108E+04  0.13686458108E+04  0.00000000000E+00 0. -1.
         21   -1    0    0  501  502 -0.00000000000E+00 -0.00000000000E+00 -0.60238621005E+02  0.60238621005E+02  0.00000000000E+00 0. -1.
         25    1    1    2    0    0 -0.18717851090E+02 -0.11235291302E+03  0.37323345016E+03  0.40975815225E+03  0.12500000000E+03 0.  0.
         25    1    1    2    0    0 -0.85511795887E+01  0.34210166448E+02  0.83602995004E+02  0.15446008848E+03  0.12500000000E+03 0.  0.
         25    1    1    2    0    0  0.27269030679E+02  0.78142746573E+02  0.85157074460E+03  0.86466619104E+03  0.12500000000E+03 0.  0.
</event>
<event>
 5    0  0.5605075E-005  0.3414407E+03  0.7546771E-02  0.1066184E+00
         21   -1    0    0  502  501  0.00000000000E+00  0.00000000000E+00  0.90700377272E+02  0.90700377272E+02  0.00000000000E+00 0. -1.
         21   -1    0    0  501  502 -0.00000000000E+00 -0.00000000000E+00 -0.12853505355E+04  0.12853505355E+04  0.00000000000E+00 0. -1.
         25    1    1    2    0    0 -0.13688233729E+03  0.12614708026E+03 -0.64044946039E+03  0.67856493531E+03  0.12500000000E+03 0.  0.
         25    1    1    2    0    0 -0.69812998976E+02 -0.35743048727E+02 -0.30511451201E+03  0.33892666729E+03  0.12500000000E+03 0.  0.
         25    1    1    2    0    0  0.20669533626E+03 -0.90404031531E+02 -0.24908618585E+03  0.35855931020E+03  0.12500000000E+03 0.  0.
</event>
<event>
 5    0  0.5605075E-005  0.2534560E+03  0.7546771E-02  0.1111140E+00
         21   -1    0    0  502  501  0.00000000000E+00  0.00000000000E+00  0.67926241071E+02  0.67926241071E+02  0.00000000000E+00 0. -1.
         21   -1    0    0  501  502 -0.00000000000E+00 -0.00000000000E+00 -0.94573120735E+03  0.94573120735E+03  0.00000000000E+00 0. -1.
         25    1    1    2    0    0 -0.33401319214E+02  0.46821134160E+02 -0.26347648961E+03  0.29724186667E+03  0.12500000000E+03 0.  0.
         25    1    1    2    0    0  0.44326594458E+02  0.94109119853E+02 -0.17838534473E+03  0.24138704321E+03  0.12500000000E+03 0.  0.
         25    1    1    2    0    0 -0.10925275245E+02 -0.14093025401E+03 -0.43594313194E+03  0.47502853853E+03  0.12500000000E+03 0.  0.
</event>
<event>
 5    0  0.5605075E-005  0.2995422E+03  0.7546771E-02  0.1085470E+00
         21   -1    0    0  502  501  0.00000000000E+00  0.00000000000E+00  0.62948050358E+02  0.62948050358E+02  0.00000000000E+00 0. -1.
         21   -1    0    0  501  502 -0.00000000000E+00 -0.00000000000E+00 -0.14253896995E+04  0.14253896995E+04  0.00000000000E+00 0. -1.
         25    1    1    2    0    0 -0.53039424241E+02  0.72548256709E+02 -0.87133222399E+03  0.88482838711E+03  0.12500000000E+03 0.  0.
         25    1    1    2    0    0  0.10884779797E+03 -0.94209765284E+02 -0.38266693610E+03  0.42753047491E+03  0.12500000000E+03 0.  0.
         25    1    1    2    0    0 -0.55808373726E+02  0.21661508575E+02 -0.10844248906E+03  0.17597888784E+03  0.12500000000E+03 0.  0.
</event>
<event>
 5    0  0.6401489E-005  0.2966917E+03  0.7546771E-02  0.1086906E+00
         21   -1    0    0  502  501  0.00000000000E+00  0.00000000000E+00  0.20529126292E+03  0.20529126292E+03  0.00000000000E+00 0. -1.
         21   -1    0    0  501  502 -0.00000000000E+00 -0.00000000000E+00 -0.42878568077E+03  0.42878568077E+03  0.00000000000E+00 0. -1.
         25    1    1    2    0    0  0.10462626340E+03 -0.61100405976E+02 -0.16555262328E+03  0.24023443900E+03  0.12500000000E+03 0.  0.
         25    1    1    2    0    0 -0.19107493854E+02  0.70081793805E+02 -0.15639216283E+03  0.21297901948E+03  0.12500000000E+03 0.  0.
         25    1    1    2    0    0 -0.85518769549E+02 -0.89813878291E+01  0.98450368263E+02  0.18086348521E+03  0.12500000000E+03 0.  0.
</event>
<event>
 5    0  0.5605075E-005  0.3473541E+03  0.7546771E-02  0.1063706E+00
         21   -1    0    0  502  501  0.00000000000E+00  0.00000000000E+00  0.67538585727E+03  0.67538585727E+03  0.00000000000E+00 0. -1.
         21   -1    0    0  501  502 -0.00000000000E+00 -0.00000000000E+00 -0.17864586295E+03  0.17864586295E+03  0.00000000000E+00 0. -1.
         25    1    1    2    0    0 -0.18481265583E+03  0.52844568494E+02  0.25637989374E+03  0.34395336325E+03  0.12500000000E+03 0.  0.
         25    1    1    2    0    0  0.26005779230E+03 -0.77216655479E+02  0.13119001667E+03  0.32623348647E+03  0.12500000000E+03 0.  0.
         25    1    1    2    0    0 -0.75245136468E+02  0.24372086985E+02  0.10917008391E+03  0.18384487049E+03  0.12500000000E+03 0.  0.
</event>
<event>
 5    0  0.6331470E-005  0.3570605E+03  0.7546771E-02  0.1059754E+00
         21   -1    0    0  502  501  0.00000000000E+00  0.00000000000E+00  0.61842486656E+03  0.61842486656E+03  0.00000000000E+00 0.  1.
         21   -1    0    0  501  502 -0.00000000000E+00 -0.00000000000E+00 -0.20615633710E+03  0.20615633710E+03  0.00000000000E+00 0.  1.
         25    1    1    2    0    0 -0.39581518433E+01 -0.11235072604E+03  0.22700343899E+03  0.28247816538E+03  0.12500000000E+03 0.  0.
         25    1    1    2    0    0 -0.43819129575E+02 -0.61256058982E+02 -0.10397574958E+03  0.17918810613E+03  0.12500000000E+03 0.  0.
         25    1    1    2    0    0  0.47777281419E+02  0.17360678502E+03  0.28924084004E+03  0.36291493214E+03  0.12500000000E+03 0.  0.
</event>
<event>
 5    0  0.5605075E-005  0.3356849E+03  0.7546771E-02  0.1068649E+00
         21   -1    0    0  502  501  0.00000000000E+00  0.00000000000E+00  0.17337985340E+03  0.17337985340E+03  0.00000000000E+00 0. -1.
         21   -1    0    0  501  502 -0.00000000000E+00 -0.00000000000E+00 -0.64992747356E+03  0.64992747356E+03  0.00000000000E+00 0. -1.
         25    1    1    2    0    0 -0.16505176556E+03  0.11596982450E+03 -0.17445038053E+03  0.29453186716E+03  0.12500000000E+03 0.  0.
         25    1    1    2    0    0  0.75569343130E+01  0.51996013947E+02 -0.21212794424E+03  0.25176170767E+03  0.12500000000E+03 0.  0.
         25    1    1    2    0    0  0.15749483124E+03 -0.16796583845E+03 -0.89969295391E+02  0.27701375213E+03  0.12500000000E+03 0.  0.
</event>
<event>
 5    0  0.5605075E-005  0.2531779E+03  0.7546771E-02  0.1111313E+00
         21   -1    0    0  502  501  0.00000000000E+00  0.00000000000E+00  0.10683890945E+03  0.10683890945E+03  0.00000000000E+00 0. -1.
         21   -1    0    0  501  502 -0.00000000000E+00 -0.00000000000E+00 -0.59995975623E+03  0.59995975623E+03  0.00000000000E+00 0. -1.
         25    1    1    2    0    0 -0.20743110426E+02 -0.51768055173E+02 -0.31996822136E+03  0.34801561868E+03  0.12500000000E+03 0.  0.
         25    1    1    2    0    0  0.58399356458E+02 -0.46213157978E+02 -0.11515339182E+03  0.18555711911E+03  0.12500000000E+03 0.  0.
         25    1    1    2    0    0 -0.37656246032E+02  0.97981213151E+02 -0.57999233600E+02  0.17322592789E+03  0.12500000000E+03 0.  0.
</event>
<event>
 5    0  0.5605075E-005  0.3338839E+03  0.7546771E-02  0.1069431E+00
         21   -1    0    0  502  501  0.00000000000E+00  0.00000000000E+00  0.33609477268E+02  0.33609477268E+02  0.00000000000E+00 0. -1.
         21   -1    0    0  501  502 -0.00000000000E+00 -0.00000000000E+00 -0.33168763693E+04  0.33168763693E+04  0.00000000000E+00 0. -1.
         25    1    1    2    0    0  0.13698545184E+02 -0.27605459670E+02 -0.39313160142E+03  0.41367519575E+03  0.12500000000E+03 0.  0.
         25    1    1    2    0    0 -0.41918122647E+01 -0.15786062981E+03 -0.54513447906E+03  0.58114899122E+03  0.12500000000E+03 0.  0.
         25    1    1    2    0    0 -0.95067329196E+01  0.18546608948E+03 -0.23450008115E+04  0.23556616596E+04  0.12500000000E+03 0.  0.
</event>
<event>
 5    0  0.5605075E-005  0.2875630E+03  0.7546771E-02  0.1091628E+00
         21   -1    0    0  502  501  0.00000000000E+00  0.00000000000E+00  0.44617581650E+03  0.44617581650E+03  0.00000000000E+00 0. -1.
         21   -1    0    0  501  502 -0.00000000000E+00 -0.00000000000E+00 -0.18533603283E+03  0.18533603283E+03  0.00000000000E+00 0. -1.
         25    1    1    2    0    0  0.36729383111E+02 -0.60446946324E+02  0.53135136456E+02  0.15313792355E+03  0.12500000000E+03 0.  0.
         25    1    1    2    0    0  0.94206065404E+02  0.28174522144E+02 -0.45524831612E+02  0.16542701336E+03  0.12500000000E+03 0.  0.
         25    1    1    2    0    0 -0.13093544852E+03  0.32272424180E+02  0.25322947883E+03  0.31294691241E+03  0.12500000000E+03 0.  0.
</event>
<event>
 5    0  0.5605075E-005  0.3342597E+03  0.7546771E-02  0.1069267E+00
         21   -1    0    0  502  501  0.00000000000E+00  0.00000000000E+00  0.23022916846E+03  0.23022916846E+03  0.00000000000E+00 0. -1.
         21   -1    0    0  501  502 -0.00000000000E+00 -0.00000000000E+00 -0.48529715045E+03  0.48529715045E+03  0.00000000000E+00 0. -1.
         25    1    1    2    0    0 -0.80151215990E+02  0.12117576330E+03 -0.21892044495E+03  0.29096210106E+03  0.12500000000E+03 0.  0.
         25    1    1    2    0    0  0.19150191547E+03 -0.11379882982E+03 -0.23812758783E+02  0.25654474226E+03  0.12500000000E+03 0.  0.
         25    1    1    2    0    0 -0.11135069948E+03 -0.73769334729E+01 -0.12334778256E+02  0.16801947559E+03  0.12500000000E+03 0.  0.
</event>
<event>
 5    0  0.5605075E-005  0.3293862E+03  0.7546771E-02  0.1071409E+00
         21   -1    0    0  502  501  0.00000000000E+00  0.00000000000E+00  0.86427000792E+02  0.86427000792E+02  0.00000000000E+00 0. -1.
         21   -1    0    0  501  502 -0.00000000000E+00 -0.00000000000E+00 -0.12553402390E+04  0.12553402390E+04  0.00000000000E+00 0. -1.
         25    1    1    2    0    0  0.45616064720E+02 -0.18656220369E+03 -0.22823746515E+03  0.32342483162E+03  0.12500000000E+03 0.  0.
         25    1    1    2    0    0  0.70534654648E+01  0.15380687926E+03 -0.28017847698E+03  0.34326562083E+03  0.12500000000E+03 0.  0.
         25    1    1    2    0    0 -0.52669530185E+02  0.32755324430E+02 -0.66049729604E+03  0.67507678731E+03  0.12500000000E+03 0.  0.
</event>
<event>
 5    0  0.5605075E-005  0.3134589E+03  0.7546771E-02  0.1078700E+00
         21   -1    0    0  502  501  0.00000000000E+00  0.00000000000E+00  0.98514512277E+02  0.98514512277E+02  0.00000000000E+00 0. -1.
         21   -1    0    0  501  502 -0.00000000000E+00 -0.00000000000E+00 -0.99738055095E+03  0.99738055095E+03  0.00000000000E+00 0. -1.
         25    1    1    2    0    0  0.55589668316E+02 -0.66316302017E+02 -0.25064509347E+03  0.29314847094E+03  0.12500000000E+03 0.  0.
         25    1    1    2    0    0  0.30309363552E+02  0.13287066675E+03 -0.60348296891E+03  0.63118140449E+03  0.12500000000E+03 0.  0.
         25    1    1    2    0    0 -0.85899031868E+02 -0.66554364733E+02 -0.44737976290E+02  0.17156518780E+03  0.12500000000E+03 0.  0.
</event>
<event>
 5    0  0.5605075E-005  0.3461075E+03  0.7546771E-02  0.1064224E+00
         21   -1    0    0  502  501  0.00000000000E+00  0.00000000000E+00  0.62230440145E+03  0.62230440145E+03  0.00000000000E+00 0. -1.
         21   -1    0    0  501  502 -0.00000000000E+00 -0.00000000000E+00 -0.19249489650E+03  0.19249489650E+03  0.00000000000E+00 0. -1.
         25    1    1    2    0    0 -0.10023758448E+02  0.63353460125E+02  0.43872958816E+03  0.46067644630E+03  0.12500000000E+03 0.  0.
         25    1    1    2    0    0  0.11782982130E+03 -0.71918948302E+01 -0.41202327092E+02  0.17679994880E+03  0.12500000000E+03 0.  0.
         25    1    1    2    0    0 -0.10780606285E+03 -0.56161565295E+02  0.32282243880E+02  0.17732290284E+03  0.12500000000E+03 0.  0.
</event>
<event>
 5    0  0.5605075E-005  0.2668176E+03  0.7546771E-02  0.1103115E+00
         21   -1    0    0  502  501  0.00000000000E+00  0.00000000000E+00  0.26659219859E+03  0.26659219859E+03  0.00000000000E+00 0. -1.
         21   -1    0    0  501  502 -0.00000000000E+00 -0.00000000000E+00 -0.26704314917E+03  0.26704314917E+03  0.00000000000E+00 0. -1.
         25    1    1    2    0    0  0.10167106890E+02  0.56723444961E+02 -0.16868441552E+03  0.21771621738E+03  0.12500000000E+03 0.  0.
         25    1    1    2    0    0  0.61933039126E+01  0.57121201898E+01  0.62979893989E+02  0.14022286681E+03  0.12500000000E+03 0.  0.
         25    1    1    2    0    0 -0.16360410802E+02 -0.62435565151E+02  0.10525357094E+03  0.17569626357E+03  0.12500000000E+03 0.  0.
</event>
<event>
 5    0  0.5605075E-005  0.2214895E+03  0.7546771E-02  0.1132777E+00
         21   -1    0    0  502  501  0.00000000000E+00  0.00000000000E+00  0.30990004117E+03  0.30990004117E+03  0.00000000000E+00 0. -1.
         21   -1    0    0  501  502 -0.00000000000E+00 -0.00000000000E+00 -0.15830134934E+03  0.15830134934E+03  0.00000000000E+00 0. -1.
         25    1    1    2    0    0 -0.31614403540E+01  0.12067139045E+01  0.96590853291E+02  0.15800710048E+03  0.12500000000E+03 0.  0.
         25    1    1    2    0    0  0.67707722154E+02  0.56654345006E+02  0.32105795942E+02  0.15636442236E+03  0.12500000000E+03 0.  0.
         25    1    1    2    0    0 -0.64546281800E+02 -0.57861058910E+02  0.22902042599E+02  0.15382986767E+03  0.12500000000E+03 0.  0.
</event>
<event>
 5    0  0.5605075E-005  0.2432233E+03  0.7546771E-02  0.1117664E+00
         21   -1    0    0  502  501  0.00000000000E+00  0.00000000000E+00  0.10104711066E+03  0.10104711066E+03  0.00000000000E+00 0.  1.
         21   -1    0    0  501  502 -0.00000000000E+00 -0.00000000000E+00 -0.58544559282E+03  0.58544559282E+03  0.00000000000E+00 0.  1.
         25    1    1    2    0    0  0.10956154368E+03 -0.21833305892E+02 -0.23870288277E+03  0.29169246021E+03  0.12500000000E+03 0.  0.
         25    1    1    2    0    0 -0.11454511585E+03  0.68021475111E+01 -0.82642522830E+02  0.18873695811E+03  0.12500000000E+03 0.  0.
         25    1    1    2    0    0  0.49835721756E+01  0.15031158381E+02 -0.16305307657E+03  0.20606328516E+03  0.12500000000E+03 0.  0.
</event>
<event>
 5    0  0.5605075E-005  0.3556082E+03  0.7546771E-02  0.1060336E+00
         21   -1    0    0  502  501  0.00000000000E+00  0.00000000000E+00  0.28823844258E+03  0.28823844258E+03  0.00000000000E+00 0.  1.
         21   -1    0    0  501  502 -0.00000000000E+00 -0.00000000000E+00 -0.43872436194E+03  0.43872436194E+03  0.00000000000E+00 0.  1.
         25    1    1    2    0    0 -0.18163528723E+03  0.14230721244E+03 -0.72919356738E+02  0.27236914815E+03  0.12500000000E+03 0.  0.
         25    1    1    2    0    0  0.51812146140E+01 -0.17751327685E+03 -0.90160236746E+02  0.23514182260E+03  0.12500000000E+03 0.  0.
         25    1    1    2    0    0  0.17645407261E+03  0.35206064417E+02  0.12593674122E+02  0.21945183376E+03  0.12500000000E+03 0.  0.
</event>
<event>
 5    0  0.5605075E-005  0.3897172E+03  0.7546771E-02  0.1047400E+00
         21   -1    0    0  502  501  0.00000000000E+00  0.00000000000E+00  0.22449256208E+03  0.22449256208E+03  0.00000000000E+00 0. -1.
         21   -1    0    0  501  502 -0.00000000000E+00 -0.00000000000E+00 -0.67654578529E+03  0.67654578529E+03  0.00000000000E+00 0. -1.
         25    1    1    2    0    0 -0.18395311692E+03 -0.13348207012E+02 -0.31729651051E+03  0.38770994240E+03  0.12500000000E+03 0.  0.
         25    1    1    2    0    0 -0.73858555826E+02  0.78043757650E+02 -0.14483315611E+03  0.21942551694E+03  0.12500000000E+03 0.  0.
         25    1    1    2    0    0  0.25781167274E+03 -0.64695550638E+02  0.10076443416E+02  0.29390288802E+03  0.12500000000E+03 0.  0.
</event>
<event>
 5    0  0.5605075E-005  0.4012073E+03  0.7546771E-02  0.1043362E+00
         21   -1    0    0  502  501  0.00000000000E+00  0.00000000000E+00  0.95408882088E+03  0.95408882088E+03  0.00000000000E+00 0. -1.
         21   -1    0    0  501  502 -0.00000000000E+00 -0.00000000000E+00 -0.16871308443E+03  0.16871308443E+03  0.00000000000E+00 0. -1.
         25    1    1    2    0    0 -0.10523381950E+03  0.24382836518E+02 -0.60226128376E+02  0.17584329962E+03  0.12500000000E+03 0.  0.
         25    1    1    2    0    0  0.13750219292E+03  0.12014691342E+03  0.34188793752E+03  0.40725237345E+03  0.12500000000E+03 0.  0.
         25    1    1    2    0    0 -0.32268373414E+02 -0.14452974994E+03  0.50371392732E+03  0.53970623224E+03  0.12500000000E+03 0.  0.
</event>
<event>
 5    0  0.5605075E-005  0.3649938E+03  0.7546771E-02  0.1056624E+00
         21   -1    0    0  502  501  0.00000000000E+00  0.00000000000E+00  0.57808347877E+03  0.57808347877E+03  0.00000000000E+00 0.  1.
         21   -1    0    0  501  502 -0.00000000000E+00 -0.00000000000E+00 -0.23045191887E+03  0.23045191887E+03  0.00000000000E+00 0.  1.
         25    1    1    2    0    0  0.13931071075E+03  0.16540415886E+03 -0.52662519471E+01  0.24983743376E+03  0.12500000000E+03 0.  0.
         25    1    1    2    0    0  0.56731806925E+02 -0.89395592128E+02  0.54040486557E+02  0.17249766374E+03  0.12500000000E+03 0.  0.
         25    1    1    2    0    0 -0.19604251767E+03 -0.76008566731E+02  0.29885732529E+03  0.38620030014E+03  0.12500000000E+03 0.  0.
</event>
<event>
 5    0  0.5605075E-005  0.3440970E+03  0.7546771E-02  0.1065064E+00
         21   -1    0    0  502  501  0.00000000000E+00  0.00000000000E+00  0.46982858839E+03  0.46982858839E+03  0.00000000000E+00 0. -1.
         21   -1    0    0  501  502 -0.00000000000E+00 -0.00000000000E+00 -0.25201270494E+03  0.25201270494E+03  0.00000000000E+00 0. -1.
         25    1    1    2    0    0  0.96745231893E+02 -0.20080124941E+03  0.80939403436E+02  0.26806150169E+03  0.12500000000E+03 0.  0.
         25    1    1    2    0    0 -0.10159721123E+03  0.25016926604E+03  0.82964655222E+02  0.30889284391E+03  0.12500000000E+03 0.  0.
         25    1    1    2    0    0  0.48519793407E+01 -0.49368016636E+02  0.53911824798E+02  0.14488694773E+03  0.12500000000E+03 0.  0.
</event>
<event>
 5    0  0.5605075E-005  0.2763594E+03  0.7546771E-02  0.1097694E+00
         21   -1    0    0  502  501  0.00000000000E+00  0.00000000000E+00  0.34171360526E+03  0.34171360526E+03  0.00000000000E+00 0.  1.
         21   -1    0    0  501  502 -0.00000000000E+00 -0.00000000000E+00 -0.22350443135E+03  0.22350443135E+03  0.00000000000E+00 0.  1.
         25    1    1    2    0    0 -0.23512502228E+02  0.98129038939E+02  0.74817489872E+01  0.16082015611E+03  0.12500000000E+03 0.  0.
         25    1    1    2    0    0  0.10572759844E+03  0.14302451287E+02 -0.33993342442E+02  0.16781964282E+03  0.12500000000E+03 0.  0.
         25    1    1    2    0    0 -0.82215096215E+02 -0.11243149023E+03  0.14472076736E+03  0.23657823768E+03  0.12500000000E+03 0.  0.
</event>
<event>
 5    0  0.5605075E-005  0.3401244E+03  0.7546771E-02  0.1066743E+00
         21   -1    0    0  502  501  0.00000000000E+00  0.00000000000E+00  0.15919366042E+04  0.15919366042E+04  0.00000000000E+00 0. -1.
         21   -1    0    0  501  502 -0.00000000000E+00 -0.00000000000E+00 -0.72669108495E+02  0.72669108495E+02  0.00000000000E+00 0. -1.
         25    1    1    2    0    0 -0.43494862405E+02  0.43958262681E+02  0.86176709327E+02  0.16393766237E+03  0.12500000000E+03 0.  0.
         25    1    1    2    0    0 -0.13085433331E+03 -0.10281671579E+03  0.50333760157E+03  0.54467226361E+03  0.12500000000E+03 0.  0.
         25    1    1    2    0    0  0.17434919571E+03  0.58858453114E+02  0.92975318476E+03  0.95599578667E+03  0.12500000000E+03 0.  0.
</event>
<event>
 5    0  0.5605075E-005  0.3465767E+03  0.7546771E-02  0.1064029E+00
         21   -1    0    0  502  501  0.00000000000E+00  0.00000000000E+00  0.33418008870E+03  0.33418008870E+03  0.00000000000E+00 0. -1.
         21   -1    0    0  501  502 -0.00000000000E+00 -0.00000000000E+00 -0.35943322516E+03  0.35943322516E+03  0.00000000000E+00 0. -1.
         25    1    1    2    0    0  0.33495692959E+02 -0.12797514736E+03  0.18016614793E+02  0.18289121958E+03  0.12500000000E+03 0.  0.
         25    1    1    2    0    0 -0.18995052874E+03 -0.47674555334E+02 -0.70915511479E+02  0.24291578039E+03  0.12500000000E+03 0.  0.
         25    1    1    2    0    0  0.15645483578E+03  0.17564970270E+03  0.27645760230E+02  0.26780631389E+03  0.12500000000E+03 0.  0.
</event>
<event>
 5    0  0.5605075E-005  0.3647673E+03  0.7546771E-02  0.1056712E+00
         21   -1    0    0  502  501  0.00000000000E+00  0.00000000000E+00  0.12674733399E+03  0.12674733399E+03  0.00000000000E+00 0. -1.
         21   -1    0    0  501  502 -0.00000000000E+00 -0.00000000000E+00 -0.10497673467E+04  0.10497673467E+04  0.00000000000E+00 0. -1.
         25    1    1    2    0    0  0.19691427479E+02  0.37571967295E+02 -0.12285357570E+02  0.13257199951E+03  0.12500000000E+03 0.  0.
         25    1    1    2    0    0 -0.15580168374E+03 -0.16811629150E+03 -0.33067266215E+03  0.42131539447E+03  0.12500000000E+03 0.  0.
         25    1    1    2    0    0  0.13611025626E+03  0.13054432421E+03 -0.58006199298E+03  0.62262728670E+03  0.12500000000E+03 0.  0.
</event>
<event>
 5    0  0.5605075E-005  0.2438570E+03  0.7546771E-02  0.1117250E+00
         21   -1    0    0  502  501  0.00000000000E+00  0.00000000000E+00  0.75830376702E+03  0.75830376702E+03  0.00000000000E+00 0. -1.
         21   -1    0    0  501  502 -0.00000000000E+00 -0.00000000000E+00 -0.78420084682E+02  0.78420084682E+02  0.00000000000E+00 0. -1.
         25    1    1    2    0    0 -0.78433510347E+02 -0.48438944479E+02  0.41515150292E+03  0.44325378426E+03  0.12500000000E+03 0.  0.
         25    1    1    2    0    0  0.27960597296E+02 -0.19649691334E+01  0.19557694239E+03  0.23379691294E+03  0.12500000000E+03 0.  0.
         25    1    1    2    0    0  0.50472913052E+02  0.50403913612E+02  0.69155237028E+02  0.15967315450E+03  0.12500000000E+03 0.  0.
</event>
<event>
 5    0  0.5605075E-005  0.2512557E+03  0.7546771E-02  0.1112514E+00
         21   -1    0    0  502  501  0.00000000000E+00  0.00000000000E+00  0.41174028497E+03  0.41174028497E+03  0.00000000000E+00 0. -1.
         21   -1    0    0  501  502 -0.00000000000E+00 -0.00000000000E+00 -0.15332345384E+03  0.15332345384E+03  0.00000000000E+00 0. -1.
         25    1    1    2    0    0 -0.69784425585E+02 -0.77071923258E+02  0.14871253418E+03  0.22034147415E+03  0.12500000000E+03 0.  0.
         25    1    1    2    0    0 -0.12675632408E+02  0.83317212964E+02 -0.12589881224E+02  0.15128097945E+03  0.12500000000E+03 0.  0.
         25    1    1    2    0    0  0.82460057994E+02 -0.62452897051E+01  0.12229417818E+03  0.19344128521E+03  0.12500000000E+03 0.  0.
</event>
<event>
 5    0  0.5605075E-005  0.3160089E+03  0.7546771E-02  0.1077501E+00
         21   -1    0    0  502  501  0.00000000000E+00  0.00000000000E+00  0.18391633460E+04  0.18391633460E+04  0.00000000000E+00 0. -1.
         21   -1    0    0  501  502 -0.00000000000E+00 -0.00000000000E+00 -0.54297308456E+02  0.54297308456E+02  0.00000000000E+00 0. -1.
         25    1    1    2    0    0  0.12937721649E+03  0.90914560397E+02  0.11398735274E+04  0.11575580244E+04  0.12500000000E+03 0.  0.
         25    1    1    2    0    0 -0.29271062847E+02 -0.12727404706E+03  0.25344580687E+03  0.31131215073E+03  0.12500000000E+03 0.  0.
         25    1    1    2    0    0 -0.10010615364E+03  0.36359486659E+02  0.39154670327E+03  0.42459047930E+03  0.12500000000E+03 0.  0.
</event>
<event>
 5    0  0.5605075E-005  0.2745196E+03  0.7546771E-02  0.1098720E+00
         21   -1    0    0  502  501  0.00000000000E+00  0.00000000000E+00  0.34746794812E+03  0.34746794812E+03  0.00000000000E+00 0. -1.
         21   -1    0    0  501  502 -0.00000000000E+00 -0.00000000000E+00 -0.21688618335E+03  0.21688618335E+03  0.00000000000E+00 0. -1.
         25    1    1    2    0    0 -0.54106860931E+02  0.48643328760E+02 -0.14910406329E+02  0.14539960815E+03  0.12500000000E+03 0.  0.
         25    1    1    2    0    0  0.12041141116E+03 -0.69609358592E+02 -0.33343082481E+02  0.18995034059E+03  0.12500000000E+03 0.  0.
         25    1    1    2    0    0 -0.66304550225E+02  0.20966029832E+02  0.17883525358E+03  0.22900418273E+03  0.12500000000E+03 0.  0.
</event>
<event>
 5    0  0.5605075E-005  0.2548534E+03  0.7546771E-02  0.1110275E+00
         21   -1    0    0  502  501  0.00000000000E+00  0.00000000000E+00  0.46348616720E+03  0.46348616720E+03  0.00000000000E+00 0.  1.
         21   -1    0    0  501  502 -0.00000000000E+00 -0.00000000000E+00 -0.14013418451E+03  0.14013418451E+03  0.00000000000E+00 0.  1.
         25    1    1    2    0    0 -0.42694162757E+02 -0.52177032045E+02  0.36747323008E+02  0.14669901143E+03  0.12500000000E+03 0.  0.
         25    1    1    2    0    0  0.65875830449E+02  0.41965566519E+01  0.28822971857E+03  0.32102742374E+03  0.12500000000E+03 0.  0.
         25    1    1    2    0    0 -0.23181667692E+02  0.47980475394E+02 -0.16250588808E+01  0.13589391654E+03  0.12500000000E+03 0.  0.
</event>
<event>
 5    0  0.5605075E-005  0.3038852E+03  0.7546771E-02  0.1083314E+00
         21   -1    0    0  502  501  0.00000000000E+00  0.00000000000E+00  0.16364261544E+04  0.16364261544E+04  0.00000000000E+00 0.  1.
         21   -1    0    0  501  502 -0.00000000000E+00 -0.00000000000E+00 -0.56431655620E+02  0.56431655620E+02  0.00000000000E+00 0.  1.
         25    1    1    2    0    0 -0.13356957519E+03 -0.39015472314E+02  0.32855316045E+03  0.37806774226E+03  0.12500000000E+03 0.  0.
         25    1    1    2    0    0  0.14572668961E+03  0.13353129704E+03  0.89839359226E+03  0.92833341100E+03  0.12500000000E+03 0.  0.
         25    1    1    2    0    0 -0.12157114413E+02 -0.94515824726E+02  0.35304774608E+03  0.38645665677E+03  0.12500000000E+03 0.  0.
</event>
<event>
 5    0  0.5605075E-005  0.4214806E+03  0.7546771E-02  0.1036586E+00
         21   -1    0    0  502  501  0.00000000000E+00  0.00000000000E+00  0.17697014539E+03  0.17697014539E+03  0.00000000000E+00 0.  1.
         21   -1    0    0  501  502 -0.00000000000E+00 -0.00000000000E+00 -0.10038184156E+04  0.10038184156E+04  0.00000000000E+00 0.  1.
         25    1    1    2    0    0  0.11528676979E+03  0.14978362511E+03 -0.61264604126E+03  0.65321232804E+03  0.12500000000E+03 0.  0.
         25    1    1    2    0    0  0.16095631128E+02  0.10814167191E+03 -0.59831832732E+02  0.17651781427E+03  0.12500000000E+03 0.  0.
         25    1    1    2    0    0 -0.13138240092E+03 -0.25792529702E+03 -0.15437039626E+03  0.35105841872E+03  0.12500000000E+03 0.  0.
</event>
<event>
 5    0  0.5605075E-005  0.2317285E+03  0.7546771E-02  0.1125429E+00
         21   -1    0    0  502  501  0.00000000000E+00  0.00000000000E+00  0.45312935316E+03  0.45312935316E+03  0.00000000000E+00 0.  1.
         21   -1    0    0  501  502 -0.00000000000E+00 -0.00000000000E+00 -0.11850497266E+03  0.11850497266E+03  0.00000000000E+00 0.  1.
         25    1    1    2    0    0 -0.90301713994E+01  0.87177769780E+02  0.73199599696E+02  0.16930649407E+03  0.12500000000E+03 0.  0.
         25    1    1    2    0    0 -0.69818993368E+02 -0.56533851750E+02  0.11615308088E+03  0.19284010586E+03  0.12500000000E+03 0.  0.
         25    1    1    2    0    0  0.78849164768E+02 -0.30643918030E+02  0.14527169992E+03  0.20948772588E+03  0.12500000000E+03 0.  0.
</event>
<event>
 5    0  0.5605075E-005  0.4676315E+03  0.7546771E-02  0.1022591E+00
         21   -1    0    0  502  501  0.00000000000E+00  0.00000000000E+00  0.19638263945E+04  0.19638263945E+04  0.00000000000E+00 0. -1.
         21   -1    0    0  501  502 -0.00000000000E+00 -0.00000000000E+00 -0.11135365224E+03  0.11135365224E+03  0.00000000000E+00 0. -1.
         25    1    1    2    0    0  0.49450425375E+02 -0.38774858441E+03  0.74637408616E+03  0.85175911253E+03  0.12500000000E+03 0.  0.
         25    1    1    2    0    0 -0.72744341546E+02  0.36516769010E+03  0.86208727784E+03  0.94734294515E+03  0.12500000000E+03 0.  0.
         25    1    1    2    0    0  0.23293916171E+02  0.22580894317E+02  0.24401137827E+03  0.27607798906E+03  0.12500000000E+03 0.  0.
</event>
<event>
 5    0  0.5605075E-005  0.2641374E+03  0.7546771E-02  0.1104683E+00
         21   -1    0    0  502  501  0.00000000000E+00  0.00000000000E+00  0.40101597331E+02  0.40101597331E+02  0.00000000000E+00 0.  1.
         21   -1    0    0  501  502 -0.00000000000E+00 -0.00000000000E+00 -0.17397945981E+04  0.17397945981E+04  0.00000000000E+00 0.  1.
         25    1    1    2    0    0  0.10039443189E+03  0.37287462635E+02 -0.51217907064E+03  0.53797936506E+03  0.12500000000E+03 0.  0.
         25    1    1    2    0    0  0.45406801157E+02  0.58384072991E+02 -0.56899741701E+03  0.58724231637E+03  0.12500000000E+03 0.  0.
         25    1    1    2    0    0 -0.14580123305E+03 -0.95671535626E+02 -0.61851651312E+03  0.65467451401E+03  0.12500000000E+03 0.  0.
</event>
<event>
 5    0  0.5605075E-005  0.3345852E+03  0.7546771E-02  0.1069126E+00
         21   -1    0    0  502  501  0.00000000000E+00  0.00000000000E+00  0.33109474674E+03  0.33109474674E+03  0.00000000000E+00 0.  1.
         21   -1    0    0  501  502 -0.00000000000E+00 -0.00000000000E+00 -0.33811242264E+03  0.33811242264E+03  0.00000000000E+00 0.  1.
         25    1    1    2    0    0  0.92805356532E+02  0.16705686160E+03 -0.93813848209E+02  0.24687419332E+03  0.12500000000E+03 0.  0.
         25    1    1    2    0    0 -0.80601610076E+02 -0.19141997868E+03 -0.35918750945E+02  0.24505792061E+03  0.12500000000E+03 0.  0.
         25    1    1    2    0    0 -0.12203746456E+02  0.24363117074E+02  0.12271492325E+03  0.17727505546E+03  0.12500000000E+03 0.  0.
</event>
<event>
 5    0  0.5605075E-005  0.3019000E+03  0.7546771E-02  0.1084295E+00
         21   -1    0    0  502  501  0.00000000000E+00  0.00000000000E+00  0.18337499160E+03  0.18337499160E+03  0.00000000000E+00 0. -1.
         21   -1    0    0  501  502 -0.00000000000E+00 -0.00000000000E+00 -0.49703409480E+03  0.49703409480E+03  0.00000000000E+00 0. -1.
         25    1    1    2    0    0  0.14916577968E+03  0.29557996720E+02 -0.81738329681E+02  0.21314375322E+03  0.12500000000E+03 0.  0.
         25    1    1    2    0    0  0.65668758103E+02  0.28827121814E+02 -0.12384001573E+03  0.19001246864E+03  0.12500000000E+03 0.  0.
         25    1    1    2    0    0 -0.21483453778E+03 -0.58385118534E+02 -0.10808075779E+03  0.27725286454E+03  0.12500000000E+03 0.  0.
</event>
<event>
 5    0  0.5605075E-005  0.2899390E+03  0.7546771E-02  0.1090381E+00
         21   -1    0    0  502  501  0.00000000000E+00  0.00000000000E+00  0.79831470307E+02  0.79831470307E+02  0.00000000000E+00 0. -1.
         21   -1    0    0  501  502 -0.00000000000E+00 -0.00000000000E+00 -0.10530261405E+04  0.10530261405E+04  0.00000000000E+00 0. -1.
         25    1    1    2    0    0  0.10548753696E+03 -0.10430549485E+02 -0.66213111201E+02  0.17676422973E+03  0.12500000000E+03 0.  0.
         25    1    1    2    0    0 -0.65492679298E+02 -0.13375644292E+02 -0.26632473071E+03  0.30169862626E+03  0.12500000000E+03 0.  0.
         25    1    1    2    0    0 -0.39994857665E+02  0.23806193778E+02 -0.64065682826E+03  0.65439475479E+03  0.12500000000E+03 0.  0.
</event>
<event>
 5    0  0.5605075E-005  0.2212397E+03  0.7546771E-02  0.1132962E+00
         21   -1    0    0  502  501  0.00000000000E+00  0.00000000000E+00  0.15533042163E+03  0.15533042163E+03  0.00000000000E+00 0.  1.
         21   -1    0    0  501  502 -0.00000000000E+00 -0.00000000000E+00 -0.31511528749E+03  0.31511528749E+03  0.00000000000E+00 0.  1.
         25    1    1    2    0    0  0.27859544931E+02  0.58295328524E+02 -0.11178208440E+03  0.17970735646E+03  0.12500000000E+03 0.  0.
         25    1    1    2    0    0  0.43337318328E+02 -0.89838644441E+01 -0.49755606212E+01  0.13269735937E+03  0.12500000000E+03 0.  0.
         25    1    1    2    0    0 -0.71196863259E+02 -0.49311464080E+02 -0.43027220833E+02  0.15804099329E+03  0.12500000000E+03 0.  0.
</event>
<event>
 5    0  0.5605075E-005  0.3188152E+03  0.7546771E-02  0.1076196E+00
         21   -1    0    0  502  501  0.00000000000E+00  0.00000000000E+00  0.39087046270E+03  0.39087046270E+03  0.00000000000E+00 0.  1.
         21   -1    0    0  501  502 -0.00000000000E+00 -0.00000000000E+00 -0.26004307266E+03  0.26004307266E+03  0.00000000000E+00 0.  1.
         25    1    1    2    0    0  0.59002317959E+02 -0.14936627843E+03  0.55135978315E+02  0.21084718344E+03  0.12500000000E+03 0.  0.
         25    1    1    2    0    0 -0.51152868171E+02  0.23441749569E+03 -0.58336216297E+00  0.27054300678E+03  0.12500000000E+03 0.  0.
         25    1    1    2    0    0 -0.78494497876E+01 -0.85051217256E+02  0.76274773888E+02  0.16952334515E+03  0.12500000000E+03 0.  0.
</event>
<event>
 5    0  0.5605075E-005  0.2349087E+03  0.7546771E-02  0.1123232E+00
         21   -1    0    0  502  501  0.00000000000E+00  0.00000000000E+00  0.19053293482E+03  0.19053293482E+03  0.00000000000E+00 0.  1.
         21   -1    0    0  501  502 -0.00000000000E+00 -0.00000000000E+00 -0.28961983565E+03  0.28961983565E+03  0.00000000000E+00 0.  1.
         25    1    1    2    0    0 -0.18149098040E+02 -0.29821146480E+02 -0.56011339829E+01  0.12990405397E+03  0.12500000000E+03 0.  0.
         25    1    1    2    0    0  0.11915213084E+03  0.15765104205E+02 -0.25857298186E+02  0.17532646310E+03  0.12500000000E+03 0.  0.
         25    1    1    2    0    0 -0.10100303280E+03  0.14056042275E+02 -0.67628468665E+02  0.17492225340E+03  0.12500000000E+03 0.  0.
</event>
<event>
 5    0  0.5891359E-005  0.2884024E+03  0.7546771E-02  0.1091186E+00
         21   -1    0    0  502  501  0.00000000000E+00  0.00000000000E+00  0.29666000906E+03  0.29666000906E+03  0.00000000000E+00 0.  1.
         21   -1    0    0  501  502 -0.00000000000E+00 -0.00000000000E+00 -0.28037468564E+03  0.28037468564E+03  0.00000000000E+00 0.  1.
         25    1    1    2    0    0 -0.96051550097E+02  0.11033654725E+03 -0.66065694083E+02  0.20344466046E+03  0.12500000000E+03 0.  0.
         25    1    1    2    0    0 -0.39859444966E+02 -0.11723825587E+03  0.66616710210E+02  0.18813923055E+03  0.12500000000E+03 0.  0.
         25    1    1    2    0    0  0.13591099506E+03  0.69017086182E+01  0.15734307295E+02  0.18545080368E+03  0.12500000000E+03 0.  0.
</event>
<event>
 5    0  0.5605075E-005  0.2855650E+03  0.7546771E-02  0.1092688E+00
         21   -1    0    0  502  501  0.00000000000E+00  0.00000000000E+00  0.53489415712E+03  0.53489415712E+03  0.00000000000E+00 0. -1.
         21   -1    0    0  501  502 -0.00000000000E+00 -0.00000000000E+00 -0.15245516040E+03  0.15245516040E+03  0.00000000000E+00 0. -1.
         25    1    1    2    0    0 -0.76535319461E+01  0.12087242678E+03  0.12012999881E+03  0.21148271022E+03  0.12500000000E+03 0.  0.
         25    1    1    2    0    0 -0.13195383468E+03 -0.58485320576E+02  0.79780794358E+02  0.20693555122E+03  0.12500000000E+03 0.  0.
         25    1    1    2    0    0  0.13960736663E+03 -0.62387106208E+02  0.18252820355E+03  0.26893105609E+03  0.12500000000E+03 0.  0.
</event>
<event>
 5    0  0.5605075E-005  0.3197206E+03  0.7546771E-02  0.1075778E+00
         21   -1    0    0  502  501  0.00000000000E+00  0.00000000000E+00  0.29875510026E+03  0.29875510026E+03  0.00000000000E+00 0.  1.
         21   -1    0    0  501  502 -0.00000000000E+00 -0.00000000000E+00 -0.34215732103E+03  0.34215732103E+03  0.00000000000E+00 0.  1.
         25    1    1    2    0    0  0.14722452987E+03 -0.23178700389E+02 -0.15710896278E+03  0.25004107769E+03  0.12500000000E+03 0.  0.
         25    1    1    2    0    0 -0.19607379768E+03 -0.15832879873E+02  0.56242716975E+02  0.23975791423E+03  0.12500000000E+03 0.  0.
         25    1    1    2    0    0  0.48849267810E+02  0.39011580262E+02  0.57464025037E+02  0.15111342936E+03  0.12500000000E+03 0.  0.
</event>
<event>
 5    0  0.5605075E-005  0.2652728E+03  0.7546771E-02  0.1104016E+00
         21   -1    0    0  502  501  0.00000000000E+00  0.00000000000E+00  0.63561742470E+03  0.63561742470E+03  0.00000000000E+00 0.  1.
         21   -1    0    0  501  502 -0.00000000000E+00 -0.00000000000E+00 -0.11071075469E+03  0.11071075469E+03  0.00000000000E+00 0. -1.
         25    1    1    2    0    0  0.33728947883E+02 -0.73395901118E+02  0.10764216876E+03  0.18367481243E+03  0.12500000000E+03 0.  0.
         25    1    1    2    0    0  0.10552460927E+03  0.32774323742E+02  0.28393209897E+03  0.32932056766E+03  0.12500000000E+03 0.  0.
         25    1    1    2    0    0 -0.13925355715E+03  0.40621577377E+02  0.13333240228E+03  0.23333279929E+03  0.12500000000E+03 0.  0.
</event>
<event>
 5    0  0.5605075E-005  0.3489450E+03  0.7546771E-02  0.1063049E+00
         21   -1    0    0  502  501  0.00000000000E+00  0.00000000000E+00  0.17834239669E+03  0.17834239669E+03  0.00000000000E+00 0.  1.
         21   -1    0    0  501  502 -0.00000000000E+00 -0.00000000000E+00 -0.68274635176E+03  0.68274635176E+03  0.00000000000E+00 0.  1.
         25    1    1    2    0    0 -0.69794284188E+02 -0.78244333851E+02 -0.12842051051E+03  0.20763006864E+03  0.12500000000E+03 0.  0.
         25    1    1    2    0    0 -0.11340895640E+03 -0.27649117169E+02  0.35021043570E+02  0.17457817322E+03  0.12500000000E+03 0.  0.
         25    1    1    2    0    0  0.18320324059E+03  0.10589345102E+03 -0.41100448812E+03  0.47888050659E+03  0.12500000000E+03 0.  0.
</event>
<event>
 5    0  0.5605075E-005  0.2411730E+03  0.7546771E-02  0.1119014E+00
         21   -1    0    0  502  501  0.00000000000E+00  0.00000000000E+00  0.52910451775E+02  0.52910451775E+02  0.00000000000E+00 0.  1.
         21   -1    0    0  501  502 -0.00000000000E+00 -0.00000000000E+00 -0.10992990739E+04  0.10992990739E+04  0.00000000000E+00 0.  1.
         25    1    1    2    0    0  0.31869451954E+01 -0.22330502681E+01 -0.22375750420E+03  0.25633486657E+03  0.12500000000E+03 0.  0.
         25    1    1    2    0    0 -0.98435629916E+02  0.54643521493E+02 -0.56554892077E+03  0.59003904063E+03  0.12500000000E+03 0.  0.
         25    1    1    2    0    0  0.95248684721E+02 -0.52410471225E+02 -0.25708219713E+03  0.30583561846E+03  0.12500000000E+03 0.  0.
</event>
<event>
 5    0  0.5605075E-005  0.2260739E+03  0.7546771E-02  0.1129434E+00
         21   -1    0    0  502  501  0.00000000000E+00  0.00000000000E+00  0.64472485797E+03  0.64472485797E+03  0.00000000000E+00 0. -1.
         21   -1    0    0  501  502 -0.00000000000E+00 -0.00000000000E+00 -0.79273236673E+02  0.79273236673E+02  0.00000000000E+00 0. -1.
         25    1    1    2    0    0 -0.25035559230E+02  0.82487697958E+02  0.87071657675E+02  0.17503563383E+03  0.12500000000E+03 0.  0.
         25    1    1    2    0    0 -0.30389815234E+01 -0.53558939387E+02  0.21063530330E+03  0.25073896066E+03  0.12500000000E+03 0.  0.
         25    1    1    2    0    0  0.28074540753E+02 -0.28928758571E+02  0.26774466032E+03  0.29822350015E+03  0.12500000000E+03 0.  0.
</event>
<event>
 5    0  0.5605075E-005  0.2540319E+03  0.7546771E-02  0.1110783E+00
         21   -1    0    0  502  501  0.00000000000E+00  0.00000000000E+00  0.66576745246E+03  0.66576745246E+03  0.00000000000E+00 0. -1.
         21   -1    0    0  501  502 -0.00000000000E+00 -0.00000000000E+00 -0.96929042187E+02  0.96929042187E+02  0.00000000000E+00 0. -1.
         25    1    1    2    0    0  0.62751367261E+02 -0.19511681445E+02  0.31636367407E+03  0.34645261448E+03  0.12500000000E+03 0.  0.
         25    1    1    2    0    0  0.53085304154E+02  0.57036493755E+02  0.16453580938E+03  0.22083533165E+03  0.12500000000E+03 0.  0.
         25    1    1    2    0    0 -0.11583667142E+03 -0.37524812310E+02  0.87938926819E+02  0.19540854852E+03  0.12500000000E+03 0.  0.
</event>
<event>
 5    0  0.5605075E-005  0.3673359E+03  0.7546771E-02  0.1055716E+00
         21   -1    0    0  502  501  0.00000000000E+00  0.00000000000E+00  0.16267931379E+03  0.16267931379E+03  0.00000000000E+00 0. -1.
         21   -1    0    0  501  502 -0.00000000000E+00 -0.00000000000E+00 -0.82945788758E+03  0.82945788758E+03  0.00000000000E+00 0. -1.
         25    1    1    2    0    0 -0.92778224359E+02  0.38207850561E+02 -0.10574574830E+03  0.19202812826E+03  0.12500000000E+03 0.  0.
         25    1    1    2    0    0 -0.10313853142E+03  0.78845824365E+02  0.15895432332E+01  0.18022693287E+03  0.12500000000E+03 0.  0.
         25    1    1    2    0    0  0.19591675578E+03 -0.11705367493E+03 -0.56262236872E+03  0.61988214024E+03  0.12500000000E+03 0.  0.
</event>
<event>
 5    0  0.5605075E-005  0.5214814E+03  0.7546771E-02  0.1008319E+00
         21   -1    0    0  502  501  0.00000000000E+00  0.00000000000E+00  0.18499235187E+04  0.18499235187E+04  0.00000000000E+00 0. -1.
         21   -1    0    0  501  502 -0.00000000000E+00 -0.00000000000E+00 -0.14700223493E+03  0.14700223493E+03  0.00000000000E+00 0. -1.
         25    1    1    2    0    0 -0.12283850896E+02  0.13774585360E+03  0.24304524981E+03  0.30630182277E+03  0.12500000000E+03 0.  0.
         25    1    1    2    0    0  0.22367595160E+03  0.90040191033E+02  0.98909979956E+02  0.28904385733E+03  0.12500000000E+03 0.  0.
         25    1    1    2    0    0 -0.21139210070E+03 -0.22778604463E+03  0.13609660540E+04  0.14015800736E+04  0.12500000000E+03 0.  0.
</event>
<event>
 5    0  0.5605075E-005  0.2077344E+03  0.7546771E-02  0.1143373E+00
         21   -1    0    0  502  501  0.00000000000E+00  0.00000000000E+00  0.63980064254E+03  0.63980064254E+03  0.00000000000E+00 0. -1.
         21   -1    0    0  501  502 -0.00000000000E+00 -0.00000000000E+00 -0.67448505941E+02  0.67448505941E+02  0.00000000000E+00 0. -1.
         25    1    1    2    0    0  0.13920396876E+02 -0.64395349871E+01  0.31805639812E+03  0.34208203321E+03  0.12500000000E+03 0.  0.
         25    1    1    2    0    0 -0.44609148912E+01 -0.33683729610E+00  0.73555827465E+02  0.14510504118E+03  0.12500000000E+03 0.  0.
         25    1    1    2    0    0 -0.94594819844E+01  0.67763722832E+01  0.18073991102E+03  0.22006207409E+03  0.12500000000E+03 0.  0.
</event>
<event>
 5    0  0.5605075E-005  0.2724714E+03  0.7546771E-02  0.1099873E+00
         21   -1    0    0  502  501  0.00000000000E+00  0.00000000000E+00  0.94619043951E+03  0.94619043951E+03  0.00000000000E+00 0.  1.
         21   -1    0    0  501  502 -0.00000000000E+00 -0.00000000000E+00 -0.78462701666E+02  0.78462701666E+02  0.00000000000E+00 0.  1.
         25    1    1    2    0    0 -0.11744924697E+03  0.12478399642E+03  0.31032401379E+03  0.37588743649E+03  0.12500000000E+03 0.  0.
         25    1    1    2    0    0  0.12573932514E+03 -0.44145759220E+02  0.31984806169E+03  0.36835717519E+03  0.12500000000E+03 0.  0.
         25    1    1    2    0    0 -0.82900781763E+01 -0.80638237201E+02  0.23755566236E+03  0.28040852950E+03  0.12500000000E+03 0.  0.
</event>
<event>
 5    0  0.5605075E-005  0.4166715E+03  0.7546771E-02  0.1038155E+00
         21   -1    0    0  502  501  0.00000000000E+00  0.00000000000E+00  0.83250190778E+02  0.83250190778E+02  0.00000000000E+00 0. -1.
         21   -1    0    0  501  502 -0.00000000000E+00 -0.00000000000E+00 -0.20854625752E+04  0.20854625752E+04  0.00000000000E+00 0. -1.
         25    1    1    2    0    0  0.20078710498E+03  0.85341456741E+02 -0.47079419418E+03  0.53373289110E+03  0.12500000000E+03 0.  0.
         25    1    1    2    0    0  0.13346218578E+03 -0.77018124158E+02 -0.36864908322E+03  0.41865390603E+03  0.12500000000E+03 0.  0.
         25    1    1    2    0    0 -0.33424929076E+03 -0.83233325832E+01 -0.11627691071E+04  0.12163259689E+04  0.12500000000E+03 0.  0.
</event>
<event>
 5    0  0.5605075E-005  0.2663739E+03  0.7546771E-02  0.1103373E+00
         21   -1    0    0  502  501  0.00000000000E+00  0.00000000000E+00  0.67693747331E+03  0.67693747331E+03  0.00000000000E+00 0. -1.
         21   -1    0    0  501  502 -0.00000000000E+00 -0.00000000000E+00 -0.10481770575E+03  0.10481770575E+03  0.00000000000E+00 0. -1.
         25    1    1    2    0    0 -0.53280308760E+01  0.10812434680E+03  0.35723627374E+02  0.16917576611E+03  0.12500000000E+03 0.  0.
         25    1    1    2    0    0  0.32066258387E+02 -0.10281860491E+01  0.22866937563E+03  0.26257186720E+03  0.12500000000E+03 0.  0.
         25    1    1    2    0    0 -0.26738227511E+02 -0.10709616075E+03  0.30772676456E+03  0.35000754575E+03  0.12500000000E+03 0.  0.
</event>
<event>
 5    0  0.5605075E-005  0.2418004E+03  0.7546771E-02  0.1118599E+00
         21   -1    0    0  502  501  0.00000000000E+00  0.00000000000E+00  0.27138593170E+03  0.27138593170E+03  0.00000000000E+00 0. -1.
         21   -1    0    0  501  502 -0.00000000000E+00 -0.00000000000E+00 -0.21544017717E+03  0.21544017717E+03  0.00000000000E+00 0. -1.
         25    1    1    2    0    0  0.15754831740E+02 -0.57417626537E+02 -0.45370402502E+02  0.14569993817E+03  0.12500000000E+03 0.  0.
         25    1    1    2    0    0 -0.66394180264E+01 -0.57210104083E+02 -0.10095820416E+02  0.13800001258E+03  0.12500000000E+03 0.  0.
         25    1    1    2    0    0 -0.91154137136E+01  0.11462773062E+03  0.11141197745E+03  0.20312615812E+03  0.12500000000E+03 0.  0.
</event>
<event>
 5    0  0.5605075E-005  0.3603142E+03  0.7546771E-02  0.1058460E+00
         21   -1    0    0  502  501  0.00000000000E+00  0.00000000000E+00  0.10886848425E+03  0.10886848425E+03  0.00000000000E+00 0. -1.
         21   -1    0    0  501  502 -0.00000000000E+00 -0.00000000000E+00 -0.11925057473E+04  0.11925057473E+04  0.00000000000E+00 0. -1.
         25    1    1    2    0    0 -0.17212955703E+03 -0.21096692334E+03 -0.59387960106E+03  0.66517186329E+03  0.12500000000E+03 0.  0.
         25    1    1    2    0    0  0.88008377538E+02  0.78967876141E+01 -0.17697023010E+03  0.23398994874E+03  0.12500000000E+03 0.  0.
         25    1    1    2    0    0  0.84121179493E+02  0.20307013573E+03 -0.31278743188E+03  0.40221241951E+03  0.12500000000E+03 0.  0.
</event>
<event>
 5    0  0.5605075E-005  0.2528173E+03  0.7546771E-02  0.1111537E+00
         21   -1    0    0  502  501  0.00000000000E+00  0.00000000000E+00  0.12445990133E+04  0.12445990133E+04  0.00000000000E+00 0. -1.
         21   -1    0    0  501  502 -0.00000000000E+00 -0.00000000000E+00 -0.51355172494E+02  0.51355172494E+02  0.00000000000E+00 0. -1.
         25    1    1    2    0    0  0.11404484127E+03  0.20344037890E+02  0.37853029692E+03  0.41512683770E+03  0.12500000000E+03 0.  0.
         25    1    1    2    0    0 -0.13137377400E+03  0.25799850746E+02  0.60182661939E+03  0.62908265006E+03  0.12500000000E+03 0.  0.
         25    1    1    2    0    0  0.17328932737E+02 -0.46143888636E+02  0.21288692453E+03  0.25174469807E+03  0.12500000000E+03 0.  0.
</event>
<event>
 5    0  0.5605075E-005  0.3641979E+03  0.7546771E-02  0.1056934E+00
         21   -1    0    0  502  501  0.00000000000E+00  0.00000000000E+00  0.13849222694E+03  0.13849222694E+03  0.00000000000E+00 0. -1.
         21   -1    0    0  501  502 -0.00000000000E+00 -0.00000000000E+00 -0.95774426981E+03  0.95774426981E+03  0.00000000000E+00 0. -1.
         25    1    1    2    0    0  0.17642744611E+03 -0.13313447132E+02 -0.76546989875E+02  0.22975711801E+03  0.12500000000E+03 0.  0.
         25    1    1    2    0    0  0.19202811593E+02  0.22585939960E+00 -0.55038279720E+03  0.56472561695E+03  0.12500000000E+03 0.  0.
         25    1    1    2    0    0 -0.19563025770E+03  0.13087587732E+02 -0.19232225580E+03  0.30175376179E+03  0.12500000000E+03 0.  0.
</event>
<event>
 5    0  0.5605075E-005  0.3682512E+03  0.7546771E-02  0.1055364E+00
         21   -1    0    0  502  501  0.00000000000E+00  0.00000000000E+00  0.10425364229E+04  0.10425364229E+04  0.00000000000E+00 0. -1.
         21   -1    0    0  501  502 -0.00000000000E+00 -0.00000000000E+00 -0.13007601399E+03  0.13007601399E+03  0.00000000000E+00 0. -1.
         25    1    1    2    0    0  0.94611469885E+02  0.12815622253E+02  0.60055073185E+03  0.62080733882E+03  0.12500000000E+03 0.  0.
         25    1    1    2    0    0 -0.97947086557E+02  0.17060452651E+03  0.16630448023E+03  0.28632449489E+03  0.12500000000E+03 0.  0.
         25    1    1    2    0    0  0.33356166717E+01 -0.18342014877E+03  0.14560519682E+03  0.26548060316E+03  0.12500000000E+03 0.  0.
</event>
<event>
 5    0  0.5605075E-005  0.3020516E+03  0.7546771E-02  0.1084220E+00
         21   -1    0    0  502  501  0.00000000000E+00  0.00000000000E+00  0.10494593153E+03  0.10494593153E+03  0.00000000000E+00 0. -1.
         21   -1    0    0  501  502 -0.00000000000E+00 -0.00000000000E+00 -0.86935417409E+03  0.86935417409E+03  0.00000000000E+00 0. -1.
         25    1    1    2    0    0 -0.18971517305E+02 -0.41765894654E+02 -0.50240030506E+03  0.51974549055E+03  0.12500000000E+03 0.  0.
         25    1    1    2    0    0  0.95625174471E+02 -0.79228828439E+02 -0.16381615171E+03  0.24058701712E+03  0.12500000000E+03 0.  0.
         25    1    1    2    0    0 -0.76653657166E+02  0.12099472309E+03 -0.98191785785E+02  0.21396759794E+03  0.12500000000E+03 0.  0.
</event>
<event>
 5    0  0.5605075E-005  0.2251393E+03  0.7546771E-02  0.1130109E+00
         21   -1    0    0  502  501  0.00000000000E+00  0.00000000000E+00  0.88982304251E+03  0.88982304251E+03  0.00000000000E+00 0. -1.
         21   -1    0    0  501  502 -0.00000000000E+00 -0.00000000000E+00 -0.56963779251E+02  0.56963779251E+02  0.00000000000E+00 0. -1.
         25    1    1    2    0    0 -0.21017535275E+02 -0.69507505792E+02  0.44124591613E+03  0.46432315110E+03  0.12500000000E+03 0.  0.
         25    1    1    2    0    0  0.48575827055E+02  0.68174090051E+02  0.24817054318E+03  0.29020843549E+03  0.12500000000E+03 0.  0.
         25    1    1    2    0    0 -0.27558291781E+02  0.13334157403E+01  0.14344280395E+03  0.19225523517E+03  0.12500000000E+03 0.  0.
</event>
<event>
 5    0  0.5744579E-005  0.3430604E+03  0.7546771E-02  0.1065500E+00
         21   -1    0    0  502  501  0.00000000000E+00  0.00000000000E+00  0.47136881817E+03  0.47136881817E+03  0.00000000000E+00 0. -1.
         21   -1    0    0  501  502 -0.00000000000E+00 -0.00000000000E+00 -0.24967806872E+03  0.24967806872E+03  0.00000000000E+00 0. -1.
         25    1    1    2    0    0 -0.48801260892E+02  0.34730249477E+02 -0.91738213231E+02  0.16621869047E+03  0.12500000000E+03 0.  0.
         25    1    1    2    0    0  0.11336724886E+03  0.61825040694E+02  0.33763106996E+03  0.38248425873E+03  0.12500000000E+03 0.  0.
         25    1    1    2    0    0 -0.64565987963E+02 -0.96555290171E+02 -0.24202107285E+02  0.17234393769E+03  0.12500000000E+03 0.  0.
</event>
<event>
 5    0  0.5605075E-005  0.6358279E+03  0.7546771E-02  0.9833742E-01
         21   -1    0    0  502  501  0.00000000000E+00  0.00000000000E+00  0.43110612297E+03  0.43110612297E+03  0.00000000000E+00 0.  1.
         21   -1    0    0  501  502 -0.00000000000E+00 -0.00000000000E+00 -0.93776693085E+03  0.93776693085E+03  0.00000000000E+00 0.  1.
         25    1    1    2    0    0 -0.14413914962E+03 -0.13645014578E+02  0.47892671356E+02  0.19718262815E+03  0.12500000000E+03 0.  0.
         25    1    1    2    0    0 -0.11472910328E+03  0.23049024283E+03 -0.72045910460E+03  0.77522567075E+03  0.12500000000E+03 0.  0.
         25    1    1    2    0    0  0.25886825289E+03 -0.21684522825E+03  0.16590562537E+03  0.39646475493E+03  0.12500000000E+03 0.  0.
</event>
<event>
 5    0  0.5605075E-005  0.2475656E+03  0.7546771E-02  0.1114853E+00
         21   -1    0    0  502  501  0.00000000000E+00  0.00000000000E+00  0.90226357415E+02  0.90226357415E+02  0.00000000000E+00 0. -1.
         21   -1    0    0  501  502 -0.00000000000E+00 -0.00000000000E+00 -0.67927736291E+03  0.67927736291E+03  0.00000000000E+00 0. -1.
         25    1    1    2    0    0  0.11240819636E+03 -0.11847808157E+01 -0.30483817286E+03  0.34812112539E+03  0.12500000000E+03 0.  0.
         25    1    1    2    0    0 -0.10610436876E+03 -0.93685181005E+01 -0.23452390808E+03  0.28630817254E+03  0.12500000000E+03 0.  0.
         25    1    1    2    0    0 -0.63038276023E+01  0.10553298916E+02 -0.49688924559E+02  0.13507442239E+03  0.12500000000E+03 0.  0.
</event>
<event>
 5    0  0.5605075E-005  0.4391630E+03  0.7546771E-02  0.1031004E+00
         21   -1    0    0  502  501  0.00000000000E+00  0.00000000000E+00  0.20540975302E+03  0.20540975302E+03  0.00000000000E+00 0. -1.
         21   -1    0    0  501  502 -0.00000000000E+00 -0.00000000000E+00 -0.93892375627E+03  0.93892375627E+03  0.00000000000E+00 0.  1.
         25    1    1    2    0    0  0.79608132515E+02  0.11558801740E+03  0.28960874156E+02  0.19016250093E+03  0.12500000000E+03 0.  0.
         25    1    1    2    0    0 -0.10105206822E+02 -0.24777797324E+03 -0.15890110852E+03  0.31995406157E+03  0.12500000000E+03 0.  0.
         25    1    1    2    0    0 -0.69502925693E+02  0.13218995584E+03 -0.60357376889E+03  0.63421694679E+03  0.12500000000E+03 0.  0.
</event>
<event>
 5    0  0.5605075E-005  0.2909559E+03  0.7546771E-02  0.1089851E+00
         21   -1    0    0  502  501  0.00000000000E+00  0.00000000000E+00  0.27012004400E+03  0.27012004400E+03  0.00000000000E+00 0.  1.
         21   -1    0    0  501  502 -0.00000000000E+00 -0.00000000000E+00 -0.31339890363E+03  0.31339890363E+03  0.00000000000E+00 0.  1.
         25    1    1    2    0    0  0.90444136828E+02 -0.99887554937E+02 -0.15342470616E+03  0.23941972763E+03  0.12500000000E+03 0.  0.
         25    1    1    2    0    0 -0.85574073858E+02  0.12677480144E+03  0.76191304475E+02  0.21171888738E+03  0.12500000000E+03 0.  0.
         25    1    1    2    0    0 -0.48700629696E+01 -0.26887246502E+02  0.33954542052E+02  0.13238033262E+03  0.12500000000E+03 0.  0.
</event>
<event>
 5    0  0.5605075E-005  0.2761094E+03  0.7546771E-02  0.1097833E+00
         21   -1    0    0  502  501  0.00000000000E+00  0.00000000000E+00  0.24113900459E+03  0.24113900459E+03  0.00000000000E+00 0. -1.
         21   -1    0    0  501  502 -0.00000000000E+00 -0.00000000000E+00 -0.31615120971E+03  0.31615120971E+03  0.00000000000E+00 0. -1.
         25    1    1    2    0    0  0.22347391990E+02 -0.14277935381E+02  0.85372420714E+02  0.15367730993E+03  0.12500000000E+03 0.  0.
         25    1    1    2    0    0 -0.41752880368E+02  0.13310979098E+03 -0.37698055276E+02  0.19106978527E+03  0.12500000000E+03 0.  0.
         25    1    1    2    0    0  0.19405488378E+02 -0.11883185560E+03 -0.12268657056E+03  0.21254311911E+03  0.12500000000E+03 0.  0.
</event>
<event>
 5    0  0.5605075E-005  0.3781493E+03  0.7546771E-02  0.1051620E+00
         21   -1    0    0  502  501  0.00000000000E+00  0.00000000000E+00  0.27348240957E+03  0.27348240957E+03  0.00000000000E+00 0. -1.
         21   -1    0    0  501  502 -0.00000000000E+00 -0.00000000000E+00 -0.52287432695E+03  0.52287432695E+03  0.00000000000E+00 0. -1.
         25    1    1    2    0    0  0.64250904148E+01 -0.29188802609E+03 -0.59141917532E+02  0.32305211340E+03  0.12500000000E+03 0.  0.
         25    1    1    2    0    0  0.23801234298E+02  0.41741338432E+02 -0.12795604793E+03  0.18522037763E+03  0.12500000000E+03 0.  0.
         25    1    1    2    0    0 -0.30226324713E+02  0.25014668766E+03 -0.62293951926E+02  0.28808424549E+03  0.12500000000E+03 0.  0.
</event>
<event>
 5    0  0.5605075E-005  0.2731040E+03  0.7546771E-02  0.1099516E+00
         21   -1    0    0  502  501  0.00000000000E+00  0.00000000000E+00  0.37199069377E+03  0.37199069377E+03  0.00000000000E+00 0. -1.
         21   -1    0    0  501  502 -0.00000000000E+00 -0.00000000000E+00 -0.20050447506E+03  0.20050447506E+03  0.00000000000E+00 0. -1.
         25    1    1    2    0    0 -0.53188879314E+02  0.11220251323E+03  0.15649389029E+03  0.23565610231E+03  0.12500000000E+03 0.  0.
         25    1    1    2    0    0  0.74600623791E+02 -0.21879252824E+02 -0.66014879087E+02  0.16132860576E+03  0.12500000000E+03 0.  0.
         25    1    1    2    0    0 -0.21411744477E+02 -0.90323260403E+02  0.81007207506E+02  0.17551046077E+03  0.12500000000E+03 0.  0.
</event>
<event>
 5    0  0.5605075E-005  0.2670782E+03  0.7546771E-02  0.1102964E+00
         21   -1    0    0  502  501  0.00000000000E+00  0.00000000000E+00  0.89464983374E+03  0.89464983374E+03  0.00000000000E+00 0. -1.
         21   -1    0    0  501  502 -0.00000000000E+00 -0.00000000000E+00 -0.79730393900E+02  0.79730393900E+02  0.00000000000E+00 0. -1.
         25    1    1    2    0    0 -0.77483915624E+01 -0.53742203386E+02  0.98692562605E+02  0.16826611040E+03  0.12500000000E+03 0.  0.
         25    1    1    2    0    0 -0.79045860890E+02 -0.59600748025E+01  0.12829223658E+03  0.19587666677E+03  0.12500000000E+03 0.  0.
         25    1    1    2    0    0  0.86794252452E+02  0.59702278188E+02  0.58793464065E+03  0.61023745047E+03  0.12500000000E+03 0.  0.
</event>
<event>
 5    0  0.5605075E-005  0.2332485E+03  0.7546771E-02  0.1124374E+00
         21   -1    0    0  502  501  0.00000000000E+00  0.00000000000E+00  0.13260596010E+03  0.13260596010E+03  0.00000000000E+00 0.  1.
         21   -1    0    0  501  502 -0.00000000000E+00 -0.00000000000E+00 -0.41027467515E+03  0.41027467515E+03  0.00000000000E+00 0.  1.
         25    1    1    2    0    0 -0.11370851956E+02 -0.82370211815E+02 -0.44931957181E+02  0.15671001514E+03  0.12500000000E+03 0.  0.
         25    1    1    2    0    0 -0.23222879690E+02  0.10390156549E+03 -0.74117534321E+02  0.18014784580E+03  0.12500000000E+03 0.  0.
         25    1    1    2    0    0  0.34593731647E+02 -0.21531353670E+02 -0.15861922355E+03  0.20602277432E+03  0.12500000000E+03 0.  0.
</event>
<event>
 5    0  0.5605075E-005  0.2731549E+03  0.7546771E-02  0.1099487E+00
         21   -1    0    0  502  501  0.00000000000E+00  0.00000000000E+00  0.12445481781E+03  0.12445481781E+03  0.00000000000E+00 0. -1.
         21   -1    0    0  501  502 -0.00000000000E+00 -0.00000000000E+00 -0.59952345401E+03  0.59952345401E+03  0.00000000000E+00 0. -1.
         25    1    1    2    0    0  0.62253545823E+02 -0.11508613143E+03 -0.11851134356E+03  0.21631056416E+03  0.12500000000E+03 0.  0.
         25    1    1    2    0    0 -0.14270146629E+03  0.91254394987E+02 -0.19738886520E+03  0.28858003602E+03  0.12500000000E+03 0.  0.
         25    1    1    2    0    0  0.80447920467E+02  0.23831736441E+02 -0.15916842744E+03  0.21908767163E+03  0.12500000000E+03 0.  0.
</event>
<event>
 5    0  0.5605075E-005  0.2610327E+03  0.7546771E-02  0.1106524E+00
         21   -1    0    0  502  501  0.00000000000E+00  0.00000000000E+00  0.57742650495E+02  0.57742650495E+02  0.00000000000E+00 0. -1.
         21   -1    0    0  501  502 -0.00000000000E+00 -0.00000000000E+00 -0.11800297698E+04  0.11800297698E+04  0.00000000000E+00 0. -1.
         25    1    1    2    0    0 -0.85822508881E+02  0.50698484642E+02 -0.32863928158E+03  0.36546493234E+03  0.12500000000E+03 0.  0.
         25    1    1    2    0    0  0.11819685310E+02 -0.22367229072E+02 -0.66217574613E+03  0.67434539863E+03  0.12500000000E+03 0.  0.
         25    1    1    2    0    0  0.74002823571E+02 -0.28331255570E+02 -0.13147209160E+03  0.19796208932E+03  0.12500000000E+03 0.  0.
</event>
<event>
 5    0  0.5605075E-005  0.2126316E+03  0.7546771E-02  0.1139499E+00
         21   -1    0    0  502  501  0.00000000000E+00  0.00000000000E+00  0.14747640326E+03  0.14747640326E+03  0.00000000000E+00 0. -1.
         21   -1    0    0  501  502 -0.00000000000E+00 -0.00000000000E+00 -0.30657248984E+03  0.30657248984E+03  0.00000000000E+00 0. -1.
         25    1    1    2    0    0  0.17936407926E+02 -0.20592750940E+02 -0.75770826991E+01  0.12817249433E+03  0.12500000000E+03 0.  0.
         25    1    1    2    0    0  0.52150719704E+02  0.40807713483E+02 -0.54262609804E+02  0.15150708851E+03  0.12500000000E+03 0.  0.
         25    1    1    2    0    0 -0.70087127630E+02 -0.20214962543E+02 -0.97256394082E+02  0.17436931026E+03  0.12500000000E+03 0.  0.
</event>
<event>
 5    0  0.5605075E-005  0.9240945E+03  0.7546771E-02  0.9395953E-01
         21   -1    0    0  502  501  0.00000000000E+00  0.00000000000E+00  0.84498684613E+03  0.84498684613E+03  0.00000000000E+00 0. -1.
         21   -1    0    0  501  502 -0.00000000000E+00 -0.00000000000E+00 -0.10106082585E+04  0.10106082585E+04  0.00000000000E+00 0. -1.
         25    1    1    2    0    0 -0.72501496502E+03 -0.13708050049E+03 -0.16442228721E+03  0.76622284725E+03  0.12500000000E+03 0.  0.
         25    1    1    2    0    0 -0.25988221554E+02  0.26022981119E+03 -0.11095251239E+03  0.31037139413E+03  0.12500000000E+03 0.  0.
         25    1    1    2    0    0  0.75100318658E+03 -0.12314931069E+03  0.10975338721E+03  0.77900086327E+03  0.12500000000E+03 0.  0.
</event>
<event>
 5    0  0.5605075E-005  0.2989197E+03  0.7546771E-02  0.1085782E+00
         21   -1    0    0  502  501  0.00000000000E+00  0.00000000000E+00  0.90615851275E+02  0.90615851275E+02  0.00000000000E+00 0.  1.
         21   -1    0    0  501  502 -0.00000000000E+00 -0.00000000000E+00 -0.98606345518E+03  0.98606345518E+03  0.00000000000E+00 0.  1.
         25    1    1    2    0    0 -0.12287411858E+03 -0.54531155327E+02 -0.17679299984E+03  0.25485772641E+03  0.12500000000E+03 0.  0.
         25    1    1    2    0    0  0.12827989178E+02 -0.78050292671E+02 -0.13389736852E+03  0.19952421103E+03  0.12500000000E+03 0.  0.
         25    1    1    2    0    0  0.11004612941E+03  0.13258144800E+03 -0.58475723555E+03  0.62229736901E+03  0.12500000000E+03 0.  0.
</event>
<event>
 5    0  0.5605075E-005  0.2307857E+03  0.7546771E-02  0.1126088E+00
         21   -1    0    0  502  501  0.00000000000E+00  0.00000000000E+00  0.77572688561E+03  0.77572688561E+03  0.00000000000E+00 0.  1.
         21   -1    0    0  501  502 -0.00000000000E+00 -0.00000000000E+00 -0.68660840047E+02  0.68660840047E+02  0.00000000000E+00 0.  1.
         25    1    1    2    0    0  0.24712794768E+02  0.48830398910E+02  0.10260259938E+03  0.17072616520E+03  0.12500000000E+03 0.  0.
         25    1    1    2    0    0  0.21251913477E+02 -0.88785497910E+02  0.36991999787E+03  0.40099914375E+03  0.12500000000E+03 0.  0.
         25    1    1    2    0    0 -0.45964708245E+02  0.39955099000E+02  0.23454344831E+03  0.27266241671E+03  0.12500000000E+03 0.  0.
</event>
<event>
 5    0  0.5605075E-005  0.2568393E+03  0.7546771E-02  0.1109057E+00
         21   -1    0    0  502  501  0.00000000000E+00  0.00000000000E+00  0.81935747358E+02  0.81935747358E+02  0.00000000000E+00 0. -1.
         21   -1    0    0  501  502 -0.00000000000E+00 -0.00000000000E+00 -0.80509967100E+03  0.80509967100E+03  0.00000000000E+00 0. -1.
         25    1    1    2    0    0  0.41548069064E+02  0.51689498282E+02 -0.18965491094E+03  0.23662635424E+03  0.12500000000E+03 0.  0.
         25    1    1    2    0    0 -0.70033558621E+02  0.40696493601E+02 -0.77727145741E+02  0.16801015776E+03  0.12500000000E+03 0.  0.
         25    1    1    2    0    0  0.28485489557E+02 -0.92385991883E+02 -0.45578186695E+03  0.48239890636E+03  0.12500000000E+03 0.  0.
</event>
<event>
 5    0  0.5605075E-005  0.4072467E+03  0.7546771E-02  0.1041299E+00
         21   -1    0    0  502  501  0.00000000000E+00  0.00000000000E+00  0.38264887103E+03  0.38264887103E+03  0.00000000000E+00 0.  1.
         21   -1    0    0  501  502 -0.00000000000E+00 -0.00000000000E+00 -0.43342574823E+03  0.43342574823E+03  0.00000000000E+00 0.  1.
         25    1    1    2    0    0  0.10374411889E+03  0.29147655515E+03  0.15472583590E+02  0.33404464559E+03  0.12500000000E+03 0.  0.
         25    1    1    2    0    0  0.68454170459E+02 -0.14799962042E+03  0.30594455642E+02  0.20772790331E+03  0.12500000000E+03 0.  0.
         25    1    1    2    0    0 -0.17219828935E+03 -0.14347693473E+03 -0.96843916436E+02  0.27430207036E+03  0.12500000000E+03 0.  0.
</event>
<event>
 5    0  0.5605075E-005  0.3651635E+03  0.7546771E-02  0.1056558E+00
         21   -1    0    0  502  501  0.00000000000E+00  0.00000000000E+00  0.20321552561E+03  0.20321552561E+03  0.00000000000E+00 0. -1.
         21   -1    0    0  501  502 -0.00000000000E+00 -0.00000000000E+00 -0.65617237447E+03  0.65617237447E+03  0.00000000000E+00 0. -1.
         25    1    1    2    0    0 -0.43958423494E+02  0.59765708640E+02 -0.69933832332E+02  0.16130723428E+03  0.12500000000E+03 0.  0.
         25    1    1    2    0    0  0.19856987897E+03  0.15616885008E+03 -0.12932198053E+03  0.31010946651E+03  0.12500000000E+03 0.  0.
         25    1    1    2    0    0 -0.15461145548E+03 -0.21593455872E+03 -0.25370103599E+03  0.38797119929E+03  0.12500000000E+03 0.  0.
</event>
<event>
 5    0  0.5605075E-005  0.3349674E+03  0.7546771E-02  0.1068960E+00
         21   -1    0    0  502  501  0.00000000000E+00  0.00000000000E+00  0.88974130055E+03  0.88974130055E+03  0.00000000000E+00 0.  1.
         21   -1    0    0  501  502 -0.00000000000E+00 -0.00000000000E+00 -0.12610760539E+03  0.12610760539E+03  0.00000000000E+00 0. -1.
         25    1    1    2    0    0  0.13810873388E+03 -0.11398541753E+03  0.23607518364E+03  0.32159476070E+03  0.12500000000E+03 0.  0.
         25    1    1    2    0    0 -0.17892311891E+03  0.77120950325E+01  0.11162520450E+03  0.24527157432E+03  0.12500000000E+03 0.  0.
         25    1    1    2    0    0  0.40814385028E+02  0.10627332249E+03  0.41593330702E+03  0.44898257092E+03  0.12500000000E+03 0.  0.
</event>
<event>
 5    0  0.5605075E-005  0.2135059E+03  0.7546771E-02  0.1138819E+00
         21   -1    0    0  502  501  0.00000000000E+00  0.00000000000E+00  0.42011443651E+03  0.42011443651E+03  0.00000000000E+00 0.  1.
         21   -1    0    0  501  502 -0.00000000000E+00 -0.00000000000E+00 -0.10850563608E+03  0.10850563608E+03  0.00000000000E+00 0.  1.
         25    1    1    2    0    0 -0.41767981258E+02 -0.36147353970E+02  0.13649933612E+03  0.19315347323E+03  0.12500000000E+03 0.  0.
         25    1    1    2    0    0  0.56452245071E+02 -0.40119592822E+01  0.14566156056E+03  0.20011307308E+03  0.12500000000E+03 0.  0.
         25    1    1    2    0    0 -0.14684263813E+02  0.40159313252E+02  0.29447903745E+02  0.13535352629E+03  0.12500000000E+03 0.  0.
</event>
<event>
 5    0  0.5605075E-005  0.2377043E+03  0.7546771E-02  0.1121332E+00
         21   -1    0    0  502  501  0.00000000000E+00  0.00000000000E+00  0.11546377645E+04  0.11546377645E+04  0.00000000000E+00 0.  1.
         21   -1    0    0  501  502 -0.00000000000E+00 -0.00000000000E+00 -0.48935992255E+02  0.48935992255E+02  0.00000000000E+00 0.  1.
         25    1    1    2    0    0  0.63141061307E+02  0.72108612788E+02  0.21723955943E+03  0.26833648996E+03  0.12500000000E+03 0.  0.
         25    1    1    2    0    0 -0.50972215734E+02 -0.83558947154E+02  0.59517165798E+03  0.61598260274E+03  0.12500000000E+03 0.  0.
         25    1    1    2    0    0 -0.12168845573E+02  0.11450334367E+02  0.29329055479E+03  0.31925466401E+03  0.12500000000E+03 0.  0.
</event>
<event>
 5    0  0.5605075E-005  0.2665694E+03  0.7546771E-02  0.1103259E+00
         21   -1    0    0  502  501  0.00000000000E+00  0.00000000000E+00  0.75834289791E+03  0.75834289791E+03  0.00000000000E+00 0. -1.
         21   -1    0    0  501  502 -0.00000000000E+00 -0.00000000000E+00 -0.93703312652E+02  0.93703312652E+02  0.00000000000E+00 0. -1.
         25    1    1    2    0    0  0.57522368994E+02  0.57393577007E+01  0.33820488483E+03  0.36517024425E+03  0.12500000000E+03 0.  0.
         25    1    1    2    0    0 -0.67853585960E+02 -0.10618075702E+03  0.25580587798E+03  0.31135206680E+03  0.12500000000E+03 0.  0.
         25    1    1    2    0    0  0.10331216966E+02  0.10044139931E+03  0.70628822438E+02  0.17552389951E+03  0.12500000000E+03 0.  0.
</event>
<event>
 5    0  0.5605075E-005  0.2383931E+03  0.7546771E-02  0.1120868E+00
         21   -1    0    0  502  501  0.00000000000E+00  0.00000000000E+00  0.64777388984E+03  0.64777388984E+03  0.00000000000E+00 0. -1.
         21   -1    0    0  501  502 -0.00000000000E+00 -0.00000000000E+00 -0.87733165398E+02  0.87733165398E+02  0.00000000000E+00 0. -1.
         25    1    1    2    0    0  0.39790117069E+02 -0.58507136912E+01  0.18733992982E+02  0.13264029086E+03  0.12500000000E+03 0.  0.
         25    1    1    2    0    0 -0.40415350204E+02  0.29007382905E+02  0.32845862819E+03  0.35494351555E+03  0.12500000000E+03 0.  0.
         25    1    1    2    0    0  0.62523313490E+00 -0.23156669213E+02  0.21284810327E+03  0.24792324883E+03  0.12500000000E+03 0.  0.
</event>
<event>
 5    0  0.5605075E-005  0.2971336E+03  0.7546771E-02  0.1086682E+00
         21   -1    0    0  502  501  0.00000000000E+00  0.00000000000E+00  0.59764743904E+03  0.59764743904E+03  0.00000000000E+00 0.  1.
         21   -1    0    0  501  502 -0.00000000000E+00 -0.00000000000E+00 -0.14772649638E+03  0.14772649638E+03  0.00000000000E+00 0.  1.
         25    1    1    2    0    0 -0.22260662568E+02  0.19802769823E+02  0.39627748636E+03  0.41659156615E+03  0.12500000000E+03 0.  0.
         25    1    1    2    0    0  0.80153487357E+02 -0.85077169714E+02  0.39899176313E+02  0.17572606697E+03  0.12500000000E+03 0.  0.
         25    1    1    2    0    0 -0.57892824789E+02  0.65274399891E+02  0.13744279992E+02  0.15305630231E+03  0.12500000000E+03 0.  0.
</event>
<event>
 5    0  0.5605075E-005  0.2860506E+03  0.7546771E-02  0.1092429E+00
         21   -1    0    0  502  501  0.00000000000E+00  0.00000000000E+00  0.52398814544E+03  0.52398814544E+03  0.00000000000E+00 0. -1.
         21   -1    0    0  501  502 -0.00000000000E+00 -0.00000000000E+00 -0.15615802722E+03  0.15615802722E+03  0.00000000000E+00 0. -1.
         25    1    1    2    0    0 -0.16142153896E+02 -0.12615514881E+03  0.32996552944E+03  0.37507058178E+03  0.12500000000E+03 0.  0.
         25    1    1    2    0    0  0.49178668096E+02  0.94865248460E+02 -0.72556814780E+01  0.16460741683E+03  0.12500000000E+03 0.  0.
         25    1    1    2    0    0 -0.33036514199E+02  0.31289900349E+02  0.45120270262E+02  0.14046817406E+03  0.12500000000E+03 0.  0.
</event>
<event>
 5    0  0.5605075E-005  0.5556264E+03  0.7546771E-02  0.1000200E+00
         21   -1    0    0  502  501  0.00000000000E+00  0.00000000000E+00  0.85343258373E+03  0.85343258373E+03  0.00000000000E+00 0.  1.
         21   -1    0    0  501  502 -0.00000000000E+00 -0.00000000000E+00 -0.36173995845E+03  0.36173995845E+03  0.00000000000E+00 0.  1.
         25    1    1    2    0    0  0.30498968620E+03 -0.21118965977E+03 -0.97152470240E+02  0.40334028259E+03  0.12500000000E+03 0.  0.
         25    1    1    2    0    0 -0.25206321328E+03 -0.29045591194E+02  0.30508986023E+03  0.41603405230E+03  0.12500000000E+03 0.  0.
         25    1    1    2    0    0 -0.52926472928E+02  0.24023525096E+03  0.28375523529E+03  0.39579820730E+03  0.12500000000E+03 0.  0.
</event>
<event>
 5    0  0.5605075E-005  0.3468731E+03  0.7546771E-02  0.1063906E+00
         21   -1    0    0  502  501  0.00000000000E+00  0.00000000000E+00  0.59441456933E+03  0.59441456933E+03  0.00000000000E+00 0. -1.
         21   -1    0    0  501  502 -0.00000000000E+00 -0.00000000000E+00 -0.20241928442E+03  0.20241928442E+03  0.00000000000E+00 0. -1.
         25    1    1    2    0    0  0.47864544483E+02 -0.10977798677E+03  0.29037945170E+03  0.33806426455E+03  0.12500000000E+03 0.  0.
         25    1    1    2    0    0 -0.72518589197E+02  0.14846225608E+03 -0.89627445629E+02  0.22573893388E+03  0.12500000000E+03 0.  0.
         25    1    1    2    0    0  0.24654044714E+02 -0.38684269318E+02  0.19124327883E+03  0.23303065531E+03  0.12500000000E+03 0.  0.
</event>
<event>
 5    0  0.5605075E-005  0.3573622E+03  0.7546771E-02  0.1059633E+00
         21   -1    0    0  502  501  0.00000000000E+00  0.00000000000E+00  0.12185002462E+04  0.12185002462E+04  0.00000000000E+00 0.  1.
         21   -1    0    0  501  502 -0.00000000000E+00 -0.00000000000E+00 -0.10480732565E+03  0.10480732565E+03  0.00000000000E+00 0.  1.
         25    1    1    2    0    0  0.90149425692E+02  0.18086536804E+03  0.40820719526E+03  0.47233178442E+03  0.12500000000E+03 0.  0.
         25    1    1    2    0    0 -0.22348191506E+03 -0.11824962374E+03  0.43994069513E+03  0.52258966226E+03  0.12500000000E+03 0.  0.
         25    1    1    2    0    0  0.13333248937E+03 -0.62615744305E+02  0.26554503012E+03  0.32838612513E+03  0.12500000000E+03 0.  0.
</event>
<event>
 5    0  0.5605075E-005  0.2246510E+03  0.7546771E-02  0.1130462E+00
         21   -1    0    0  502  501  0.00000000000E+00  0.00000000000E+00  0.89623098194E+02  0.89623098194E+02  0.00000000000E+00 0.  1.
         21   -1    0    0  501  502 -0.00000000000E+00 -0.00000000000E+00 -0.56311436823E+03  0.56311436823E+03  0.00000000000E+00 0.  1.
         25    1    1    2    0    0  0.10389437032E+01 -0.12912600362E+02 -0.39023528939E+02  0.13158894506E+03  0.12500000000E+03 0.  0.
         25    1    1    2    0    0 -0.20123094602E+02  0.19397404349E+02 -0.96882268085E+02  0.16060003767E+03  0.12500000000E+03 0.  0.
         25    1    1    2    0    0  0.19084150899E+02 -0.64848039865E+01 -0.33758547301E+03  0.36054848369E+03  0.12500000000E+03 0.  0.
</event>
<event>
 5    0  0.5605075E-005  0.3349549E+03  0.7546771E-02  0.1068965E+00
         21   -1    0    0  502  501  0.00000000000E+00  0.00000000000E+00  0.33607757720E+04  0.33607757720E+04  0.00000000000E+00 0.  1.
         21   -1    0    0  501  502 -0.00000000000E+00 -0.00000000000E+00 -0.33383588492E+02  0.33383588492E+02  0.00000000000E+00 0.  1.
         25    1    1    2    0    0 -0.24268879082E+02 -0.18870328778E+03  0.58030693534E+03  0.62336108999E+03  0.12500000000E+03 0.  0.
         25    1    1    2    0    0  0.91454573657E+02  0.54680771657E+02  0.11020989581E+04  0.11142715286E+04  0.12500000000E+03 0.  0.
         25    1    1    2    0    0 -0.67185694575E+02  0.13402251612E+03  0.16449862900E+04  0.16565267419E+04  0.12500000000E+03 0.  0.
</event>
<event>
 5    0  0.5605075E-005  0.3635922E+03  0.7546771E-02  0.1057170E+00
         21   -1    0    0  502  501  0.00000000000E+00  0.00000000000E+00  0.31981394962E+03  0.31981394962E+03  0.00000000000E+00 0.  1.
         21   -1    0    0  501  502 -0.00000000000E+00 -0.00000000000E+00 -0.41336320505E+03  0.41336320505E+03  0.00000000000E+00 0.  1.
         25    1    1    2    0    0  0.20562655587E+02  0.20001691809E+03  0.10548215084E+03  0.25919312196E+03  0.12500000000E+03 0.  0.
         25    1    1    2    0    0  0.74992646581E+02  0.29268590082E+02 -0.41401821175E+02  0.15433618566E+03  0.12500000000E+03 0.  0.
         25    1    1    2    0    0 -0.95555302169E+02 -0.22928550817E+03 -0.15762958509E+03  0.31964784706E+03  0.12500000000E+03 0.  0.
</event>
<event>
 5    0  0.5605075E-005  0.2675667E+03  0.7546771E-02  0.1102680E+00
         21   -1    0    0  502  501  0.00000000000E+00  0.00000000000E+00  0.74208312143E+03  0.74208312143E+03  0.00000000000E+00 0.  1.
         21   -1    0    0  501  502 -0.00000000000E+00 -0.00000000000E+00 -0.96474279976E+02  0.96474279976E+02  0.00000000000E+00 0.  1.
         25    1    1    2    0    0  0.80924976085E+02 -0.39392752868E+02  0.49020048262E+02  0.16164345290E+03  0.12500000000E+03 0.  0.
         25    1    1    2    0    0  0.22526181347E+02 -0.46222035427E+02  0.22430134008E+03  0.26187782756E+03  0.12500000000E+03 0.  0.
         25    1    1    2    0    0 -0.10345115743E+03  0.85614788295E+02  0.37228745311E+03  0.41503612095E+03  0.12500000000E+03 0.  0.
</event>
<event>
 5    0  0.5605075E-005  0.3785236E+03  0.7546771E-02  0.1051481E+00
         21   -1    0    0  502  501  0.00000000000E+00  0.00000000000E+00  0.14184873562E+04  0.14184873562E+04  0.00000000000E+00 0.  1.
         21   -1    0    0  501  502 -0.00000000000E+00 -0.00000000000E+00 -0.10100907138E+03  0.10100907138E+03  0.00000000000E+00 0.  1.
         25    1    1    2    0    0 -0.24925779737E+03  0.54703090924E+02  0.51179831705E+03  0.58539251365E+03  0.12500000000E+03 0.  0.
         25    1    1    2    0    0  0.23142402186E+02  0.45272085209E+02  0.78909766596E+02  0.15632301092E+03  0.12500000000E+03 0.  0.
         25    1    1    2    0    0  0.22611539518E+03 -0.99975176133E+02  0.72677020122E+03  0.77778090306E+03  0.12500000000E+03 0.  0.
</event>
<event>
 5    0  0.5605075E-005  0.2466462E+03  0.7546771E-02  0.1115443E+00
         21   -1    0    0  502  501  0.00000000000E+00  0.00000000000E+00  0.19866457248E+04  0.19866457248E+04  0.00000000000E+00 0.  1.
         21   -1    0    0  501  502 -0.00000000000E+00 -0.00000000000E+00 -0.30621632770E+02  0.30621632770E+02  0.00000000000E+00 0.  1.
         25    1    1    2    0    0 -0.67679783004E+01 -0.74263283450E+02  0.10858893387E+04  0.10956009751E+04  0.12500000000E+03 0.  0.
         25    1    1    2    0    0 -0.62776788605E+02 -0.40217133781E+01  0.36739476259E+03  0.39314248174E+03  0.12500000000E+03 0.  0.
         25    1    1    2    0    0  0.69544766906E+02  0.78284996828E+02  0.50273999081E+03  0.52852390078E+03  0.12500000000E+03 0.  0.
</event>
<event>
 5    0  0.5605075E-005  0.2940658E+03  0.7546771E-02  0.1088245E+00
         21   -1    0    0  502  501  0.00000000000E+00  0.00000000000E+00  0.10549653137E+04  0.10549653137E+04  0.00000000000E+00 0. -1.
         21   -1    0    0  501  502 -0.00000000000E+00 -0.00000000000E+00 -0.81969256060E+02  0.81969256060E+02  0.00000000000E+00 0. -1.
         25    1    1    2    0    0  0.57160208633E+02  0.32661588189E+02  0.37001713304E+03  0.39607038205E+03  0.12500000000E+03 0.  0.
         25    1    1    2    0    0 -0.18876710614E+03  0.39477874686E+02  0.26746546205E+03  0.35263904540E+03  0.12500000000E+03 0.  0.
         25    1    1    2    0    0  0.13160689750E+03 -0.72139462875E+02  0.33551346257E+03  0.38822514234E+03  0.12500000000E+03 0.  0.
</event>
<event>
 5    0  0.5605075E-005  0.2218962E+03  0.7546771E-02  0.1132477E+00
         21   -1    0    0  502  501  0.00000000000E+00  0.00000000000E+00  0.49228946191E+02  0.49228946191E+02  0.00000000000E+00 0. -1.
         21   -1    0    0  501  502 -0.00000000000E+00 -0.00000000000E+00 -0.10001826529E+04  0.10001826529E+04  0.00000000000E+00 0. -1.
         25    1    1    2    0    0  0.10334975358E+03 -0.16768425432E+02 -0.34875920322E+03  0.38499393955E+03  0.12500000000E+03 0.  0.
         25    1    1    2    0    0 -0.73811134751E+02 -0.21375723842E+02 -0.31102736371E+03  0.34390118662E+03  0.12500000000E+03 0.  0.
         25    1    1    2    0    0 -0.29538618832E+02  0.38144149274E+02 -0.29116713974E+03  0.32051647289E+03  0.12500000000E+03 0.  0.
</event>
<event>
 5    0  0.5605075E-005  0.3582321E+03  0.7546771E-02  0.1059286E+00
         21   -1    0    0  502  501  0.00000000000E+00  0.00000000000E+00  0.23765812974E+03  0.23765812974E+03  0.00000000000E+00 0.  1.
         21   -1    0    0  501  502 -0.00000000000E+00 -0.00000000000E+00 -0.53997833050E+03  0.53997833050E+03  0.00000000000E+00 0.  1.
         25    1    1    2    0    0 -0.68355475490E+02  0.91750814900E+02 -0.56084643511E+02  0.17849697561E+03  0.12500000000E+03 0.  0.
         25    1    1    2    0    0 -0.10611265225E+03 -0.77032276531E+01 -0.31788559132E+03  0.35776456484E+03  0.12500000000E+03 0.  0.
         25    1    1    2    0    0  0.17446812774E+03 -0.84047587247E+02  0.71650034081E+02  0.24137491979E+03  0.12500000000E+03 0.  0.
</event>
<event>
 5    0  0.5605075E-005  0.2992113E+03  0.7546771E-02  0.1085636E+00
         21   -1    0    0  502  501  0.00000000000E+00  0.00000000000E+00  0.51897347770E+03  0.51897347770E+03  0.00000000000E+00 0. -1.
         21   -1    0    0  501  502 -0.00000000000E+00 -0.00000000000E+00 -0.17250860974E+03  0.17250860974E+03  0.00000000000E+00 0. -1.
         25    1    1    2    0    0 -0.41776902345E+02  0.10643899698E+03  0.15045986949E+03  0.22657833519E+03  0.12500000000E+03 0.  0.
         25    1    1    2    0    0  0.15922524599E+03 -0.61391455502E+02  0.19479657882E+03  0.28756268341E+03  0.12500000000E+03 0.  0.
         25    1    1    2    0    0 -0.11744834365E+03 -0.45047541482E+02  0.12084196428E+01  0.17734106884E+03  0.12500000000E+03 0.  0.
</event>
<event>
 5    0  0.5605075E-005  0.2616771E+03  0.7546771E-02  0.1106140E+00
         21   -1    0    0  502  501  0.00000000000E+00  0.00000000000E+00  0.31324463770E+03  0.31324463770E+03  0.00000000000E+00 0.  1.
         21   -1    0    0  501  502 -0.00000000000E+00 -0.00000000000E+00 -0.21859883946E+03  0.21859883946E+03  0.00000000000E+00 0.  1.
         25    1    1    2    0    0  0.26787957204E+02 -0.10754992306E+03  0.69092298936E+02  0.18078530464E+03  0.12500000000E+03 0.  0.
         25    1    1    2    0    0 -0.38869007860E+02  0.16359975679E+03  0.38112637792E+02  0.21296303284E+03  0.12500000000E+03 0.  0.
         25    1    1    2    0    0  0.12081050656E+02 -0.56049833735E+02 -0.12559138489E+02  0.13809513969E+03  0.12500000000E+03 0.  0.
</event>
<event>
 5    0  0.5605075E-005  0.3466890E+03  0.7546771E-02  0.1063982E+00
         21   -1    0    0  502  501  0.00000000000E+00  0.00000000000E+00  0.42889090598E+03  0.42889090598E+03  0.00000000000E+00 0. -1.
         21   -1    0    0  501  502 -0.00000000000E+00 -0.00000000000E+00 -0.28024207046E+03  0.28024207046E+03  0.00000000000E+00 0. -1.
         25    1    1    2    0    0  0.20046671383E+03 -0.95521249360E+02  0.12288358856E+03  0.28290738550E+03  0.12500000000E+03 0.  0.
         25    1    1    2    0    0  0.45305474085E+02  0.46901509553E+02 -0.20408813337E+02  0.14245651000E+03  0.12500000000E+03 0.  0.
         25    1    1    2    0    0 -0.24577218791E+03  0.48619739807E+02  0.46174060301E+02  0.28376908094E+03  0.12500000000E+03 0.  0.
</event>
<event>
 5    0  0.5605075E-005  0.3125634E+03  0.7546771E-02  0.1079124E+00
         21   -1    0    0  502  501  0.00000000000E+00  0.00000000000E+00  0.10200719551E+03  0.10200719551E+03  0.00000000000E+00 0. -1.
         21   -1    0    0  501  502 -0.00000000000E+00 -0.00000000000E+00 -0.95773529909E+03  0.95773529909E+03  0.00000000000E+00 0. -1.
         25    1    1    2    0    0 -0.30956331668E+02  0.27905950077E+02 -0.32727325169E+03  0.35280280298E+03  0.12500000000E+03 0.  0.
         25    1    1    2    0    0  0.16821582980E+03  0.23162943444E+02 -0.92286027129E+02  0.23016254723E+03  0.12500000000E+03 0.  0.
         25    1    1    2    0    0 -0.13725949813E+03 -0.51068893521E+02 -0.43616882477E+03  0.47677714439E+03  0.12500000000E+03 0.  0.
</event>
<event>
 5    0  0.5949204E-005  0.3302185E+03  0.7546771E-02  0.1071040E+00
         21   -1    0    0  502  501  0.00000000000E+00  0.00000000000E+00  0.69814606093E+03  0.69814606093E+03  0.00000000000E+00 0.  1.
         21   -1    0    0  501  502 -0.00000000000E+00 -0.00000000000E+00 -0.15619117713E+03  0.15619117713E+03  0.00000000000E+00 0.  1.
         25    1    1    2    0    0 -0.81291235968E+02 -0.35519090846E+02  0.29694921733E+03  0.33417616392E+03  0.12500000000E+03 0.  0.
         25    1    1    2    0    0  0.91253431632E+01  0.14776646471E+03 -0.23637508744E+02  0.19519716135E+03  0.12500000000E+03 0.  0.
         25    1    1    2    0    0  0.72165892805E+02 -0.11224737386E+03  0.26864317521E+03  0.32496391278E+03  0.12500000000E+03 0.  0.
</event>
<event>
 5    0  0.5605075E-005  0.3882454E+03  0.7546771E-02  0.1047928E+00
         21   -1    0    0  502  501  0.00000000000E+00  0.00000000000E+00  0.40473402571E+03  0.40473402571E+03  0.00000000000E+00 0.  1.
         21   -1    0    0  501  502 -0.00000000000E+00 -0.00000000000E+00 -0.37242850787E+03  0.37242850787E+03  0.00000000000E+00 0.  1.
         25    1    1    2    0    0  0.74055819488E+01 -0.15307335238E+03  0.48561608109E+02  0.20364067284E+03  0.12500000000E+03 0.  0.
         25    1    1    2    0    0  0.17082349832E+03  0.24149457063E+03 -0.78225521013E+02  0.33052159893E+03  0.12500000000E+03 0.  0.
         25    1    1    2    0    0 -0.17822908027E+03 -0.88421218258E+02  0.61969430747E+02  0.24300026181E+03  0.12500000000E+03 0.  0.
</event>
<event>
 5    0  0.5605075E-005  0.2357571E+03  0.7546771E-02  0.1122652E+00
         21   -1    0    0  502  501  0.00000000000E+00  0.00000000000E+00  0.62444295101E+03  0.62444295101E+03  0.00000000000E+00 0. -1.
         21   -1    0    0  501  502 -0.00000000000E+00 -0.00000000000E+00 -0.89009597217E+02  0.89009597217E+02  0.00000000000E+00 0. -1.
         25    1    1    2    0    0 -0.11505471952E+03 -0.85578576348E+01  0.20822987854E+03  0.26887823959E+03  0.12500000000E+03 0.  0.
         25    1    1    2    0    0 -0.62085880175E+01  0.15055139429E+02  0.12314416800E+03  0.17622340906E+03  0.12500000000E+03 0.  0.
         25    1    1    2    0    0  0.12126330753E+03 -0.64972817940E+01  0.20405930725E+03  0.26835089957E+03  0.12500000000E+03 0.  0.
</event>
<event>
 5    0  0.5605075E-005  0.3145489E+03  0.7546771E-02  0.1078186E+00
         21   -1    0    0  502  501  0.00000000000E+00  0.00000000000E+00  0.53204365901E+03  0.53204365901E+03  0.00000000000E+00 0. -1.
         21   -1    0    0  501  502 -0.00000000000E+00 -0.00000000000E+00 -0.18596403599E+03  0.18596403599E+03  0.00000000000E+00 0. -1.
         25    1    1    2    0    0  0.89627572923E+02 -0.13311451932E+03  0.23274657022E+03  0.30910927361E+03  0.12500000000E+03 0.  0.
         25    1    1    2    0    0  0.81713852080E+02  0.91788037440E+02  0.68595339469E+02  0.18823527309E+03  0.12500000000E+03 0.  0.
         25    1    1    2    0    0 -0.17134142500E+03  0.41326481880E+02  0.44737713328E+02  0.22066314831E+03  0.12500000000E+03 0.  0.
</event>
<event>
 5    0  0.5605075E-005  0.4565849E+03  0.7546771E-02  0.1025776E+00
         21   -1    0    0  502  501  0.00000000000E+00  0.00000000000E+00  0.10312239232E+04  0.10312239232E+04  0.00000000000E+00 0. -1.
         21   -1    0    0  501  502 -0.00000000000E+00 -0.00000000000E+00 -0.20215765207E+03  0.20215765207E+03  0.00000000000E+00 0. -1.
         25    1    1    2    0    0 -0.16196454072E+03 -0.14770781836E+03 -0.25384132723E+02  0.25361282745E+03  0.12500000000E+03 0.  0.
         25    1    1    2    0    0  0.67149540665E+02 -0.53903030644E+02  0.96357988967E+02  0.17979004300E+03  0.12500000000E+03 0.  0.
         25    1    1    2    0    0  0.94815000051E+02  0.20161084900E+03  0.75809241490E+03  0.79997870484E+03  0.12500000000E+03 0.  0.
</event>
<event>
 5    0  0.5605075E-005  0.3351556E+03  0.7546771E-02  0.1068878E+00
         21   -1    0    0  502  501  0.00000000000E+00  0.00000000000E+00  0.83497972986E+02  0.83497972986E+02  0.00000000000E+00 0. -1.
         21   -1    0    0  501  502 -0.00000000000E+00 -0.00000000000E+00 -0.13452937948E+04  0.13452937948E+04  0.00000000000E+00 0. -1.
         25    1    1    2    0    0  0.51341341736E+02  0.18617630385E+03 -0.33351841923E+03  0.40516303564E+03  0.12500000000E+03 0.  0.
         25    1    1    2    0    0  0.78858620973E+02 -0.16172885863E+03 -0.31372169954E+03  0.38265024576E+03  0.12500000000E+03 0.  0.
         25    1    1    2    0    0 -0.13019996271E+03 -0.24447445216E+02 -0.61455570299E+03  0.64097848634E+03  0.12500000000E+03 0.  0.
</event>
<event>
 5    0  0.5605075E-005  0.4132532E+03  0.7546771E-02  0.1039285E+00
         21   -1    0    0  502  501  0.00000000000E+00  0.00000000000E+00  0.34998528029E+03  0.34998528029E+03  0.00000000000E+00 0. -1.
         21   -1    0    0  501  502 -0.00000000000E+00 -0.00000000000E+00 -0.48795818737E+03  0.48795818737E+03  0.00000000000E+00 0. -1.
         25    1    1    2    0    0 -0.38337826125E+02 -0.93497380517E+02  0.30255089641E+02  0.16356014039E+03  0.12500000000E+03 0.  0.
         25    1    1    2    0    0 -0.11916374010E+03 -0.32010468516E+02 -0.33930003896E+03  0.38206567955E+03  0.12500000000E+03 0.  0.
         25    1    1    2    0    0  0.15750156623E+03  0.12550784903E+03  0.17107204225E+03  0.29231764772E+03  0.12500000000E+03 0.  0.
</event>
<event>
 5    0  0.5605075E-005  0.2991221E+03  0.7546771E-02  0.1085680E+00
         21   -1    0    0  502  501  0.00000000000E+00  0.00000000000E+00  0.79120575731E+02  0.79120575731E+02  0.00000000000E+00 0. -1.
         21   -1    0    0  501  502 -0.00000000000E+00 -0.00000000000E+00 -0.11308570322E+04  0.11308570322E+04  0.00000000000E+00 0. -1.
         25    1    1    2    0    0 -0.11975782663E+03  0.49890623297E+02 -0.80661408282E+03  0.82648792486E+03  0.12500000000E+03 0.  0.
         25    1    1    2    0    0  0.36881864272E+02 -0.61018271317E+02 -0.10736998346E+03  0.17954613528E+03  0.12500000000E+03 0.  0.
         25    1    1    2    0    0  0.82875962354E+02  0.11127648020E+02 -0.13775239022E+03  0.20394354782E+03  0.12500000000E+03 0.  0.
</event>
<event>
 5    0  0.6310165E-005  0.2863765E+03  0.7546771E-02  0.1092256E+00
         21   -1    0    0  502  501  0.00000000000E+00  0.00000000000E+00  0.12162221342E+03  0.12162221342E+03  0.00000000000E+00 0.  1.
         21   -1    0    0  501  502 -0.00000000000E+00 -0.00000000000E+00 -0.67431337883E+03  0.67431337883E+03  0.00000000000E+00 0.  1.
         25    1    1    2    0    0 -0.89946578757E+02  0.10409327180E+02 -0.61332637221E+02  0.16608863149E+03  0.12500000000E+03 0.  0.
         25    1    1    2    0    0 -0.10019498968E+03 -0.34694930646E+02 -0.23046793586E+03  0.28281308957E+03  0.12500000000E+03 0.  0.
         25    1    1    2    0    0  0.19014156844E+03  0.24285603466E+02 -0.26089059232E+03  0.34703387118E+03  0.12500000000E+03 0.  0.
</event>
<event>
 5    0  0.5605075E-005  0.2951719E+03  0.7546771E-02  0.1087679E+00
         21   -1    0    0  502  501  0.00000000000E+00  0.00000000000E+00  0.67110195620E+02  0.67110195620E+02  0.00000000000E+00 0.  1.
         21   -1    0    0  501  502 -0.00000000000E+00 -0.00000000000E+00 -0.12982592977E+04  0.12982592977E+04  0.00000000000E+00 0.  1.
         25    1    1    2    0    0 -0.41550636690E+02  0.59155224795E+02 -0.16064076932E+03  0.21600058518E+03  0.12500000000E+03 0.  0.
         25    1    1    2    0    0  0.14742923931E+02 -0.97950247405E+01 -0.80075861066E+02  0.14950063492E+03  0.12500000000E+03 0.  0.
         25    1    1    2    0    0  0.26807712760E+02 -0.49360200055E+02 -0.99043247168E+03  0.99986827321E+03  0.12500000000E+03 0.  0.
</event>
<event>
 5    0  0.5605075E-005  0.2728129E+03  0.7546771E-02  0.1099680E+00
         21   -1    0    0  502  501  0.00000000000E+00  0.00000000000E+00  0.29867970547E+03  0.29867970547E+03  0.00000000000E+00 0. -1.
         21   -1    0    0  501  502 -0.00000000000E+00 -0.00000000000E+00 -0.24918624461E+03  0.24918624461E+03  0.00000000000E+00 0. -1.
         25    1    1    2    0    0  0.21306811140E+02  0.53210615418E+02 -0.62069393100E+02  0.15087398501E+03  0.12500000000E+03 0.  0.
         25    1    1    2    0    0  0.10851043528E+03  0.46126989668E+02  0.24583217001E+02  0.17358441260E+03  0.12500000000E+03 0.  0.
         25    1    1    2    0    0 -0.12981724642E+03 -0.99337605086E+02  0.86979636963E+02  0.22340755246E+03  0.12500000000E+03 0.  0.
</event>
<event>
 5    0  0.5605075E-005  0.2102564E+03  0.7546771E-02  0.1141363E+00
         21   -1    0    0  502  501  0.00000000000E+00  0.00000000000E+00  0.20625800658E+03  0.20625800658E+03  0.00000000000E+00 0.  1.
         21   -1    0    0  501  502 -0.00000000000E+00 -0.00000000000E+00 -0.21433233824E+03  0.21433233824E+03  0.00000000000E+00 0.  1.
         25    1    1    2    0    0  0.36651703716E+02 -0.58969298835E+01  0.71355598175E+02  0.14864300373E+03  0.12500000000E+03 0.  0.
         25    1    1    2    0    0 -0.74789274815E+01  0.69178545846E+01 -0.69046392641E+02  0.14316492379E+03  0.12500000000E+03 0.  0.
         25    1    1    2    0    0 -0.29172776234E+02 -0.10209247011E+01 -0.10383537196E+02  0.12878241730E+03  0.12500000000E+03 0.  0.
</event>
<event>
 5    0  0.5605075E-005  0.2571767E+03  0.7546771E-02  0.1108852E+00
         21   -1    0    0  502  501  0.00000000000E+00  0.00000000000E+00  0.30622089324E+02  0.30622089324E+02  0.00000000000E+00 0.  1.
         21   -1    0    0  501  502 -0.00000000000E+00 -0.00000000000E+00 -0.21598734632E+04  0.21598734632E+04  0.00000000000E+00 0.  1.
         25    1    1    2    0    0 -0.11714272383E+03 -0.60126462094E+02 -0.71462089886E+03  0.73732329292E+03  0.12500000000E+03 0.  0.
         25    1    1    2    0    0 -0.31339094426E+02  0.23840148015E+02 -0.67715279533E+03  0.68971834811E+03  0.12500000000E+03 0.  0.
         25    1    1    2    0    0  0.14848181826E+03  0.36286314080E+02 -0.73747767966E+03  0.76345391147E+03  0.12500000000E+03 0.  0.
</event>
<event>
 5    0  0.5605075E-005  0.2656369E+03  0.7546771E-02  0.1103803E+00
         21   -1    0    0  502  501  0.00000000000E+00  0.00000000000E+00  0.98253198301E+03  0.98253198301E+03  0.00000000000E+00 0. -1.
         21   -1    0    0  501  502 -0.00000000000E+00 -0.00000000000E+00 -0.71817474220E+02  0.71817474220E+02  0.00000000000E+00 0. -1.
         25    1    1    2    0    0  0.68365926390E+02 -0.59742236217E+01  0.20063855933E+03  0.24615121923E+03  0.12500000000E+03 0.  0.
         25    1    1    2    0    0 -0.73612932749E+02 -0.70181499784E+02  0.12190365984E+03  0.20206387372E+03  0.12500000000E+03 0.  0.
         25    1    1    2    0    0  0.52470063586E+01  0.76155723405E+02  0.58817228962E+03  0.60613436428E+03  0.12500000000E+03 0.  0.
</event>
<event>
 5    0  0.5605075E-005  0.3905750E+03  0.7546771E-02  0.1047093E+00
         21   -1    0    0  502  501  0.00000000000E+00  0.00000000000E+00  0.97388481750E+03  0.97388481750E+03  0.00000000000E+00 0.  1.
         21   -1    0    0  501  502 -0.00000000000E+00 -0.00000000000E+00 -0.15663949309E+03  0.15663949309E+03  0.00000000000E+00 0.  1.
         25    1    1    2    0    0 -0.11507473680E+03  0.16253653706E+03  0.34078998251E+03  0.41403276816E+03  0.12500000000E+03 0.  0.
         25    1    1    2    0    0 -0.14053715496E+03 -0.16523924218E+03  0.21308622558E+03  0.32876349952E+03  0.12500000000E+03 0.  0.
         25    1    1    2    0    0  0.25561189176E+03  0.27027051218E+01  0.26336911633E+03  0.38772804291E+03  0.12500000000E+03 0.  0.
</event>
<event>
 5    0  0.5605075E-005  0.3721601E+03  0.7546771E-02  0.1053870E+00
         21   -1    0    0  502  501  0.00000000000E+00  0.00000000000E+00  0.10955112765E+03  0.10955112765E+03  0.00000000000E+00 0. -1.
         21   -1    0    0  501  502 -0.00000000000E+00 -0.00000000000E+00 -0.12642788360E+04  0.12642788360E+04  0.00000000000E+00 0. -1.
         25    1    1    2    0    0 -0.78562015058E+02 -0.30844957786E+02 -0.32150169447E+02  0.15421425040E+03  0.12500000000E+03 0.  0.
         25    1    1    2    0    0  0.22913621861E+03  0.47796399769E+01 -0.46768957859E+03  0.53561627454E+03  0.12500000000E+03 0.  0.
         25    1    1    2    0    0 -0.15057420356E+03  0.26065317809E+02 -0.65488796032E+03  0.68399943870E+03  0.12500000000E+03 0.  0.
</event>
<event>
 5    0  0.5625802E-005  0.2705379E+03  0.7546771E-02  0.1100972E+00
         21   -1    0    0  502  501  0.00000000000E+00  0.00000000000E+00  0.59993154799E+03  0.59993154799E+03  0.00000000000E+00 0. -1.
         21   -1    0    0  501  502 -0.00000000000E+00 -0.00000000000E+00 -0.12199853693E+03  0.12199853693E+03  0.00000000000E+00 0. -1.
         25    1    1    2    0    0  0.87797909325E+01  0.86324957462E+02 -0.18252756192E+02  0.15325549295E+03  0.12500000000E+03 0.  0.
         25    1    1    2    0    0  0.33171685897E+02 -0.60364373230E+02  0.23496246647E+03  0.27491194763E+03  0.12500000000E+03 0.  0.
         25    1    1    2    0    0 -0.41951476829E+02 -0.25960584231E+02  0.26122330078E+03  0.29376264434E+03  0.12500000000E+03 0.  0.
</event>
<event>
 5    0  0.5625186E-005  0.3314089E+03  0.7546771E-02  0.1070515E+00
         21   -1    0    0  502  501  0.00000000000E+00  0.00000000000E+00  0.59539044754E+03  0.59539044754E+03  0.00000000000E+00 0.  1.
         21   -1    0    0  501  502 -0.00000000000E+00 -0.00000000000E+00 -0.18447032721E+03  0.18447032721E+03  0.00000000000E+00 0.  1.
         25    1    1    2    0    0 -0.11153752309E+03  0.19004967014E+03  0.30374332736E+03  0.39553066265E+03  0.12500000000E+03 0.  0.
         25    1    1    2    0    0  0.13789795633E+03 -0.10555834686E+03  0.42908308280E+02  0.21823046046E+03  0.12500000000E+03 0.  0.
         25    1    1    2    0    0 -0.26360433240E+02 -0.84491323280E+02  0.64268484691E+02  0.16609965164E+03  0.12500000000E+03 0.  0.
</event>
<event>
 5    0  0.5605075E-005  0.2602688E+03  0.7546771E-02  0.1106982E+00
         21   -1    0    0  502  501  0.00000000000E+00  0.00000000000E+00  0.13945520259E+03  0.13945520259E+03  0.00000000000E+00 0. -1.
         21   -1    0    0  501  502 -0.00000000000E+00 -0.00000000000E+00 -0.48574637290E+03  0.48574637290E+03  0.00000000000E+00 0. -1.
         25    1    1    2    0    0  0.64332753022E+02 -0.78403551023E+02 -0.73199305581E+02  0.17683030923E+03  0.12500000000E+03 0.  0.
         25    1    1    2    0    0 -0.93610724621E+02  0.14295867362E+03 -0.15546283793E+03  0.26266679292E+03  0.12500000000E+03 0.  0.
         25    1    1    2    0    0  0.29277971599E+02 -0.64555122596E+02 -0.11762902680E+03  0.18570447334E+03  0.12500000000E+03 0.  0.
</event>
<event>
 5    0  0.5605075E-005  0.3532960E+03  0.7546771E-02  0.1061270E+00
         21   -1    0    0  502  501  0.00000000000E+00  0.00000000000E+00  0.10617574429E+03  0.10617574429E+03  0.00000000000E+00 0. -1.
         21   -1    0    0  501  502 -0.00000000000E+00 -0.00000000000E+00 -0.11755800877E+04  0.11755800877E+04  0.00000000000E+00 0. -1.
         25    1    1    2    0    0 -0.12551422523E+03 -0.15707839860E+01 -0.33526568581E+03  0.37918909291E+03  0.12500000000E+03 0.  0.
         25    1    1    2    0    0  0.25958728582E+03 -0.75607830703E+02 -0.28905380181E+03  0.41506530012E+03  0.12500000000E+03 0.  0.
         25    1    1    2    0    0 -0.13407306059E+03  0.77178614689E+02 -0.44508485579E+03  0.48750143897E+03  0.12500000000E+03 0.  0.
</event>
<event>
 5    0  0.5605075E-005  0.3748150E+03  0.7546771E-02  0.1052867E+00
         21   -1    0    0  502  501  0.00000000000E+00  0.00000000000E+00  0.68134223295E+03  0.68134223295E+03  0.00000000000E+00 0. -1.
         21   -1    0    0  501  502 -0.00000000000E+00 -0.00000000000E+00 -0.20619053111E+03  0.20619053111E+03  0.00000000000E+00 0. -1.
         25    1    1    2    0    0  0.15079647713E+03  0.18247614689E+03  0.74190191108E+02  0.27778823977E+03  0.12500000000E+03 0.  0.
         25    1    1    2    0    0 -0.19823679905E+03 -0.18052084729E+03  0.36775587573E+03  0.47196926694E+03  0.12500000000E+03 0.  0.
         25    1    1    2    0    0  0.47440321923E+02 -0.19552996051E+01  0.33205635009E+02  0.13777525735E+03  0.12500000000E+03 0.  0.
</event>
<event>
 5    0  0.5605075E-005  0.3472283E+03  0.7546771E-02  0.1063758E+00
         21   -1    0    0  502  501  0.00000000000E+00  0.00000000000E+00  0.32487726560E+04  0.32487726560E+04  0.00000000000E+00 0.  1.
         21   -1    0    0  501  502 -0.00000000000E+00 -0.00000000000E+00 -0.37111713031E+02  0.37111713031E+02  0.00000000000E+00 0.  1.
         25    1    1    2    0    0  0.19789950211E+03  0.62814844612E+02  0.12936375299E+04  0.13161432203E+04  0.12500000000E+03 0.  0.
         25    1    1    2    0    0 -0.54922656827E+02  0.95225674546E+02  0.11746014429E+04  0.11863380534E+04  0.12500000000E+03 0.  0.
         25    1    1    2    0    0 -0.14297684528E+03 -0.15804051916E+03  0.74342197022E+03  0.78340309534E+03  0.12500000000E+03 0.  0.
</event>
<event>
 5    0  0.5605075E-005  0.2710444E+03  0.7546771E-02  0.1100683E+00
         21   -1    0    0  502  501  0.00000000000E+00  0.00000000000E+00  0.26401953354E+03  0.26401953354E+03  0.00000000000E+00 0.  1.
         21   -1    0    0  501  502 -0.00000000000E+00 -0.00000000000E+00 -0.27825624784E+03  0.27825624784E+03  0.00000000000E+00 0.  1.
         25    1    1    2    0    0  0.18389374083E+02  0.10579508894E+03 -0.38236728397E+02  0.16916801507E+03  0.12500000000E+03 0.  0.
         25    1    1    2    0    0  0.92480746812E+02 -0.73585904928E+01 -0.53020432250E+02  0.16444757104E+03  0.12500000000E+03 0.  0.
         25    1    1    2    0    0 -0.11087012089E+03 -0.98436498447E+02  0.77020446352E+02  0.20866019527E+03  0.12500000000E+03 0.  0.
</event>
<event>
 5    0  0.5605075E-005  0.3193442E+03  0.7546771E-02  0.1075952E+00
         21   -1    0    0  502  501  0.00000000000E+00  0.00000000000E+00  0.12080118657E+04  0.12080118657E+04  0.00000000000E+00 0.  1.
         21   -1    0    0  501  502 -0.00000000000E+00 -0.00000000000E+00 -0.84420284537E+02  0.84420284537E+02  0.00000000000E+00 0.  1.
         25    1    1    2    0    0  0.92325210871E+02 -0.12977761176E+03  0.30368223107E+03  0.36498502783E+03  0.12500000000E+03 0.  0.
         25    1    1    2    0    0 -0.60207943118E+02  0.22448453073E+03  0.41224065011E+03  0.48947487632E+03  0.12500000000E+03 0.  0.
         25    1    1    2    0    0 -0.32117267753E+02 -0.94706918970E+02  0.40766870000E+03  0.43797224609E+03  0.12500000000E+03 0.  0.
</event>
<event>
 5    0  0.5605075E-005  0.3718674E+03  0.7546771E-02  0.1053981E+00
         21   -1    0    0  502  501  0.00000000000E+00  0.00000000000E+00  0.27565738512E+03  0.27565738512E+03  0.00000000000E+00 0.  1.
         21   -1    0    0  501  502 -0.00000000000E+00 -0.00000000000E+00 -0.50165655425E+03  0.50165655425E+03  0.00000000000E+00 0.  1.
         25    1    1    2    0    0 -0.32902759596E+02 -0.11488897330E+03 -0.72832873831E+02  0.18764779584E+03  0.12500000000E+03 0.  0.
         25    1    1    2    0    0 -0.91385642730E+02 -0.23670354853E+02 -0.28813739907E+03  0.32796308045E+03  0.12500000000E+03 0.  0.
         25    1    1    2    0    0  0.12428840233E+03  0.13855932815E+03  0.13497110377E+03  0.26170306308E+03  0.12500000000E+03 0.  0.
</event>
<event>
 5    0  0.5605075E-005  0.2159333E+03  0.7546771E-02  0.1136952E+00
         21   -1    0    0  502  501  0.00000000000E+00  0.00000000000E+00  0.61985357062E+02  0.61985357062E+02  0.00000000000E+00 0.  1.
         21   -1    0    0  501  502 -0.00000000000E+00 -0.00000000000E+00 -0.75222918306E+03  0.75222918306E+03  0.00000000000E+00 0.  1.
         25    1    1    2    0    0  0.19187482525E+01  0.51769911840E+02 -0.19874535021E+03  0.24043402338E+03  0.12500000000E+03 0.  0.
         25    1    1    2    0    0 -0.25061502555E+02  0.39338698427E+02 -0.16864762491E+03  0.21504100421E+03  0.12500000000E+03 0.  0.
         25    1    1    2    0    0  0.23142754302E+02 -0.91108610267E+02 -0.32285085087E+03  0.35873951253E+03  0.12500000000E+03 0.  0.
</event>
<event>
 5    0  0.5605075E-005  0.3136315E+03  0.7546771E-02  0.1078618E+00
         21   -1    0    0  502  501  0.00000000000E+00  0.00000000000E+00  0.21957566720E+03  0.21957566720E+03  0.00000000000E+00 0.  1.
         21   -1    0    0  501  502 -0.00000000000E+00 -0.00000000000E+00 -0.44797634184E+03  0.44797634184E+03  0.00000000000E+00 0.  1.
         25    1    1    2    0    0 -0.38982145176E+02 -0.75310620448E+01 -0.83041189094E+02  0.15523261134E+03  0.12500000000E+03 0.  0.
         25    1    1    2    0    0  0.49757859695E+02 -0.80022503804E+02  0.12590235843E+03  0.20088765411E+03  0.12500000000E+03 0.  0.
         25    1    1    2    0    0 -0.10775714519E+02  0.87553565849E+02 -0.27126184397E+03  0.31143174358E+03  0.12500000000E+03 0.  0.
</event>
<event>
 5    0  0.5605075E-005  0.2454193E+03  0.7546771E-02  0.1116234E+00
         21   -1    0    0  502  501  0.00000000000E+00  0.00000000000E+00  0.57268985176E+03  0.57268985176E+03  0.00000000000E+00 0. -1.
         21   -1    0    0  501  502 -0.00000000000E+00 -0.00000000000E+00 -0.10517146946E+03  0.10517146946E+03  0.00000000000E+00 0. -1.
         25    1    1    2    0    0  0.32290590350E+02 -0.38990323546E+02  0.84731508067E+02  0.15927132829E+03  0.12500000000E+03 0.  0.
         25    1    1    2    0    0 -0.43792798047E+02 -0.97256824564E+02  0.16939553125E+03  0.23600115486E+03  0.12500000000E+03 0.  0.
         25    1    1    2    0    0  0.11502207698E+02  0.13624714811E+03  0.21339134297E+03  0.28258883808E+03  0.12500000000E+03 0.  0.
</event>
<event>
 5    0  0.5605075E-005  0.3782671E+03  0.7546771E-02  0.1051576E+00
         21   -1    0    0  502  501  0.00000000000E+00  0.00000000000E+00  0.21800912973E+03  0.21800912973E+03  0.00000000000E+00 0.  1.
         21   -1    0    0  501  502 -0.00000000000E+00 -0.00000000000E+00 -0.65633016382E+03  0.65633016382E+03  0.00000000000E+00 0.  1.
         25    1    1    2    0    0 -0.97984930032E+02  0.19231732929E+03 -0.44353916902E+02  0.25333628166E+03  0.12500000000E+03 0.  0.
         25    1    1    2    0    0 -0.90383017629E+02 -0.17508011774E+03 -0.11096326081E+03  0.25837953238E+03  0.12500000000E+03 0.  0.
         25    1    1    2    0    0  0.18836794766E+03 -0.17237211554E+02 -0.28300385638E+03  0.36262347951E+03  0.12500000000E+03 0.  0.
</event>
<event>
 5    0  0.5605075E-005  0.4166150E+03  0.7546771E-02  0.1038174E+00
         21   -1    0    0  502  501  0.00000000000E+00  0.00000000000E+00  0.49701981815E+03  0.49701981815E+03  0.00000000000E+00 0. -1.
         21   -1    0    0  501  502 -0.00000000000E+00 -0.00000000000E+00 -0.34921758848E+03  0.34921758848E+03  0.00000000000E+00 0. -1.
         25    1    1    2    0    0  0.15656791048E+02 -0.21050344203E+03 -0.52597962818E+02  0.25089515719E+03  0.12500000000E+03 0.  0.
         25    1    1    2    0    0 -0.78279090066E+02  0.32868051296E+03  0.20047436843E+03  0.41227838646E+03  0.12500000000E+03 0.  0.
         25    1    1    2    0    0  0.62622299018E+02 -0.11817707093E+03 -0.74175943161E-01  0.18306386298E+03  0.12500000000E+03 0.  0.
</event>
<event>
 5    0  0.5605075E-005  0.2159472E+03  0.7546771E-02  0.1136941E+00
         21   -1    0    0  502  501  0.00000000000E+00  0.00000000000E+00  0.25656401899E+02  0.25656401899E+02  0.00000000000E+00 0. -1.
         21   -1    0    0  501  502 -0.00000000000E+00 -0.00000000000E+00 -0.18176042536E+04  0.18176042536E+04  0.00000000000E+00 0. -1.
         25    1    1    2    0    0  0.34841044268E+02  0.24474556999E+02 -0.40620406606E+03  0.42712954193E+03  0.12500000000E+03 0.  0.
         25    1    1    2    0    0 -0.51958189841E+02 -0.52588014068E+01 -0.10157831054E+04  0.10247768663E+04  0.12500000000E+03 0.  0.
         25    1    1    2    0    0  0.17117145573E+02 -0.19215755593E+02 -0.36996068031E+03  0.39135424734E+03  0.12500000000E+03 0.  0.
</event>
<event>
 5    0  0.5605075E-005  0.5350377E+03  0.7546771E-02  0.1005018E+00
         21   -1    0    0  502  501  0.00000000000E+00  0.00000000000E+00  0.27471795670E+04  0.27471795670E+04  0.00000000000E+00 0. -1.
         21   -1    0    0  501  502 -0.00000000000E+00 -0.00000000000E+00 -0.10420335313E+03  0.10420335313E+03  0.00000000000E+00 0. -1.
         25    1    1    2    0    0  0.43833720622E+03 -0.78804727284E+02  0.83912894034E+03  0.95818164766E+03  0.12500000000E+03 0.  0.
         25    1    1    2    0    0 -0.89957335379E+02  0.41046033369E+02  0.92833848765E+03  0.94192061592E+03  0.12500000000E+03 0.  0.
         25    1    1    2    0    0 -0.34837987084E+03  0.37758693915E+02  0.87550878593E+03  0.95128065659E+03  0.12500000000E+03 0.  0.
</event>
<event>
 5    0  0.5605075E-005  0.3487180E+03  0.7546771E-02  0.1063142E+00
         21   -1    0    0  502  501  0.00000000000E+00  0.00000000000E+00  0.63819451289E+03  0.63819451289E+03  0.00000000000E+00 0.  1.
         21   -1    0    0  501  502 -0.00000000000E+00 -0.00000000000E+00 -0.19054419804E+03  0.19054419804E+03  0.00000000000E+00 0.  1.
         25    1    1    2    0    0  0.22163234413E+03 -0.15133113064E+02  0.64356893807E+02  0.26290058360E+03  0.12500000000E+03 0.  0.
         25    1    1    2    0    0 -0.19416945415E+03 -0.77291064531E+02  0.30299498852E+03  0.38872438648E+03  0.12500000000E+03 0.  0.
         25    1    1    2    0    0 -0.27462889989E+02  0.92424177595E+02  0.80298432520E+02  0.17711374084E+03  0.12500000000E+03 0.  0.
</event>
<event>
 5    0  0.5605075E-005  0.2813981E+03  0.7546771E-02  0.1094928E+00
         21   -1    0    0  502  501  0.00000000000E+00  0.00000000000E+00  0.29815672438E+03  0.29815672438E+03  0.00000000000E+00 0. -1.
         21   -1    0    0  501  502 -0.00000000000E+00 -0.00000000000E+00 -0.26558136762E+03  0.26558136762E+03  0.00000000000E+00 0. -1.
         25    1    1    2    0    0 -0.32426480411E+02 -0.26732441295E+02 -0.22079338155E+02  0.13371087175E+03  0.12500000000E+03 0.  0.
         25    1    1    2    0    0 -0.12877986341E+03  0.56794311902E+02 -0.55500845722E+02  0.19625287504E+03  0.12500000000E+03 0.  0.
         25    1    1    2    0    0  0.16120634382E+03 -0.30061870607E+02  0.11015554063E+03  0.23377434522E+03  0.12500000000E+03 0.  0.
</event>
<event>
 5    0  0.5605075E-005  0.2267613E+03  0.7546771E-02  0.1128940E+00
         21   -1    0    0  502  501  0.00000000000E+00  0.00000000000E+00  0.63277835941E+03  0.63277835941E+03  0.00000000000E+00 0. -1.
         21   -1    0    0  501  502 -0.00000000000E+00 -0.00000000000E+00 -0.81261746269E+02  0.81261746269E+02  0.00000000000E+00 0. -1.
         25    1    1    2    0    0 -0.53311821615E+02  0.71803827657E+02  0.17854369934E+03  0.23558606190E+03  0.12500000000E+03 0.  0.
         25    1    1    2    0    0  0.88756213307E+02 -0.80090383543E+01  0.21518964429E+03  0.26433575828E+03  0.12500000000E+03 0.  0.
         25    1    1    2    0    0 -0.35444391692E+02 -0.63794789302E+02  0.15778326951E+03  0.21411828549E+03  0.12500000000E+03 0.  0.
</event>
<event>
 5    0  0.5605075E-005  0.5361948E+03  0.7546771E-02  0.1004741E+00
         21   -1    0    0  502  501  0.00000000000E+00  0.00000000000E+00  0.12184082005E+03  0.12184082005E+03  0.00000000000E+00 0.  1.
         21   -1    0    0  501  502 -0.00000000000E+00 -0.00000000000E+00 -0.23596759837E+04  0.23596759837E+04  0.00000000000E+00 0.  1.
         25    1    1    2    0    0  0.21773782894E+02  0.29097656856E+03 -0.22151372905E+03  0.38708499484E+03  0.12500000000E+03 0.  0.
         25    1    1    2    0    0  0.11343523758E+03 -0.93259268794E+02 -0.14937455227E+04  0.15061425998E+04  0.12500000000E+03 0.  0.
         25    1    1    2    0    0 -0.13520902047E+03 -0.19771729977E+03 -0.52257591189E+03  0.58828920909E+03  0.12500000000E+03 0.  0.
</event>
<event>
 5    0  0.5605075E-005  0.3362930E+03  0.7546771E-02  0.1068386E+00
         21   -1    0    0  502  501  0.00000000000E+00  0.00000000000E+00  0.14779699712E+03  0.14779699712E+03  0.00000000000E+00 0.  1.
         21   -1    0    0  501  502 -0.00000000000E+00 -0.00000000000E+00 -0.76519132609E+03  0.76519132609E+03  0.00000000000E+00 0.  1.
         25    1    1    2    0    0  0.13107944383E+02 -0.22083331435E+03 -0.14527069206E+03  0.29269052753E+03  0.12500000000E+03 0.  0.
         25    1    1    2    0    0 -0.61203058465E+02  0.12376405300E+02 -0.25535744452E+03  0.29108660953E+03  0.12500000000E+03 0.  0.
         25    1    1    2    0    0  0.48095114082E+02  0.20845690905E+03 -0.21676619239E+03  0.32921118616E+03  0.12500000000E+03 0.  0.
</event>
<event>
 5    0  0.5605075E-005  0.3159420E+03  0.7546771E-02  0.1077532E+00
         21   -1    0    0  502  501  0.00000000000E+00  0.00000000000E+00  0.39972431547E+03  0.39972431547E+03  0.00000000000E+00 0.  1.
         21   -1    0    0  501  502 -0.00000000000E+00 -0.00000000000E+00 -0.24972052121E+03  0.24972052121E+03  0.00000000000E+00 0.  1.
         25    1    1    2    0    0  0.14725406470E+03 -0.16950212213E+03  0.66053585027E+02  0.26533526918E+03  0.12500000000E+03 0.  0.
         25    1    1    2    0    0 -0.95995108868E+02  0.16236015754E+03  0.26922614802E+01  0.22629213410E+03  0.12500000000E+03 0.  0.
         25    1    1    2    0    0 -0.51258955835E+02  0.71419645811E+01  0.81257947750E+02  0.15781743340E+03  0.12500000000E+03 0.  0.
</event>
<event>
 5    0  0.5605075E-005  0.3385751E+03  0.7546771E-02  0.1067404E+00
         21   -1    0    0  502  501  0.00000000000E+00  0.00000000000E+00  0.23834982048E+03  0.23834982048E+03  0.00000000000E+00 0. -1.
         21   -1    0    0  501  502 -0.00000000000E+00 -0.00000000000E+00 -0.48094464717E+03  0.48094464717E+03  0.00000000000E+00 0. -1.
         25    1    1    2    0    0  0.42784294727E+02  0.10903551984E+03 -0.96163173896E+02  0.19644743947E+03  0.12500000000E+03 0.  0.
         25    1    1    2    0    0 -0.11485577295E+03 -0.24697104435E+03 -0.61576853805E+02  0.30594648920E+03  0.12500000000E+03 0.  0.
         25    1    1    2    0    0  0.72071478227E+02  0.13793552451E+03 -0.84854798991E+02  0.21690053898E+03  0.12500000000E+03 0.  0.
</event>
<event>
 5    0  0.5605075E-005  0.4002511E+03  0.7546771E-02  0.1043693E+00
         21   -1    0    0  502  501  0.00000000000E+00  0.00000000000E+00  0.18459883555E+03  0.18459883555E+03  0.00000000000E+00 0.  1.
         21   -1    0    0  501  502 -0.00000000000E+00 -0.00000000000E+00 -0.86783304083E+03  0.86783304083E+03  0.00000000000E+00 0.  1.
         25    1    1    2    0    0 -0.18985609568E+03 -0.27114160728E+03 -0.37806533685E+03  0.51780450674E+03  0.12500000000E+03 0.  0.
         25    1    1    2    0    0  0.84789052132E+02  0.40938393666E+02 -0.11744296614E+03  0.19566038366E+03  0.12500000000E+03 0.  0.
         25    1    1    2    0    0  0.10506704355E+03  0.23020321362E+03 -0.18772590228E+03  0.33896698599E+03  0.12500000000E+03 0.  0.
</event>
<event>
 5    0  0.5605075E-005  0.3956026E+03  0.7546771E-02  0.1045313E+00
         21   -1    0    0  502  501  0.00000000000E+00  0.00000000000E+00  0.10607550857E+04  0.10607550857E+04  0.00000000000E+00 0. -1.
         21   -1    0    0  501  502 -0.00000000000E+00 -0.00000000000E+00 -0.14753778394E+03  0.14753778394E+03  0.00000000000E+00 0. -1.
         25    1    1    2    0    0  0.39086418462E+02 -0.13971776167E+03  0.42902239219E+03  0.46982338601E+03  0.12500000000E+03 0.  0.
         25    1    1    2    0    0 -0.30689425460E+02 -0.15274057193E+03  0.32800594888E+03  0.38403701078E+03  0.12500000000E+03 0.  0.
         25    1    1    2    0    0 -0.83969930015E+01  0.29245833360E+03  0.15618896071E+03  0.35443247288E+03  0.12500000000E+03 0.  0.
</event>
<event>
 5    0  0.5605075E-005  0.2921142E+03  0.7546771E-02  0.1089250E+00
         21   -1    0    0  502  501  0.00000000000E+00  0.00000000000E+00  0.51393232557E+02  0.51393232557E+02  0.00000000000E+00 0. -1.
         21   -1    0    0  501  502 -0.00000000000E+00 -0.00000000000E+00 -0.16603495425E+04  0.16603495425E+04  0.00000000000E+00 0. -1.
         25    1    1    2    0    0 -0.11361469522E+03 -0.13766225214E+02 -0.31560641420E+03  0.35823207088E+03  0.12500000000E+03 0.  0.
         25    1    1    2    0    0 -0.39398455016E+02  0.11737596517E+03 -0.56591258444E+03  0.59263092113E+03  0.12500000000E+03 0.  0.
         25    1    1    2    0    0  0.15301315023E+03 -0.10360973995E+03 -0.72743731126E+03  0.76087978299E+03  0.12500000000E+03 0.  0.
</event>
<event>
 5    0  0.5605075E-005  0.2618592E+03  0.7546771E-02  0.1106031E+00
         21   -1    0    0  502  501  0.00000000000E+00  0.00000000000E+00  0.38888143688E+03  0.38888143688E+03  0.00000000000E+00 0.  1.
         21   -1    0    0  501  502 -0.00000000000E+00 -0.00000000000E+00 -0.17632681302E+03  0.17632681302E+03  0.00000000000E+00 0.  1.
         25    1    1    2    0    0  0.42263351262E+01  0.14038267831E+03 -0.59234615242E+01  0.18810966396E+03  0.12500000000E+03 0.  0.
         25    1    1    2    0    0 -0.63255140104E+01 -0.13165741817E+03  0.11997710855E+03  0.21769978058E+03  0.12500000000E+03 0.  0.
         25    1    1    2    0    0  0.20991788842E+01 -0.87252601428E+01  0.98500976826E+02  0.15939880537E+03  0.12500000000E+03 0.  0.
</event>
<event>
 5    0  0.5605075E-005  0.2243284E+03  0.7546771E-02  0.1130697E+00
         21   -1    0    0  502  501  0.00000000000E+00  0.00000000000E+00  0.11019095270E+03  0.11019095270E+03  0.00000000000E+00 0. -1.
         21   -1    0    0  501  502 -0.00000000000E+00 -0.00000000000E+00 -0.45669114070E+03  0.45669114070E+03  0.00000000000E+00 0. -1.
         25    1    1    2    0    0  0.20793872868E+02  0.81096688238E+01 -0.15093386795E+03  0.19724143675E+03  0.12500000000E+03 0.  0.
         25    1    1    2    0    0 -0.85384775587E+02 -0.40045323857E+02 -0.49240169549E+02  0.16414561268E+03  0.12500000000E+03 0.  0.
         25    1    1    2    0    0  0.64590902719E+02  0.31935655033E+02 -0.14632615051E+03  0.20549504397E+03  0.12500000000E+03 0.  0.
</event>
<event>
 5    0  0.5605075E-005  0.3827746E+03  0.7546771E-02  0.1049913E+00
         21   -1    0    0  502  501  0.00000000000E+00  0.00000000000E+00  0.82751068407E+03  0.82751068407E+03  0.00000000000E+00 0.  1.
         21   -1    0    0  501  502 -0.00000000000E+00 -0.00000000000E+00 -0.17705680932E+03  0.17705680932E+03  0.00000000000E+00 0.  1.
         25    1    1    2    0    0 -0.17718231629E+03  0.12959342422E+03  0.36362283252E+03  0.44275793967E+03  0.12500000000E+03 0.  0.
         25    1    1    2    0    0  0.18227774277E+03 -0.20578852890E+03  0.87439926494E+02  0.31439598420E+03  0.12500000000E+03 0.  0.
         25    1    1    2    0    0 -0.50954264781E+01  0.76195104679E+02  0.19939111574E+03  0.24741356952E+03  0.12500000000E+03 0.  0.
</event>
<event>
 5    0  0.5605075E-005  0.2551224E+03  0.7546771E-02  0.1110110E+00
         21   -1    0    0  502  501  0.00000000000E+00  0.00000000000E+00  0.30914948289E+03  0.30914948289E+03  0.00000000000E+00 0. -1.
         21   -1    0    0  501  502 -0.00000000000E+00 -0.00000000000E+00 -0.21053705865E+03  0.21053705865E+03  0.00000000000E+00 0. -1.
         25    1    1    2    0    0  0.97165609238E+02 -0.21455487978E+02 -0.37341011796E+02  0.16407572869E+03  0.12500000000E+03 0.  0.
         25    1    1    2    0    0 -0.11206123610E+03 -0.60331639828E+02  0.77913422346E+02  0.19466157500E+03  0.12500000000E+03 0.  0.
         25    1    1    2    0    0  0.14895626862E+02  0.81787127806E+02  0.58040013697E+02  0.16094923785E+03  0.12500000000E+03 0.  0.
</event>
<event>
 5    0  0.5605075E-005  0.4093426E+03  0.7546771E-02  0.1040592E+00
         21   -1    0    0  502  501  0.00000000000E+00  0.00000000000E+00  0.35613603970E+03  0.35613603970E+03  0.00000000000E+00 0. -1.
         21   -1    0    0  501  502 -0.00000000000E+00 -0.00000000000E+00 -0.47049818229E+03  0.47049818229E+03  0.00000000000E+00 0. -1.
         25    1    1    2    0    0 -0.21752826167E+03 -0.91985540927E+02  0.19505339229E+03  0.33083335716E+03  0.12500000000E+03 0.  0.
         25    1    1    2    0    0  0.11778337214E+01  0.33821492663E+02 -0.84567834043E+02  0.15466738251E+03  0.12500000000E+03 0.  0.
         25    1    1    2    0    0  0.21635042794E+03  0.58164048265E+02 -0.22484770084E+03  0.34113348232E+03  0.12500000000E+03 0.  0.
</event>
<event>
 5    0  0.5605075E-005  0.4928245E+03  0.7546771E-02  0.1015669E+00
         21   -1    0    0  502  501  0.00000000000E+00  0.00000000000E+00  0.22798804072E+03  0.22798804072E+03  0.00000000000E+00 0.  1.
         21   -1    0    0  501  502 -0.00000000000E+00 -0.00000000000E+00 -0.10653014940E+04  0.10653014940E+04  0.00000000000E+00 0.  1.
         25    1    1    2    0    0  0.19029612073E+03  0.32913282711E+03 -0.35839730123E+03  0.53722868220E+03  0.12500000000E+03 0.  0.
         25    1    1    2    0    0 -0.13102801862E+03  0.27774039611E+02 -0.70489066380E+02  0.19629938212E+03  0.12500000000E+03 0.  0.
         25    1    1    2    0    0 -0.59268102112E+02 -0.35690686672E+03 -0.40842708568E+03  0.55976147042E+03  0.12500000000E+03 0.  0.
</event>
<event>
 5    0  0.5605075E-005  0.2383052E+03  0.7546771E-02  0.1120927E+00
         21   -1    0    0  502  501  0.00000000000E+00  0.00000000000E+00  0.35526428237E+02  0.35526428237E+02  0.00000000000E+00 0. -1.
         21   -1    0    0  501  502 -0.00000000000E+00 -0.00000000000E+00 -0.15985098476E+04  0.15985098476E+04  0.00000000000E+00 0. -1.
         25    1    1    2    0    0 -0.60434778094E+02 -0.21871067932E+02 -0.21839225090E+03  0.25971307489E+03  0.12500000000E+03 0.  0.
         25    1    1    2    0    0  0.81766435392E+02 -0.37683963988E+00 -0.86244914588E+03  0.87528819322E+03  0.12500000000E+03 0.  0.
         25    1    1    2    0    0 -0.21331657298E+02  0.22247907572E+02 -0.48214202260E+03  0.49903500774E+03  0.12500000000E+03 0.  0.
</event>
<event>
 5    0  0.5605075E-005  0.2490122E+03  0.7546771E-02  0.1113931E+00
         21   -1    0    0  502  501  0.00000000000E+00  0.00000000000E+00  0.87907010346E+02  0.87907010346E+02  0.00000000000E+00 0. -1.
         21   -1    0    0  501  502 -0.00000000000E+00 -0.00000000000E+00 -0.70537116253E+03  0.70537116253E+03  0.00000000000E+00 0. -1.
         25    1    1    2    0    0  0.79011345824E+02 -0.10656752961E+03 -0.16526950972E+03  0.24604560955E+03  0.12500000000E+03 0.  0.
         25    1    1    2    0    0  0.19891771200E+02  0.58998908087E+02 -0.17411179277E+03  0.22319603513E+03  0.12500000000E+03 0.  0.
         25    1    1    2    0    0 -0.98903117024E+02  0.47568621522E+02 -0.27808284969E+03  0.32403652819E+03  0.12500000000E+03 0.  0.
</event>
<event>
 5    0  0.5605075E-005  0.4225172E+03  0.7546771E-02  0.1036250E+00
         21   -1    0    0  502  501  0.00000000000E+00  0.00000000000E+00  0.16643745958E+03  0.16643745958E+03  0.00000000000E+00 0.  1.
         21   -1    0    0  501  502 -0.00000000000E+00 -0.00000000000E+00 -0.10725997438E+04  0.10725997438E+04  0.00000000000E+00 0.  1.
         25    1    1    2    0    0  0.15962171557E+02 -0.13650160694E+03 -0.87821682449E+03  0.89765097361E+03  0.12500000000E+03 0.  0.
         25    1    1    2    0    0 -0.48847658489E+02 -0.20275802349E+02  0.35292714926E+01  0.13577428939E+03  0.12500000000E+03 0.  0.
         25    1    1    2    0    0  0.32885486933E+02  0.15677740929E+03 -0.31474731198E+02  0.20561194036E+03  0.12500000000E+03 0.  0.
</event>
<event>
 5    0  0.5605075E-005  0.2477475E+03  0.7546771E-02  0.1114737E+00
         21   -1    0    0  502  501  0.00000000000E+00  0.00000000000E+00  0.59547294606E+03  0.59547294606E+03  0.00000000000E+00 0.  1.
         21   -1    0    0  501  502 -0.00000000000E+00 -0.00000000000E+00 -0.10307573789E+03  0.10307573789E+03  0.00000000000E+00 0.  1.
         25    1    1    2    0    0 -0.27359029847E+02 -0.14210089180E+02  0.34891436929E+02  0.13338986288E+03  0.12500000000E+03 0.  0.
         25    1    1    2    0    0  0.42558071622E+02  0.52542095933E+02  0.39432901539E+03  0.41915657419E+03  0.12500000000E+03 0.  0.
         25    1    1    2    0    0 -0.15199041775E+02 -0.38332006753E+02  0.63176755851E+02  0.14600224687E+03  0.12500000000E+03 0.  0.
</event>
<event>
 5    0  0.5605075E-005  0.2898934E+03  0.7546771E-02  0.1090405E+00
         21   -1    0    0  502  501  0.00000000000E+00  0.00000000000E+00  0.26896008416E+04  0.26896008416E+04  0.00000000000E+00 0.  1.
         21   -1    0    0  501  502 -0.00000000000E+00 -0.00000000000E+00 -0.31245600046E+02  0.31245600046E+02  0.00000000000E+00 0.  1.
         25    1    1    2    0    0 -0.90177494980E+02 -0.76953413565E+02  0.15201476791E+04  0.15298783529E+04  0.12500000000E+03 0.  0.
         25    1    1    2    0    0  0.10349495828E+03  0.76221940594E+02  0.93488440838E+03  0.95192166046E+03  0.12500000000E+03 0.  0.
         25    1    1    2    0    0 -0.13317463299E+02  0.73147297157E+00  0.20332315402E+03  0.23904642822E+03  0.12500000000E+03 0.  0.
</event>
<event>
 5    0  0.5605075E-005  0.2894179E+03  0.7546771E-02  0.1090653E+00
         21   -1    0    0  502  501  0.00000000000E+00  0.00000000000E+00  0.39026903747E+03  0.39026903747E+03  0.00000000000E+00 0.  1.
         21   -1    0    0  501  502 -0.00000000000E+00 -0.00000000000E+00 -0.21462816646E+03  0.21462816646E+03  0.00000000000E+00 0.  1.
         25    1    1    2    0    0  0.10737500710E+02  0.37353557112E+02  0.19520537674E+03  0.23503344711E+03  0.12500000000E+03 0.  0.
         25    1    1    2    0    0  0.12442125130E+03 -0.20147225572E+02 -0.45234992886E+02  0.18318778086E+03  0.12500000000E+03 0.  0.
         25    1    1    2    0    0 -0.13515875201E+03 -0.17206331540E+02  0.25670487149E+02  0.18667597596E+03  0.12500000000E+03 0.  0.
</event>
<event>
 5    0  0.5605075E-005  0.2094826E+03  0.7546771E-02  0.1141976E+00
         21   -1    0    0  502  501  0.00000000000E+00  0.00000000000E+00  0.25331562009E+03  0.25331562009E+03  0.00000000000E+00 0.  1.
         21   -1    0    0  501  502 -0.00000000000E+00 -0.00000000000E+00 -0.17323434726E+03  0.17323434726E+03  0.00000000000E+00 0.  1.
         25    1    1    2    0    0  0.33829588822E+02 -0.33808024791E+02 -0.38673370523E+02  0.13931278910E+03  0.12500000000E+03 0.  0.
         25    1    1    2    0    0  0.86232615301E+01  0.74732001428E+00  0.52064737442E+02  0.13568587256E+03  0.12500000000E+03 0.  0.
         25    1    1    2    0    0 -0.42452850352E+02  0.33060704777E+02  0.66689905913E+02  0.15155130568E+03  0.12500000000E+03 0.  0.
</event>
<event>
 5    0  0.5605075E-005  0.2672732E+03  0.7546771E-02  0.1102850E+00
         21   -1    0    0  502  501  0.00000000000E+00  0.00000000000E+00  0.21587391725E+03  0.21587391725E+03  0.00000000000E+00 0.  1.
         21   -1    0    0  501  502 -0.00000000000E+00 -0.00000000000E+00 -0.33091062338E+03  0.33091062338E+03  0.00000000000E+00 0.  1.
         25    1    1    2    0    0  0.34389000307E+02  0.13143438560E+03 -0.55581974865E+01  0.18469838824E+03  0.12500000000E+03 0.  0.
         25    1    1    2    0    0  0.58443533050E+01  0.31507635287E+02 -0.77115971269E+02  0.15032884145E+03  0.12500000000E+03 0.  0.
         25    1    1    2    0    0 -0.40233353612E+02 -0.16294202088E+03 -0.32362537381E+02  0.21175731094E+03  0.12500000000E+03 0.  0.
</event>
<event>
 5    0  0.5605075E-005  0.2545727E+03  0.7546771E-02  0.1110449E+00
         21   -1    0    0  502  501  0.00000000000E+00  0.00000000000E+00  0.28346996456E+04  0.28346996456E+04  0.00000000000E+00 0.  1.
         21   -1    0    0  501  502 -0.00000000000E+00 -0.00000000000E+00 -0.22862120012E+02  0.22862120012E+02  0.00000000000E+00 0.  1.
         25    1    1    2    0    0 -0.59548039457E+02 -0.56221302166E+02  0.12941363760E+04  0.13027358763E+04  0.12500000000E+03 0.  0.
         25    1    1    2    0    0 -0.22764143281E+02  0.72891016325E+02  0.11205276619E+04  0.11300613026E+04  0.12500000000E+03 0.  0.
         25    1    1    2    0    0  0.82312182737E+02 -0.16669714158E+02  0.39717348776E+03  0.42476458677E+03  0.12500000000E+03 0.  0.
</event>
<event>
 5    0  0.7306327E-005  0.2973306E+03  0.7546771E-02  0.1086583E+00
         21   -1    0    0  502  501  0.00000000000E+00  0.00000000000E+00  0.17138850453E+03  0.17138850453E+03  0.00000000000E+00 0. -1.
         21   -1    0    0  501  502 -0.00000000000E+00 -0.00000000000E+00 -0.51581916492E+03  0.51581916492E+03  0.00000000000E+00 0. -1.
         25    1    1    2    0    0  0.95159290090E+02  0.33421063982E+02 -0.35311572988E+03  0.38792779830E+03  0.12500000000E+03 0.  0.
         25    1    1    2    0    0  0.16440147049E+02 -0.15242048510E+02  0.26689031568E+02  0.12976865139E+03  0.12500000000E+03 0.  0.
         25    1    1    2    0    0 -0.11159943714E+03 -0.18179015472E+02 -0.18003962080E+02  0.16951121976E+03  0.12500000000E+03 0.  0.
</event>
<event>
 5    0  0.5605075E-005  0.2674222E+03  0.7546771E-02  0.1102764E+00
         21   -1    0    0  502  501  0.00000000000E+00  0.00000000000E+00  0.22824874547E+03  0.22824874547E+03  0.00000000000E+00 0.  1.
         21   -1    0    0  501  502 -0.00000000000E+00 -0.00000000000E+00 -0.31331895126E+03  0.31331895126E+03  0.00000000000E+00 0.  1.
         25    1    1    2    0    0 -0.30384819437E+02  0.15029128008E+02 -0.20726134402E+02  0.13116281709E+03  0.12500000000E+03 0.  0.
         25    1    1    2    0    0  0.85450097140E+02 -0.28472804182E+02  0.10942158275E+03  0.18897222667E+03  0.12500000000E+03 0.  0.
         25    1    1    2    0    0 -0.55065277703E+02  0.13443676174E+02 -0.17376565414E+03  0.22143265296E+03  0.12500000000E+03 0.  0.
</event>
<event>
 5    0  0.5605075E-005  0.2564544E+03  0.7546771E-02  0.1109292E+00
         21   -1    0    0  502  501  0.00000000000E+00  0.00000000000E+00  0.86383850135E+02  0.86383850135E+02  0.00000000000E+00 0. -1.
         21   -1    0    0  501  502 -0.00000000000E+00 -0.00000000000E+00 -0.76135577436E+03  0.76135577436E+03  0.00000000000E+00 0. -1.
         25    1    1    2    0    0 -0.36519037499E+02 -0.19031528916E+02 -0.23782736358E+03  0.27181371205E+03  0.12500000000E+03 0.  0.
         25    1    1    2    0    0  0.10814492818E+03  0.95390897774E+02 -0.13895416855E+03  0.23606780769E+03  0.12500000000E+03 0.  0.
         25    1    1    2    0    0 -0.71625890684E+02 -0.76359368857E+02 -0.29819039209E+03  0.33985810475E+03  0.12500000000E+03 0.  0.
</event>
<event>
 5    0  0.5605075E-005  0.5299806E+03  0.7546771E-02  0.1006237E+00
         21   -1    0    0  502  501  0.00000000000E+00  0.00000000000E+00  0.67289703128E+03  0.67289703128E+03  0.00000000000E+00 0. -1.
         21   -1    0    0  501  502 -0.00000000000E+00 -0.00000000000E+00 -0.41741812339E+03  0.41741812339E+03  0.00000000000E+00 0. -1.
         25    1    1    2    0    0 -0.29943284960E+03 -0.73187687222E+02  0.28625523305E+02  0.33385758875E+03  0.12500000000E+03 0.  0.
         25    1    1    2    0    0 -0.60345495542E+02 -0.10842321300E+03 -0.11758032666E+03  0.21177182335E+03  0.12500000000E+03 0.  0.
         25    1    1    2    0    0  0.35977834514E+03  0.18161090022E+03  0.34443371125E+03  0.54468574257E+03  0.12500000000E+03 0.  0.
</event>
<event>
 5    0  0.7314948E-005  0.5073349E+03  0.7546771E-02  0.1011882E+00
         21   -1    0    0  502  501  0.00000000000E+00  0.00000000000E+00  0.83050968032E+03  0.83050968032E+03  0.00000000000E+00 0.  1.
         21   -1    0    0  501  502 -0.00000000000E+00 -0.00000000000E+00 -0.30991661064E+03  0.30991661064E+03  0.00000000000E+00 0.  1.
         25    1    1    2    0    0 -0.65930418300E+02 -0.10154167333E+03  0.52421081610E+03  0.55234003222E+03  0.12500000000E+03 0.  0.
         25    1    1    2    0    0  0.24587484540E+03  0.40647291853E+02  0.14713864206E+03  0.31524819099E+03  0.12500000000E+03 0.  0.
         25    1    1    2    0    0 -0.17994442710E+03  0.60894381478E+02 -0.15075638848E+03  0.27283806774E+03  0.12500000000E+03 0.  0.
</event>
<event>
 5    0  0.5605075E-005  0.2099072E+03  0.7546771E-02  0.1141640E+00
         21   -1    0    0  502  501  0.00000000000E+00  0.00000000000E+00  0.25413702981E+02  0.25413702981E+02  0.00000000000E+00 0. -1.
         21   -1    0    0  501  502 -0.00000000000E+00 -0.00000000000E+00 -0.17337506909E+04  0.17337506909E+04  0.00000000000E+00 0. -1.
         25    1    1    2    0    0 -0.12499372209E+02 -0.85564665294E+02 -0.67224228278E+03  0.68921131231E+03  0.12500000000E+03 0.  0.
         25    1    1    2    0    0  0.82319634785E+01  0.43295853816E+02 -0.59164809562E+03  0.60631243203E+03  0.12500000000E+03 0.  0.
         25    1    1    2    0    0  0.42674087304E+01  0.42268811477E+02 -0.44444660955E+03  0.46364064958E+03  0.12500000000E+03 0.  0.
</event>
<event>
 5    0  0.5605075E-005  0.2680110E+03  0.7546771E-02  0.1102423E+00
         21   -1    0    0  502  501  0.00000000000E+00  0.00000000000E+00  0.17774105276E+03  0.17774105276E+03  0.00000000000E+00 0.  1.
         21   -1    0    0  501  502 -0.00000000000E+00 -0.00000000000E+00 -0.40412678440E+03  0.40412678440E+03  0.00000000000E+00 0.  1.
         25    1    1    2    0    0 -0.57704209971E+02 -0.98079186970E+02 -0.11732761148E+03  0.20576703133E+03  0.12500000000E+03 0.  0.
         25    1    1    2    0    0  0.77494867340E+02  0.61517200747E+02 -0.16816092504E+03  0.23171732167E+03  0.12500000000E+03 0.  0.
         25    1    1    2    0    0 -0.19790657369E+02  0.36561986223E+02  0.59102804872E+02  0.14438348416E+03  0.12500000000E+03 0.  0.
</event>
<event>
 5    0  0.5605075E-005  0.2846849E+03  0.7546771E-02  0.1093157E+00
         21   -1    0    0  502  501  0.00000000000E+00  0.00000000000E+00  0.10479409286E+04  0.10479409286E+04  0.00000000000E+00 0. -1.
         21   -1    0    0  501  502 -0.00000000000E+00 -0.00000000000E+00 -0.77337827088E+02  0.77337827088E+02  0.00000000000E+00 0. -1.
         25    1    1    2    0    0 -0.76919081068E+01  0.24807370128E+02  0.39053912985E+02  0.13350947226E+03  0.12500000000E+03 0.  0.
         25    1    1    2    0    0 -0.42794949342E+02  0.25143806953E+02  0.17000040405E+03  0.21676890020E+03  0.12500000000E+03 0.  0.
         25    1    1    2    0    0  0.50486857449E+02 -0.49951177081E+02  0.76154878449E+03  0.77500038325E+03  0.12500000000E+03 0.  0.
</event>
<event>
 5    0  0.5605075E-005  0.2900125E+03  0.7546771E-02  0.1090343E+00
         21   -1    0    0  502  501  0.00000000000E+00  0.00000000000E+00  0.30564955195E+03  0.30564955195E+03  0.00000000000E+00 0. -1.
         21   -1    0    0  501  502 -0.00000000000E+00 -0.00000000000E+00 -0.27517542451E+03  0.27517542451E+03  0.00000000000E+00 0. -1.
         25    1    1    2    0    0  0.10267728739E+03 -0.80226952249E+02  0.79658597470E+02  0.19735622960E+03  0.12500000000E+03 0.  0.
         25    1    1    2    0    0  0.11784025269E+02  0.14304822241E+03 -0.67128197686E+02  0.20182381453E+03  0.12500000000E+03 0.  0.
         25    1    1    2    0    0 -0.11446131265E+03 -0.62821270160E+02  0.17943727663E+02  0.18164493233E+03  0.12500000000E+03 0.  0.
</event>
<event>
 5    0  0.5605075E-005  0.3705084E+03  0.7546771E-02  0.1054499E+00
         21   -1    0    0  502  501  0.00000000000E+00  0.00000000000E+00  0.48048560363E+03  0.48048560363E+03  0.00000000000E+00 0.  1.
         21   -1    0    0  501  502 -0.00000000000E+00 -0.00000000000E+00 -0.28570362852E+03  0.28570362852E+03  0.00000000000E+00 0.  1.
         25    1    1    2    0    0  0.12967118107E+03  0.36816393737E+02 -0.70932380356E+02  0.19704432149E+03  0.12500000000E+03 0.  0.
         25    1    1    2    0    0 -0.14629340740E+02 -0.93943030324E+02 -0.82583129412E+02  0.17743811265E+03  0.12500000000E+03 0.  0.
         25    1    1    2    0    0 -0.11504184033E+03  0.57126636588E+02  0.34829748487E+03  0.39170679801E+03  0.12500000000E+03 0.  0.
</event>
<event>
 5    0  0.5605075E-005  0.2996748E+03  0.7546771E-02  0.1085403E+00
         21   -1    0    0  502  501  0.00000000000E+00  0.00000000000E+00  0.18533113561E+03  0.18533113561E+03  0.00000000000E+00 0.  1.
         21   -1    0    0  501  502 -0.00000000000E+00 -0.00000000000E+00 -0.48456496070E+03  0.48456496070E+03  0.00000000000E+00 0.  1.
         25    1    1    2    0    0 -0.35412549588E+02  0.92088713227E+02 -0.37822768778E+02  0.16367633186E+03  0.12500000000E+03 0.  0.
         25    1    1    2    0    0 -0.22993868540E+02 -0.11457114630E+03 -0.31340186267E+03  0.35707281201E+03  0.12500000000E+03 0.  0.
         25    1    1    2    0    0  0.58406418129E+02  0.22482433076E+02  0.51990806357E+02  0.14914695244E+03  0.12500000000E+03 0.  0.
</event>
<event>
 5    0  0.5605075E-005  0.2755278E+03  0.7546771E-02  0.1098157E+00
         21   -1    0    0  502  501  0.00000000000E+00  0.00000000000E+00  0.88570593964E+03  0.88570593964E+03  0.00000000000E+00 0. -1.
         21   -1    0    0  501  502 -0.00000000000E+00 -0.00000000000E+00 -0.85711917126E+02  0.85711917126E+02  0.00000000000E+00 0. -1.
         25    1    1    2    0    0  0.72603893770E+02  0.54027136398E+02  0.28375555548E+03  0.32300537476E+03  0.12500000000E+03 0.  0.
         25    1    1    2    0    0 -0.80462727784E+02 -0.20115526200E+02  0.49461883812E+03  0.51686717828E+03  0.12500000000E+03 0.  0.
         25    1    1    2    0    0  0.78588340140E+01 -0.33911610198E+02  0.21619628911E+02  0.13154530373E+03  0.12500000000E+03 0.  0.
</event>
<event>
 5    0  0.5605075E-005  0.2327044E+03  0.7546771E-02  0.1124751E+00
         21   -1    0    0  502  501  0.00000000000E+00  0.00000000000E+00  0.78600800797E+02  0.78600800797E+02  0.00000000000E+00 0.  1.
         21   -1    0    0  501  502 -0.00000000000E+00 -0.00000000000E+00 -0.68894119737E+03  0.68894119737E+03  0.00000000000E+00 0.  1.
         25    1    1    2    0    0 -0.57082792724E+02 -0.93232012207E+02 -0.32967133951E+03  0.36913255806E+03  0.12500000000E+03 0.  0.
         25    1    1    2    0    0  0.99349542696E+01  0.13741759735E+02 -0.14379104715E+03  0.19128095702E+03  0.12500000000E+03 0.  0.
         25    1    1    2    0    0  0.47147838454E+02  0.79490252472E+02 -0.13687800991E+03  0.20712848309E+03  0.12500000000E+03 0.  0.
</event>
<event>
 5    0  0.5605075E-005  0.2747853E+03  0.7546771E-02  0.1098572E+00
         21   -1    0    0  502  501  0.00000000000E+00  0.00000000000E+00  0.34818795990E+03  0.34818795990E+03  0.00000000000E+00 0. -1.
         21   -1    0    0  501  502 -0.00000000000E+00 -0.00000000000E+00 -0.21685691360E+03  0.21685691360E+03  0.00000000000E+00 0. -1.
         25    1    1    2    0    0 -0.89106642387E+02  0.58185446108E+01 -0.95996286837E+02  0.18114672579E+03  0.12500000000E+03 0.  0.
         25    1    1    2    0    0 -0.28461849784E+02 -0.20691109842E+02  0.13937848114E+03  0.19049818877E+03  0.12500000000E+03 0.  0.
         25    1    1    2    0    0  0.11756849217E+03  0.14872565232E+02  0.87948852005E+02  0.19339995894E+03  0.12500000000E+03 0.  0.
</event>
<event>
 5    0  0.5605075E-005  0.2180861E+03  0.7546771E-02  0.1135318E+00
         21   -1    0    0  502  501  0.00000000000E+00  0.00000000000E+00  0.90246684734E+03  0.90246684734E+03  0.00000000000E+00 0.  1.
         21   -1    0    0  501  502 -0.00000000000E+00 -0.00000000000E+00 -0.52701695248E+02  0.52701695248E+02  0.00000000000E+00 0.  1.
         25    1    1    2    0    0 -0.73451269965E+02 -0.26598985125E+02  0.16892366389E+03  0.22419366470E+03  0.12500000000E+03 0.  0.
         25    1    1    2    0    0  0.51790440273E+02 -0.17464884778E+01  0.37439449202E+03  0.39809739459E+03  0.12500000000E+03 0.  0.
         25    1    1    2    0    0  0.21660829692E+02  0.28345473603E+02  0.30644699619E+03  0.33287748330E+03  0.12500000000E+03 0.  0.
</event>
<event>
 5    0  0.5605075E-005  0.2421690E+03  0.7546771E-02  0.1118356E+00
         21   -1    0    0  502  501  0.00000000000E+00  0.00000000000E+00  0.85321598353E+02  0.85321598353E+02  0.00000000000E+00 0.  1.
         21   -1    0    0  501  502 -0.00000000000E+00 -0.00000000000E+00 -0.68735052610E+03  0.68735052610E+03  0.00000000000E+00 0. -1.
         25    1    1    2    0    0 -0.24997774557E+02  0.32566934833E+02 -0.35531448532E+03  0.37889164342E+03  0.12500000000E+03 0.  0.
         25    1    1    2    0    0 -0.26302457525E+02  0.59798862635E+02 -0.90860465743E+02  0.16777469261E+03  0.12500000000E+03 0.  0.
         25    1    1    2    0    0  0.51300232082E+02 -0.92365797468E+02 -0.15585397669E+03  0.22600578843E+03  0.12500000000E+03 0.  0.
</event>
<event>
 5    0  0.5605075E-005  0.3911640E+03  0.7546771E-02  0.1046883E+00
         21   -1    0    0  502  501  0.00000000000E+00  0.00000000000E+00  0.21363308596E+04  0.21363308596E+04  0.00000000000E+00 0.  1.
         21   -1    0    0  501  502 -0.00000000000E+00 -0.00000000000E+00 -0.71622476851E+02  0.71622476851E+02  0.00000000000E+00 0.  1.
         25    1    1    2    0    0 -0.19545551268E+03 -0.15659651421E+03  0.96501282418E+03  0.10047885730E+04  0.12500000000E+03 0.  0.
         25    1    1    2    0    0  0.20467542336E+03  0.19602447891E+03  0.49167137057E+03  0.58110529330E+03  0.12500000000E+03 0.  0.
         25    1    1    2    0    0 -0.92199106828E+01 -0.39427964708E+02  0.60802418800E+03  0.62205947010E+03  0.12500000000E+03 0.  0.
</event>
<event>
 5    0  0.5934754E-005  0.4594849E+03  0.7546771E-02  0.1024931E+00
         21   -1    0    0  502  501  0.00000000000E+00  0.00000000000E+00  0.16580983559E+03  0.16580983559E+03  0.00000000000E+00 0. -1.
         21   -1    0    0  501  502 -0.00000000000E+00 -0.00000000000E+00 -0.12733045196E+04  0.12733045196E+04  0.00000000000E+00 0. -1.
         25    1    1    2    0    0  0.11141153199E+03 -0.43935356766E+02 -0.29468026606E+01  0.17313731164E+03  0.12500000000E+03 0.  0.
         25    1    1    2    0    0 -0.86149460282E+02  0.23563026646E+03 -0.23289470464E+03  0.36442872476E+03  0.12500000000E+03 0.  0.
         25    1    1    2    0    0 -0.25262071709E+02 -0.19169490970E+03 -0.87165317672E+03  0.90154831881E+03  0.12500000000E+03 0.  0.
</event>
<event>
 5    0  0.5605075E-005  0.1124909E+04  0.7546771E-02  0.9181249E-01
         21   -1    0    0  502  501  0.00000000000E+00  0.00000000000E+00  0.23363020186E+04  0.23363020186E+04  0.00000000000E+00 0.  1.
         21   -1    0    0  501  502 -0.00000000000E+00 -0.00000000000E+00 -0.54163343058E+03  0.54163343058E+03  0.00000000000E+00 0.  1.
         25    1    1    2    0    0 -0.15452787733E+03 -0.31433385358E+03  0.56187517702E+03  0.67380512830E+03  0.12500000000E+03 0.  0.
         25    1    1    2    0    0 -0.52302872522E+02  0.70843893395E+03 -0.15811275930E+03  0.73840771818E+03  0.12500000000E+03 0.  0.
         25    1    1    2    0    0  0.20683074985E+03 -0.39410508038E+03  0.13909061703E+04  0.14657226027E+04  0.12500000000E+03 0.  0.
</event>
<event>
 5    0  0.6849771E-005  0.2789945E+03  0.7546771E-02  0.1096239E+00
         21   -1    0    0  502  501  0.00000000000E+00  0.00000000000E+00  0.64076350563E+03  0.64076350563E+03  0.00000000000E+00 0.  1.
         21   -1    0    0  501  502 -0.00000000000E+00 -0.00000000000E+00 -0.12147684656E+03  0.12147684656E+03  0.00000000000E+00 0.  1.
         25    1    1    2    0    0  0.11096220771E+03  0.10514376873E+00  0.22748253413E+03  0.28228695671E+03  0.12500000000E+03 0.  0.
         25    1    1    2    0    0  0.55977991245E+01 -0.10830664123E+03  0.19482560803E+03  0.25562410182E+03  0.12500000000E+03 0.  0.
         25    1    1    2    0    0 -0.11656000684E+03  0.10820149746E+03  0.96978516918E+02  0.22432929365E+03  0.12500000000E+03 0.  0.
</event>
<event>
 5    0  0.5605075E-005  0.3116649E+03  0.7546771E-02  0.1079551E+00
         21   -1    0    0  502  501  0.00000000000E+00  0.00000000000E+00  0.38916149316E+03  0.38916149316E+03  0.00000000000E+00 0.  1.
         21   -1    0    0  501  502 -0.00000000000E+00 -0.00000000000E+00 -0.24960083736E+03  0.24960083736E+03  0.00000000000E+00 0.  1.
         25    1    1    2    0    0 -0.17205910650E+03 -0.12733962186E+03  0.10979237682E+03  0.27110714014E+03  0.12500000000E+03 0.  0.
         25    1    1    2    0    0  0.15277465707E+03  0.38621139419E+02  0.60697588441E+02  0.21009732386E+03  0.12500000000E+03 0.  0.
         25    1    1    2    0    0  0.19284449433E+02  0.88718482444E+02 -0.30929309466E+02  0.15755786652E+03  0.12500000000E+03 0.  0.
</event>
<event>
 5    0  0.5605075E-005  0.3742491E+03  0.7546771E-02  0.1053080E+00
         21   -1    0    0  502  501  0.00000000000E+00  0.00000000000E+00  0.10469121831E+04  0.10469121831E+04  0.00000000000E+00 0.  1.
         21   -1    0    0  501  502 -0.00000000000E+00 -0.00000000000E+00 -0.13378616050E+03  0.13378616050E+03  0.00000000000E+00 0.  1.
         25    1    1    2    0    0  0.70712429082E+02  0.17837436026E+03  0.10727533467E+03  0.25288467224E+03  0.12500000000E+03 0.  0.
         25    1    1    2    0    0 -0.72174283482E+02 -0.13745304909E+03  0.76431368831E+03  0.78987523194E+03  0.12500000000E+03 0.  0.
         25    1    1    2    0    0  0.14618544003E+01 -0.40921311172E+02  0.41536999587E+02  0.13793843939E+03  0.12500000000E+03 0.  0.
</event>
<event>
 5    0  0.5605075E-005  0.2605827E+03  0.7546771E-02  0.1106794E+00
         21   -1    0    0  502  501  0.00000000000E+00  0.00000000000E+00  0.69553513476E+03  0.69553513476E+03  0.00000000000E+00 0.  1.
         21   -1    0    0  501  502 -0.00000000000E+00 -0.00000000000E+00 -0.97627480341E+02  0.97627480341E+02  0.00000000000E+00 0.  1.
         25    1    1    2    0    0  0.10273870289E+02  0.14574837534E+03  0.31059824263E+03  0.36530043751E+03  0.12500000000E+03 0.  0.
         25    1    1    2    0    0  0.32266305004E+02 -0.51744127162E+02  0.67069484012E+02  0.15440817601E+03  0.12500000000E+03 0.  0.
         25    1    1    2    0    0 -0.42540175293E+02 -0.94004248173E+02  0.22023992778E+03  0.27345400157E+03  0.12500000000E+03 0.  0.
</event>
<event>
 5    0  0.5605075E-005  0.6934990E+03  0.7546771E-02  0.9728415E-01
         21   -1    0    0  502  501  0.00000000000E+00  0.00000000000E+00  0.38594953422E+03  0.38594953422E+03  0.00000000000E+00 0.  1.
         21   -1    0    0  501  502 -0.00000000000E+00 -0.00000000000E+00 -0.12461237624E+04  0.12461237624E+04  0.00000000000E+00 0.  1.
         25    1    1    2    0    0  0.56062657605E+03  0.18298326069E+03 -0.11020254664E+03  0.61282512412E+03  0.12500000000E+03 0.  0.
         25    1    1    2    0    0 -0.50899778266E+03 -0.17447328730E+03 -0.56747535131E+03  0.79194251375E+03  0.12500000000E+03 0.  0.
         25    1    1    2    0    0 -0.51628793390E+02 -0.85099733923E+01 -0.18249633017E+03  0.22730565871E+03  0.12500000000E+03 0.  0.
</event>
<event>
 5    0  0.5605075E-005  0.4838720E+03  0.7546771E-02  0.1018076E+00
         21   -1    0    0  502  501  0.00000000000E+00  0.00000000000E+00  0.12021440831E+04  0.12021440831E+04  0.00000000000E+00 0. -1.
         21   -1    0    0  501  502 -0.00000000000E+00 -0.00000000000E+00 -0.19476207074E+03  0.19476207074E+03  0.00000000000E+00 0. -1.
         25    1    1    2    0    0 -0.12221044897E+03  0.97225260774E+02  0.19214432182E+03  0.27736723956E+03  0.12500000000E+03 0.  0.
         25    1    1    2    0    0  0.22358838413E+03 -0.28714212710E+03  0.77782822726E+03  0.86780419323E+03  0.12500000000E+03 0.  0.
         25    1    1    2    0    0 -0.10137793516E+03  0.18991686632E+03  0.37409463300E+02  0.25173472108E+03  0.12500000000E+03 0.  0.
</event>
<event>
 5    0  0.5605075E-005  0.2881897E+03  0.7546771E-02  0.1091298E+00
         21   -1    0    0  502  501  0.00000000000E+00  0.00000000000E+00  0.36209718086E+03  0.36209718086E+03  0.00000000000E+00 0.  1.
         21   -1    0    0  501  502 -0.00000000000E+00 -0.00000000000E+00 -0.22936747636E+03  0.22936747636E+03  0.00000000000E+00 0.  1.
         25    1    1    2    0    0 -0.33988620349E+02  0.14097946557E+03  0.55271939085E+02  0.19927474320E+03  0.12500000000E+03 0.  0.
         25    1    1    2    0    0  0.89479918432E+02  0.10599320468E+02  0.10459456791E+03  0.18623647611E+03  0.12500000000E+03 0.  0.
         25    1    1    2    0    0 -0.55491298083E+02 -0.15157878604E+03 -0.27136802498E+02  0.20595343792E+03  0.12500000000E+03 0.  0.
</event>
<event>
 5    0  0.5605075E-005  0.2144280E+03  0.7546771E-02  0.1138107E+00
         21   -1    0    0  502  501  0.00000000000E+00  0.00000000000E+00  0.39635606650E+02  0.39635606650E+02  0.00000000000E+00 0.  1.
         21   -1    0    0  501  502 -0.00000000000E+00 -0.00000000000E+00 -0.11600515704E+04  0.11600515704E+04  0.00000000000E+00 0.  1.
         25    1    1    2    0    0 -0.13443025920E+00 -0.29389328713E+02 -0.32622163090E+03  0.35058423122E+03  0.12500000000E+03 0.  0.
         25    1    1    2    0    0  0.38475061838E+02 -0.82844348858E+01 -0.58537197777E+03  0.59986191295E+03  0.12500000000E+03 0.  0.
         25    1    1    2    0    0 -0.38340631579E+02  0.37673763599E+02 -0.20882235511E+03  0.24924103291E+03  0.12500000000E+03 0.  0.
</event>
<event>
 5    0  0.5605075E-005  0.2792720E+03  0.7546771E-02  0.1096087E+00
         21   -1    0    0  502  501  0.00000000000E+00  0.00000000000E+00  0.17257013224E+03  0.17257013224E+03  0.00000000000E+00 0. -1.
         21   -1    0    0  501  502 -0.00000000000E+00 -0.00000000000E+00 -0.45194870632E+03  0.45194870632E+03  0.00000000000E+00 0. -1.
         25    1    1    2    0    0 -0.22571917575E+02 -0.69351093203E+02 -0.13041032452E+03  0.19480995440E+03  0.12500000000E+03 0.  0.
         25    1    1    2    0    0 -0.76256562237E+02  0.16187008684E+03 -0.91739672946E+02  0.23676603619E+03  0.12500000000E+03 0.  0.
         25    1    1    2    0    0  0.98828479812E+02 -0.92518993640E+02 -0.57228576613E+02  0.19294284798E+03  0.12500000000E+03 0.  0.
</event>
<event>
 5    0  0.5605075E-005  0.3119654E+03  0.7546771E-02  0.1079408E+00
         21   -1    0    0  502  501  0.00000000000E+00  0.00000000000E+00  0.25613745714E+03  0.25613745714E+03  0.00000000000E+00 0. -1.
         21   -1    0    0  501  502 -0.00000000000E+00 -0.00000000000E+00 -0.37996161126E+03  0.37996161126E+03  0.00000000000E+00 0. -1.
         25    1    1    2    0    0  0.59269169837E+02 -0.26456178495E+02 -0.86740250820E+02  0.16541352722E+03  0.12500000000E+03 0.  0.
         25    1    1    2    0    0 -0.14331288239E+03  0.16404727136E+03 -0.77250947425E+02  0.26275996342E+03  0.12500000000E+03 0.  0.
         25    1    1    2    0    0  0.84043712554E+02 -0.13759109286E+03  0.40167044122E+02  0.20792557776E+03  0.12500000000E+03 0.  0.
</event>
<event>
 5    0  0.5605075E-005  0.2609368E+03  0.7546771E-02  0.1106582E+00
         21   -1    0    0  502  501  0.00000000000E+00  0.00000000000E+00  0.23571194944E+04  0.23571194944E+04  0.00000000000E+00 0. -1.
         21   -1    0    0  501  502 -0.00000000000E+00 -0.00000000000E+00 -0.28886118203E+02  0.28886118203E+02  0.00000000000E+00 0. -1.
         25    1    1    2    0    0 -0.39058594994E+02  0.13533191501E+03  0.13418335437E+04  0.13549843394E+04  0.12500000000E+03 0.  0.
         25    1    1    2    0    0  0.44307958899E+01 -0.77487976262E+02  0.36377937941E+03  0.39240853113E+03  0.12500000000E+03 0.  0.
         25    1    1    2    0    0  0.34627799104E+02 -0.57843938747E+02  0.62262045310E+03  0.63861274207E+03  0.12500000000E+03 0.  0.
</event>
<event>
 5    0  0.5605075E-005  0.3766296E+03  0.7546771E-02  0.1052187E+00
         21   -1    0    0  502  501  0.00000000000E+00  0.00000000000E+00  0.48718414657E+03  0.48718414657E+03  0.00000000000E+00 0.  1.
         21   -1    0    0  501  502 -0.00000000000E+00 -0.00000000000E+00 -0.29116272226E+03  0.29116272226E+03  0.00000000000E+00 0.  1.
         25    1    1    2    0    0 -0.23641078541E+03  0.62327390554E+01  0.73151657800E+02  0.27731763653E+03  0.12500000000E+03 0.  0.
         25    1    1    2    0    0  0.33833929333E+01  0.12073587272E+03  0.11339345619E+03  0.20753716346E+03  0.12500000000E+03 0.  0.
         25    1    1    2    0    0  0.23302739247E+03 -0.12696861178E+03  0.94763103171E+01  0.29349206885E+03  0.12500000000E+03 0.  0.
</event>
<event>
 5    0  0.5605075E-005  0.3611048E+03  0.7546771E-02  0.1058147E+00
         21   -1    0    0  502  501  0.00000000000E+00  0.00000000000E+00  0.14082423796E+03  0.14082423796E+03  0.00000000000E+00 0. -1.
         21   -1    0    0  501  502 -0.00000000000E+00 -0.00000000000E+00 -0.92595357348E+03  0.92595357348E+03  0.00000000000E+00 0. -1.
         25    1    1    2    0    0 -0.15612312591E+03 -0.84831983378E+02 -0.41417020186E+03  0.46768884095E+03  0.12500000000E+03 0.  0.
         25    1    1    2    0    0  0.15754124375E+03  0.16469124935E+03 -0.36821882590E+03  0.45072447774E+03  0.12500000000E+03 0.  0.
         25    1    1    2    0    0 -0.14181178378E+01 -0.79859265971E+02 -0.27403077704E+01  0.14836449274E+03  0.12500000000E+03 0.  0.
</event>
<event>
 5    0  0.5605075E-005  0.3303454E+03  0.7546771E-02  0.1070984E+00
         21   -1    0    0  502  501  0.00000000000E+00  0.00000000000E+00  0.18034625034E+03  0.18034625034E+03  0.00000000000E+00 0. -1.
         21   -1    0    0  501  502 -0.00000000000E+00 -0.00000000000E+00 -0.60510314146E+03  0.60510314146E+03  0.00000000000E+00 0. -1.
         25    1    1    2    0    0 -0.52751069500E+01 -0.53690387115E+02 -0.39033084626E+02  0.14163003254E+03  0.12500000000E+03 0.  0.
         25    1    1    2    0    0 -0.24640261161E+02 -0.99539851961E+02  0.45935622143E+02  0.16807857085E+03  0.12500000000E+03 0.  0.
         25    1    1    2    0    0  0.29915368111E+02  0.15323023908E+03 -0.43165942864E+03  0.47574078841E+03  0.12500000000E+03 0.  0.
</event>
<event>
 5    0  0.5605075E-005  0.2593600E+03  0.7546771E-02  0.1107528E+00
         21   -1    0    0  502  501  0.00000000000E+00  0.00000000000E+00  0.15185496224E+03  0.15185496224E+03  0.00000000000E+00 0.  1.
         21   -1    0    0  501  502 -0.00000000000E+00 -0.00000000000E+00 -0.44297289023E+03  0.44297289023E+03  0.00000000000E+00 0.  1.
         25    1    1    2    0    0  0.37784759608E+01  0.11671156409E+03 -0.13482463830E+03  0.21780392367E+03  0.12500000000E+03 0.  0.
         25    1    1    2    0    0  0.96401126126E+02 -0.59826787031E+02 -0.10763370390E+03  0.20020598338E+03  0.12500000000E+03 0.  0.
         25    1    1    2    0    0 -0.10017960209E+03 -0.56884777054E+02 -0.48659585791E+02  0.17681794542E+03  0.12500000000E+03 0.  0.
</event>
<event>
 5    0  0.5605075E-005  0.2350342E+03  0.7546771E-02  0.1123146E+00
         21   -1    0    0  502  501  0.00000000000E+00  0.00000000000E+00  0.13798378752E+03  0.13798378752E+03  0.00000000000E+00 0. -1.
         21   -1    0    0  501  502 -0.00000000000E+00 -0.00000000000E+00 -0.40034455121E+03  0.40034455121E+03  0.00000000000E+00 0. -1.
         25    1    1    2    0    0 -0.22483097869E+02 -0.80115593772E+01 -0.21332191150E+03  0.24839668415E+03  0.12500000000E+03 0.  0.
         25    1    1    2    0    0 -0.41426637664E+02  0.45016493916E+02 -0.96704235517E+01  0.13950329073E+03  0.12500000000E+03 0.  0.
         25    1    1    2    0    0  0.63909735533E+02 -0.37004934539E+02 -0.39368428634E+02  0.15042836385E+03  0.12500000000E+03 0.  0.
</event>
<event>
 5    0  0.5605075E-005  0.2704993E+03  0.7546771E-02  0.1100994E+00
         21   -1    0    0  502  501  0.00000000000E+00  0.00000000000E+00  0.21222580174E+03  0.21222580174E+03  0.00000000000E+00 0. -1.
         21   -1    0    0  501  502 -0.00000000000E+00 -0.00000000000E+00 -0.34477373591E+03  0.34477373591E+03  0.00000000000E+00 0. -1.
         25    1    1    2    0    0  0.95685538808E+02  0.81831297254E+02 -0.10927034546E+03  0.20836768450E+03  0.12500000000E+03 0.  0.
         25    1    1    2    0    0  0.45652893715E+02 -0.83568214340E+02 -0.29282456446E+02  0.15984459768E+03  0.12500000000E+03 0.  0.
         25    1    1    2    0    0 -0.14133843252E+03  0.17369170855E+01  0.60048677438E+01  0.18878725546E+03  0.12500000000E+03 0.  0.
</event>
<event>
 5    0  0.5605075E-005  0.4067429E+03  0.7546771E-02  0.1041470E+00
         21   -1    0    0  502  501  0.00000000000E+00  0.00000000000E+00  0.32816934947E+04  0.32816934947E+04  0.00000000000E+00 0. -1.
         21   -1    0    0  501  502 -0.00000000000E+00 -0.00000000000E+00 -0.50412923241E+02  0.50412923241E+02  0.00000000000E+00 0. -1.
         25    1    1    2    0    0 -0.91377717981E+02 -0.13605972632E+03  0.56408470711E+03  0.60056531141E+03  0.12500000000E+03 0.  0.
         25    1    1    2    0    0 -0.18591223635E+03  0.20730669667E+02  0.16038091829E+04  0.16195128945E+04  0.12500000000E+03 0.  0.
         25    1    1    2    0    0  0.27728995433E+03  0.11532905665E+03  0.10633866814E+04  0.11120282120E+04  0.12500000000E+03 0.  0.
</event>
<event>
 5    0  0.5605075E-005  0.2543343E+03  0.7546771E-02  0.1110596E+00
         21   -1    0    0  502  501  0.00000000000E+00  0.00000000000E+00  0.22530150210E+03  0.22530150210E+03  0.00000000000E+00 0.  1.
         21   -1    0    0  501  502 -0.00000000000E+00 -0.00000000000E+00 -0.28710842883E+03  0.28710842883E+03  0.00000000000E+00 0.  1.
         25    1    1    2    0    0  0.55978876532E+01 -0.43129667283E+02 -0.13181883577E+03  0.18679590470E+03  0.12500000000E+03 0.  0.
         25    1    1    2    0    0 -0.47702264225E+00  0.80889416240E+01  0.13173131875E+03  0.18177953368E+03  0.12500000000E+03 0.  0.
         25    1    1    2    0    0 -0.51208650110E+01  0.35040725659E+02 -0.61719409704E+02  0.14383449255E+03  0.12500000000E+03 0.  0.
</event>
<event>
 5    0  0.5605075E-005  0.2342621E+03  0.7546771E-02  0.1123675E+00
         21   -1    0    0  502  501  0.00000000000E+00  0.00000000000E+00  0.81188705369E+02  0.81188705369E+02  0.00000000000E+00 0. -1.
         21   -1    0    0  501  502 -0.00000000000E+00 -0.00000000000E+00 -0.67594046448E+03  0.67594046448E+03  0.00000000000E+00 0. -1.
         25    1    1    2    0    0 -0.24938514336E+02  0.18377718176E+02 -0.73850846755E+02  0.14845409253E+03  0.12500000000E+03 0.  0.
         25    1    1    2    0    0  0.98248561087E+02  0.14925031545E+00 -0.19552913716E+03  0.25201080435E+03  0.12500000000E+03 0.  0.
         25    1    1    2    0    0 -0.73310046751E+02 -0.18526968491E+02 -0.32537177520E+03  0.35666427297E+03  0.12500000000E+03 0.  0.
</event>
<event>
 5    0  0.6302262E-005  0.2998982E+03  0.7546771E-02  0.1085292E+00
         21   -1    0    0  502  501  0.00000000000E+00  0.00000000000E+00  0.12701207681E+03  0.12701207681E+03  0.00000000000E+00 0.  1.
         21   -1    0    0  501  502 -0.00000000000E+00 -0.00000000000E+00 -0.70811298851E+03  0.70811298851E+03  0.00000000000E+00 0.  1.
         25    1    1    2    0    0  0.64861080320E+02  0.87865575630E+02 -0.16845530330E+03  0.23649420359E+03  0.12500000000E+03 0.  0.
         25    1    1    2    0    0 -0.94653097134E+02  0.83130059039E+02 -0.31919040664E+03  0.36520861326E+03  0.12500000000E+03 0.  0.
         25    1    1    2    0    0  0.29792016814E+02 -0.17099563467E+03 -0.93455201776E+02  0.23342224847E+03  0.12500000000E+03 0.  0.
</event>
<event>
 5    0  0.5605075E-005  0.3675173E+03  0.7546771E-02  0.1055646E+00
         21   -1    0    0  502  501  0.00000000000E+00  0.00000000000E+00  0.11438633857E+04  0.11438633857E+04  0.00000000000E+00 0.  1.
         21   -1    0    0  501  502 -0.00000000000E+00 -0.00000000000E+00 -0.11808139187E+03  0.11808139187E+03  0.00000000000E+00 0.  1.
         25    1    1    2    0    0 -0.22688777154E+03  0.40651170340E+02  0.28458718751E+03  0.38696956704E+03  0.12500000000E+03 0.  0.
         25    1    1    2    0    0  0.19332824689E+02 -0.14845960935E+03  0.25354352876E+03  0.31988018803E+03  0.12500000000E+03 0.  0.
         25    1    1    2    0    0  0.20755494685E+03  0.10780843901E+03  0.48765127754E+03  0.55509502247E+03  0.12500000000E+03 0.  0.
</event>
<event>
 5    0  0.5605075E-005  0.2215645E+03  0.7546771E-02  0.1132722E+00
         21   -1    0    0  502  501  0.00000000000E+00  0.00000000000E+00  0.36744592237E+03  0.36744592237E+03  0.00000000000E+00 0. -1.
         21   -1    0    0  501  502 -0.00000000000E+00 -0.00000000000E+00 -0.13360018350E+03  0.13360018350E+03  0.00000000000E+00 0. -1.
         25    1    1    2    0    0 -0.42477879283E+02  0.30326181851E+02  0.25772690015E+02  0.13788864741E+03  0.12500000000E+03 0.  0.
         25    1    1    2    0    0  0.36293826244E+02  0.30147659112E+02  0.17518862249E+03  0.22032289174E+03  0.12500000000E+03 0.  0.
         25    1    1    2    0    0  0.61840530382E+01 -0.60473840963E+02  0.32884426368E+02  0.14283456672E+03  0.12500000000E+03 0.  0.
</event>
<event>
 5    0  0.5605075E-005  0.3758049E+03  0.7546771E-02  0.1052495E+00
         21   -1    0    0  502  501  0.00000000000E+00  0.00000000000E+00  0.20345662677E+03  0.20345662677E+03  0.00000000000E+00 0. -1.
         21   -1    0    0  501  502 -0.00000000000E+00 -0.00000000000E+00 -0.69414958579E+03  0.69414958579E+03  0.00000000000E+00 0. -1.
         25    1    1    2    0    0  0.10505187910E+03  0.23453821863E+02 -0.60861745606E+02  0.17582699207E+03  0.12500000000E+03 0.  0.
         25    1    1    2    0    0 -0.19378455816E+03  0.17954232502E+03 -0.10803066105E+03  0.31158229279E+03  0.12500000000E+03 0.  0.
         25    1    1    2    0    0  0.88732679053E+02 -0.20299614688E+03 -0.32180055237E+03  0.41019692769E+03  0.12500000000E+03 0.  0.
</event>
<event>
 5    0  0.5605075E-005  0.3633287E+03  0.7546771E-02  0.1057274E+00
         21   -1    0    0  502  501  0.00000000000E+00  0.00000000000E+00  0.28511091622E+03  0.28511091622E+03  0.00000000000E+00 0. -1.
         21   -1    0    0  501  502 -0.00000000000E+00 -0.00000000000E+00 -0.46300486518E+03  0.46300486518E+03  0.00000000000E+00 0.  1.
         25    1    1    2    0    0  0.10345428874E+03 -0.32765861381E+02 -0.29983078057E+02  0.16822715744E+03  0.12500000000E+03 0.  0.
         25    1    1    2    0    0  0.37870515480E+02 -0.15311494952E+02  0.16521665296E+03  0.21116382322E+03  0.12500000000E+03 0.  0.
         25    1    1    2    0    0 -0.14132480422E+03  0.48077356333E+02 -0.31312752387E+03  0.36872480074E+03  0.12500000000E+03 0.  0.
</event>
<event>
 5    0  0.5605075E-005  0.2961600E+03  0.7546771E-02  0.1087176E+00
         21   -1    0    0  502  501  0.00000000000E+00  0.00000000000E+00  0.14764922875E+03  0.14764922875E+03  0.00000000000E+00 0. -1.
         21   -1    0    0  501  502 -0.00000000000E+00 -0.00000000000E+00 -0.59404803589E+03  0.59404803589E+03  0.00000000000E+00 0. -1.
         25    1    1    2    0    0  0.42272580737E+02 -0.90233696244E+02 -0.23738837586E+03  0.28619457020E+03  0.12500000000E+03 0.  0.
         25    1    1    2    0    0 -0.13368968167E+03  0.66099842890E+02 -0.42428551863E+00  0.19459522151E+03  0.12500000000E+03 0.  0.
         25    1    1    2    0    0  0.91417100938E+02  0.24133853354E+02 -0.20858614577E+03  0.26090747292E+03  0.12500000000E+03 0.  0.
</event>
<event>
 5    0  0.5605075E-005  0.4960140E+03  0.7546771E-02  0.1014825E+00
         21   -1    0    0  502  501  0.00000000000E+00  0.00000000000E+00  0.18581195594E+03  0.18581195594E+03  0.00000000000E+00 0.  1.
         21   -1    0    0  501  502 -0.00000000000E+00 -0.00000000000E+00 -0.13240802009E+04  0.13240802009E+04  0.00000000000E+00 0.  1.
         25    1    1    2    0    0 -0.51376764772E+02  0.73232417129E+02  0.10623296464E+03  0.18685021181E+03  0.12500000000E+03 0.  0.
         25    1    1    2    0    0  0.15864617129E+03 -0.62637181811E+02 -0.10347392877E+04  0.10561261372E+04  0.12500000000E+03 0.  0.
         25    1    1    2    0    0 -0.10726940652E+03 -0.10595235318E+02 -0.20976192190E+03  0.26691580782E+03  0.12500000000E+03 0.  0.
</event>
<event>
 5    0  0.5605075E-005  0.3184514E+03  0.7546771E-02  0.1076364E+00
         21   -1    0    0  502  501  0.00000000000E+00  0.00000000000E+00  0.17888923069E+03  0.17888923069E+03  0.00000000000E+00 0.  1.
         21   -1    0    0  501  502 -0.00000000000E+00 -0.00000000000E+00 -0.56689447106E+03  0.56689447106E+03  0.00000000000E+00 0.  1.
         25    1    1    2    0    0 -0.63057277414E+02 -0.11239895528E+02 -0.15951999566E+03  0.21254219464E+03  0.12500000000E+03 0.  0.
         25    1    1    2    0    0  0.58598002913E+01 -0.19610297804E+03 -0.12140935938E+03  0.26240416880E+03  0.12500000000E+03 0.  0.
         25    1    1    2    0    0  0.57197477123E+02  0.20734287357E+03 -0.10707588532E+03  0.27083733832E+03  0.12500000000E+03 0.  0.
</event>
<event>
 5    0  0.5605075E-005  0.2596739E+03  0.7546771E-02  0.1107339E+00
         21   -1    0    0  502  501  0.00000000000E+00  0.00000000000E+00  0.28884870396E+03  0.28884870396E+03  0.00000000000E+00 0. -1.
         21   -1    0    0  501  502 -0.00000000000E+00 -0.00000000000E+00 -0.23344594134E+03  0.23344594134E+03  0.00000000000E+00 0. -1.
         25    1    1    2    0    0  0.75446239012E+02  0.15743796502E+02 -0.41723902087E+02  0.15266265462E+03  0.12500000000E+03 0.  0.
         25    1    1    2    0    0 -0.10162720788E+03  0.62598281997E+02  0.12996834927E+03  0.21624848231E+03  0.12500000000E+03 0.  0.
         25    1    1    2    0    0  0.26180968864E+02 -0.78342078499E+02 -0.32841684569E+02  0.15338350837E+03  0.12500000000E+03 0.  0.
</event>
<event>
 5    0  0.5605075E-005  0.2985808E+03  0.7546771E-02  0.1085952E+00
         21   -1    0    0  502  501  0.00000000000E+00  0.00000000000E+00  0.43513960361E+03  0.43513960361E+03  0.00000000000E+00 0. -1.
         21   -1    0    0  501  502 -0.00000000000E+00 -0.00000000000E+00 -0.20487794036E+03  0.20487794036E+03  0.00000000000E+00 0. -1.
         25    1    1    2    0    0  0.76588349441E+02  0.62230095201E+02  0.12623767752E+03  0.20322231975E+03  0.12500000000E+03 0.  0.
         25    1    1    2    0    0 -0.80710849246E+02  0.10843845108E+03 -0.29695851450E+02  0.18649392069E+03  0.12500000000E+03 0.  0.
         25    1    1    2    0    0  0.41224998050E+01 -0.17066854629E+03  0.13371983718E+03  0.25030130353E+03  0.12500000000E+03 0.  0.
</event>
<event>
 5    0  0.5605075E-005  0.2535033E+03  0.7546771E-02  0.1111111E+00
         21   -1    0    0  502  501  0.00000000000E+00  0.00000000000E+00  0.18227782128E+02  0.18227782128E+02  0.00000000000E+00 0.  1.
         21   -1    0    0  501  502 -0.00000000000E+00 -0.00000000000E+00 -0.35256032512E+04  0.35256032512E+04  0.00000000000E+00 0.  1.
         25    1    1    2    0    0 -0.43717991799E+02  0.11492210195E+03 -0.71396997984E+03  0.73518466010E+03  0.12500000000E+03 0.  0.
         25    1    1    2    0    0  0.49319197815E+02 -0.50748552949E+02 -0.10857011032E+04  0.10951619443E+04  0.12500000000E+03 0.  0.
         25    1    1    2    0    0 -0.56012060158E+01 -0.64173549003E+02 -0.17077043861E+04  0.17134844289E+04  0.12500000000E+03 0.  0.
</event>
<event>
 5    0  0.5605075E-005  0.3639333E+03  0.7546771E-02  0.1057037E+00
         21   -1    0    0  502  501  0.00000000000E+00  0.00000000000E+00  0.67781906134E+02  0.67781906134E+02  0.00000000000E+00 0. -1.
         21   -1    0    0  501  502 -0.00000000000E+00 -0.00000000000E+00 -0.19540240268E+04  0.19540240268E+04  0.00000000000E+00 0. -1.
         25    1    1    2    0    0 -0.99141868178E+02 -0.15257151752E+03 -0.71562826753E+03  0.74890319486E+03  0.12500000000E+03 0.  0.
         25    1    1    2    0    0  0.16172564124E+02 -0.10573460373E+03 -0.20913601180E+03  0.26609064186E+03  0.12500000000E+03 0.  0.
         25    1    1    2    0    0  0.82969304053E+02  0.25830612125E+03 -0.96147784130E+03  0.10068120962E+04  0.12500000000E+03 0.  0.
</event>
<event>
 5    0  0.5605075E-005  0.3225212E+03  0.7546771E-02  0.1074495E+00
         21   -1    0    0  502  501  0.00000000000E+00  0.00000000000E+00  0.54036073950E+02  0.54036073950E+02  0.00000000000E+00 0. -1.
         21   -1    0    0  501  502 -0.00000000000E+00 -0.00000000000E+00 -0.19250089456E+04  0.19250089456E+04  0.00000000000E+00 0. -1.
         25    1    1    2    0    0  0.42567119862E+02 -0.18458162486E+02 -0.13498285383E+03  0.18973147942E+03  0.12500000000E+03 0.  0.
         25    1    1    2    0    0  0.90992368611E+02 -0.11099559738E+03 -0.10654485051E+04  0.10823147189E+04  0.12500000000E+03 0.  0.
         25    1    1    2    0    0 -0.13355948847E+03  0.12945375986E+03 -0.67054151281E+03  0.70699882129E+03  0.12500000000E+03 0.  0.
</event>
<event>
 5    0  0.5605075E-005  0.2568825E+03  0.7546771E-02  0.1109031E+00
         21   -1    0    0  502  501  0.00000000000E+00  0.00000000000E+00  0.79579500479E+02  0.79579500479E+02  0.00000000000E+00 0.  1.
         21   -1    0    0  501  502 -0.00000000000E+00 -0.00000000000E+00 -0.82921633246E+03  0.82921633246E+03  0.00000000000E+00 0.  1.
         25    1    1    2    0    0 -0.10698030393E+02  0.50965036059E+02 -0.10333234410E+03  0.17033630292E+03  0.12500000000E+03 0.  0.
         25    1    1    2    0    0  0.91386209898E+02  0.59444079921E+02 -0.23807301457E+03  0.29015306006E+03  0.12500000000E+03 0.  0.
         25    1    1    2    0    0 -0.80688179505E+02 -0.11040911598E+03 -0.40823147331E+03  0.44830646996E+03  0.12500000000E+03 0.  0.
</event>
<event>
 5    0  0.5916610E-005  0.2875460E+03  0.7546771E-02  0.1091637E+00
         21   -1    0    0  502  501  0.00000000000E+00  0.00000000000E+00  0.18512562826E+03  0.18512562826E+03  0.00000000000E+00 0.  1.
         21   -1    0    0  501  502 -0.00000000000E+00 -0.00000000000E+00 -0.44663036203E+03  0.44663036203E+03  0.00000000000E+00 0.  1.
         25    1    1    2    0    0  0.81775128975E+02 -0.30042013534E+02 -0.11850537547E+03  0.19302388016E+03  0.12500000000E+03 0.  0.
         25    1    1    2    0    0  0.61128321240E+02  0.13390817346E+03 -0.10225936925E+03  0.21851784636E+03  0.12500000000E+03 0.  0.
         25    1    1    2    0    0 -0.14290345021E+03 -0.10386615993E+03 -0.40739989054E+02  0.22021426377E+03  0.12500000000E+03 0.  0.
</event>
<event>
 5    0  0.5605075E-005  0.2474670E+03  0.7546771E-02  0.1114916E+00
         21   -1    0    0  502  501  0.00000000000E+00  0.00000000000E+00  0.18674264840E+02  0.18674264840E+02  0.00000000000E+00 0.  1.
         21   -1    0    0  501  502 -0.00000000000E+00 -0.00000000000E+00 -0.32793738218E+04  0.32793738218E+04  0.00000000000E+00 0.  1.
         25    1    1    2    0    0 -0.89346635043E+02 -0.75433446499E+02 -0.76251807949E+03  0.78149334456E+03  0.12500000000E+03 0.  0.
         25    1    1    2    0    0 -0.19362748096E+02  0.48183377500E+02 -0.11708824644E+04  0.11786803211E+04  0.12500000000E+03 0.  0.
         25    1    1    2    0    0  0.10870938314E+03  0.27250068999E+02 -0.13272990131E+04  0.13378744210E+04  0.12500000000E+03 0.  0.
</event>
<event>
 5    0  0.5605075E-005  0.2460995E+03  0.7546771E-02  0.1115795E+00
         21   -1    0    0  502  501  0.00000000000E+00  0.00000000000E+00  0.26164909771E+03  0.26164909771E+03  0.00000000000E+00 0.  1.
         21   -1    0    0  501  502 -0.00000000000E+00 -0.00000000000E+00 -0.23147398519E+03  0.23147398519E+03  0.00000000000E+00 0.  1.
         25    1    1    2    0    0  0.91451037673E+02  0.70655118183E+02 -0.19181204863E+02  0.17131362070E+03  0.12500000000E+03 0.  0.
         25    1    1    2    0    0 -0.11015438135E+02  0.35302556544E+02  0.49015027601E+02  0.13926623175E+03  0.12500000000E+03 0.  0.
         25    1    1    2    0    0 -0.80435599538E+02 -0.10595767473E+03  0.34128978417E+00  0.18254323046E+03  0.12500000000E+03 0.  0.
</event>
<event>
 5    0  0.5605075E-005  0.4095410E+03  0.7546771E-02  0.1040525E+00
         21   -1    0    0  502  501  0.00000000000E+00  0.00000000000E+00  0.20737970868E+03  0.20737970868E+03  0.00000000000E+00 0.  1.
         21   -1    0    0  501  502 -0.00000000000E+00 -0.00000000000E+00 -0.80877664953E+03  0.80877664953E+03  0.00000000000E+00 0.  1.
         25    1    1    2    0    0  0.14067316355E+03  0.10922194855E+03  0.62230329793E+02  0.22630949369E+03  0.12500000000E+03 0.  0.
         25    1    1    2    0    0 -0.22740571875E+03 -0.68232578458E+02 -0.37651228494E+03  0.46233704848E+03  0.12500000000E+03 0.  0.
         25    1    1    2    0    0  0.86732555199E+02 -0.40989370094E+02 -0.28711498569E+03  0.32750981604E+03  0.12500000000E+03 0.  0.
</event>
<event>
 5    0  0.5605075E-005  0.2875712E+03  0.7546771E-02  0.1091624E+00
         21   -1    0    0  502  501  0.00000000000E+00  0.00000000000E+00  0.91126438251E+02  0.91126438251E+02  0.00000000000E+00 0. -1.
         21   -1    0    0  501  502 -0.00000000000E+00 -0.00000000000E+00 -0.90749927448E+03  0.90749927448E+03  0.00000000000E+00 0. -1.
         25    1    1    2    0    0 -0.12213542254E+03  0.76877068245E+02 -0.28074358255E+03  0.33951303981E+03  0.12500000000E+03 0.  0.
         25    1    1    2    0    0  0.18544500871E+02 -0.59236371737E+02 -0.45706095105E+03  0.47789387863E+03  0.12500000000E+03 0.  0.
         25    1    1    2    0    0  0.10359092167E+03 -0.17640696508E+02 -0.78568302626E+02  0.18121879429E+03  0.12500000000E+03 0.  0.
</event>
<event>
 5    0  0.5605075E-005  0.2369702E+03  0.7546771E-02  0.1121828E+00
         21   -1    0    0  502  501  0.00000000000E+00  0.00000000000E+00  0.60097347681E+03  0.60097347681E+03  0.00000000000E+00 0.  1.
         21   -1    0    0  501  502 -0.00000000000E+00 -0.00000000000E+00 -0.93439856142E+02  0.93439856142E+02  0.00000000000E+00 0.  1.
         25    1    1    2    0    0  0.72342725174E+01  0.71100913671E+02  0.29830801607E+02  0.14704608580E+03  0.12500000000E+03 0.  0.
         25    1    1    2    0    0  0.13143159294E+02 -0.56245773074E+02  0.28136191129E+03  0.31325046648E+03  0.12500000000E+03 0.  0.
         25    1    1    2    0    0 -0.20377431812E+02 -0.14855140597E+02  0.19634090777E+03  0.23411678067E+03  0.12500000000E+03 0.  0.
</event>
<event>
 5    0  0.5605075E-005  0.2941066E+03  0.7546771E-02  0.1088224E+00
         21   -1    0    0  502  501  0.00000000000E+00  0.00000000000E+00  0.12111979399E+03  0.12111979399E+03  0.00000000000E+00 0. -1.
         21   -1    0    0  501  502 -0.00000000000E+00 -0.00000000000E+00 -0.71415836726E+03  0.71415836726E+03  0.00000000000E+00 0. -1.
         25    1    1    2    0    0  0.82594259791E+02 -0.10581612396E+03 -0.40127309784E+03  0.44120739215E+03  0.12500000000E+03 0.  0.
         25    1    1    2    0    0  0.41693776204E+02  0.89412276584E+02 -0.13318091628E+03  0.20759355154E+03  0.12500000000E+03 0.  0.
         25    1    1    2    0    0 -0.12428803600E+03  0.16403847377E+02 -0.58584559145E+02  0.18647721756E+03  0.12500000000E+03 0.  0.
</event>
<event>
 5    0  0.5605075E-005  0.3163113E+03  0.7546771E-02  0.1077360E+00
         21   -1    0    0  502  501  0.00000000000E+00  0.00000000000E+00  0.57041815842E+03  0.57041815842E+03  0.00000000000E+00 0.  1.
         21   -1    0    0  501  502 -0.00000000000E+00 -0.00000000000E+00 -0.17540263824E+03  0.17540263824E+03  0.00000000000E+00 0.  1.
         25    1    1    2    0    0  0.17889386149E+03  0.55241893744E+02  0.10582816801E+03  0.24875546556E+03  0.12500000000E+03 0.  0.
         25    1    1    2    0    0 -0.12813848082E+03  0.84344194856E+02  0.20666161112E+03  0.28612485908E+03  0.12500000000E+03 0.  0.
         25    1    1    2    0    0 -0.50755380674E+02 -0.13958608860E+03  0.82525741049E+02  0.21094047201E+03  0.12500000000E+03 0.  0.
</event>
<event>
 5    0  0.5605075E-005  0.3117072E+03  0.7546771E-02  0.1079530E+00
         21   -1    0    0  502  501  0.00000000000E+00  0.00000000000E+00  0.68398715830E+03  0.68398715830E+03  0.00000000000E+00 0.  1.
         21   -1    0    0  501  502 -0.00000000000E+00 -0.00000000000E+00 -0.14205143136E+03  0.14205143136E+03  0.00000000000E+00 0.  1.
         25    1    1    2    0    0  0.37524477850E+02 -0.97021472880E+02  0.16281340448E+03  0.23011835502E+03  0.12500000000E+03 0.  0.
         25    1    1    2    0    0 -0.23974202816E+02 -0.13551717347E+03  0.98517931428E+02  0.21040544080E+03  0.12500000000E+03 0.  0.
         25    1    1    2    0    0 -0.13550275034E+02  0.23253864635E+03  0.28060439103E+03  0.38551479384E+03  0.12500000000E+03 0.  0.
</event>
<event>
 5    0  0.5605075E-005  0.2800369E+03  0.7546771E-02  0.1095669E+00
         21   -1    0    0  502  501  0.00000000000E+00  0.00000000000E+00  0.11703959160E+03  0.11703959160E+03  0.00000000000E+00 0.  1.
         21   -1    0    0  501  502 -0.00000000000E+00 -0.00000000000E+00 -0.67003534701E+03  0.67003534701E+03  0.00000000000E+00 0.  1.
         25    1    1    2    0    0 -0.90529445052E+02 -0.12297380705E+03 -0.37552073056E+03  0.42421569599E+03  0.12500000000E+03 0.  0.
         25    1    1    2    0    0 -0.11813267626E+02  0.77209705857E+02 -0.67325169548E+02  0.16204496421E+03  0.12500000000E+03 0.  0.
         25    1    1    2    0    0  0.10234271268E+03  0.45764101190E+02 -0.11014985530E+03  0.20081427842E+03  0.12500000000E+03 0.  0.
</event>
<event>
 5    0  0.5605075E-005  0.3394034E+03  0.7546771E-02  0.1067050E+00
         21   -1    0    0  502  501  0.00000000000E+00  0.00000000000E+00  0.51071651383E+03  0.51071651383E+03  0.00000000000E+00 0. -1.
         21   -1    0    0  501  502 -0.00000000000E+00 -0.00000000000E+00 -0.22555505336E+03  0.22555505336E+03  0.00000000000E+00 0. -1.
         25    1    1    2    0    0 -0.10759380723E+03  0.93621670972E+02  0.23151024409E+03  0.29927151176E+03  0.12500000000E+03 0.  0.
         25    1    1    2    0    0  0.73066307914E+02  0.38893605429E+02 -0.11297111816E+03  0.18772019453E+03  0.12500000000E+03 0.  0.
         25    1    1    2    0    0  0.34527499315E+02 -0.13251527640E+03  0.16662233454E+03  0.24927986091E+03  0.12500000000E+03 0.  0.
</event>
<event>
 5    0  0.5605075E-005  0.3203401E+03  0.7546771E-02  0.1075493E+00
         21   -1    0    0  502  501  0.00000000000E+00  0.00000000000E+00  0.14752821684E+03  0.14752821684E+03  0.00000000000E+00 0.  1.
         21   -1    0    0  501  502 -0.00000000000E+00 -0.00000000000E+00 -0.69558086881E+03  0.69558086881E+03  0.00000000000E+00 0.  1.
         25    1    1    2    0    0 -0.67805089364E+02  0.12468467361E+03  0.11374695418E+02  0.18946815477E+03  0.12500000000E+03 0.  0.
         25    1    1    2    0    0  0.12094255541E+03 -0.69286950739E+02 -0.26214480032E+03  0.32213767180E+03  0.12500000000E+03 0.  0.
         25    1    1    2    0    0 -0.53137466051E+02 -0.55397722872E+02 -0.29728254706E+03  0.33150325908E+03  0.12500000000E+03 0.  0.
</event>
<event>
 5    0  0.6094033E-005  0.2581004E+03  0.7546771E-02  0.1108290E+00
         21   -1    0    0  502  501  0.00000000000E+00  0.00000000000E+00  0.41252896034E+03  0.41252896034E+03  0.00000000000E+00 0.  1.
         21   -1    0    0  501  502 -0.00000000000E+00 -0.00000000000E+00 -0.16148151063E+03  0.16148151063E+03  0.00000000000E+00 0.  1.
         25    1    1    2    0    0 -0.12737182738E+03  0.70886233625E+02  0.40315300923E+02  0.19621101910E+03  0.12500000000E+03 0.  0.
         25    1    1    2    0    0  0.85532754967E+02  0.13708207567E+02  0.13698716611E+03  0.20468085110E+03  0.12500000000E+03 0.  0.
         25    1    1    2    0    0  0.41839072413E+02 -0.84594441192E+02  0.73744982677E+02  0.17311860077E+03  0.12500000000E+03 0.  0.
</event>
<event>
 5    0  0.5605075E-005  0.3821570E+03  0.7546771E-02  0.1050139E+00
         21   -1    0    0  502  501  0.00000000000E+00  0.00000000000E+00  0.13259622586E+03  0.13259622586E+03  0.00000000000E+00 0.  1.
         21   -1    0    0  501  502 -0.00000000000E+00 -0.00000000000E+00 -0.11014187878E+04  0.11014187878E+04  0.00000000000E+00 0.  1.
         25    1    1    2    0    0  0.42259574758E+02  0.14253928992E+03 -0.76866931712E+03  0.79283090247E+03  0.12500000000E+03 0.  0.
         25    1    1    2    0    0 -0.69817715069E+02  0.57275546320E+02 -0.59203773107E+02  0.16518198538E+03  0.12500000000E+03 0.  0.
         25    1    1    2    0    0  0.27558140311E+02 -0.19981483624E+03 -0.14094947171E+03  0.27600212582E+03  0.12500000000E+03 0.  0.
</event>
<event>
 5    0  0.5605075E-005  0.2683012E+03  0.7546771E-02  0.1102256E+00
         21   -1    0    0  502  501  0.00000000000E+00  0.00000000000E+00  0.22369523970E+03  0.22369523970E+03  0.00000000000E+00 0.  1.
         21   -1    0    0  501  502 -0.00000000000E+00 -0.00000000000E+00 -0.32180181296E+03  0.32180181296E+03  0.00000000000E+00 0.  1.
         25    1    1    2    0    0  0.14580721029E+02  0.33998288263E+02 -0.10773647179E+03  0.16911720310E+03  0.12500000000E+03 0.  0.
         25    1    1    2    0    0 -0.98433593206E+02  0.73291297326E+02  0.59368770451E+02  0.18496063754E+03  0.12500000000E+03 0.  0.
         25    1    1    2    0    0  0.83852872177E+02 -0.10728958559E+03 -0.49738871914E+02  0.19141921201E+03  0.12500000000E+03 0.  0.
</event>
<event>
 5    0  0.5605075E-005  0.3783403E+03  0.7546771E-02  0.1051549E+00
         21   -1    0    0  502  501  0.00000000000E+00  0.00000000000E+00  0.43729398954E+03  0.43729398954E+03  0.00000000000E+00 0.  1.
         21   -1    0    0  501  502 -0.00000000000E+00 -0.00000000000E+00 -0.32733440172E+03  0.32733440172E+03  0.00000000000E+00 0.  1.
         25    1    1    2    0    0 -0.40392562853E+02  0.76323582050E+02  0.21652256656E+03  0.26450684327E+03  0.12500000000E+03 0.  0.
         25    1    1    2    0    0  0.16133263441E+03  0.33608713972E+02  0.80584577280E+02  0.22198341982E+03  0.12500000000E+03 0.  0.
         25    1    1    2    0    0 -0.12094007156E+03 -0.10993229602E+03 -0.18714755601E+03  0.27813812817E+03  0.12500000000E+03 0.  0.
</event>
<event>
 5    0  0.5605075E-005  0.2232681E+03  0.7546771E-02  0.1131470E+00
         21   -1    0    0  502  501  0.00000000000E+00  0.00000000000E+00  0.42331570759E+03  0.42331570759E+03  0.00000000000E+00 0.  1.
         21   -1    0    0  501  502 -0.00000000000E+00 -0.00000000000E+00 -0.11775762487E+03  0.11775762487E+03  0.00000000000E+00 0.  1.
         25    1    1    2    0    0  0.10741046258E+03  0.39769434806E+02  0.13141697876E+03  0.21450882901E+03  0.12500000000E+03 0.  0.
         25    1    1    2    0    0 -0.62124253173E+02 -0.31130497634E+02  0.91716121381E+02  0.16989813900E+03  0.12500000000E+03 0.  0.
         25    1    1    2    0    0 -0.45286209403E+02 -0.86389371715E+01  0.82424982575E+02  0.15666636445E+03  0.12500000000E+03 0.  0.
</event>
<event>
 5    0  0.5605075E-005  0.2462002E+03  0.7546771E-02  0.1115730E+00
         21   -1    0    0  502  501  0.00000000000E+00  0.00000000000E+00  0.52633662719E+02  0.52633662719E+02  0.00000000000E+00 0.  1.
         21   -1    0    0  501  502 -0.00000000000E+00 -0.00000000000E+00 -0.11516304019E+04  0.11516304019E+04  0.00000000000E+00 0.  1.
         25    1    1    2    0    0  0.49839293188E+02  0.35312092618E+02 -0.45446882272E+03  0.47528708151E+03  0.12500000000E+03 0.  0.
         25    1    1    2    0    0 -0.19828576813E+02  0.64768874386E+02 -0.14298795703E+03  0.20164011358E+03  0.12500000000E+03 0.  0.
         25    1    1    2    0    0 -0.30010716375E+02 -0.10008096700E+03 -0.50153995939E+03  0.52733686949E+03  0.12500000000E+03 0.  0.
</event>
<event>
 5    0  0.5605075E-005  0.2987790E+03  0.7546771E-02  0.1085853E+00
         21   -1    0    0  502  501  0.00000000000E+00  0.00000000000E+00  0.40788169198E+03  0.40788169198E+03  0.00000000000E+00 0. -1.
         21   -1    0    0  501  502 -0.00000000000E+00 -0.00000000000E+00 -0.21885979252E+03  0.21885979252E+03  0.00000000000E+00 0. -1.
         25    1    1    2    0    0 -0.29203188564E+02 -0.99536028631E+02  0.55502827084E+02  0.17165608359E+03  0.12500000000E+03 0.  0.
         25    1    1    2    0    0  0.13594272052E+03  0.46490729443E+02  0.19422180184E+03  0.27200904304E+03  0.12500000000E+03 0.  0.
         25    1    1    2    0    0 -0.10673953196E+03  0.53045299188E+02 -0.60702729464E+02  0.18307635788E+03  0.12500000000E+03 0.  0.
</event>
<event>
 5    0  0.5605075E-005  0.2594364E+03  0.7546771E-02  0.1107482E+00
         21   -1    0    0  502  501  0.00000000000E+00  0.00000000000E+00  0.10595385708E+04  0.10595385708E+04  0.00000000000E+00 0.  1.
         21   -1    0    0  501  502 -0.00000000000E+00 -0.00000000000E+00 -0.63525062693E+02  0.63525062693E+02  0.00000000000E+00 0.  1.
         25    1    1    2    0    0 -0.46107089970E+02  0.75355669517E+02  0.28861599503E+03  0.32669333214E+03  0.12500000000E+03 0.  0.
         25    1    1    2    0    0  0.41067988198E+02 -0.13484382604E+03  0.57372621314E+03  0.60386770465E+03  0.12500000000E+03 0.  0.
         25    1    1    2    0    0  0.50391017714E+01  0.59488156522E+02  0.13367129994E+03  0.19250259671E+03  0.12500000000E+03 0.  0.
</event>
<event>
 5    0  0.5605075E-005  0.2969985E+03  0.7546771E-02  0.1086751E+00
         21   -1    0    0  502  501  0.00000000000E+00  0.00000000000E+00  0.70381795576E+03  0.70381795576E+03  0.00000000000E+00 0.  1.
         21   -1    0    0  501  502 -0.00000000000E+00 -0.00000000000E+00 -0.12532802380E+03  0.12532802380E+03  0.00000000000E+00 0.  1.
         25    1    1    2    0    0 -0.56040808594E+02 -0.10039332087E+03  0.10641358565E+03  0.20042016444E+03  0.12500000000E+03 0.  0.
         25    1    1    2    0    0  0.15573902081E+03  0.31445274807E+01  0.35689495834E+03  0.40897865708E+03  0.12500000000E+03 0.  0.
         25    1    1    2    0    0 -0.99698212212E+02  0.97248793386E+02  0.11518138797E+03  0.21974715804E+03  0.12500000000E+03 0.  0.
</event>
<event>
 5    0  0.5605075E-005  0.2446579E+03  0.7546771E-02  0.1116728E+00
         21   -1    0    0  502  501  0.00000000000E+00  0.00000000000E+00  0.68695878607E+02  0.68695878607E+02  0.00000000000E+00 0.  1.
         21   -1    0    0  501  502 -0.00000000000E+00 -0.00000000000E+00 -0.87134011882E+03  0.87134011882E+03  0.00000000000E+00 0.  1.
         25    1    1    2    0    0  0.63726434573E+02  0.61364539168E+01 -0.11250542471E+03  0.17994772885E+03  0.12500000000E+03 0.  0.
         25    1    1    2    0    0 -0.47728720533E+02 -0.49657694510E+02 -0.16439456057E+03  0.21770275362E+03  0.12500000000E+03 0.  0.
         25    1    1    2    0    0 -0.15997714040E+02  0.43521240593E+02 -0.52574425494E+03  0.54238551496E+03  0.12500000000E+03 0.  0.
</event>
<event>
 5    0  0.5605075E-005  0.2191770E+03  0.7546771E-02  0.1134498E+00
         21   -1    0    0  502  501  0.00000000000E+00  0.00000000000E+00  0.18175753298E+03  0.18175753298E+03  0.00000000000E+00 0. -1.
         21   -1    0    0  501  502 -0.00000000000E+00 -0.00000000000E+00 -0.26430034472E+03  0.26430034472E+03  0.00000000000E+00 0. -1.
         25    1    1    2    0    0  0.39250039435E+02  0.21048510549E+02 -0.22387829637E+02  0.13457273241E+03  0.12500000000E+03 0.  0.
         25    1    1    2    0    0 -0.24713099635E+02 -0.10341985365E+02 -0.11671260182E+03  0.17310264406E+03  0.12500000000E+03 0.  0.
         25    1    1    2    0    0 -0.14536939800E+02 -0.10706525184E+02  0.56557619716E+02  0.13838250124E+03  0.12500000000E+03 0.  0.
</event>
<event>
 5    0  0.5605075E-005  0.3183519E+03  0.7546771E-02  0.1076410E+00
         21   -1    0    0  502  501  0.00000000000E+00  0.00000000000E+00  0.38045491212E+02  0.38045491212E+02  0.00000000000E+00 0. -1.
         21   -1    0    0  501  502 -0.00000000000E+00 -0.00000000000E+00 -0.26638611232E+04  0.26638611232E+04  0.00000000000E+00 0. -1.
         25    1    1    2    0    0  0.11579573386E+03 -0.11867841328E+03 -0.59468555221E+03  0.62989612141E+03  0.12500000000E+03 0.  0.
         25    1    1    2    0    0 -0.24164885967E+02 -0.46336891227E+02 -0.34333544299E+03  0.36910063075E+03  0.12500000000E+03 0.  0.
         25    1    1    2    0    0 -0.91630847893E+02  0.16501530451E+03 -0.16877946368E+04  0.17029098623E+04  0.12500000000E+03 0.  0.
</event>
<event>
 5    0  0.5605075E-005  0.2147719E+03  0.7546771E-02  0.1137842E+00
         21   -1    0    0  502  501  0.00000000000E+00  0.00000000000E+00  0.19101059555E+03  0.19101059555E+03  0.00000000000E+00 0.  1.
         21   -1    0    0  501  502 -0.00000000000E+00 -0.00000000000E+00 -0.24148906817E+03  0.24148906817E+03  0.00000000000E+00 0.  1.
         25    1    1    2    0    0  0.12758492147E+02 -0.52948826916E+02 -0.85650846356E+02  0.16101995179E+03  0.12500000000E+03 0.  0.
         25    1    1    2    0    0  0.55608133985E+01 -0.87923884060E+01  0.37259799943E+02  0.13084923168E+03  0.12500000000E+03 0.  0.
         25    1    1    2    0    0 -0.18319305545E+02  0.61741215322E+02 -0.20874262022E+01  0.14063048024E+03  0.12500000000E+03 0.  0.
</event>
<event>
 5    0  0.5605075E-005  0.3989180E+03  0.7546771E-02  0.1044155E+00
         21   -1    0    0  502  501  0.00000000000E+00  0.00000000000E+00  0.76069467178E+03  0.76069467178E+03  0.00000000000E+00 0.  1.
         21   -1    0    0  501  502 -0.00000000000E+00 -0.00000000000E+00 -0.20919772964E+03  0.20919772964E+03  0.00000000000E+00 0.  1.
         25    1    1    2    0    0  0.10737709636E+03  0.46418001900E+02  0.24154840639E+03  0.29606604728E+03  0.12500000000E+03 0.  0.
         25    1    1    2    0    0  0.14469010505E+03 -0.31527503603E+02 -0.65372005102E+02  0.20451823644E+03  0.12500000000E+03 0.  0.
         25    1    1    2    0    0 -0.25206720141E+03 -0.14890498298E+02  0.37532054085E+03  0.46930811771E+03  0.12500000000E+03 0.  0.
</event>
<event>
 5    0  0.5605075E-005  0.4542701E+03  0.7546771E-02  0.1026456E+00
         21   -1    0    0  502  501  0.00000000000E+00  0.00000000000E+00  0.39375329119E+03  0.39375329119E+03  0.00000000000E+00 0.  1.
         21   -1    0    0  501  502 -0.00000000000E+00 -0.00000000000E+00 -0.52408782878E+03  0.52408782878E+03  0.00000000000E+00 0.  1.
         25    1    1    2    0    0  0.32123860251E+03 -0.12421644472E+02 -0.16104815945E+03  0.38067052244E+03  0.12500000000E+03 0.  0.
         25    1    1    2    0    0 -0.34124312705E+03  0.18473893161E+02 -0.75709013766E+02  0.37167863976E+03  0.12500000000E+03 0.  0.
         25    1    1    2    0    0  0.20004524544E+02 -0.60522486891E+01  0.10642263563E+03  0.16549195778E+03  0.12500000000E+03 0.  0.
</event>
<event>
 5    0  0.5605075E-005  0.2610851E+03  0.7546771E-02  0.1106493E+00
         21   -1    0    0  502  501  0.00000000000E+00  0.00000000000E+00  0.87155549878E+02  0.87155549878E+02  0.00000000000E+00 0.  1.
         21   -1    0    0  501  502 -0.00000000000E+00 -0.00000000000E+00 -0.78211231768E+03  0.78211231768E+03  0.00000000000E+00 0.  1.
         25    1    1    2    0    0 -0.84227994503E+02  0.50656623682E+02 -0.42843758919E+03  0.45699476629E+03  0.12500000000E+03 0.  0.
         25    1    1    2    0    0  0.24334397946E+02 -0.89107035939E+02 -0.74517326460E+02  0.17236606023E+03  0.12500000000E+03 0.  0.
         25    1    1    2    0    0  0.59893596556E+02  0.38450412257E+02 -0.19200185215E+03  0.23990704104E+03  0.12500000000E+03 0.  0.
</event>
<event>
 5    0  0.5605075E-005  0.3871250E+03  0.7546771E-02  0.1048331E+00
         21   -1    0    0  502  501  0.00000000000E+00  0.00000000000E+00  0.19943585352E+03  0.19943585352E+03  0.00000000000E+00 0. -1.
         21   -1    0    0  501  502 -0.00000000000E+00 -0.00000000000E+00 -0.75144850506E+03  0.75144850506E+03  0.00000000000E+00 0. -1.
         25    1    1    2    0    0  0.41190664698E+02  0.19748211724E+03 -0.17537990174E+03  0.29509145603E+03  0.12500000000E+03 0.  0.
         25    1    1    2    0    0 -0.20962061861E+03 -0.15744673613E+03 -0.10181634998E+03  0.30776914658E+03  0.12500000000E+03 0.  0.
         25    1    1    2    0    0  0.16842995391E+03 -0.40035381111E+02 -0.27481639981E+03  0.34802375597E+03  0.12500000000E+03 0.  0.
</event>
<event>
 5    0  0.5605075E-005  0.5886028E+03  0.7546771E-02  0.9929338E-01
         21   -1    0    0  502  501  0.00000000000E+00  0.00000000000E+00  0.18018138444E+04  0.18018138444E+04  0.00000000000E+00 0. -1.
         21   -1    0    0  501  502 -0.00000000000E+00 -0.00000000000E+00 -0.19228024758E+03  0.19228024758E+03  0.00000000000E+00 0. -1.
         25    1    1    2    0    0  0.28586534434E+03  0.57853152689E+02  0.10663852313E+04  0.11125953639E+04  0.12500000000E+03 0.  0.
         25    1    1    2    0    0 -0.33076559892E+02  0.15992238505E+03  0.47653777725E+03  0.51902069439E+03  0.12500000000E+03 0.  0.
         25    1    1    2    0    0 -0.25278878445E+03 -0.21777553774E+03  0.66610588254E+02  0.36247803361E+03  0.12500000000E+03 0.  0.
</event>
<event>
 5    0  0.5605075E-005  0.3019828E+03  0.7546771E-02  0.1084254E+00
         21   -1    0    0  502  501  0.00000000000E+00  0.00000000000E+00  0.12207527774E+03  0.12207527774E+03  0.00000000000E+00 0. -1.
         21   -1    0    0  501  502 -0.00000000000E+00 -0.00000000000E+00 -0.74702761794E+03  0.74702761794E+03  0.00000000000E+00 0. -1.
         25    1    1    2    0    0  0.37948683219E+02  0.12728095523E+03 -0.40004841671E+03  0.43966382594E+03  0.12500000000E+03 0.  0.
         25    1    1    2    0    0 -0.80137687023E+02 -0.11379627182E+02 -0.63200749077E+01  0.14905196457E+03  0.12500000000E+03 0.  0.
         25    1    1    2    0    0  0.42189003804E+02 -0.11590132805E+03 -0.21858384858E+03  0.28038710517E+03  0.12500000000E+03 0.  0.
</event>
<event>
 5    0  0.5605075E-005  0.3537575E+03  0.7546771E-02  0.1061083E+00
         21   -1    0    0  502  501  0.00000000000E+00  0.00000000000E+00  0.91885617433E+03  0.91885617433E+03  0.00000000000E+00 0. -1.
         21   -1    0    0  501  502 -0.00000000000E+00 -0.00000000000E+00 -0.13619579896E+03  0.13619579896E+03  0.00000000000E+00 0. -1.
         25    1    1    2    0    0  0.49047718080E+02 -0.22739815450E+03  0.26561156142E+03  0.37455320166E+03  0.12500000000E+03 0.  0.
         25    1    1    2    0    0  0.37501567865E+02  0.15793475575E+03  0.46053080560E+03  0.50404699937E+03  0.12500000000E+03 0.  0.
         25    1    1    2    0    0 -0.86549285945E+02  0.69463398741E+02  0.56518008351E+02  0.17645177225E+03  0.12500000000E+03 0.  0.
</event>
<event>
 5    0  0.6097307E-005  0.5352610E+03  0.7546771E-02  0.1004964E+00
         21   -1    0    0  502  501  0.00000000000E+00  0.00000000000E+00  0.27529352513E+03  0.27529352513E+03  0.00000000000E+00 0. -1.
         21   -1    0    0  501  502 -0.00000000000E+00 -0.00000000000E+00 -0.10407232580E+04  0.10407232580E+04  0.00000000000E+00 0. -1.
         25    1    1    2    0    0 -0.10259864419E+03  0.19008067159E+03 -0.54649480016E+03  0.60078174914E+03  0.12500000000E+03 0.  0.
         25    1    1    2    0    0 -0.11828943341E+03 -0.33560005826E+03 -0.18690376514E+03  0.42092494175E+03  0.12500000000E+03 0.  0.
         25    1    1    2    0    0  0.22088807760E+03  0.14551938667E+03 -0.32031167615E+02  0.29431009229E+03  0.12500000000E+03 0.  0.
</event>
<event>
 5    0  0.5605075E-005  0.3215536E+03  0.7546771E-02  0.1074937E+00
         21   -1    0    0  502  501  0.00000000000E+00  0.00000000000E+00  0.10507963646E+04  0.10507963646E+04  0.00000000000E+00 0.  1.
         21   -1    0    0  501  502 -0.00000000000E+00 -0.00000000000E+00 -0.98398405232E+02  0.98398405232E+02  0.00000000000E+00 0.  1.
         25    1    1    2    0    0  0.15747462719E+03 -0.12343812160E+02  0.21567242371E+03  0.29511052550E+03  0.12500000000E+03 0.  0.
         25    1    1    2    0    0 -0.20492212376E+02 -0.57846500253E+02  0.59315500231E+03  0.60928154832E+03  0.12500000000E+03 0.  0.
         25    1    1    2    0    0 -0.13698241482E+03  0.70190312414E+02  0.14357053332E+03  0.24480269599E+03  0.12500000000E+03 0.  0.
</event>
<event>
 5    0  0.5605075E-005  0.2618524E+03  0.7546771E-02  0.1106035E+00
         21   -1    0    0  502  501  0.00000000000E+00  0.00000000000E+00  0.75825933084E+03  0.75825933084E+03  0.00000000000E+00 0. -1.
         21   -1    0    0  501  502 -0.00000000000E+00 -0.00000000000E+00 -0.90426404269E+02  0.90426404269E+02  0.00000000000E+00 0. -1.
         25    1    1    2    0    0 -0.93604204429E+02 -0.54272072987E+02  0.30150277718E+03  0.34385480896E+03  0.12500000000E+03 0.  0.
         25    1    1    2    0    0  0.61020836504E+01 -0.36270336449E+02  0.45144099677E+02  0.13789765214E+03  0.12500000000E+03 0.  0.
         25    1    1    2    0    0  0.87502120779E+02  0.90542409436E+02  0.32118604971E+03  0.36693327401E+03  0.12500000000E+03 0.  0.
</event>
<event>
 5    0  0.5605075E-005  0.2032602E+03  0.7546771E-02  0.1147017E+00
         21   -1    0    0  502  501  0.00000000000E+00  0.00000000000E+00  0.93063818925E+03  0.93063818925E+03  0.00000000000E+00 0.  1.
         21   -1    0    0  501  502 -0.00000000000E+00 -0.00000000000E+00 -0.44393936687E+02  0.44393936687E+02  0.00000000000E+00 0.  1.
         25    1    1    2    0    0  0.86010390516E+00  0.15404752483E+02  0.14619465980E+03  0.19296612327E+03  0.12500000000E+03 0.  0.
         25    1    1    2    0    0 -0.15157137110E+02 -0.13752550029E+02  0.39325455110E+03  0.41315011001E+03  0.12500000000E+03 0.  0.
         25    1    1    2    0    0  0.14297033205E+02 -0.16522024543E+01  0.34679504166E+03  0.36891589265E+03  0.12500000000E+03 0.  0.
</event>
<event>
 5    0  0.5605075E-005  0.3230850E+03  0.7546771E-02  0.1074238E+00
         21   -1    0    0  502  501  0.00000000000E+00  0.00000000000E+00  0.48419951118E+02  0.48419951118E+02  0.00000000000E+00 0. -1.
         21   -1    0    0  501  502 -0.00000000000E+00 -0.00000000000E+00 -0.21558043041E+04  0.21558043041E+04  0.00000000000E+00 0. -1.
         25    1    1    2    0    0  0.11182051421E+03  0.35690854125E+02 -0.16146581053E+03  0.23552892060E+03  0.12500000000E+03 0.  0.
         25    1    1    2    0    0 -0.78738573723E+01  0.17381841886E+02 -0.91311509788E+03  0.92182878455E+03  0.12500000000E+03 0.  0.
         25    1    1    2    0    0 -0.10394665684E+03 -0.53072696011E+02 -0.10328034446E+04  0.10468665501E+04  0.12500000000E+03 0.  0.
</event>
<event>
 5    0  0.5605075E-005  0.2745070E+03  0.7546771E-02  0.1098728E+00
         21   -1    0    0  502  501  0.00000000000E+00  0.00000000000E+00  0.43638016544E+02  0.43638016544E+02  0.00000000000E+00 0. -1.
         21   -1    0    0  501  502 -0.00000000000E+00 -0.00000000000E+00 -0.17267989691E+04  0.17267989691E+04  0.00000000000E+00 0. -1.
         25    1    1    2    0    0 -0.85214897711E+02  0.49213635940E+02 -0.10224685259E+04  0.10347707221E+04  0.12500000000E+03 0.  0.
         25    1    1    2    0    0  0.15829373681E+02 -0.59173968340E+02 -0.14739312978E+03  0.20273594232E+03  0.12500000000E+03 0.  0.
         25    1    1    2    0    0  0.69385524030E+02  0.99603323994E+01 -0.51329929686E+03  0.53293032126E+03  0.12500000000E+03 0.  0.
</event>
<event>
 5    0  0.5605075E-005  0.2815663E+03  0.7546771E-02  0.1094837E+00
         21   -1    0    0  502  501  0.00000000000E+00  0.00000000000E+00  0.94714935065E+02  0.94714935065E+02  0.00000000000E+00 0. -1.
         21   -1    0    0  501  502 -0.00000000000E+00 -0.00000000000E+00 -0.83703370898E+03  0.83703370898E+03  0.00000000000E+00 0. -1.
         25    1    1    2    0    0 -0.13188308859E+03  0.11758948755E+03 -0.33086058306E+03  0.39536585850E+03  0.12500000000E+03 0.  0.
         25    1    1    2    0    0  0.89958700249E+02 -0.93589999305E+02 -0.33928016645E+03  0.38417142927E+03  0.12500000000E+03 0.  0.
         25    1    1    2    0    0  0.41924388342E+02 -0.23999488248E+02 -0.72178024401E+02  0.15221135628E+03  0.12500000000E+03 0.  0.
</event>
<event>
 5    0  0.6263766E-005  0.2794567E+03  0.7546771E-02  0.1095986E+00
         21   -1    0    0  502  501  0.00000000000E+00  0.00000000000E+00  0.42041403465E+03  0.42041403465E+03  0.00000000000E+00 0.  1.
         21   -1    0    0  501  502 -0.00000000000E+00 -0.00000000000E+00 -0.18575990906E+03  0.18575990906E+03  0.00000000000E+00 0.  1.
         25    1    1    2    0    0  0.28398296616E+02 -0.60412663156E+02 -0.85391598750E+02  0.16544750907E+03  0.12500000000E+03 0.  0.
         25    1    1    2    0    0  0.43144284627E+02 -0.23171889217E+02  0.16963300892E+03  0.21633012610E+03  0.12500000000E+03 0.  0.
         25    1    1    2    0    0 -0.71542581243E+02  0.83584552373E+02  0.15041271542E+03  0.22439630854E+03  0.12500000000E+03 0.  0.
</event>
<event>
 5    0  0.5605075E-005  0.3567897E+03  0.7546771E-02  0.1059862E+00
         21   -1    0    0  502  501  0.00000000000E+00  0.00000000000E+00  0.24577452608E+03  0.24577452608E+03  0.00000000000E+00 0.  1.
         21   -1    0    0  501  502 -0.00000000000E+00 -0.00000000000E+00 -0.51794998465E+03  0.51794998465E+03  0.00000000000E+00 0.  1.
         25    1    1    2    0    0 -0.76444132512E+02  0.44518356123E+02 -0.72823851389E+02  0.16956975779E+03  0.12500000000E+03 0.  0.
         25    1    1    2    0    0  0.20579321581E+03  0.14393947332E+03 -0.27090009555E+02  0.28183024726E+03  0.12500000000E+03 0.  0.
         25    1    1    2    0    0 -0.12934908330E+03 -0.18845782944E+03 -0.17226159763E+03  0.31232450567E+03  0.12500000000E+03 0.  0.
</event>
<event>
 5    0  0.5605075E-005  0.3578861E+03  0.7546771E-02  0.1059424E+00
         21   -1    0    0  502  501  0.00000000000E+00  0.00000000000E+00  0.43427634836E+03  0.43427634836E+03  0.00000000000E+00 0.  1.
         21   -1    0    0  501  502 -0.00000000000E+00 -0.00000000000E+00 -0.29493312708E+03  0.29493312708E+03  0.00000000000E+00 0.  1.
         25    1    1    2    0    0 -0.45596042091E+02  0.21465270296E+03  0.42137496583E+02  0.25603779128E+03  0.12500000000E+03 0.  0.
         25    1    1    2    0    0 -0.42354922867E+02  0.61245315751E+02  0.52163906793E+02  0.15456714193E+03  0.12500000000E+03 0.  0.
         25    1    1    2    0    0  0.87950964958E+02 -0.27589801872E+03  0.45041817905E+02  0.31860454223E+03  0.12500000000E+03 0.  0.
</event>
<event>
 5    0  0.5605075E-005  0.3033939E+03  0.7546771E-02  0.1083556E+00
         21   -1    0    0  502  501  0.00000000000E+00  0.00000000000E+00  0.26413474478E+03  0.26413474478E+03  0.00000000000E+00 0.  1.
         21   -1    0    0  501  502 -0.00000000000E+00 -0.00000000000E+00 -0.34848823911E+03  0.34848823911E+03  0.00000000000E+00 0.  1.
         25    1    1    2    0    0 -0.96877841571E+02 -0.13690380923E+03  0.99448589807E+02  0.23160956626E+03  0.12500000000E+03 0.  0.
         25    1    1    2    0    0 -0.96312617707E+01  0.11013172007E+03 -0.10229034583E+03  0.19572958851E+03  0.12500000000E+03 0.  0.
         25    1    1    2    0    0  0.10650910334E+03  0.26772089161E+02 -0.81511738303E+02  0.18528382912E+03  0.12500000000E+03 0.  0.
</event>
<event>
 5    0  0.5605075E-005  0.2789761E+03  0.7546771E-02  0.1096249E+00
         21   -1    0    0  502  501  0.00000000000E+00  0.00000000000E+00  0.34108199608E+03  0.34108199608E+03  0.00000000000E+00 0. -1.
         21   -1    0    0  501  502 -0.00000000000E+00 -0.00000000000E+00 -0.22817875518E+03  0.22817875518E+03  0.00000000000E+00 0. -1.
         25    1    1    2    0    0 -0.66636022476E+02 -0.11081416549E+03 -0.61934554755E+02  0.19021311163E+03  0.12500000000E+03 0.  0.
         25    1    1    2    0    0 -0.52205356096E+02  0.91222931536E+01  0.62537545255E+02  0.14948096870E+03  0.12500000000E+03 0.  0.
         25    1    1    2    0    0  0.11884137857E+03  0.10169187234E+03  0.11230025040E+03  0.22956667093E+03  0.12500000000E+03 0.  0.
</event>
<event>
 5    0  0.5605075E-005  0.2570048E+03  0.7546771E-02  0.1108956E+00
         21   -1    0    0  502  501  0.00000000000E+00  0.00000000000E+00  0.57965029496E+02  0.57965029496E+02  0.00000000000E+00 0. -1.
         21   -1    0    0  501  502 -0.00000000000E+00 -0.00000000000E+00 -0.11395052792E+04  0.11395052792E+04  0.00000000000E+00 0. -1.
         25    1    1    2    0    0 -0.84891495539E+02  0.53390835593E+01 -0.14544774817E+03  0.20979780570E+03  0.12500000000E+03 0.  0.
         25    1    1    2    0    0 -0.20360273890E+02 -0.13103587651E+02 -0.60640557755E+03  0.61962808946E+03  0.12500000000E+03 0.  0.
         25    1    1    2    0    0  0.10525176943E+03  0.77645040918E+01 -0.32968692400E+03  0.36804441355E+03  0.12500000000E+03 0.  0.
</event>
<event>
 5    0  0.5605075E-005  0.6338704E+03  0.7546771E-02  0.9837525E-01
         21   -1    0    0  502  501  0.00000000000E+00  0.00000000000E+00  0.43973556499E+03  0.43973556499E+03  0.00000000000E+00 0.  1.
         21   -1    0    0  501  502 -0.00000000000E+00 -0.00000000000E+00 -0.91371204934E+03  0.91371204934E+03  0.00000000000E+00 0.  1.
         25    1    1    2    0    0  0.95710384765E+02  0.40996907978E+03 -0.85597642800E+02  0.44742270906E+03  0.12500000000E+03 0.  0.
         25    1    1    2    0    0 -0.32804497827E+03 -0.42008117979E+03 -0.20504567582E+03  0.58459424779E+03  0.12500000000E+03 0.  0.
         25    1    1    2    0    0  0.23233459351E+03  0.10112100007E+02 -0.18333316573E+03  0.32143065747E+03  0.12500000000E+03 0.  0.
</event>
<event>
 5    0  0.5605075E-005  0.3226575E+03  0.7546771E-02  0.1074433E+00
         21   -1    0    0  502  501  0.00000000000E+00  0.00000000000E+00  0.71271277996E+03  0.71271277996E+03  0.00000000000E+00 0. -1.
         21   -1    0    0  501  502 -0.00000000000E+00 -0.00000000000E+00 -0.14607270745E+03  0.14607270745E+03  0.00000000000E+00 0. -1.
         25    1    1    2    0    0 -0.15842970092E+03 -0.13718224359E+03  0.43441087741E+03  0.49825369893E+03  0.12500000000E+03 0.  0.
         25    1    1    2    0    0  0.11649046537E+03  0.56956314414E+02  0.57576478592E+02  0.18908754893E+03  0.12500000000E+03 0.  0.
         25    1    1    2    0    0  0.41939235554E+02  0.80225929174E+02  0.74652716509E+02  0.17144423954E+03  0.12500000000E+03 0.  0.
</event>
<event>
 5    0  0.5605075E-005  0.2560508E+03  0.7546771E-02  0.1109539E+00
         21   -1    0    0  502  501  0.00000000000E+00  0.00000000000E+00  0.12322998680E+03  0.12322998680E+03  0.00000000000E+00 0.  1.
         21   -1    0    0  501  502 -0.00000000000E+00 -0.00000000000E+00 -0.53202981885E+03  0.53202981885E+03  0.00000000000E+00 0.  1.
         25    1    1    2    0    0  0.11210570581E+03  0.86130956949E+02 -0.17614813915E+03  0.25814607870E+03  0.12500000000E+03 0.  0.
         25    1    1    2    0    0 -0.12295401519E+03 -0.13268578401E+02 -0.14216122550E+03  0.22611625120E+03  0.12500000000E+03 0.  0.
         25    1    1    2    0    0  0.10848309380E+02 -0.72862378548E+02 -0.90490467398E+02  0.17099747575E+03  0.12500000000E+03 0.  0.
</event>
<event>
 5    0  0.5605075E-005  0.3370012E+03  0.7546771E-02  0.1068080E+00
         21   -1    0    0  502  501  0.00000000000E+00  0.00000000000E+00  0.40474994920E+03  0.40474994920E+03  0.00000000000E+00 0.  1.
         21   -1    0    0  501  502 -0.00000000000E+00 -0.00000000000E+00 -0.28059253070E+03  0.28059253070E+03  0.00000000000E+00 0.  1.
         25    1    1    2    0    0  0.19791557952E+02  0.25708358043E+03  0.13747779901E+03  0.31781884512E+03  0.12500000000E+03 0.  0.
         25    1    1    2    0    0  0.16765288658E+02 -0.16401347685E+03 -0.23448397854E-02  0.20689730665E+03  0.12500000000E+03 0.  0.
         25    1    1    2    0    0 -0.36556846610E+02 -0.93070103576E+02 -0.13318035666E+02  0.16062632813E+03  0.12500000000E+03 0.  0.
</event>
<event>
 5    0  0.5605075E-005  0.2721692E+03  0.7546771E-02  0.1100045E+00
         21   -1    0    0  502  501  0.00000000000E+00  0.00000000000E+00  0.11333370827E+03  0.11333370827E+03  0.00000000000E+00 0.  1.
         21   -1    0    0  501  502 -0.00000000000E+00 -0.00000000000E+00 -0.65361011026E+03  0.65361011026E+03  0.00000000000E+00 0.  1.
         25    1    1    2    0    0 -0.57486227786E+02 -0.94131747439E+02 -0.24156592705E+03  0.29350391713E+03  0.12500000000E+03 0.  0.
         25    1    1    2    0    0 -0.28296834734E+02 -0.41787661458E+02 -0.21397973907E+03  0.25290165724E+03  0.12500000000E+03 0.  0.
         25    1    1    2    0    0  0.85783062520E+02  0.13591940890E+03 -0.84730735883E+02  0.22053824415E+03  0.12500000000E+03 0.  0.
</event>
<event>
 5    0  0.5605075E-005  0.3212321E+03  0.7546771E-02  0.1075084E+00
         21   -1    0    0  502  501  0.00000000000E+00  0.00000000000E+00  0.72359420998E+03  0.72359420998E+03  0.00000000000E+00 0. -1.
         21   -1    0    0  501  502 -0.00000000000E+00 -0.00000000000E+00 -0.14260763459E+03  0.14260763459E+03  0.00000000000E+00 0.  1.
         25    1    1    2    0    0 -0.53478537550E+01 -0.35738438632E+02 -0.10817031673E+02  0.13056739145E+03  0.12500000000E+03 0.  0.
         25    1    1    2    0    0  0.41589937045E+02  0.18693619155E+03  0.24214819895E+03  0.33306998188E+03  0.12500000000E+03 0.  0.
         25    1    1    2    0    0 -0.36242083290E+02 -0.15119775292E+03  0.34965540811E+03  0.40256447124E+03  0.12500000000E+03 0.  0.
</event>
<event>
 5    0  0.5605075E-005  0.2925097E+03  0.7546771E-02  0.1089046E+00
         21   -1    0    0  502  501  0.00000000000E+00  0.00000000000E+00  0.80010171140E+02  0.80010171140E+02  0.00000000000E+00 0.  1.
         21   -1    0    0  501  502 -0.00000000000E+00 -0.00000000000E+00 -0.10693880875E+04  0.10693880875E+04  0.00000000000E+00 0.  1.
         25    1    1    2    0    0 -0.54974577748E+01  0.90924051010E+02 -0.18935870561E+03  0.24449769832E+03  0.12500000000E+03 0.  0.
         25    1    1    2    0    0 -0.97507950534E+02 -0.11518604316E+03 -0.66303198885E+03  0.69138415023E+03  0.12500000000E+03 0.  0.
         25    1    1    2    0    0  0.10300540831E+03  0.24261992149E+02 -0.13698722184E+03  0.21351641003E+03  0.12500000000E+03 0.  0.
</event>
<event>
 5    0  0.5605075E-005  0.3231107E+03  0.7546771E-02  0.1074227E+00
         21   -1    0    0  502  501  0.00000000000E+00  0.00000000000E+00  0.17809061982E+04  0.17809061982E+04  0.00000000000E+00 0.  1.
         21   -1    0    0  501  502 -0.00000000000E+00 -0.00000000000E+00 -0.58622139589E+02  0.58622139589E+02  0.00000000000E+00 0.  1.
         25    1    1    2    0    0 -0.72205087276E+02  0.34364083974E+02  0.77407395391E+03  0.78816873258E+03  0.12500000000E+03 0.  0.
         25    1    1    2    0    0  0.17971356531E+03  0.81371295116E+02  0.65694011071E+03  0.69721844661E+03  0.12500000000E+03 0.  0.
         25    1    1    2    0    0 -0.10750847803E+03 -0.11573537909E+03  0.29126999402E+03  0.35414115863E+03  0.12500000000E+03 0.  0.
</event>
<event>
 5    0  0.5605075E-005  0.2272285E+03  0.7546771E-02  0.1128606E+00
         21   -1    0    0  502  501  0.00000000000E+00  0.00000000000E+00  0.56232858103E+03  0.56232858103E+03  0.00000000000E+00 0.  1.
         21   -1    0    0  501  502 -0.00000000000E+00 -0.00000000000E+00 -0.91819604519E+02  0.91819604519E+02  0.00000000000E+00 0.  1.
         25    1    1    2    0    0  0.57714452920E+02  0.27454694904E+02  0.14127925253E+03  0.19917215052E+03  0.12500000000E+03 0.  0.
         25    1    1    2    0    0 -0.76978058912E+02  0.43763215349E+02  0.97632915505E+02  0.18165359000E+03  0.12500000000E+03 0.  0.
         25    1    1    2    0    0  0.19263605992E+02 -0.71217910253E+02  0.23159680848E+03  0.27332244502E+03  0.12500000000E+03 0.  0.
</event>
<event>
 5    0  0.5605075E-005  0.3430624E+03  0.7546771E-02  0.1065499E+00
         21   -1    0    0  502  501  0.00000000000E+00  0.00000000000E+00  0.19056463713E+04  0.19056463713E+04  0.00000000000E+00 0.  1.
         21   -1    0    0  501  502 -0.00000000000E+00 -0.00000000000E+00 -0.61759507174E+02  0.61759507174E+02  0.00000000000E+00 0.  1.
         25    1    1    2    0    0  0.91255502307E+02 -0.22770491219E+03  0.51813196971E+03  0.58673915139E+03  0.12500000000E+03 0.  0.
         25    1    1    2    0    0  0.36040053160E+02  0.10005712639E+03  0.49859263724E+03  0.52490945113E+03  0.12500000000E+03 0.  0.
         25    1    1    2    0    0 -0.12729555547E+03  0.12764778580E+03  0.82716225720E+03  0.85575727598E+03  0.12500000000E+03 0.  0.
</event>
<event>
 5    0  0.5605075E-005  0.3031775E+03  0.7546771E-02  0.1083663E+00
         21   -1    0    0  502  501  0.00000000000E+00  0.00000000000E+00  0.43767513713E+03  0.43767513713E+03  0.00000000000E+00 0.  1.
         21   -1    0    0  501  502 -0.00000000000E+00 -0.00000000000E+00 -0.21001104556E+03  0.21001104556E+03  0.00000000000E+00 0.  1.
         25    1    1    2    0    0 -0.10724172081E+03 -0.20870813532E+02 -0.31303034907E+01  0.16604570557E+03  0.12500000000E+03 0.  0.
         25    1    1    2    0    0  0.11752615029E+03 -0.11328342588E+03  0.27096161726E+02  0.20737582444E+03  0.12500000000E+03 0.  0.
         25    1    1    2    0    0 -0.10284429481E+02  0.13415423941E+03  0.20369823334E+03  0.27426465268E+03  0.12500000000E+03 0.  0.
</event>
<event>
 5    0  0.5605075E-005  0.3820612E+03  0.7546771E-02  0.1050175E+00
         21   -1    0    0  502  501  0.00000000000E+00  0.00000000000E+00  0.15813613344E+03  0.15813613344E+03  0.00000000000E+00 0.  1.
         21   -1    0    0  501  502 -0.00000000000E+00 -0.00000000000E+00 -0.92307034202E+03  0.92307034202E+03  0.00000000000E+00 0.  1.
         25    1    1    2    0    0  0.54083621703E+02  0.16231752804E+02 -0.63120506673E+03  0.64593602176E+03  0.12500000000E+03 0.  0.
         25    1    1    2    0    0 -0.63667693876E+02 -0.80153216267E+02 -0.21792537746E+03  0.27128321633E+03  0.12500000000E+03 0.  0.
         25    1    1    2    0    0  0.95840721733E+01  0.63921463463E+02  0.84196235612E+02  0.16398723738E+03  0.12500000000E+03 0.  0.
</event>
<event>
 5    0  0.5605075E-005  0.2761347E+03  0.7546771E-02  0.1097819E+00
         21   -1    0    0  502  501  0.00000000000E+00  0.00000000000E+00  0.13298790277E+03  0.13298790277E+03  0.00000000000E+00 0. -1.
         21   -1    0    0  501  502 -0.00000000000E+00 -0.00000000000E+00 -0.57336335798E+03  0.57336335798E+03  0.00000000000E+00 0. -1.
         25    1    1    2    0    0  0.22858826519E+02 -0.10322899728E+03 -0.82791560143E+02  0.18346169699E+03  0.12500000000E+03 0.  0.
         25    1    1    2    0    0  0.23681672735E+02  0.32324284288E+02 -0.34753396602E+03  0.37149769651E+03  0.12500000000E+03 0.  0.
         25    1    1    2    0    0 -0.46540499254E+02  0.70904712994E+02 -0.10049929055E+02  0.15139186725E+03  0.12500000000E+03 0.  0.
</event>
<event>
 5    0  0.5737999E-005  0.2816555E+03  0.7546771E-02  0.1094788E+00
         21   -1    0    0  502  501  0.00000000000E+00  0.00000000000E+00  0.13740906772E+03  0.13740906772E+03  0.00000000000E+00 0. -1.
         21   -1    0    0  501  502 -0.00000000000E+00 -0.00000000000E+00 -0.57732606139E+03  0.57732606139E+03  0.00000000000E+00 0. -1.
         25    1    1    2    0    0 -0.26089452436E+02 -0.38902767613E+02 -0.24892944385E+03  0.28246230345E+03  0.12500000000E+03 0.  0.
         25    1    1    2    0    0  0.11352678901E+03  0.11251280424E+03 -0.43140863330E+02  0.20744540735E+03  0.12500000000E+03 0.  0.
         25    1    1    2    0    0 -0.87437336570E+02 -0.73610036631E+02 -0.14784668649E+03  0.22482741831E+03  0.12500000000E+03 0.  0.
</event>
<event>
 5    0  0.5605075E-005  0.5059869E+03  0.7546771E-02  0.1012228E+00
         21   -1    0    0  502  501  0.00000000000E+00  0.00000000000E+00  0.48336544117E+03  0.48336544117E+03  0.00000000000E+00 0.  1.
         21   -1    0    0  501  502 -0.00000000000E+00 -0.00000000000E+00 -0.52966695090E+03  0.52966695090E+03  0.00000000000E+00 0.  1.
         25    1    1    2    0    0  0.14331542821E+03  0.11729204497E+03  0.30118309715E+02  0.22545254125E+03  0.12500000000E+03 0.  0.
         25    1    1    2    0    0 -0.38729541859E+03 -0.23183722168E+03  0.36380369753E+02  0.46978161939E+03  0.12500000000E+03 0.  0.
         25    1    1    2    0    0  0.24397999038E+03  0.11454517671E+03 -0.11280018919E+03  0.31779823142E+03  0.12500000000E+03 0.  0.
</event>
<event>
 5    0  0.5605075E-005  0.3420802E+03  0.7546771E-02  0.1065913E+00
         21   -1    0    0  502  501  0.00000000000E+00  0.00000000000E+00  0.96695919295E+03  0.96695919295E+03  0.00000000000E+00 0. -1.
         21   -1    0    0  501  502 -0.00000000000E+00 -0.00000000000E+00 -0.12101740410E+03  0.12101740410E+03  0.00000000000E+00 0. -1.
         25    1    1    2    0    0 -0.62421783984E+02 -0.62218008933E+02  0.71961442632E+01  0.15311546050E+03  0.12500000000E+03 0.  0.
         25    1    1    2    0    0  0.11668684856E+03 -0.10101229068E+03  0.36358121695E+03  0.41428927673E+03  0.12500000000E+03 0.  0.
         25    1    1    2    0    0 -0.54265064576E+02  0.16323029961E+03  0.47516442764E+03  0.52057185982E+03  0.12500000000E+03 0.  0.
</event>
<event>
 5    0  0.5605075E-005  0.2175179E+03  0.7546771E-02  0.1135747E+00
         21   -1    0    0  502  501  0.00000000000E+00  0.00000000000E+00  0.45662903665E+02  0.45662903665E+02  0.00000000000E+00 0. -1.
         21   -1    0    0  501  502 -0.00000000000E+00 -0.00000000000E+00 -0.10361591873E+04  0.10361591873E+04  0.00000000000E+00 0. -1.
         25    1    1    2    0    0  0.46743886707E+02 -0.51000859107E+02 -0.48004483124E+03  0.50085339030E+03  0.12500000000E+03 0.  0.
         25    1    1    2    0    0  0.14466884383E+02  0.55644697011E+02 -0.27238787919E+03  0.30516516803E+03  0.12500000000E+03 0.  0.
         25    1    1    2    0    0 -0.61210771090E+02 -0.46438379040E+01 -0.23806357321E+03  0.27580353264E+03  0.12500000000E+03 0.  0.
</event>
<event>
 5    0  0.5605075E-005  0.2623987E+03  0.7546771E-02  0.1105711E+00
         21   -1    0    0  502  501  0.00000000000E+00  0.00000000000E+00  0.15278332879E+03  0.15278332879E+03  0.00000000000E+00 0.  1.
         21   -1    0    0  501  502 -0.00000000000E+00 -0.00000000000E+00 -0.45065816918E+03  0.45065816918E+03  0.00000000000E+00 0.  1.
         25    1    1    2    0    0  0.82466887024E+02 -0.93513682679E+02 -0.13466374316E+03  0.22204711218E+03  0.12500000000E+03 0.  0.
         25    1    1    2    0    0  0.11286034779E+02  0.13368869083E+03 -0.86023190217E+02  0.20254636480E+03  0.12500000000E+03 0.  0.
         25    1    1    2    0    0 -0.93752921802E+02 -0.40175008152E+02 -0.77187907010E+02  0.17884802100E+03  0.12500000000E+03 0.  0.
</event>
<event>
 5    0  0.5605075E-005  0.2943148E+03  0.7546771E-02  0.1088118E+00
         21   -1    0    0  502  501  0.00000000000E+00  0.00000000000E+00  0.69113784702E+02  0.69113784702E+02  0.00000000000E+00 0.  1.
         21   -1    0    0  501  502 -0.00000000000E+00 -0.00000000000E+00 -0.12533126803E+04  0.12533126803E+04  0.00000000000E+00 0.  1.
         25    1    1    2    0    0  0.58969045343E+02  0.87680995582E+02 -0.39341442097E+03  0.42610469596E+03  0.12500000000E+03 0.  0.
         25    1    1    2    0    0 -0.13817896952E+03  0.32328081552E+02 -0.19857665858E+03  0.27421929510E+03  0.12500000000E+03 0.  0.
         25    1    1    2    0    0  0.79209924180E+02 -0.12000907713E+03 -0.59220781601E+03  0.62210247389E+03  0.12500000000E+03 0.  0.
</event>
<event>
 5    0  0.5605075E-005  0.3352809E+03  0.7546771E-02  0.1068824E+00
         21   -1    0    0  502  501  0.00000000000E+00  0.00000000000E+00  0.24081112620E+03  0.24081112620E+03  0.00000000000E+00 0.  1.
         21   -1    0    0  501  502 -0.00000000000E+00 -0.00000000000E+00 -0.46681107825E+03  0.46681107825E+03  0.00000000000E+00 0.  1.
         25    1    1    2    0    0  0.85691012583E+02  0.66417144310E+02 -0.62533954710E+02  0.17688889786E+03  0.12500000000E+03 0.  0.
         25    1    1    2    0    0 -0.10360108147E+03 -0.19595321411E+02  0.12930228310E+03  0.20847359813E+03  0.12500000000E+03 0.  0.
         25    1    1    2    0    0  0.17910068886E+02 -0.46821822899E+02 -0.29276828044E+03  0.32225970846E+03  0.12500000000E+03 0.  0.
</event>
<event>
 5    0  0.5605075E-005  0.2804534E+03  0.7546771E-02  0.1095442E+00
         21   -1    0    0  502  501  0.00000000000E+00  0.00000000000E+00  0.32883255751E+03  0.32883255751E+03  0.00000000000E+00 0. -1.
         21   -1    0    0  501  502 -0.00000000000E+00 -0.00000000000E+00 -0.23919199500E+03  0.23919199500E+03  0.00000000000E+00 0. -1.
         25    1    1    2    0    0 -0.32777157680E+02  0.12216662577E+03  0.11683257799E+03  0.21277659128E+03  0.12500000000E+03 0.  0.
         25    1    1    2    0    0  0.33787616311E+02 -0.16963011267E+03  0.17862828103E+02  0.21414961771E+03  0.12500000000E+03 0.  0.
         25    1    1    2    0    0 -0.10104586316E+01  0.47463486894E+02 -0.45054843581E+02  0.14109834352E+03  0.12500000000E+03 0.  0.
</event>
<event>
 5    0  0.5605075E-005  0.3837682E+03  0.7546771E-02  0.1049550E+00
         21   -1    0    0  502  501  0.00000000000E+00  0.00000000000E+00  0.95844541997E+03  0.95844541997E+03  0.00000000000E+00 0. -1.
         21   -1    0    0  501  502 -0.00000000000E+00 -0.00000000000E+00 -0.15366342759E+03  0.15366342759E+03  0.00000000000E+00 0. -1.
         25    1    1    2    0    0  0.10404825802E+03 -0.14277138806E+02  0.61100435059E+03  0.63244066372E+03  0.12500000000E+03 0.  0.
         25    1    1    2    0    0  0.99497081353E+02  0.93981107159E+02  0.61932872244E+02  0.19542977860E+03  0.12500000000E+03 0.  0.
         25    1    1    2    0    0 -0.20354533938E+03 -0.79703968353E+02  0.13184476955E+03  0.28423840524E+03  0.12500000000E+03 0.  0.
</event>
<event>
 5    0  0.5605075E-005  0.2812843E+03  0.7546771E-02  0.1094990E+00
         21   -1    0    0  502  501  0.00000000000E+00  0.00000000000E+00  0.21628643113E+02  0.21628643113E+02  0.00000000000E+00 0.  1.
         21   -1    0    0  501  502 -0.00000000000E+00 -0.00000000000E+00 -0.36581512946E+04  0.36581512946E+04  0.00000000000E+00 0.  1.
         25    1    1    2    0    0  0.10243677536E+01  0.12052852610E+03 -0.15816963696E+04  0.15911997299E+04  0.12500000000E+03 0.  0.
         25    1    1    2    0    0  0.83035328187E+02 -0.65205266404E+02 -0.51385896732E+03  0.53927973334E+03  0.12500000000E+03 0.  0.
         25    1    1    2    0    0 -0.84059695941E+02 -0.55323259692E+02 -0.15409673146E+04  0.15493004745E+04  0.12500000000E+03 0.  0.
</event>
<event>
 5    0  0.5605075E-005  0.2260760E+03  0.7546771E-02  0.1129433E+00
         21   -1    0    0  502  501  0.00000000000E+00  0.00000000000E+00  0.23721697052E+03  0.23721697052E+03  0.00000000000E+00 0.  1.
         21   -1    0    0  501  502 -0.00000000000E+00 -0.00000000000E+00 -0.21545818990E+03  0.21545818990E+03  0.00000000000E+00 0.  1.
         25    1    1    2    0    0 -0.47716795839E+02  0.41746547122E+01  0.71317833815E+02  0.15167581800E+03  0.12500000000E+03 0.  0.
         25    1    1    2    0    0  0.89326380247E+02 -0.18318140028E+02  0.11409253360E+02  0.15514485981E+03  0.12500000000E+03 0.  0.
         25    1    1    2    0    0 -0.41609584407E+02  0.14143485316E+02 -0.60968306554E+02  0.14585448260E+03  0.12500000000E+03 0.  0.
</event>
<event>
 5    0  0.5605075E-005  0.3602072E+03  0.7546771E-02  0.1058502E+00
         21   -1    0    0  502  501  0.00000000000E+00  0.00000000000E+00  0.19360759055E+03  0.19360759055E+03  0.00000000000E+00 0.  1.
         21   -1    0    0  501  502 -0.00000000000E+00 -0.00000000000E+00 -0.67016594916E+03  0.67016594916E+03  0.00000000000E+00 0.  1.
         25    1    1    2    0    0 -0.18505546414E+02  0.56452983598E+02 -0.53317939130E+03  0.55084903369E+03  0.12500000000E+03 0.  0.
         25    1    1    2    0    0 -0.66203347388E+01 -0.11525115558E+02 -0.55387598768E+02  0.13736609195E+03  0.12500000000E+03 0.  0.
         25    1    1    2    0    0  0.25125881153E+02 -0.44927868040E+02  0.11200863146E+03  0.17555841407E+03  0.12500000000E+03 0.  0.
</event>
<event>
 5    0  0.5605075E-005  0.2744176E+03  0.7546771E-02  0.1098778E+00
         21   -1    0    0  502  501  0.00000000000E+00  0.00000000000E+00  0.41453080163E+02  0.41453080163E+02  0.00000000000E+00 0.  1.
         21   -1    0    0  501  502 -0.00000000000E+00 -0.00000000000E+00 -0.18166324052E+04  0.18166324052E+04  0.00000000000E+00 0.  1.
         25    1    1    2    0    0  0.10392191218E+03 -0.11603132942E+03 -0.61341827249E+03  0.64511240126E+03  0.12500000000E+03 0.  0.
         25    1    1    2    0    0 -0.12365836464E+02  0.21286934925E+02 -0.77853564002E+03  0.78889086083E+03  0.12500000000E+03 0.  0.
         25    1    1    2    0    0 -0.91556075715E+02  0.94744394497E+02 -0.38322541248E+03  0.42408222323E+03  0.12500000000E+03 0.  0.
</event>
<event>
 5    0  0.5605075E-005  0.4017352E+03  0.7546771E-02  0.1043180E+00
         21   -1    0    0  502  501  0.00000000000E+00  0.00000000000E+00  0.62244270881E+03  0.62244270881E+03  0.00000000000E+00 0.  1.
         21   -1    0    0  501  502 -0.00000000000E+00 -0.00000000000E+00 -0.25928678926E+03  0.25928678926E+03  0.00000000000E+00 0.  1.
         25    1    1    2    0    0  0.40110864187E+02 -0.10417080897E+03  0.29423031373E+03  0.33861027212E+03  0.12500000000E+03 0.  0.
         25    1    1    2    0    0 -0.19436843516E+03  0.14813037544E+03 -0.85804413136E+02  0.28759188797E+03  0.12500000000E+03 0.  0.
         25    1    1    2    0    0  0.15425757097E+03 -0.43959566470E+02  0.15473001896E+03  0.25552733798E+03  0.12500000000E+03 0.  0.
</event>
<event>
 5    0  0.5605075E-005  0.2495718E+03  0.7546771E-02  0.1113576E+00
         21   -1    0    0  502  501  0.00000000000E+00  0.00000000000E+00  0.67119534024E+02  0.67119534024E+02  0.00000000000E+00 0. -1.
         21   -1    0    0  501  502 -0.00000000000E+00 -0.00000000000E+00 -0.92798737596E+03  0.92798737596E+03  0.00000000000E+00 0. -1.
         25    1    1    2    0    0 -0.31021404360E+02 -0.57016786080E+02 -0.14458225183E+03  0.20184714258E+03  0.12500000000E+03 0.  0.
         25    1    1    2    0    0 -0.86222702489E+02  0.34658782243E+01 -0.23754022533E+03  0.28195163661E+03  0.12500000000E+03 0.  0.
         25    1    1    2    0    0  0.11724410685E+03  0.53550907856E+02 -0.47874536477E+03  0.51130813079E+03  0.12500000000E+03 0.  0.
</event>
<event>
 5    0  0.5605075E-005  0.3834066E+03  0.7546771E-02  0.1049682E+00
         21   -1    0    0  502  501  0.00000000000E+00  0.00000000000E+00  0.51118317449E+03  0.51118317449E+03  0.00000000000E+00 0. -1.
         21   -1    0    0  501  502 -0.00000000000E+00 -0.00000000000E+00 -0.28756934354E+03  0.28756934354E+03  0.00000000000E+00 0. -1.
         25    1    1    2    0    0 -0.26221052838E+03 -0.52136270065E+02  0.27484325175E+02  0.29639996623E+03  0.12500000000E+03 0.  0.
         25    1    1    2    0    0  0.16300676838E+03 -0.61142862644E+02  0.21766471023E+03  0.30547108255E+03  0.12500000000E+03 0.  0.
         25    1    1    2    0    0  0.99203759999E+02  0.11327913271E+03 -0.21535204455E+02  0.19688146926E+03  0.12500000000E+03 0.  0.
</event>
<event>
 5    0  0.5605075E-005  0.3975295E+03  0.7546771E-02  0.1044638E+00
         21   -1    0    0  502  501  0.00000000000E+00  0.00000000000E+00  0.13813698751E+04  0.13813698751E+04  0.00000000000E+00 0.  1.
         21   -1    0    0  501  502 -0.00000000000E+00 -0.00000000000E+00 -0.11440071582E+03  0.11440071582E+03  0.00000000000E+00 0.  1.
         25    1    1    2    0    0 -0.79899509744E+02  0.97817461390E+02  0.85732600703E+03  0.87554843940E+03  0.12500000000E+03 0.  0.
         25    1    1    2    0    0 -0.14324087184E+03 -0.88628866744E+02  0.18543593075E+03  0.27997233399E+03  0.12500000000E+03 0.  0.
         25    1    1    2    0    0  0.22314038158E+03 -0.91885946465E+01  0.22420722154E+03  0.34024981757E+03  0.12500000000E+03 0.  0.
</event>
<event>
 5    0  0.5605075E-005  0.2867940E+03  0.7546771E-02  0.1092035E+00
         21   -1    0    0  502  501  0.00000000000E+00  0.00000000000E+00  0.52969186016E+02  0.52969186016E+02  0.00000000000E+00 0. -1.
         21   -1    0    0  501  502 -0.00000000000E+00 -0.00000000000E+00 -0.15528049660E+04  0.15528049660E+04  0.00000000000E+00 0. -1.
         25    1    1    2    0    0  0.49183586009E+02 -0.23679672170E+01 -0.10048651661E+04  0.10138065074E+04  0.12500000000E+03 0.  0.
         25    1    1    2    0    0  0.48620648168E+02 -0.46278409722E+02 -0.32380300932E+03  0.35352375802E+03  0.12500000000E+03 0.  0.
         25    1    1    2    0    0 -0.97804234177E+02  0.48646376939E+02 -0.17116760460E+03  0.23844388664E+03  0.12500000000E+03 0.  0.
</event>
<event>
 5    0  0.5605075E-005  0.2595508E+03  0.7546771E-02  0.1107413E+00
         21   -1    0    0  502  501  0.00000000000E+00  0.00000000000E+00  0.70912899523E+02  0.70912899523E+02  0.00000000000E+00 0.  1.
         21   -1    0    0  501  502 -0.00000000000E+00 -0.00000000000E+00 -0.94999094807E+03  0.94999094807E+03  0.00000000000E+00 0.  1.
         25    1    1    2    0    0 -0.85749947968E+02  0.35048475660E+02 -0.47893310144E+03  0.50357061558E+03  0.12500000000E+03 0.  0.
         25    1    1    2    0    0  0.51963366336E+02 -0.10301541430E+03 -0.28199029761E+03  0.32932642616E+03  0.12500000000E+03 0.  0.
         25    1    1    2    0    0  0.33786581632E+02  0.67966938641E+02 -0.11815464950E+03  0.18800680585E+03  0.12500000000E+03 0.  0.
</event>
<event>
 5    0  0.5605075E-005  0.2156692E+03  0.7546771E-02  0.1137154E+00
         21   -1    0    0  502  501  0.00000000000E+00  0.00000000000E+00  0.88302637025E+02  0.88302637025E+02  0.00000000000E+00 0.  1.
         21   -1    0    0  501  502 -0.00000000000E+00 -0.00000000000E+00 -0.52674769322E+03  0.52674769322E+03  0.00000000000E+00 0.  1.
         25    1    1    2    0    0 -0.41431726484E+02  0.81583843873E+01 -0.61304613039E+02  0.14548677870E+03  0.12500000000E+03 0.  0.
         25    1    1    2    0    0 -0.83311479469E+01  0.53659722671E+01 -0.26767564556E+03  0.29559000814E+03  0.12500000000E+03 0.  0.
         25    1    1    2    0    0  0.49762874431E+02 -0.13524356654E+02 -0.10946479759E+03  0.17397354341E+03  0.12500000000E+03 0.  0.
</event>
<event>
 5    0  0.5605075E-005  0.6558949E+03  0.7546771E-02  0.9795780E-01
         21   -1    0    0  502  501  0.00000000000E+00  0.00000000000E+00  0.16697420805E+04  0.16697420805E+04  0.00000000000E+00 0.  1.
         21   -1    0    0  501  502 -0.00000000000E+00 -0.00000000000E+00 -0.25764342490E+03  0.25764342490E+03  0.00000000000E+00 0.  1.
         25    1    1    2    0    0  0.49419566375E+02 -0.88972755994E+02  0.87174002486E+02  0.18325597278E+03  0.12500000000E+03 0.  0.
         25    1    1    2    0    0  0.31907770454E+03 -0.37846897455E+03  0.46308577848E+03  0.68929150906E+03  0.12500000000E+03 0.  0.
         25    1    1    2    0    0 -0.36849727091E+03  0.46744173055E+03  0.86183887464E+03  0.10548380236E+04  0.12500000000E+03 0.  0.
</event>
<event>
 5    0  0.5605075E-005  0.3842561E+03  0.7546771E-02  0.1049372E+00
         21   -1    0    0  502  501  0.00000000000E+00  0.00000000000E+00  0.90677195561E+03  0.90677195561E+03  0.00000000000E+00 0. -1.
         21   -1    0    0  501  502 -0.00000000000E+00 -0.00000000000E+00 -0.16283336971E+03  0.16283336971E+03  0.00000000000E+00 0. -1.
         25    1    1    2    0    0 -0.66196334653E+02  0.20903354182E+03  0.16164103035E+03  0.29971619746E+03  0.12500000000E+03 0.  0.
         25    1    1    2    0    0 -0.72551237327E+02 -0.21743786054E+03  0.50320362905E+03  0.56690545730E+03  0.12500000000E+03 0.  0.
         25    1    1    2    0    0  0.13874757198E+03  0.84043187193E+01  0.79093926499E+02  0.20298367056E+03  0.12500000000E+03 0.  0.
</event>
<event>
 5    0  0.5605075E-005  0.2397161E+03  0.7546771E-02  0.1119982E+00
         21   -1    0    0  502  501  0.00000000000E+00  0.00000000000E+00  0.11991702539E+04  0.11991702539E+04  0.00000000000E+00 0. -1.
         21   -1    0    0  501  502 -0.00000000000E+00 -0.00000000000E+00 -0.47919637973E+02  0.47919637973E+02  0.00000000000E+00 0. -1.
         25    1    1    2    0    0 -0.46779212423E+02  0.16099792561E+02  0.56693331044E+03  0.58265416545E+03  0.12500000000E+03 0.  0.
         25    1    1    2    0    0  0.99614610667E+02  0.13266286689E+01  0.42703419654E+03  0.45596933627E+03  0.12500000000E+03 0.  0.
         25    1    1    2    0    0 -0.52835398244E+02 -0.17426421230E+02  0.15728310897E+03  0.20846639017E+03  0.12500000000E+03 0.  0.
</event>
<event>
 5    0  0.6047326E-005  0.6908649E+03  0.7546771E-02  0.9732983E-01
         21   -1    0    0  502  501  0.00000000000E+00  0.00000000000E+00  0.14429858665E+04  0.14429858665E+04  0.00000000000E+00 0.  1.
         21   -1    0    0  501  502 -0.00000000000E+00 -0.00000000000E+00 -0.33076851960E+03  0.33076851960E+03  0.00000000000E+00 0.  1.
         25    1    1    2    0    0  0.43244559740E+03 -0.20376921352E+03  0.49606509337E+03  0.70016902527E+03  0.12500000000E+03 0.  0.
         25    1    1    2    0    0 -0.41220700231E+03 -0.17783780028E+03  0.24542296683E+03  0.52668617659E+03  0.12500000000E+03 0.  0.
         25    1    1    2    0    0 -0.20238595082E+02  0.38160701380E+03  0.37072928670E+03  0.54689918425E+03  0.12500000000E+03 0.  0.
</event>
<event>
 5    0  0.5605075E-005  0.3328818E+03  0.7546771E-02  0.1069869E+00
         21   -1    0    0  502  501  0.00000000000E+00  0.00000000000E+00  0.16955195499E+03  0.16955195499E+03  0.00000000000E+00 0. -1.
         21   -1    0    0  501  502 -0.00000000000E+00 -0.00000000000E+00 -0.65354765597E+03  0.65354765597E+03  0.00000000000E+00 0. -1.
         25    1    1    2    0    0  0.17785067750E+03 -0.50135412323E+02 -0.53295630034E+02  0.22936836581E+03  0.12500000000E+03 0.  0.
         25    1    1    2    0    0 -0.15658608451E+03  0.14054270942E+03 -0.31909672036E+03  0.40214322322E+03  0.12500000000E+03 0.  0.
         25    1    1    2    0    0 -0.21264592985E+02 -0.90407297101E+02 -0.11160335058E+03  0.19158802193E+03  0.12500000000E+03 0.  0.
</event>
<event>
 5    0  0.5605075E-005  0.3010352E+03  0.7546771E-02  0.1084724E+00
         21   -1    0    0  502  501  0.00000000000E+00  0.00000000000E+00  0.20669363957E+03  0.20669363957E+03  0.00000000000E+00 0. -1.
         21   -1    0    0  501  502 -0.00000000000E+00 -0.00000000000E+00 -0.43843731190E+03  0.43843731190E+03  0.00000000000E+00 0. -1.
         25    1    1    2    0    0  0.78873231059E+02 -0.25553466443E+02 -0.14874605994E+03  0.21124477881E+03  0.12500000000E+03 0.  0.
         25    1    1    2    0    0 -0.74937236506E+02  0.16869080286E+03  0.81681746726E+01  0.22307822723E+03  0.12500000000E+03 0.  0.
         25    1    1    2    0    0 -0.39359945525E+01 -0.14313733642E+03 -0.91165787054E+02  0.21080794544E+03  0.12500000000E+03 0.  0.
</event>
<event>
 5    0  0.5605075E-005  0.2881589E+03  0.7546771E-02  0.1091314E+00
         21   -1    0    0  502  501  0.00000000000E+00  0.00000000000E+00  0.11165605946E+03  0.11165605946E+03  0.00000000000E+00 0. -1.
         21   -1    0    0  501  502 -0.00000000000E+00 -0.00000000000E+00 -0.74367253809E+03  0.74367253809E+03  0.00000000000E+00 0. -1.
         25    1    1    2    0    0 -0.11186848963E+02 -0.14569286362E+02 -0.51068010882E+03  0.52607659446E+03  0.12500000000E+03 0.  0.
         25    1    1    2    0    0  0.39393175235E+02  0.58344901134E+02  0.57046490167E+01  0.14357399752E+03  0.12500000000E+03 0.  0.
         25    1    1    2    0    0 -0.28206326272E+02 -0.43775614772E+02 -0.12704101883E+03  0.18567800558E+03  0.12500000000E+03 0.  0.
</event>
<event>
 5    0  0.5605075E-005  0.3191554E+03  0.7546771E-02  0.1076039E+00
         21   -1    0    0  502  501  0.00000000000E+00  0.00000000000E+00  0.85706267246E+02  0.85706267246E+02  0.00000000000E+00 0. -1.
         21   -1    0    0  501  502 -0.00000000000E+00 -0.00000000000E+00 -0.11884795403E+04  0.11884795403E+04  0.00000000000E+00 0.  1.
         25    1    1    2    0    0 -0.20908773635E+03  0.24282146164E+02 -0.38988182038E+03  0.46036956674E+03  0.12500000000E+03 0.  0.
         25    1    1    2    0    0  0.70923210049E+02  0.15913120923E+01 -0.10640576404E+03  0.17882902622E+03  0.12500000000E+03 0.  0.
         25    1    1    2    0    0  0.13816452630E+03 -0.25873458256E+02 -0.60648568858E+03  0.63498721454E+03  0.12500000000E+03 0.  0.
</event>
<event>
 5    0  0.5605075E-005  0.3521549E+03  0.7546771E-02  0.1061734E+00
         21   -1    0    0  502  501  0.00000000000E+00  0.00000000000E+00  0.27614463811E+03  0.27614463811E+03  0.00000000000E+00 0.  1.
         21   -1    0    0  501  502 -0.00000000000E+00 -0.00000000000E+00 -0.44908733036E+03  0.44908733036E+03  0.00000000000E+00 0.  1.
         25    1    1    2    0    0 -0.75458873585E+02 -0.80639263669E+02  0.23618377667E+02  0.16846234063E+03  0.12500000000E+03 0.  0.
         25    1    1    2    0    0  0.10351261747E+03  0.80435253679E+02  0.11863939369E+03  0.21652943852E+03  0.12500000000E+03 0.  0.
         25    1    1    2    0    0 -0.28053743882E+02  0.20400999044E+00 -0.31520046361E+03  0.34024018932E+03  0.12500000000E+03 0.  0.
</event>
<event>
 5    0  0.5605075E-005  0.3974918E+03  0.7546771E-02  0.1044652E+00
         21   -1    0    0  502  501  0.00000000000E+00  0.00000000000E+00  0.11632307219E+04  0.11632307219E+04  0.00000000000E+00 0.  1.
         21   -1    0    0  501  502 -0.00000000000E+00 -0.00000000000E+00 -0.13582834684E+03  0.13582834684E+03  0.00000000000E+00 0.  1.
         25    1    1    2    0    0  0.71917714413E+02 -0.19381969023E+03  0.59870010076E+03  0.64560439947E+03  0.12500000000E+03 0.  0.
         25    1    1    2    0    0 -0.11839446854E+03  0.28402817580E+03  0.29208814616E+03  0.44230050865E+03  0.12500000000E+03 0.  0.
         25    1    1    2    0    0  0.46476754124E+02 -0.90208485567E+02  0.13661412818E+03  0.21115416065E+03  0.12500000000E+03 0.  0.
</event>
<event>
 5    0  0.5605075E-005  0.3586281E+03  0.7546771E-02  0.1059128E+00
         21   -1    0    0  502  501  0.00000000000E+00  0.00000000000E+00  0.55821919359E+03  0.55821919359E+03  0.00000000000E+00 0. -1.
         21   -1    0    0  501  502 -0.00000000000E+00 -0.00000000000E+00 -0.23040078287E+03  0.23040078287E+03  0.00000000000E+00 0. -1.
         25    1    1    2    0    0 -0.14797078328E+03 -0.16996620713E+02 -0.88685907671E+02  0.21371576460E+03  0.12500000000E+03 0.  0.
         25    1    1    2    0    0  0.60195131157E+02 -0.45938031698E+02  0.37801367011E+03  0.40528149644E+03  0.12500000000E+03 0.  0.
         25    1    1    2    0    0  0.87775652123E+02  0.62934652411E+02  0.38490648287E+02  0.16962271542E+03  0.12500000000E+03 0.  0.
</event>
<event>
 5    0  0.5605075E-005  0.3226273E+03  0.7546771E-02  0.1074446E+00
         21   -1    0    0  502  501  0.00000000000E+00  0.00000000000E+00  0.97785244691E+02  0.97785244691E+02  0.00000000000E+00 0. -1.
         21   -1    0    0  501  502 -0.00000000000E+00 -0.00000000000E+00 -0.10644590953E+04  0.10644590953E+04  0.00000000000E+00 0. -1.
         25    1    1    2    0    0  0.10170193888E+03 -0.20990207497E+02 -0.66434547186E+02  0.17556315742E+03  0.12500000000E+03 0.  0.
         25    1    1    2    0    0 -0.40448385961E+02  0.11821881758E+03 -0.71009422146E+03  0.73175854222E+03  0.12500000000E+03 0.  0.
         25    1    1    2    0    0 -0.61253552921E+02 -0.97228610086E+02 -0.19014508192E+03  0.25492264031E+03  0.12500000000E+03 0.  0.
</event>
<event>
 5    0  0.5605075E-005  0.3021581E+03  0.7546771E-02  0.1084167E+00
         21   -1    0    0  502  501  0.00000000000E+00  0.00000000000E+00  0.35762681829E+03  0.35762681829E+03  0.00000000000E+00 0.  1.
         21   -1    0    0  501  502 -0.00000000000E+00 -0.00000000000E+00 -0.25529266673E+03  0.25529266673E+03  0.00000000000E+00 0.  1.
         25    1    1    2    0    0  0.58264210296E+02 -0.14528660999E+03  0.13087185378E+03  0.23928092142E+03  0.12500000000E+03 0.  0.
         25    1    1    2    0    0  0.15813015575E+02  0.18016197629E+03 -0.41197432422E+02  0.22367525031E+03  0.12500000000E+03 0.  0.
         25    1    1    2    0    0 -0.74077225871E+02 -0.34875366300E+02  0.12659730200E+02  0.14996331330E+03  0.12500000000E+03 0.  0.
</event>
<event>
 5    0  0.5605075E-005  0.3498501E+03  0.7546771E-02  0.1062677E+00
         21   -1    0    0  502  501  0.00000000000E+00  0.00000000000E+00  0.57139764204E+03  0.57139764204E+03  0.00000000000E+00 0. -1.
         21   -1    0    0  501  502 -0.00000000000E+00 -0.00000000000E+00 -0.21420303443E+03  0.21420303443E+03  0.00000000000E+00 0. -1.
         25    1    1    2    0    0 -0.13896120101E+03  0.16060001548E+03  0.58609445778E+02  0.25330346917E+03  0.12500000000E+03 0.  0.
         25    1    1    2    0    0  0.11189370896E+03 -0.21900256393E+03  0.10983639345E+03  0.29693662361E+03  0.12500000000E+03 0.  0.
         25    1    1    2    0    0  0.27067492047E+02  0.58402548452E+02  0.18874876838E+03  0.23536058369E+03  0.12500000000E+03 0.  0.
</event>
<event>
 5    0  0.5605075E-005  0.2594659E+03  0.7546771E-02  0.1107465E+00
         21   -1    0    0  502  501  0.00000000000E+00  0.00000000000E+00  0.45433763530E+03  0.45433763530E+03  0.00000000000E+00 0. -1.
         21   -1    0    0  501  502 -0.00000000000E+00 -0.00000000000E+00 -0.14817738859E+03  0.14817738859E+03  0.00000000000E+00 0. -1.
         25    1    1    2    0    0  0.26056378650E+02 -0.74512510836E+02  0.33097548754E+02  0.15149751441E+03  0.12500000000E+03 0.  0.
         25    1    1    2    0    0 -0.84055654418E+02  0.72800920759E+02  0.26446203600E+03  0.31293848531E+03  0.12500000000E+03 0.  0.
         25    1    1    2    0    0  0.57999275768E+02  0.17115900768E+01  0.86006619500E+01  0.13807902417E+03  0.12500000000E+03 0.  0.
</event>
<event>
 5    0  0.5605075E-005  0.3481709E+03  0.7546771E-02  0.1063368E+00
         21   -1    0    0  502  501  0.00000000000E+00  0.00000000000E+00  0.16311571546E+03  0.16311571546E+03  0.00000000000E+00 0.  1.
         21   -1    0    0  501  502 -0.00000000000E+00 -0.00000000000E+00 -0.74317159804E+03  0.74317159804E+03  0.00000000000E+00 0.  1.
         25    1    1    2    0    0 -0.35207631217E+02  0.38686001718E+02 -0.28278022279E+02  0.13842265194E+03  0.12500000000E+03 0.  0.
         25    1    1    2    0    0  0.12224682512E+03  0.34997909008E+02 -0.57041694992E+03  0.59763670958E+03  0.12500000000E+03 0.  0.
         25    1    1    2    0    0 -0.87039193899E+02 -0.73683910726E+02  0.18639089618E+02  0.17022795198E+03  0.12500000000E+03 0.  0.
</event>
<event>
 5    0  0.5605075E-005  0.2177358E+03  0.7546771E-02  0.1135582E+00
         21   -1    0    0  502  501  0.00000000000E+00  0.00000000000E+00  0.53638967950E+03  0.53638967950E+03  0.00000000000E+00 0. -1.
         21   -1    0    0  501  502 -0.00000000000E+00 -0.00000000000E+00 -0.88385142524E+02  0.88385142524E+02  0.00000000000E+00 0. -1.
         25    1    1    2    0    0 -0.94256365118E+00 -0.72944232091E+02  0.18039973565E+03  0.23128081209E+03  0.12500000000E+03 0.  0.
         25    1    1    2    0    0 -0.52083658010E+02  0.56719916365E+02  0.10221815697E+03  0.17889496348E+03  0.12500000000E+03 0.  0.
         25    1    1    2    0    0  0.53026221661E+02  0.16224315726E+02  0.16538664436E+03  0.21459904645E+03  0.12500000000E+03 0.  0.
</event>
<event>
 5    0  0.5605075E-005  0.2964219E+03  0.7546771E-02  0.1087043E+00
         21   -1    0    0  502  501  0.00000000000E+00  0.00000000000E+00  0.15821435702E+03  0.15821435702E+03  0.00000000000E+00 0. -1.
         21   -1    0    0  501  502 -0.00000000000E+00 -0.00000000000E+00 -0.55536029439E+03  0.55536029439E+03  0.00000000000E+00 0. -1.
         25    1    1    2    0    0 -0.20852636402E+03  0.59809881254E+02 -0.13483207066E+03  0.28436798988E+03  0.12500000000E+03 0.  0.
         25    1    1    2    0    0  0.14919982210E+03 -0.20141640072E+02 -0.15628399396E+03  0.25043154623E+03  0.12500000000E+03 0.  0.
         25    1    1    2    0    0  0.59326541920E+02 -0.39668241182E+02 -0.10602987275E+03  0.17877511530E+03  0.12500000000E+03 0.  0.
</event>
<event>
 5    0  0.5766176E-005  0.2758897E+03  0.7546771E-02  0.1097955E+00
         21   -1    0    0  502  501  0.00000000000E+00  0.00000000000E+00  0.28611833441E+03  0.28611833441E+03  0.00000000000E+00 0. -1.
         21   -1    0    0  501  502 -0.00000000000E+00 -0.00000000000E+00 -0.26602668866E+03  0.26602668866E+03  0.00000000000E+00 0. -1.
         25    1    1    2    0    0 -0.16508338003E+03  0.11527439431E+02  0.81155444432E+02  0.22270296447E+03  0.12500000000E+03 0.  0.
         25    1    1    2    0    0  0.46214013237E+02 -0.19390240319E+02 -0.78512306084E+02  0.15588745506E+03  0.12500000000E+03 0.  0.
         25    1    1    2    0    0  0.11886936680E+03  0.78628008876E+01  0.17448507398E+02  0.17355460354E+03  0.12500000000E+03 0.  0.
</event>
<event>
 5    0  0.5605075E-005  0.4079299E+03  0.7546771E-02  0.1041068E+00
         21   -1    0    0  502  501  0.00000000000E+00  0.00000000000E+00  0.33951868304E+03  0.33951868304E+03  0.00000000000E+00 0.  1.
         21   -1    0    0  501  502 -0.00000000000E+00 -0.00000000000E+00 -0.49012573450E+03  0.49012573450E+03  0.00000000000E+00 0.  1.
         25    1    1    2    0    0  0.10356052820E+03  0.70952369033E+02 -0.35900396594E+03  0.40033469651E+03  0.12500000000E+03 0.  0.
         25    1    1    2    0    0 -0.39038115581E+02  0.91478509628E+02  0.75788007674E+02  0.17680812849E+03  0.12500000000E+03 0.  0.
         25    1    1    2    0    0 -0.64522412616E+02 -0.16243087866E+03  0.13260890681E+03  0.25250159254E+03  0.12500000000E+03 0.  0.
</event>
<event>
 5    0  0.5605075E-005  0.2390655E+03  0.7546771E-02  0.1120417E+00
         21   -1    0    0  502  501  0.00000000000E+00  0.00000000000E+00  0.35333743575E+02  0.35333743575E+02  0.00000000000E+00 0.  1.
         21   -1    0    0  501  502 -0.00000000000E+00 -0.00000000000E+00 -0.16174989694E+04  0.16174989694E+04  0.00000000000E+00 0.  1.
         25    1    1    2    0    0  0.41480403763E+01  0.13309658708E+02 -0.63423905063E+03  0.64658992151E+03  0.12500000000E+03 0.  0.
         25    1    1    2    0    0  0.48415014545E+02  0.76805211856E+00 -0.77263401063E+03  0.78417658593E+03  0.12500000000E+03 0.  0.
         25    1    1    2    0    0 -0.52563054922E+02 -0.14077710827E+02 -0.17529216458E+03  0.22206620555E+03  0.12500000000E+03 0.  0.
</event>
<event>
 5    0  0.5605075E-005  0.2769334E+03  0.7546771E-02  0.1097376E+00
         21   -1    0    0  502  501  0.00000000000E+00  0.00000000000E+00  0.14653982151E+04  0.14653982151E+04  0.00000000000E+00 0.  1.
         21   -1    0    0  501  502 -0.00000000000E+00 -0.00000000000E+00 -0.52335323043E+02  0.52335323043E+02  0.00000000000E+00 0.  1.
         25    1    1    2    0    0  0.88603476016E+02  0.55287272669E+02  0.35619509284E+03  0.39167231539E+03  0.12500000000E+03 0.  0.
         25    1    1    2    0    0  0.50179857641E+02  0.55707568658E+02  0.63520084730E+03  0.65171041708E+03  0.12500000000E+03 0.  0.
         25    1    1    2    0    0 -0.13878333366E+03 -0.11099484133E+03  0.42166695191E+03  0.47435080567E+03  0.12500000000E+03 0.  0.
</event>
<event>
 5    0  0.5605075E-005  0.4304669E+03  0.7546771E-02  0.1033713E+00
         21   -1    0    0  502  501  0.00000000000E+00  0.00000000000E+00  0.29704265959E+03  0.29704265959E+03  0.00000000000E+00 0. -1.
         21   -1    0    0  501  502 -0.00000000000E+00 -0.00000000000E+00 -0.62382205753E+03  0.62382205753E+03  0.00000000000E+00 0. -1.
         25    1    1    2    0    0 -0.59572300471E+02  0.45301704905E+02 -0.12198535071E+03  0.19001718143E+03  0.12500000000E+03 0.  0.
         25    1    1    2    0    0  0.12023943168E+03 -0.20487399127E+03 -0.37369619319E+03  0.46011380987E+03  0.12500000000E+03 0.  0.
         25    1    1    2    0    0 -0.60667131205E+02  0.15957228636E+03  0.16890214597E+03  0.27073372582E+03  0.12500000000E+03 0.  0.
</event>
<event>
 5    0  0.5605075E-005  0.3090426E+03  0.7546771E-02  0.1080806E+00
         21   -1    0    0  502  501  0.00000000000E+00  0.00000000000E+00  0.32335549706E+02  0.32335549706E+02  0.00000000000E+00 0. -1.
         21   -1    0    0  501  502 -0.00000000000E+00 -0.00000000000E+00 -0.29536333017E+04  0.29536333017E+04  0.00000000000E+00 0. -1.
         25    1    1    2    0    0  0.12021136513E+03 -0.88682051613E+02 -0.69355799321E+03  0.72039084429E+03  0.12500000000E+03 0.  0.
         25    1    1    2    0    0 -0.30832174353E+02 -0.95749182376E+02 -0.11692692731E+04  0.11802263180E+04  0.12500000000E+03 0.  0.
         25    1    1    2    0    0 -0.89379190780E+02  0.18443123399E+03 -0.10584704858E+04  0.10853516891E+04  0.12500000000E+03 0.  0.
</event>
<event>
 5    0  0.5605075E-005  0.3651126E+03  0.7546771E-02  0.1056578E+00
         21   -1    0    0  502  501  0.00000000000E+00  0.00000000000E+00  0.16001602752E+03  0.16001602752E+03  0.00000000000E+00 0. -1.
         21   -1    0    0  501  502 -0.00000000000E+00 -0.00000000000E+00 -0.83308652547E+03  0.83308652547E+03  0.00000000000E+00 0. -1.
         25    1    1    2    0    0  0.49556458935E+02  0.45231382016E+02 -0.30323484016E+02  0.14507320298E+03  0.12500000000E+03 0.  0.
         25    1    1    2    0    0  0.42086744730E+02 -0.21465747748E+03 -0.54116430705E+03  0.59693628969E+03  0.12500000000E+03 0.  0.
         25    1    1    2    0    0 -0.91643203665E+02  0.16942609546E+03 -0.10158270689E+03  0.25109306032E+03  0.12500000000E+03 0.  0.
</event>
<event>
 5    0  0.5869942E-005  0.4444218E+03  0.7546771E-02  0.1029399E+00
         21   -1    0    0  502  501  0.00000000000E+00  0.00000000000E+00  0.71723818135E+03  0.71723818135E+03  0.00000000000E+00 0.  1.
         21   -1    0    0  501  502 -0.00000000000E+00 -0.00000000000E+00 -0.27537675871E+03  0.27537675871E+03  0.00000000000E+00 0.  1.
         25    1    1    2    0    0  0.29898340702E+03 -0.45779510618E+02  0.21523077586E+02  0.32798640846E+03  0.12500000000E+03 0.  0.
         25    1    1    2    0    0 -0.11542606586E+03 -0.92859279236E+02  0.32257192696E+02  0.19649821603E+03  0.12500000000E+03 0.  0.
         25    1    1    2    0    0 -0.18355734116E+03  0.13863878985E+03  0.38808115235E+03  0.46813031557E+03  0.12500000000E+03 0.  0.
</event>
<event>
 5    0  0.5605075E-005  0.3009565E+03  0.7546771E-02  0.1084763E+00
         21   -1    0    0  502  501  0.00000000000E+00  0.00000000000E+00  0.18340506765E+03  0.18340506765E+03  0.00000000000E+00 0. -1.
         21   -1    0    0  501  502 -0.00000000000E+00 -0.00000000000E+00 -0.49385121165E+03  0.49385121165E+03  0.00000000000E+00 0. -1.
         25    1    1    2    0    0  0.11596803859E+03 -0.18583997109E+03 -0.19606105000E+03  0.31945268219E+03  0.12500000000E+03 0.  0.
         25    1    1    2    0    0 -0.44215866033E+02  0.12618844397E+03 -0.61264693782E+02  0.19302054011E+03  0.12500000000E+03 0.  0.
         25    1    1    2    0    0 -0.71752172557E+02  0.59651527115E+02 -0.53120400215E+02  0.16478305700E+03  0.12500000000E+03 0.  0.
</event>
<event>
 5    0  0.5605075E-005  0.3717029E+03  0.7546771E-02  0.1054044E+00
         21   -1    0    0  502  501  0.00000000000E+00  0.00000000000E+00  0.89233811091E+02  0.89233811091E+02  0.00000000000E+00 0.  1.
         21   -1    0    0  501  502 -0.00000000000E+00 -0.00000000000E+00 -0.15483258506E+04  0.15483258506E+04  0.00000000000E+00 0.  1.
         25    1    1    2    0    0 -0.97418754384E+02 -0.17523911360E+03 -0.34282859480E+03  0.41635994771E+03  0.12500000000E+03 0.  0.
         25    1    1    2    0    0  0.54884484288E+02  0.23663431687E+03 -0.99463556640E+03  0.10314712873E+04  0.12500000000E+03 0.  0.
         25    1    1    2    0    0  0.42534270096E+02 -0.61395203273E+02 -0.12162787830E+03  0.18972842670E+03  0.12500000000E+03 0.  0.
</event>
<event>
 5    0  0.5605075E-005  0.3321951E+03  0.7546771E-02  0.1070170E+00
         21   -1    0    0  502  501  0.00000000000E+00  0.00000000000E+00  0.15696645055E+03  0.15696645055E+03  0.00000000000E+00 0. -1.
         21   -1    0    0  501  502 -0.00000000000E+00 -0.00000000000E+00 -0.70303922238E+03  0.70303922238E+03  0.00000000000E+00 0. -1.
         25    1    1    2    0    0  0.39741609235E+02 -0.20281541845E+03 -0.12466262762E+03  0.27180739539E+03  0.12500000000E+03 0.  0.
         25    1    1    2    0    0 -0.12633186783E+03  0.90955679044E+02 -0.12115053590E+03  0.23352757595E+03  0.12500000000E+03 0.  0.
         25    1    1    2    0    0  0.86590258594E+02  0.11185973940E+03 -0.30025960831E+03  0.35467070159E+03  0.12500000000E+03 0.  0.
</event>
<event>
 5    0  0.5605075E-005  0.5702866E+03  0.7546771E-02  0.9969045E-01
         21   -1    0    0  502  501  0.00000000000E+00  0.00000000000E+00  0.18201049230E+04  0.18201049230E+04  0.00000000000E+00 0.  1.
         21   -1    0    0  501  502 -0.00000000000E+00 -0.00000000000E+00 -0.17868572506E+03  0.17868572506E+03  0.00000000000E+00 0.  1.
         25    1    1    2    0    0  0.11138529012E+03 -0.23783007136E+03  0.26285471946E+03  0.39202988309E+03  0.12500000000E+03 0.  0.
         25    1    1    2    0    0  0.46473174858E+02  0.42139837861E+03  0.12054914169E+04  0.12839668632E+04  0.12500000000E+03 0.  0.
         25    1    1    2    0    0 -0.15785846498E+03 -0.18356830725E+03  0.17307306158E+03  0.32279390180E+03  0.12500000000E+03 0.  0.
</event>
<event>
 5    0  0.5605075E-005  0.4075898E+03  0.7546771E-02  0.1041183E+00
         21   -1    0    0  502  501  0.00000000000E+00  0.00000000000E+00  0.14013777610E+03  0.14013777610E+03  0.00000000000E+00 0. -1.
         21   -1    0    0  501  502 -0.00000000000E+00 -0.00000000000E+00 -0.11854723751E+04  0.11854723751E+04  0.00000000000E+00 0. -1.
         25    1    1    2    0    0 -0.21523552586E+03 -0.22533489092E+02 -0.23974279258E+03  0.34631733470E+03  0.12500000000E+03 0.  0.
         25    1    1    2    0    0  0.85887115645E+02  0.10847775938E+03 -0.74928585873E+03  0.77213879517E+03  0.12500000000E+03 0.  0.
         25    1    1    2    0    0  0.12934841021E+03 -0.85944270287E+02 -0.56305947744E+02  0.20715402137E+03  0.12500000000E+03 0.  0.
</event>
<event>
 5    0  0.5605075E-005  0.2212074E+03  0.7546771E-02  0.1132986E+00
         21   -1    0    0  502  501  0.00000000000E+00  0.00000000000E+00  0.15915490926E+04  0.15915490926E+04  0.00000000000E+00 0.  1.
         21   -1    0    0  501  502 -0.00000000000E+00 -0.00000000000E+00 -0.30745338158E+02  0.30745338158E+02  0.00000000000E+00 0.  1.
         25    1    1    2    0    0 -0.13461815016E+02  0.62537959505E+02  0.28596883414E+03  0.31858341285E+03  0.12500000000E+03 0.  0.
         25    1    1    2    0    0  0.23029209955E+02 -0.71822238780E+02  0.74470961263E+03  0.75888483028E+03  0.12500000000E+03 0.  0.
         25    1    1    2    0    0 -0.95673949389E+01  0.92842792748E+01  0.53012530767E+03  0.54482618763E+03  0.12500000000E+03 0.  0.
</event>
<event>
 5    0  0.5605075E-005  0.3215864E+03  0.7546771E-02  0.1074921E+00
         21   -1    0    0  502  501  0.00000000000E+00  0.00000000000E+00  0.21351870006E+03  0.21351870006E+03  0.00000000000E+00 0. -1.
         21   -1    0    0  501  502 -0.00000000000E+00 -0.00000000000E+00 -0.48435028622E+03  0.48435028622E+03  0.00000000000E+00 0. -1.
         25    1    1    2    0    0 -0.10147876439E+03  0.51075461919E+02  0.62528783765E+02  0.18011521655E+03  0.12500000000E+03 0.  0.
         25    1    1    2    0    0  0.17875736523E+03  0.11540966207E+02 -0.26651055917E+03  0.34458709737E+03  0.12500000000E+03 0.  0.
         25    1    1    2    0    0 -0.77278600839E+02 -0.62616428126E+02 -0.66849810759E+02  0.17316667236E+03  0.12500000000E+03 0.  0.
</event>
<event>
 5    0  0.5605075E-005  0.2627514E+03  0.7546771E-02  0.1105501E+00
         21   -1    0    0  502  501  0.00000000000E+00  0.00000000000E+00  0.12944215447E+04  0.12944215447E+04  0.00000000000E+00 0. -1.
         21   -1    0    0  501  502 -0.00000000000E+00 -0.00000000000E+00 -0.53335269221E+02  0.53335269221E+02  0.00000000000E+00 0. -1.
         25    1    1    2    0    0 -0.72703037112E+02  0.83433363914E+02  0.36400187453E+03  0.40046126215E+03  0.12500000000E+03 0.  0.
         25    1    1    2    0    0 -0.18014023764E+02 -0.61883442874E+02  0.68786860163E+03  0.70209848217E+03  0.12500000000E+03 0.  0.
         25    1    1    2    0    0  0.90717060875E+02 -0.21549921040E+02  0.18921579931E+03  0.24519706960E+03  0.12500000000E+03 0.  0.
</event>
<event>
 5    0  0.5605075E-005  0.2787072E+03  0.7546771E-02  0.1096397E+00
         21   -1    0    0  502  501  0.00000000000E+00  0.00000000000E+00  0.30169932333E+03  0.30169932333E+03  0.00000000000E+00 0. -1.
         21   -1    0    0  501  502 -0.00000000000E+00 -0.00000000000E+00 -0.25746718712E+03  0.25746718712E+03  0.00000000000E+00 0. -1.
         25    1    1    2    0    0  0.11172114033E+02  0.24878101727E+01  0.16388652079E+03  0.20643351721E+03  0.12500000000E+03 0.  0.
         25    1    1    2    0    0 -0.98588864303E+02  0.53442999816E+02 -0.44501373268E+02  0.17372763343E+03  0.12500000000E+03 0.  0.
         25    1    1    2    0    0  0.87416750270E+02 -0.55930809988E+02 -0.75153011308E+02  0.17900535981E+03  0.12500000000E+03 0.  0.
</event>
<event>
 5    0  0.5605075E-005  0.4752260E+03  0.7546771E-02  0.1020455E+00
         21   -1    0    0  502  501  0.00000000000E+00  0.00000000000E+00  0.14854749659E+03  0.14854749659E+03  0.00000000000E+00 0. -1.
         21   -1    0    0  501  502 -0.00000000000E+00 -0.00000000000E+00 -0.15203204095E+04  0.15203204095E+04  0.00000000000E+00 0. -1.
         25    1    1    2    0    0  0.84523953641E+02  0.95954706595E+02 -0.93205303284E+03  0.94905187449E+03  0.12500000000E+03 0.  0.
         25    1    1    2    0    0 -0.15998831587E+02 -0.28246687343E+03 -0.35354872128E+03  0.46975014158E+03  0.12500000000E+03 0.  0.
         25    1    1    2    0    0 -0.68525122053E+02  0.18651216683E+03 -0.86171158738E+02  0.25006588997E+03  0.12500000000E+03 0.  0.
</event>
<event>
 5    0  0.7290308E-005  0.5684401E+03  0.7546771E-02  0.9973136E-01
         21   -1    0    0  502  501  0.00000000000E+00  0.00000000000E+00  0.80985364898E+03  0.80985364898E+03  0.00000000000E+00 0.  1.
         21   -1    0    0  501  502 -0.00000000000E+00 -0.00000000000E+00 -0.39899073391E+03  0.39899073391E+03  0.00000000000E+00 0.  1.
         25    1    1    2    0    0  0.29484143109E+03  0.42965031466E+01 -0.18564188034E+03  0.37018621957E+03  0.12500000000E+03 0.  0.
         25    1    1    2    0    0  0.44679160133E+02 -0.59635872919E+02  0.39476503197E+03  0.42073399572E+03  0.12500000000E+03 0.  0.
         25    1    1    2    0    0 -0.33952059122E+03  0.55339369772E+02  0.20173976344E+03  0.41792416760E+03  0.12500000000E+03 0.  0.
</event>
<event>
 5    0  0.5605075E-005  0.2848203E+03  0.7546771E-02  0.1093085E+00
         21   -1    0    0  502  501  0.00000000000E+00  0.00000000000E+00  0.20462368700E+03  0.20462368700E+03  0.00000000000E+00 0.  1.
         21   -1    0    0  501  502 -0.00000000000E+00 -0.00000000000E+00 -0.39644789556E+03  0.39644789556E+03  0.00000000000E+00 0.  1.
         25    1    1    2    0    0  0.27289575836E+02 -0.84381502845E+02 -0.33215687188E+02  0.15682232254E+03  0.12500000000E+03 0.  0.
         25    1    1    2    0    0 -0.41513961965E+02  0.15607050119E+03  0.30058614848E+02  0.20642173022E+03  0.12500000000E+03 0.  0.
         25    1    1    2    0    0  0.14224386129E+02 -0.71688998345E+02 -0.18866713622E+03  0.23782752981E+03  0.12500000000E+03 0.  0.
</event>
<event>
 5    0  0.5605075E-005  0.2150920E+03  0.7546771E-02  0.1137596E+00
         21   -1    0    0  502  501  0.00000000000E+00  0.00000000000E+00  0.10215985759E+03  0.10215985759E+03  0.00000000000E+00 0. -1.
         21   -1    0    0  501  502 -0.00000000000E+00 -0.00000000000E+00 -0.45286428983E+03  0.45286428983E+03  0.00000000000E+00 0. -1.
         25    1    1    2    0    0 -0.72682097963E+02 -0.33418254716E+02 -0.10845146789E+03  0.18381019558E+03  0.12500000000E+03 0.  0.
         25    1    1    2    0    0  0.61013477826E+01  0.47789299715E+02 -0.82908452964E+02  0.15754318514E+03  0.12500000000E+03 0.  0.
         25    1    1    2    0    0  0.66580750181E+02 -0.14371045000E+02 -0.15934451139E+03  0.21367076670E+03  0.12500000000E+03 0.  0.
</event>
<event>
 5    0  0.5605075E-005  0.2994564E+03  0.7546771E-02  0.1085513E+00
         21   -1    0    0  502  501  0.00000000000E+00  0.00000000000E+00  0.12165227324E+03  0.12165227324E+03  0.00000000000E+00 0. -1.
         21   -1    0    0  501  502 -0.00000000000E+00 -0.00000000000E+00 -0.73713473474E+03  0.73713473474E+03  0.00000000000E+00 0. -1.
         25    1    1    2    0    0  0.12284680265E+03  0.11927644282E+03 -0.26288002540E+03  0.33771158477E+03  0.12500000000E+03 0.  0.
         25    1    1    2    0    0 -0.11019736722E+02 -0.75150072191E+02 -0.30957427649E+03  0.34238896100E+03  0.12500000000E+03 0.  0.
         25    1    1    2    0    0 -0.11182706593E+03 -0.44126370627E+02 -0.43028159607E+02  0.17868646221E+03  0.12500000000E+03 0.  0.
</event>
<event>
 5    0  0.5605075E-005  0.4131010E+03  0.7546771E-02  0.1039335E+00
         21   -1    0    0  502  501  0.00000000000E+00  0.00000000000E+00  0.15679445524E+04  0.15679445524E+04  0.00000000000E+00 0. -1.
         21   -1    0    0  501  502 -0.00000000000E+00 -0.00000000000E+00 -0.10883832909E+03  0.10883832909E+03  0.00000000000E+00 0. -1.
         25    1    1    2    0    0 -0.29814227899E+01  0.15175351034E+03  0.30244857748E+03  0.36074666846E+03  0.12500000000E+03 0.  0.
         25    1    1    2    0    0 -0.77296929103E+02  0.19802683648E+03  0.49442121835E+03  0.55250953328E+03  0.12500000000E+03 0.  0.
         25    1    1    2    0    0  0.80278351893E+02 -0.34978034682E+03  0.66223642747E+03  0.76352667974E+03  0.12500000000E+03 0.  0.
</event>
<event>
 5    0  0.5605075E-005  0.2948534E+03  0.7546771E-02  0.1087842E+00
         21   -1    0    0  502  501  0.00000000000E+00  0.00000000000E+00  0.76325713999E+03  0.76325713999E+03  0.00000000000E+00 0. -1.
         21   -1    0    0  501  502 -0.00000000000E+00 -0.00000000000E+00 -0.11390463770E+03  0.11390463770E+03  0.00000000000E+00 0. -1.
         25    1    1    2    0    0  0.59612116520E+02  0.70122141187E+02  0.88247894318E+02  0.17855926179E+03  0.12500000000E+03 0.  0.
         25    1    1    2    0    0  0.78204439567E+02 -0.15119401588E+03  0.25156160639E+03  0.32845670432E+03  0.12500000000E+03 0.  0.
         25    1    1    2    0    0 -0.13781655609E+03  0.81071874696E+02  0.30954300159E+03  0.37014581158E+03  0.12500000000E+03 0.  0.
</event>
<event>
 5    0  0.5605075E-005  0.2398317E+03  0.7546771E-02  0.1119905E+00
         21   -1    0    0  502  501  0.00000000000E+00  0.00000000000E+00  0.13602365885E+03  0.13602365885E+03  0.00000000000E+00 0.  1.
         21   -1    0    0  501  502 -0.00000000000E+00 -0.00000000000E+00 -0.42286211512E+03  0.42286211512E+03  0.00000000000E+00 0.  1.
         25    1    1    2    0    0  0.91752131185E+02  0.23971125210E+02 -0.69691344246E+02  0.17168270700E+03  0.12500000000E+03 0.  0.
         25    1    1    2    0    0 -0.18094423490E+02 -0.94068475619E+02 -0.85944910779E+02  0.17940962615E+03  0.12500000000E+03 0.  0.
         25    1    1    2    0    0 -0.73657707695E+02  0.70097350409E+02 -0.13120220124E+03  0.20779344082E+03  0.12500000000E+03 0.  0.
</event>
<event>
 5    0  0.5605075E-005  0.3114364E+03  0.7546771E-02  0.1079659E+00
         21   -1    0    0  502  501  0.00000000000E+00  0.00000000000E+00  0.20889081865E+03  0.20889081865E+03  0.00000000000E+00 0. -1.
         21   -1    0    0  501  502 -0.00000000000E+00 -0.00000000000E+00 -0.46432200934E+03  0.46432200934E+03  0.00000000000E+00 0. -1.
         25    1    1    2    0    0 -0.19301745290E+03 -0.92902877594E+02 -0.10848311655E+03  0.27070328473E+03  0.12500000000E+03 0.  0.
         25    1    1    2    0    0  0.89443056857E+02  0.24373840714E+02 -0.16325855792E+03  0.22554933222E+03  0.12500000000E+03 0.  0.
         25    1    1    2    0    0  0.10357439604E+03  0.68529036880E+02  0.16310483776E+02  0.17696021104E+03  0.12500000000E+03 0.  0.
</event>
<event>
 5    0  0.5605075E-005  0.4165806E+03  0.7546771E-02  0.1038185E+00
         21   -1    0    0  502  501  0.00000000000E+00  0.00000000000E+00  0.18566439517E+03  0.18566439517E+03  0.00000000000E+00 0.  1.
         21   -1    0    0  501  502 -0.00000000000E+00 -0.00000000000E+00 -0.93469381297E+03  0.93469381297E+03  0.00000000000E+00 0.  1.
         25    1    1    2    0    0  0.24672737886E+02 -0.52271302701E+01 -0.12664305345E+03  0.17972069962E+03  0.12500000000E+03 0.  0.
         25    1    1    2    0    0 -0.10104230271E+03 -0.20420952737E+03 -0.63358660803E+03  0.68481243263E+03  0.12500000000E+03 0.  0.
         25    1    1    2    0    0  0.76369564823E+02  0.20943665764E+03  0.11200243670E+02  0.25582507589E+03  0.12500000000E+03 0.  0.
</event>
<event>
 5    0  0.5605075E-005  0.3637990E+03  0.7546771E-02  0.1057090E+00
         21   -1    0    0  502  501  0.00000000000E+00  0.00000000000E+00  0.10116535258E+03  0.10116535258E+03  0.00000000000E+00 0.  1.
         21   -1    0    0  501  502 -0.00000000000E+00 -0.00000000000E+00 -0.13082511387E+04  0.13082511387E+04  0.00000000000E+00 0.  1.
         25    1    1    2    0    0 -0.10319793831E+03 -0.17537291641E+03 -0.48507455084E+03  0.54067346352E+03  0.12500000000E+03 0.  0.
         25    1    1    2    0    0  0.42633731613E+02  0.30026920127E+02 -0.63567762510E+03  0.64994637783E+03  0.12500000000E+03 0.  0.
         25    1    1    2    0    0  0.60564206696E+02  0.14534599628E+03 -0.86333610171E+02  0.21879664991E+03  0.12500000000E+03 0.  0.
</event>
<event>
 5    0  0.5605075E-005  0.2612141E+03  0.7546771E-02  0.1106416E+00
         21   -1    0    0  502  501  0.00000000000E+00  0.00000000000E+00  0.19933206756E+03  0.19933206756E+03  0.00000000000E+00 0.  1.
         21   -1    0    0  501  502 -0.00000000000E+00 -0.00000000000E+00 -0.34230717108E+03  0.34230717108E+03  0.00000000000E+00 0.  1.
         25    1    1    2    0    0  0.74678611771E+02 -0.41131649371E+02 -0.74527154271E+02  0.16866536206E+03  0.12500000000E+03 0.  0.
         25    1    1    2    0    0  0.86199670854E+02 -0.27523245682E-01  0.66219146004E+01  0.15198432079E+03  0.12500000000E+03 0.  0.
         25    1    1    2    0    0 -0.16087828262E+03  0.41159172616E+02 -0.75069863844E+02  0.22098955579E+03  0.12500000000E+03 0.  0.
</event>
<event>
 5    0  0.5605075E-005  0.2655910E+03  0.7546771E-02  0.1103830E+00
         21   -1    0    0  502  501  0.00000000000E+00  0.00000000000E+00  0.37166688114E+03  0.37166688114E+03  0.00000000000E+00 0. -1.
         21   -1    0    0  501  502 -0.00000000000E+00 -0.00000000000E+00 -0.18978979889E+03  0.18978979889E+03  0.00000000000E+00 0. -1.
         25    1    1    2    0    0  0.14513274448E+03  0.52228783560E+02  0.18675868869E+02  0.19941200423E+03  0.12500000000E+03 0.  0.
         25    1    1    2    0    0 -0.14385465767E+03 -0.11311940828E+02  0.84601909350E+02  0.20881715831E+03  0.12500000000E+03 0.  0.
         25    1    1    2    0    0 -0.12780868093E+01 -0.40916842732E+02  0.78599304026E+02  0.15322751750E+03  0.12500000000E+03 0.  0.
</event>
<event>
 5    0  0.5605075E-005  0.2389054E+03  0.7546771E-02  0.1120524E+00
         21   -1    0    0  502  501  0.00000000000E+00  0.00000000000E+00  0.65659479561E+02  0.65659479561E+02  0.00000000000E+00 0.  1.
         21   -1    0    0  501  502 -0.00000000000E+00 -0.00000000000E+00 -0.86926940543E+03  0.86926940543E+03  0.00000000000E+00 0.  1.
         25    1    1    2    0    0 -0.55969258965E+02 -0.21655613784E+02 -0.24383181037E+03  0.28050040161E+03  0.12500000000E+03 0.  0.
         25    1    1    2    0    0 -0.19190439118E+02 -0.61932314743E+02 -0.39366845448E+03  0.41809536785E+03  0.12500000000E+03 0.  0.
         25    1    1    2    0    0  0.75159698083E+02  0.83587928526E+02 -0.16610966101E+03  0.23633311552E+03  0.12500000000E+03 0.  0.
</event>
<event>
 5    0  0.5605075E-005  0.4217851E+03  0.7546771E-02  0.1036487E+00
         21   -1    0    0  502  501  0.00000000000E+00  0.00000000000E+00  0.59640482189E+03  0.59640482189E+03  0.00000000000E+00 0. -1.
         21   -1    0    0  501  502 -0.00000000000E+00 -0.00000000000E+00 -0.29829184468E+03  0.29829184468E+03  0.00000000000E+00 0. -1.
         25    1    1    2    0    0 -0.13788042443E+03  0.72804260677E+02  0.23439328736E+03  0.30802059180E+03  0.12500000000E+03 0.  0.
         25    1    1    2    0    0  0.28439460636E+03  0.82565468876E+02  0.99880933045E+02  0.33659849905E+03  0.12500000000E+03 0.  0.
         25    1    1    2    0    0 -0.14651418193E+03 -0.15536972955E+03 -0.36161243189E+02  0.25007757572E+03  0.12500000000E+03 0.  0.
</event>
<event>
 5    0  0.5605075E-005  0.3184738E+03  0.7546771E-02  0.1076354E+00
         21   -1    0    0  502  501  0.00000000000E+00  0.00000000000E+00  0.60527194735E+03  0.60527194735E+03  0.00000000000E+00 0. -1.
         21   -1    0    0  501  502 -0.00000000000E+00 -0.00000000000E+00 -0.16757023451E+03  0.16757023451E+03  0.00000000000E+00 0. -1.
         25    1    1    2    0    0 -0.76189611585E+01 -0.17421959002E+03  0.14998159157E+03  0.26178233692E+03  0.12500000000E+03 0.  0.
         25    1    1    2    0    0 -0.87122073288E+02  0.16990153552E+03  0.62582671547E+02  0.23663976463E+03  0.12500000000E+03 0.  0.
         25    1    1    2    0    0  0.94741034447E+02  0.43180544953E+01  0.22513744974E+03  0.27442008031E+03  0.12500000000E+03 0.  0.
</event>
<event>
 5    0  0.5605075E-005  0.2463772E+03  0.7546771E-02  0.1115616E+00
         21   -1    0    0  502  501  0.00000000000E+00  0.00000000000E+00  0.72462745158E+02  0.72462745158E+02  0.00000000000E+00 0. -1.
         21   -1    0    0  501  502 -0.00000000000E+00 -0.00000000000E+00 -0.83769573874E+03  0.83769573874E+03  0.00000000000E+00 0. -1.
         25    1    1    2    0    0  0.59647334468E+02 -0.24944433993E+01 -0.55022272753E+02  0.14905192805E+03  0.12500000000E+03 0.  0.
         25    1    1    2    0    0 -0.59835555191E+02  0.13995671352E+01 -0.47416734311E+03  0.49400599361E+03  0.12500000000E+03 0.  0.
         25    1    1    2    0    0  0.18822072325E+00  0.10948762641E+01 -0.23604337773E+03  0.26710056224E+03  0.12500000000E+03 0.  0.
</event>
<event>
 5    0  0.5605075E-005  0.5849572E+03  0.7546771E-02  0.9937116E-01
         21   -1    0    0  502  501  0.00000000000E+00  0.00000000000E+00  0.58485367709E+03  0.58485367709E+03  0.00000000000E+00 0.  1.
         21   -1    0    0  501  502 -0.00000000000E+00 -0.00000000000E+00 -0.58506080101E+03  0.58506080101E+03  0.00000000000E+00 0.  1.
         25    1    1    2    0    0  0.11097110477E+03 -0.30190674219E+03 -0.47509000736E+02  0.34834519119E+03  0.12500000000E+03 0.  0.
         25    1    1    2    0    0  0.11506806202E+03 -0.14176701163E+03 -0.15457230856E+03  0.26991877122E+03  0.12500000000E+03 0.  0.
         25    1    1    2    0    0 -0.22603916679E+03  0.44367375382E+03  0.20187418537E+03  0.55165051570E+03  0.12500000000E+03 0.  0.
</event>
<event>
 5    0  0.5605075E-005  0.5734217E+03  0.7546771E-02  0.9962135E-01
         21   -1    0    0  502  501  0.00000000000E+00  0.00000000000E+00  0.13293566880E+04  0.13293566880E+04  0.00000000000E+00 0. -1.
         21   -1    0    0  501  502 -0.00000000000E+00 -0.00000000000E+00 -0.24734701881E+03  0.24734701881E+03  0.00000000000E+00 0. -1.
         25    1    1    2    0    0 -0.12621384713E+03  0.44872079952E+03  0.66428968913E+03  0.82108835226E+03  0.12500000000E+03 0.  0.
         25    1    1    2    0    0  0.83881670653E+02 -0.35104903266E+03  0.95107133903E+02  0.39362663137E+03  0.12500000000E+03 0.  0.
         25    1    1    2    0    0  0.42332176479E+02 -0.97671766857E+02  0.32261284620E+03  0.36198872322E+03  0.12500000000E+03 0.  0.
</event>
<event>
 5    0  0.5605075E-005  0.3309263E+03  0.7546771E-02  0.1070728E+00
         21   -1    0    0  502  501  0.00000000000E+00  0.00000000000E+00  0.58553287674E+03  0.58553287674E+03  0.00000000000E+00 0. -1.
         21   -1    0    0  501  502 -0.00000000000E+00 -0.00000000000E+00 -0.18702996804E+03  0.18702996804E+03  0.00000000000E+00 0. -1.
         25    1    1    2    0    0  0.17136858950E+03  0.92443268823E+02  0.22187665032E+03  0.32057323559E+03  0.12500000000E+03 0.  0.
         25    1    1    2    0    0 -0.20145768396E+03 -0.98751780723E+02  0.32712368774E+02  0.25890579695E+03  0.12500000000E+03 0.  0.
         25    1    1    2    0    0  0.30089094465E+02  0.63085118995E+01  0.14391388961E+03  0.19308381224E+03  0.12500000000E+03 0.  0.
</event>
<event>
 5    0  0.5605075E-005  0.3644235E+03  0.7546771E-02  0.1056846E+00
         21   -1    0    0  502  501  0.00000000000E+00  0.00000000000E+00  0.22049996422E+03  0.22049996422E+03  0.00000000000E+00 0.  1.
         21   -1    0    0  501  502 -0.00000000000E+00 -0.00000000000E+00 -0.60228787342E+03  0.60228787342E+03  0.00000000000E+00 0.  1.
         25    1    1    2    0    0 -0.20058315498E+03 -0.15152491632E+03 -0.10165602320E+03  0.29858390677E+03  0.12500000000E+03 0.  0.
         25    1    1    2    0    0 -0.32224904138E+02  0.99502260015E+02 -0.16304130989E+03  0.23053549168E+03  0.12500000000E+03 0.  0.
         25    1    1    2    0    0  0.23280805912E+03  0.52022656301E+02 -0.11709057612E+03  0.29366843919E+03  0.12500000000E+03 0.  0.
</event>
<event>
 5    0  0.5605075E-005  0.3616756E+03  0.7546771E-02  0.1057922E+00
         21   -1    0    0  502  501  0.00000000000E+00  0.00000000000E+00  0.47627934371E+03  0.47627934371E+03  0.00000000000E+00 0.  1.
         21   -1    0    0  501  502 -0.00000000000E+00 -0.00000000000E+00 -0.27464811072E+03  0.27464811072E+03  0.00000000000E+00 0.  1.
         25    1    1    2    0    0  0.76887692124E+02 -0.23251003925E+03  0.99456361567E+02  0.29238536798E+03  0.12500000000E+03 0.  0.
         25    1    1    2    0    0 -0.16562047283E+03  0.67313426039E+02  0.78931847302E+02  0.23198378147E+03  0.12500000000E+03 0.  0.
         25    1    1    2    0    0  0.88732780710E+02  0.16519661321E+03  0.23243024115E+02  0.22655830499E+03  0.12500000000E+03 0.  0.
</event>
<event>
 5    0  0.5605075E-005  0.2471914E+03  0.7546771E-02  0.1115093E+00
         21   -1    0    0  502  501  0.00000000000E+00  0.00000000000E+00  0.79975527943E+03  0.79975527943E+03  0.00000000000E+00 0. -1.
         21   -1    0    0  501  502 -0.00000000000E+00 -0.00000000000E+00 -0.76402847154E+02  0.76402847154E+02  0.00000000000E+00 0. -1.
         25    1    1    2    0    0  0.17937211572E+02  0.13913680020E+03  0.37107973438E+03  0.41593985382E+03  0.12500000000E+03 0.  0.
         25    1    1    2    0    0  0.55582746368E+01 -0.10748838959E+03  0.18953204531E+03  0.25126090924E+03  0.12500000000E+03 0.  0.
         25    1    1    2    0    0 -0.23495486209E+02 -0.31648410601E+02  0.16274065259E+03  0.20895736352E+03  0.12500000000E+03 0.  0.
</event>
<event>
 5    0  0.5605075E-005  0.2246869E+03  0.7546771E-02  0.1130436E+00
         21   -1    0    0  502  501  0.00000000000E+00  0.00000000000E+00  0.37896275679E+02  0.37896275679E+02  0.00000000000E+00 0. -1.
         21   -1    0    0  501  502 -0.00000000000E+00 -0.00000000000E+00 -0.13321678756E+04  0.13321678756E+04  0.00000000000E+00 0. -1.
         25    1    1    2    0    0  0.29104072469E+02  0.13974990894E+02 -0.41052848600E+03  0.43034984051E+03  0.12500000000E+03 0.  0.
         25    1    1    2    0    0 -0.17794614075E+02  0.38707481667E+02 -0.18184218985E+03  0.22473651113E+03  0.12500000000E+03 0.  0.
         25    1    1    2    0    0 -0.11309458394E+02 -0.52682472560E+02 -0.70190092402E+03  0.71497779959E+03  0.12500000000E+03 0.  0.
</event>
<event>
 5    0  0.5605075E-005  0.3286135E+03  0.7546771E-02  0.1071752E+00
         21   -1    0    0  502  501  0.00000000000E+00  0.00000000000E+00  0.23066096014E+03  0.23066096014E+03  0.00000000000E+00 0.  1.
         21   -1    0    0  501  502 -0.00000000000E+00 -0.00000000000E+00 -0.46816251303E+03  0.46816251303E+03  0.00000000000E+00 0.  1.
         25    1    1    2    0    0  0.20891197987E+03  0.74198371871E+02 -0.18832077158E+03  0.31660594866E+03  0.12500000000E+03 0.  0.
         25    1    1    2    0    0 -0.30374762687E+01 -0.89760846546E+01 -0.43286970197E+02  0.13262186150E+03  0.12500000000E+03 0.  0.
         25    1    1    2    0    0 -0.20587450360E+03 -0.65222287216E+02 -0.58938111103E+01  0.24959566301E+03  0.12500000000E+03 0.  0.
</event>
<event>
 5    0  0.5605075E-005  0.3161875E+03  0.7546771E-02  0.1077417E+00
         21   -1    0    0  502  501  0.00000000000E+00  0.00000000000E+00  0.46724347710E+03  0.46724347710E+03  0.00000000000E+00 0. -1.
         21   -1    0    0  501  502 -0.00000000000E+00 -0.00000000000E+00 -0.21396674045E+03  0.21396674045E+03  0.00000000000E+00 0. -1.
         25    1    1    2    0    0  0.17349645794E+03  0.42631713670E+02  0.57492094682E+02  0.22549684007E+03  0.12500000000E+03 0.  0.
         25    1    1    2    0    0 -0.84881948308E+02 -0.63895242722E+02 -0.44464866405E+02  0.16996961945E+03  0.12500000000E+03 0.  0.
         25    1    1    2    0    0 -0.88614509637E+02  0.21263529052E+02  0.24024950837E+03  0.28574375804E+03  0.12500000000E+03 0.  0.
</event>
<event>
 5    0  0.5605075E-005  0.4049755E+03  0.7546771E-02  0.1042070E+00
         21   -1    0    0  502  501  0.00000000000E+00  0.00000000000E+00  0.10858924510E+04  0.10858924510E+04  0.00000000000E+00 0.  1.
         21   -1    0    0  501  502 -0.00000000000E+00 -0.00000000000E+00 -0.15103262211E+03  0.15103262211E+03  0.00000000000E+00 0.  1.
         25    1    1    2    0    0  0.57384829299E+02 -0.11791396742E+03  0.24231362747E+03  0.30255184085E+03  0.12500000000E+03 0.  0.
         25    1    1    2    0    0  0.11290401668E+03  0.26968230681E+03  0.19515819182E+03  0.37307852179E+03  0.12500000000E+03 0.  0.
         25    1    1    2    0    0 -0.17028884598E+03 -0.15176833939E+03  0.49738800957E+03  0.56129471044E+03  0.12500000000E+03 0.  0.
</event>
<event>
 5    0  0.5605075E-005  0.3143647E+03  0.7546771E-02  0.1078272E+00
         21   -1    0    0  502  501  0.00000000000E+00  0.00000000000E+00  0.69480115203E+02  0.69480115203E+02  0.00000000000E+00 0. -1.
         21   -1    0    0  501  502 -0.00000000000E+00 -0.00000000000E+00 -0.14223515809E+04  0.14223515809E+04  0.00000000000E+00 0. -1.
         25    1    1    2    0    0  0.77263305640E+02 -0.51514629615E+01 -0.62962007322E+02  0.15995427576E+03  0.12500000000E+03 0.  0.
         25    1    1    2    0    0  0.62290943615E+02  0.15089430260E+02 -0.45716188053E+03  0.47825708314E+03  0.12500000000E+03 0.  0.
         25    1    1    2    0    0 -0.13955424926E+03 -0.99379672989E+01 -0.83274757787E+03  0.85362033723E+03  0.12500000000E+03 0.  0.
</event>
<event>
 5    0  0.5605075E-005  0.2769662E+03  0.7546771E-02  0.1097358E+00
         21   -1    0    0  502  501  0.00000000000E+00  0.00000000000E+00  0.38843679521E+02  0.38843679521E+02  0.00000000000E+00 0.  1.
         21   -1    0    0  501  502 -0.00000000000E+00 -0.00000000000E+00 -0.19748455636E+04  0.19748455636E+04  0.00000000000E+00 0.  1.
         25    1    1    2    0    0  0.52344820373E+01  0.13537891392E+03 -0.58131583534E+03  0.60984256211E+03  0.12500000000E+03 0.  0.
         25    1    1    2    0    0 -0.37949015575E+02 -0.16123327221E+03 -0.53863465641E+03  0.57722490325E+03  0.12500000000E+03 0.  0.
         25    1    1    2    0    0  0.32714533538E+02  0.25854358293E+02 -0.81605139229E+03  0.82662177772E+03  0.12500000000E+03 0.  0.
</event>
<event>
 5    0  0.5605075E-005  0.2497624E+03  0.7546771E-02  0.1113455E+00
         21   -1    0    0  502  501  0.00000000000E+00  0.00000000000E+00  0.22367149566E+03  0.22367149566E+03  0.00000000000E+00 0. -1.
         21   -1    0    0  501  502 -0.00000000000E+00 -0.00000000000E+00 -0.27889678193E+03  0.27889678193E+03  0.00000000000E+00 0. -1.
         25    1    1    2    0    0 -0.11102093860E+03  0.80532629824E+02 -0.40951566062E+02  0.19003469167E+03  0.12500000000E+03 0.  0.
         25    1    1    2    0    0  0.12833549805E+01 -0.38881479506E+02 -0.44799728760E+02  0.13836701972E+03  0.12500000000E+03 0.  0.
         25    1    1    2    0    0  0.10973758362E+03 -0.41651150317E+02  0.30526008554E+02  0.17416656620E+03  0.12500000000E+03 0.  0.
</event>
<event>
 5    0  0.5662258E-005  0.3030189E+03  0.7546771E-02  0.1083741E+00
         21   -1    0    0  502  501  0.00000000000E+00  0.00000000000E+00  0.87179113681E+03  0.87179113681E+03  0.00000000000E+00 0. -1.
         21   -1    0    0  501  502 -0.00000000000E+00 -0.00000000000E+00 -0.10532389891E+03  0.10532389891E+03  0.00000000000E+00 0. -1.
         25    1    1    2    0    0 -0.75651621320E+02 -0.10862754086E+02  0.40541224994E+03  0.43107454069E+03  0.12500000000E+03 0.  0.
         25    1    1    2    0    0  0.78997802331E+02  0.15440766883E+03  0.14632010641E+03  0.25906940094E+03  0.12500000000E+03 0.  0.
         25    1    1    2    0    0 -0.33461810116E+01 -0.14354491475E+03  0.21473488156E+03  0.28697109408E+03  0.12500000000E+03 0.  0.
</event>
<event>
 5    0  0.5605075E-005  0.2706580E+03  0.7546771E-02  0.1100904E+00
         21   -1    0    0  502  501  0.00000000000E+00  0.00000000000E+00  0.72886349429E+02  0.72886349429E+02  0.00000000000E+00 0. -1.
         21   -1    0    0  501  502 -0.00000000000E+00 -0.00000000000E+00 -0.10050679955E+04  0.10050679955E+04  0.00000000000E+00 0. -1.
         25    1    1    2    0    0 -0.83051594739E+02  0.12157100997E+03 -0.27401260852E+03  0.33523870224E+03  0.12500000000E+03 0.  0.
         25    1    1    2    0    0  0.56101675722E+02 -0.61519081770E+01 -0.46065330540E+03  0.48063677738E+03  0.12500000000E+03 0.  0.
         25    1    1    2    0    0  0.26949919017E+02 -0.11541910180E+03 -0.19751573216E+03  0.26207886532E+03  0.12500000000E+03 0.  0.
</event>
<event>
 5    0  0.5605075E-005  0.2741813E+03  0.7546771E-02  0.1098910E+00
         21   -1    0    0  502  501  0.00000000000E+00  0.00000000000E+00  0.29091138984E+03  0.29091138984E+03  0.00000000000E+00 0.  1.
         21   -1    0    0  501  502 -0.00000000000E+00 -0.00000000000E+00 -0.25841341490E+03  0.25841341490E+03  0.00000000000E+00 0.  1.
         25    1    1    2    0    0 -0.12317426222E+03 -0.51957970027E+01 -0.98981792969E+02  0.20154724141E+03  0.12500000000E+03 0.  0.
         25    1    1    2    0    0  0.92606587058E+02 -0.71748726445E+02  0.58511715905E+02  0.18103171162E+03  0.12500000000E+03 0.  0.
         25    1    1    2    0    0  0.30567675159E+02  0.76944523448E+02  0.72968052001E+02  0.16674585172E+03  0.12500000000E+03 0.  0.
</event>
<event>
 5    0  0.5605075E-005  0.3210590E+03  0.7546771E-02  0.1075163E+00
         21   -1    0    0  502  501  0.00000000000E+00  0.00000000000E+00  0.94225072335E+03  0.94225072335E+03  0.00000000000E+00 0.  1.
         21   -1    0    0  501  502 -0.00000000000E+00 -0.00000000000E+00 -0.10939645649E+03  0.10939645649E+03  0.00000000000E+00 0.  1.
         25    1    1    2    0    0 -0.10507884277E+03  0.14702781386E+03  0.65858158041E+03  0.69427187708E+03  0.12500000000E+03 0.  0.
         25    1    1    2    0    0  0.60404829693E+02 -0.50530283157E+02  0.88140076811E+02  0.17203408414E+03  0.12500000000E+03 0.  0.
         25    1    1    2    0    0  0.44674013078E+02 -0.96497530707E+02  0.86132609637E+02  0.18534121862E+03  0.12500000000E+03 0.  0.
</event>
<event>
 5    0  0.5605075E-005  0.3088290E+03  0.7546771E-02  0.1080909E+00
         21   -1    0    0  502  501  0.00000000000E+00  0.00000000000E+00  0.39483687133E+03  0.39483687133E+03  0.00000000000E+00 0. -1.
         21   -1    0    0  501  502 -0.00000000000E+00 -0.00000000000E+00 -0.24155634457E+03  0.24155634457E+03  0.00000000000E+00 0. -1.
         25    1    1    2    0    0 -0.40116932561E+02 -0.14145392717E+03  0.10950244516E+03  0.22188818645E+03  0.12500000000E+03 0.  0.
         25    1    1    2    0    0  0.15159192456E+03  0.13691037124E+02  0.51944857893E+02  0.20369296588E+03  0.12500000000E+03 0.  0.
         25    1    1    2    0    0 -0.11147499200E+03  0.12776289004E+03 -0.81667762880E+01  0.21081206357E+03  0.12500000000E+03 0.  0.
</event>
<event>
 5    0  0.5605075E-005  0.3451936E+03  0.7546771E-02  0.1064605E+00
         21   -1    0    0  502  501  0.00000000000E+00  0.00000000000E+00  0.35030360703E+03  0.35030360703E+03  0.00000000000E+00 0.  1.
         21   -1    0    0  501  502 -0.00000000000E+00 -0.00000000000E+00 -0.34015810038E+03  0.34015810038E+03  0.00000000000E+00 0.  1.
         25    1    1    2    0    0  0.39862426461E+02 -0.77092755082E+02  0.61274445623E+02  0.16404835755E+03  0.12500000000E+03 0.  0.
         25    1    1    2    0    0  0.11856418623E+03 -0.10585862335E+03  0.88026614206E+02  0.22053843022E+03  0.12500000000E+03 0.  0.
         25    1    1    2    0    0 -0.15842661269E+03  0.18295137843E+03 -0.13915555318E+03  0.30587491963E+03  0.12500000000E+03 0.  0.
</event>
<event>
 5    0  0.5605075E-005  0.2764945E+03  0.7546771E-02  0.1097619E+00
         21   -1    0    0  502  501  0.00000000000E+00  0.00000000000E+00  0.38680643835E+03  0.38680643835E+03  0.00000000000E+00 0. -1.
         21   -1    0    0  501  502 -0.00000000000E+00 -0.00000000000E+00 -0.19764206084E+03  0.19764206084E+03  0.00000000000E+00 0. -1.
         25    1    1    2    0    0  0.17922812149E+03  0.64820178263E+01  0.11838137640E+03  0.24860387440E+03  0.12500000000E+03 0.  0.
         25    1    1    2    0    0 -0.61049309307E+02  0.43803010082E+02  0.84323696599E+01  0.14608842089E+03  0.12500000000E+03 0.  0.
         25    1    1    2    0    0 -0.11817881218E+03 -0.50285027908E+02  0.62350631438E+02  0.18975620390E+03  0.12500000000E+03 0.  0.
</event>
<event>
 5    0  0.5605075E-005  0.2595775E+03  0.7546771E-02  0.1107397E+00
         21   -1    0    0  502  501  0.00000000000E+00  0.00000000000E+00  0.19892506077E+03  0.19892506077E+03  0.00000000000E+00 0.  1.
         21   -1    0    0  501  502 -0.00000000000E+00 -0.00000000000E+00 -0.33872301076E+03  0.33872301076E+03  0.00000000000E+00 0.  1.
         25    1    1    2    0    0 -0.81066826678E+02  0.72233187846E+02 -0.11806459994E+03  0.20335612499E+03  0.12500000000E+03 0.  0.
         25    1    1    2    0    0  0.97911682067E+02  0.19919443476E+02 -0.64184806141E+02  0.17241859254E+03  0.12500000000E+03 0.  0.
         25    1    1    2    0    0 -0.16844855389E+02 -0.92152631323E+02  0.42451456089E+02  0.16187335401E+03  0.12500000000E+03 0.  0.
</event>
<event>
 5    0  0.5605075E-005  0.3933468E+03  0.7546771E-02  0.1046108E+00
         21   -1    0    0  502  501  0.00000000000E+00  0.00000000000E+00  0.17387144455E+03  0.17387144455E+03  0.00000000000E+00 0.  1.
         21   -1    0    0  501  502 -0.00000000000E+00 -0.00000000000E+00 -0.88986265014E+03  0.88986265014E+03  0.00000000000E+00 0.  1.
         25    1    1    2    0    0 -0.45382053971E+02 -0.19494388068E+02 -0.29490467216E+03  0.32408845652E+03  0.12500000000E+03 0.  0.
         25    1    1    2    0    0  0.17902743829E+03  0.18768120250E+03 -0.39632883539E+03  0.48987406871E+03  0.12500000000E+03 0.  0.
         25    1    1    2    0    0 -0.13364538431E+03 -0.16818681443E+03 -0.24757698035E+02  0.24977156946E+03  0.12500000000E+03 0.  0.
</event>
<event>
 5    0  0.5605075E-005  0.2920026E+03  0.7546771E-02  0.1089308E+00
         21   -1    0    0  502  501  0.00000000000E+00  0.00000000000E+00  0.61374718322E+03  0.61374718322E+03  0.00000000000E+00 0.  1.
         21   -1    0    0  501  502 -0.00000000000E+00 -0.00000000000E+00 -0.13892615352E+03  0.13892615352E+03  0.00000000000E+00 0.  1.
         25    1    1    2    0    0  0.11984896554E+03  0.13067514937E+03  0.23810547480E+03  0.32211641736E+03  0.12500000000E+03 0.  0.
         25    1    1    2    0    0 -0.26868531548E+01  0.22940579597E+02  0.10858672404E+03  0.16718123701E+03  0.12500000000E+03 0.  0.
         25    1    1    2    0    0 -0.11716211238E+03 -0.15361572897E+03  0.12812883086E+03  0.26337568236E+03  0.12500000000E+03 0.  0.
</event>
<event>
 5    0  0.6042736E-005  0.3406683E+03  0.7546771E-02  0.1066512E+00
         21   -1    0    0  502  501  0.00000000000E+00  0.00000000000E+00  0.76076288154E+03  0.76076288154E+03  0.00000000000E+00 0.  1.
         21   -1    0    0  501  502 -0.00000000000E+00 -0.00000000000E+00 -0.15255068202E+03  0.15255068202E+03  0.00000000000E+00 0.  1.
         25    1    1    2    0    0 -0.24655972804E+02 -0.16853564788E+03  0.30244219822E+03  0.36892880731E+03  0.12500000000E+03 0.  0.
         25    1    1    2    0    0 -0.56895537582E+02 -0.31171307501E+02 -0.11009731837E+02  0.14126205012E+03  0.12500000000E+03 0.  0.
         25    1    1    2    0    0  0.81551510385E+02  0.19970695538E+03  0.31677973314E+03  0.40312270613E+03  0.12500000000E+03 0.  0.
</event>
<event>
 5    0  0.5605075E-005  0.3614015E+03  0.7546771E-02  0.1058030E+00
         21   -1    0    0  502  501  0.00000000000E+00  0.00000000000E+00  0.65569718798E+02  0.65569718798E+02  0.00000000000E+00 0.  1.
         21   -1    0    0  501  502 -0.00000000000E+00 -0.00000000000E+00 -0.19919410349E+04  0.19919410349E+04  0.00000000000E+00 0.  1.
         25    1    1    2    0    0 -0.56501050309E+02  0.44669044628E+02 -0.68940150294E+03  0.70433452598E+03  0.12500000000E+03 0.  0.
         25    1    1    2    0    0 -0.19397959630E+03  0.70157715939E+02 -0.46062750454E+03  0.51995469690E+03  0.12500000000E+03 0.  0.
         25    1    1    2    0    0  0.25048064661E+03 -0.11482676057E+03 -0.77634230864E+03  0.83322153084E+03  0.12500000000E+03 0.  0.
</event>
<event>
 5    0  0.5605075E-005  0.3630862E+03  0.7546771E-02  0.1057368E+00
         21   -1    0    0  502  501  0.00000000000E+00  0.00000000000E+00  0.12320332634E+04  0.12320332634E+04  0.00000000000E+00 0.  1.
         21   -1    0    0  501  502 -0.00000000000E+00 -0.00000000000E+00 -0.10700327452E+03  0.10700327452E+03  0.00000000000E+00 0.  1.
         25    1    1    2    0    0 -0.49584352118E+02 -0.13017111269E+03  0.83354873593E+02  0.20488084709E+03  0.12500000000E+03 0.  0.
         25    1    1    2    0    0 -0.37593421608E+02  0.67758198728E+01  0.84984662950E+03  0.85983921215E+03  0.12500000000E+03 0.  0.
         25    1    1    2    0    0  0.87177773726E+02  0.12339529282E+03  0.19182848584E+03  0.27431647872E+03  0.12500000000E+03 0.  0.
</event>
<event>
 5    0  0.6937087E-005  0.3359011E+03  0.7546771E-02  0.1068555E+00
         21   -1    0    0  502  501  0.00000000000E+00  0.00000000000E+00  0.66492471043E+03  0.66492471043E+03  0.00000000000E+00 0.  1.
         21   -1    0    0  501  502 -0.00000000000E+00 -0.00000000000E+00 -0.16968771619E+03  0.16968771619E+03  0.00000000000E+00 0.  1.
         25    1    1    2    0    0 -0.59190330054E+02 -0.15159287173E+03  0.20951134628E+03  0.29326421219E+03  0.12500000000E+03 0.  0.
         25    1    1    2    0    0  0.15203977199E+03 -0.46734553171E+02  0.16849282715E+03  0.26327750289E+03  0.12500000000E+03 0.  0.
         25    1    1    2    0    0 -0.92849441938E+02  0.19832742490E+03  0.11723282081E+03  0.27807071153E+03  0.12500000000E+03 0.  0.
</event>
<event>
 5    0  0.5605075E-005  0.2437241E+03  0.7546771E-02  0.1117337E+00
         21   -1    0    0  502  501  0.00000000000E+00  0.00000000000E+00  0.21625662261E+03  0.21625662261E+03  0.00000000000E+00 0. -1.
         21   -1    0    0  501  502 -0.00000000000E+00 -0.00000000000E+00 -0.27468036621E+03  0.27468036621E+03  0.00000000000E+00 0. -1.
         25    1    1    2    0    0 -0.31063822491E+02 -0.63328937317E+02  0.48142091313E+02  0.15138750386E+03  0.12500000000E+03 0.  0.
         25    1    1    2    0    0 -0.70577909849E+02  0.58782532671E+02 -0.85171675854E+02  0.17696282625E+03  0.12500000000E+03 0.  0.
         25    1    1    2    0    0  0.10164173234E+03  0.45464046464E+01 -0.21394159055E+02  0.16258665871E+03  0.12500000000E+03 0.  0.
</event>
<event>
 5    0  0.5605075E-005  0.2695259E+03  0.7546771E-02  0.1101551E+00
         21   -1    0    0  502  501  0.00000000000E+00  0.00000000000E+00  0.34277187232E+04  0.34277187232E+04  0.00000000000E+00 0.  1.
         21   -1    0    0  501  502 -0.00000000000E+00 -0.00000000000E+00 -0.21193167789E+02  0.21193167789E+02  0.00000000000E+00 0.  1.
         25    1    1    2    0    0 -0.10885922573E+03  0.79356797386E+02  0.84793319048E+03  0.86761946027E+03  0.12500000000E+03 0.  0.
         25    1    1    2    0    0 -0.28635800657E+02 -0.19491250404E+02  0.14364074112E+04  0.14422521170E+04  0.12500000000E+03 0.  0.
         25    1    1    2    0    0  0.13749502639E+03 -0.59865546981E+02  0.11221849537E+04  0.11390403138E+04  0.12500000000E+03 0.  0.
</event>
<event>
 5    0  0.5605075E-005  0.3947750E+03  0.7546771E-02  0.1045604E+00
         21   -1    0    0  502  501  0.00000000000E+00  0.00000000000E+00  0.17838757919E+04  0.17838757919E+04  0.00000000000E+00 0. -1.
         21   -1    0    0  501  502 -0.00000000000E+00 -0.00000000000E+00 -0.87364430143E+02  0.87364430143E+02  0.00000000000E+00 0. -1.
         25    1    1    2    0    0  0.25171080890E+02 -0.15689641191E+03  0.19704861032E+03  0.28231759104E+03  0.12500000000E+03 0.  0.
         25    1    1    2    0    0 -0.11370522907E+03  0.14851395222E+03  0.13695325519E+04  0.13878867691E+04  0.12500000000E+03 0.  0.
         25    1    1    2    0    0  0.88534148182E+02  0.83824596876E+01  0.12993019957E+03  0.20103586194E+03  0.12500000000E+03 0.  0.
</event>
<event>
 5    0  0.5605075E-005  0.2832925E+03  0.7546771E-02  0.1093904E+00
         21   -1    0    0  502  501  0.00000000000E+00  0.00000000000E+00  0.45631089730E+03  0.45631089730E+03  0.00000000000E+00 0.  1.
         21   -1    0    0  501  502 -0.00000000000E+00 -0.00000000000E+00 -0.17587713376E+03  0.17587713376E+03  0.00000000000E+00 0.  1.
         25    1    1    2    0    0 -0.12092892526E+02 -0.15274563164E+01  0.78481395941E+01  0.12583784990E+03  0.12500000000E+03 0.  0.
         25    1    1    2    0    0  0.64827538014E+02  0.12380304387E+03  0.26361158104E+03  0.32349013743E+03  0.12500000000E+03 0.  0.
         25    1    1    2    0    0 -0.52734645488E+02 -0.12227558756E+03  0.89740429077E+01  0.18286004373E+03  0.12500000000E+03 0.  0.
</event>
<event>
 5    0  0.5605075E-005  0.3390514E+03  0.7546771E-02  0.1067201E+00
         21   -1    0    0  502  501  0.00000000000E+00  0.00000000000E+00  0.29109697207E+03  0.29109697207E+03  0.00000000000E+00 0. -1.
         21   -1    0    0  501  502 -0.00000000000E+00 -0.00000000000E+00 -0.39490561404E+03  0.39490561404E+03  0.00000000000E+00 0. -1.
         25    1    1    2    0    0 -0.52153291313E+02 -0.16447446078E+03 -0.48058714640E+02  0.21841807181E+03  0.12500000000E+03 0.  0.
         25    1    1    2    0    0  0.17621304399E+03  0.12782439125E+03  0.54124629174E+02  0.25679678221E+03  0.12500000000E+03 0.  0.
         25    1    1    2    0    0 -0.12405975268E+03  0.36650069530E+02 -0.10987455650E+03  0.21078773209E+03  0.12500000000E+03 0.  0.
</event>
<event>
 5    0  0.5605075E-005  0.4707980E+03  0.7546771E-02  0.1021695E+00
         21   -1    0    0  502  501  0.00000000000E+00  0.00000000000E+00  0.46783144750E+03  0.46783144750E+03  0.00000000000E+00 0. -1.
         21   -1    0    0  501  502 -0.00000000000E+00 -0.00000000000E+00 -0.47378336293E+03  0.47378336293E+03  0.00000000000E+00 0. -1.
         25    1    1    2    0    0  0.15596867939E+03  0.10185720303E+03  0.50863376900E+02  0.23002869793E+03  0.12500000000E+03 0.  0.
         25    1    1    2    0    0  0.23712554090E+03  0.42278457387E+01  0.49462981693E+02  0.27261324873E+03  0.12500000000E+03 0.  0.
         25    1    1    2    0    0 -0.39309422029E+03 -0.10608504877E+03 -0.10627827403E+03  0.43897286377E+03  0.12500000000E+03 0.  0.
</event>
<event>
 5    0  0.5605075E-005  0.2764711E+03  0.7546771E-02  0.1097632E+00
         21   -1    0    0  502  501  0.00000000000E+00  0.00000000000E+00  0.16105264479E+04  0.16105264479E+04  0.00000000000E+00 0.  1.
         21   -1    0    0  501  502 -0.00000000000E+00 -0.00000000000E+00 -0.47460430707E+02  0.47460430707E+02  0.00000000000E+00 0.  1.
         25    1    1    2    0    0  0.90081286972E+01 -0.11276635614E+02  0.99819259597E+02  0.16061504749E+03  0.12500000000E+03 0.  0.
         25    1    1    2    0    0  0.91301133329E+02 -0.28397579874E+01  0.80451893741E+03  0.81927997768E+03  0.12500000000E+03 0.  0.
         25    1    1    2    0    0 -0.10030926203E+03  0.14116393601E+02  0.65872782019E+03  0.67809185345E+03  0.12500000000E+03 0.  0.
</event>
<event>
 5    0  0.5605075E-005  0.3233512E+03  0.7546771E-02  0.1074117E+00
         21   -1    0    0  502  501  0.00000000000E+00  0.00000000000E+00  0.12494944148E+04  0.12494944148E+04  0.00000000000E+00 0.  1.
         21   -1    0    0  501  502 -0.00000000000E+00 -0.00000000000E+00 -0.83678620150E+02  0.83678620150E+02  0.00000000000E+00 0.  1.
         25    1    1    2    0    0  0.11012772991E+03 -0.84056539978E+02  0.37916211644E+03  0.42259026178E+03  0.12500000000E+03 0.  0.
         25    1    1    2    0    0 -0.20680664721E+03 -0.52930576994E+02  0.38247194849E+03  0.45550019396E+03  0.12500000000E+03 0.  0.
         25    1    1    2    0    0  0.96678917303E+02  0.13698711697E+03  0.40418172972E+03  0.45508257921E+03  0.12500000000E+03 0.  0.
</event>
<event>
 5    0  0.6496679E-005  0.3531631E+03  0.7546771E-02  0.1061324E+00
         21   -1    0    0  502  501  0.00000000000E+00  0.00000000000E+00  0.45357102543E+03  0.45357102543E+03  0.00000000000E+00 0.  1.
         21   -1    0    0  501  502 -0.00000000000E+00 -0.00000000000E+00 -0.27498265136E+03  0.27498265136E+03  0.00000000000E+00 0.  1.
         25    1    1    2    0    0  0.42396647149E+02 -0.37895789686E+02 -0.12499052573E+03  0.18569113627E+03  0.12500000000E+03 0.  0.
         25    1    1    2    0    0  0.26858551664E+02 -0.99184588828E+02  0.30451633735E+03  0.34483933095E+03  0.12500000000E+03 0.  0.
         25    1    1    2    0    0 -0.69255198814E+02  0.13708037851E+03 -0.93743755210E+00  0.19802320956E+03  0.12500000000E+03 0.  0.
</event>
<event>
 5    0  0.5605075E-005  0.2581166E+03  0.7546771E-02  0.1108280E+00
         21   -1    0    0  502  501  0.00000000000E+00  0.00000000000E+00  0.31792183121E+03  0.31792183121E+03  0.00000000000E+00 0.  1.
         21   -1    0    0  501  502 -0.00000000000E+00 -0.00000000000E+00 -0.20956154793E+03  0.20956154793E+03  0.00000000000E+00 0.  1.
         25    1    1    2    0    0  0.56762843064E+02 -0.20210446840E+02 -0.74822080582E+02  0.15765096339E+03  0.12500000000E+03 0.  0.
         25    1    1    2    0    0 -0.12378375763E+02  0.10267449196E+03  0.68711333263E+02  0.17618604600E+03  0.12500000000E+03 0.  0.
         25    1    1    2    0    0 -0.44384467301E+02 -0.82464045118E+02  0.11447103060E+03  0.19364636976E+03  0.12500000000E+03 0.  0.
</event>
<event>
 5    0  0.5605075E-005  0.3089042E+03  0.7546771E-02  0.1080872E+00
         21   -1    0    0  502  501  0.00000000000E+00  0.00000000000E+00  0.27457447371E+04  0.27457447371E+04  0.00000000000E+00 0.  1.
         21   -1    0    0  501  502 -0.00000000000E+00 -0.00000000000E+00 -0.34752611295E+02  0.34752611295E+02  0.00000000000E+00 0.  1.
         25    1    1    2    0    0 -0.40494429589E+02  0.56806122385E+01  0.91320338667E+03  0.92262532678E+03  0.12500000000E+03 0.  0.
         25    1    1    2    0    0  0.18575191132E+03  0.10498269968E+03  0.93135281869E+03  0.96362244301E+03  0.12500000000E+03 0.  0.
         25    1    1    2    0    0 -0.14525748173E+03 -0.11066331192E+03  0.86643592041E+03  0.89424957858E+03  0.12500000000E+03 0.  0.
</event>
<event>
 5    0  0.6258570E-005  0.3432847E+03  0.7546771E-02  0.1065405E+00
         21   -1    0    0  502  501  0.00000000000E+00  0.00000000000E+00  0.70445628360E+03  0.70445628360E+03  0.00000000000E+00 0.  1.
         21   -1    0    0  501  502 -0.00000000000E+00 -0.00000000000E+00 -0.16728418513E+03  0.16728418513E+03  0.00000000000E+00 0.  1.
         25    1    1    2    0    0 -0.44537465211E+02  0.13693203975E+03  0.10110377912E+03  0.21582618810E+03  0.12500000000E+03 0.  0.
         25    1    1    2    0    0  0.18114997769E+03  0.49318794738E+02  0.17372429522E+03  0.28469771457E+03  0.12500000000E+03 0.  0.
         25    1    1    2    0    0 -0.13661251248E+03 -0.18625083449E+03  0.26234402413E+03  0.37121656605E+03  0.12500000000E+03 0.  0.
</event>
<event>
 5    0  0.5605075E-005  0.2711657E+03  0.7546771E-02  0.1100614E+00
         21   -1    0    0  502  501  0.00000000000E+00  0.00000000000E+00  0.96005363405E+02  0.96005363405E+02  0.00000000000E+00 0.  1.
         21   -1    0    0  501  502 -0.00000000000E+00 -0.00000000000E+00 -0.76590326158E+03  0.76590326158E+03  0.00000000000E+00 0.  1.
         25    1    1    2    0    0 -0.13162878005E+03  0.43036714144E+02 -0.15190657407E+03  0.24058034365E+03  0.12500000000E+03 0.  0.
         25    1    1    2    0    0  0.19807200325E+02  0.37245127967E+02 -0.33674866690E+03  0.36166861821E+03  0.12500000000E+03 0.  0.
         25    1    1    2    0    0  0.11182157973E+03 -0.80281842111E+02 -0.18124265721E+03  0.25965966313E+03  0.12500000000E+03 0.  0.
</event>
<event>
 5    0  0.5605075E-005  0.2999941E+03  0.7546771E-02  0.1085244E+00
         21   -1    0    0  502  501  0.00000000000E+00  0.00000000000E+00  0.33078800069E+03  0.33078800069E+03  0.00000000000E+00 0. -1.
         21   -1    0    0  501  502 -0.00000000000E+00 -0.00000000000E+00 -0.27206695059E+03  0.27206695059E+03  0.00000000000E+00 0. -1.
         25    1    1    2    0    0 -0.86956921644E+02  0.33391103480E+02 -0.23399090930E+02  0.15763562246E+03  0.12500000000E+03 0.  0.
         25    1    1    2    0    0  0.49815263647E+02  0.14357341081E+03  0.10701941076E+03  0.22399339067E+03  0.12500000000E+03 0.  0.
         25    1    1    2    0    0  0.37141657996E+02 -0.17696451429E+03 -0.24899269732E+02  0.22122593815E+03  0.12500000000E+03 0.  0.
</event>
<event>
 5    0  0.5605075E-005  0.3721493E+03  0.7546771E-02  0.1053874E+00
         21   -1    0    0  502  501  0.00000000000E+00  0.00000000000E+00  0.33727334443E+03  0.33727334443E+03  0.00000000000E+00 0. -1.
         21   -1    0    0  501  502 -0.00000000000E+00 -0.00000000000E+00 -0.41063156924E+03  0.41063156924E+03  0.00000000000E+00 0. -1.
         25    1    1    2    0    0  0.22452101351E+02 -0.13434629677E+03 -0.21119598833E+03  0.28068090388E+03  0.12500000000E+03 0.  0.
         25    1    1    2    0    0 -0.72719336374E+02 -0.56639491430E+02 -0.54437386162E+02  0.16457388275E+03  0.12500000000E+03 0.  0.
         25    1    1    2    0    0  0.50267235023E+02  0.19098578820E+03  0.19227514968E+03  0.30265012704E+03  0.12500000000E+03 0.  0.
</event>
<event>
 5    0  0.5605075E-005  0.3189595E+03  0.7546771E-02  0.1076129E+00
         21   -1    0    0  502  501  0.00000000000E+00  0.00000000000E+00  0.23447134501E+04  0.23447134501E+04  0.00000000000E+00 0.  1.
         21   -1    0    0  501  502 -0.00000000000E+00 -0.00000000000E+00 -0.43389178484E+02  0.43389178484E+02  0.00000000000E+00 0.  1.
         25    1    1    2    0    0 -0.13422286129E+03 -0.14692827021E+02  0.91659149617E+03  0.93487786716E+03  0.12500000000E+03 0.  0.
         25    1    1    2    0    0  0.22658439082E+03 -0.63654710976E+02  0.80953106292E+03  0.85226636108E+03  0.12500000000E+03 0.  0.
         25    1    1    2    0    0 -0.92361529536E+02  0.78347537997E+02  0.57520171248E+03  0.60095840030E+03  0.12500000000E+03 0.  0.
</event>
<event>
 5    0  0.5605075E-005  0.2976047E+03  0.7546771E-02  0.1086444E+00
         21   -1    0    0  502  501  0.00000000000E+00  0.00000000000E+00  0.51518356812E+02  0.51518356812E+02  0.00000000000E+00 0. -1.
         21   -1    0    0  501  502 -0.00000000000E+00 -0.00000000000E+00 -0.17191649065E+04  0.17191649065E+04  0.00000000000E+00 0. -1.
         25    1    1    2    0    0 -0.37565571226E+02  0.87421694017E+02 -0.36886096661E+03  0.40092036294E+03  0.12500000000E+03 0.  0.
         25    1    1    2    0    0 -0.38283289554E+01 -0.93117769489E+02 -0.16011188996E+03  0.22348689537E+03  0.12500000000E+03 0.  0.
         25    1    1    2    0    0  0.41393900182E+02  0.56960754713E+01 -0.11386736932E+04  0.11462760051E+04  0.12500000000E+03 0.  0.
</event>
<event>
 5    0  0.5605075E-005  0.2595748E+03  0.7546771E-02  0.1107399E+00
         21   -1    0    0  502  501  0.00000000000E+00  0.00000000000E+00  0.15684824919E+03  0.15684824919E+03  0.00000000000E+00 0. -1.
         21   -1    0    0  501  502 -0.00000000000E+00 -0.00000000000E+00 -0.42958139261E+03  0.42958139261E+03  0.00000000000E+00 0. -1.
         25    1    1    2    0    0 -0.11595204881E+03  0.89656384113E+02 -0.16666380236E+03  0.25472527918E+03  0.12500000000E+03 0.  0.
         25    1    1    2    0    0  0.16859426024E+02 -0.86749357042E+02 -0.34905841550E+02  0.15701308534E+03  0.12500000000E+03 0.  0.
         25    1    1    2    0    0  0.99092622783E+02 -0.29070270713E+01 -0.71163499511E+02  0.17469127728E+03  0.12500000000E+03 0.  0.
</event>
<event>
 5    0  0.6356384E-005  0.4564278E+03  0.7546771E-02  0.1025822E+00
         21   -1    0    0  502  501  0.00000000000E+00  0.00000000000E+00  0.79632053694E+03  0.79632053694E+03  0.00000000000E+00 0. -1.
         21   -1    0    0  501  502 -0.00000000000E+00 -0.00000000000E+00 -0.26161117090E+03  0.26161117090E+03  0.00000000000E+00 0. -1.
         25    1    1    2    0    0 -0.12833612901E+03 -0.48551674563E+02 -0.12153099074E+03  0.22186078703E+03  0.12500000000E+03 0.  0.
         25    1    1    2    0    0 -0.29780279300E+02  0.20969861143E+03  0.41729518597E+03  0.48437655280E+03  0.12500000000E+03 0.  0.
         25    1    1    2    0    0  0.15811640831E+03 -0.16114693686E+03  0.23894517080E+03  0.35169436801E+03  0.12500000000E+03 0.  0.
</event>
<event>
 5    0  0.5605075E-005  0.3127150E+03  0.7546771E-02  0.1079052E+00
         21   -1    0    0  502  501  0.00000000000E+00  0.00000000000E+00  0.25563486090E+03  0.25563486090E+03  0.00000000000E+00 0.  1.
         21   -1    0    0  501  502 -0.00000000000E+00 -0.00000000000E+00 -0.38254041146E+03  0.38254041146E+03  0.00000000000E+00 0.  1.
         25    1    1    2    0    0 -0.14522678482E+03 -0.11505377214E+03 -0.82885903760E+02  0.23837630452E+03  0.12500000000E+03 0.  0.
         25    1    1    2    0    0 -0.26129789288E+02  0.11401151163E+03 -0.72267497796E+02  0.18581975651E+03  0.12500000000E+03 0.  0.
         25    1    1    2    0    0  0.17135657411E+03  0.10422605105E+01  0.28247851002E+02  0.21397921133E+03  0.12500000000E+03 0.  0.
</event>
<event>
 5    0  0.5605075E-005  0.2641895E+03  0.7546771E-02  0.1104652E+00
         21   -1    0    0  502  501  0.00000000000E+00  0.00000000000E+00  0.17383430246E+03  0.17383430246E+03  0.00000000000E+00 0. -1.
         21   -1    0    0  501  502 -0.00000000000E+00 -0.00000000000E+00 -0.40150939936E+03  0.40150939936E+03  0.00000000000E+00 0. -1.
         25    1    1    2    0    0  0.40054845440E+02 -0.63365399536E+02 -0.16856106920E+03  0.22283940081E+03  0.12500000000E+03 0.  0.
         25    1    1    2    0    0 -0.12607396079E+03  0.33552111072E+02  0.14454393139E+02  0.18125759909E+03  0.12500000000E+03 0.  0.
         25    1    1    2    0    0  0.86019115349E+02  0.29813288464E+02 -0.73568420845E+02  0.17124670192E+03  0.12500000000E+03 0.  0.
</event>
<event>
 5    0  0.5605075E-005  0.2385880E+03  0.7546771E-02  0.1120737E+00
         21   -1    0    0  502  501  0.00000000000E+00  0.00000000000E+00  0.13488889448E+03  0.13488889448E+03  0.00000000000E+00 0. -1.
         21   -1    0    0  501  502 -0.00000000000E+00 -0.00000000000E+00 -0.42200813392E+03  0.42200813392E+03  0.00000000000E+00 0. -1.
         25    1    1    2    0    0  0.33037740474E+02 -0.86439766634E+02 -0.15227648475E+03  0.21766132720E+03  0.12500000000E+03 0.  0.
         25    1    1    2    0    0 -0.91579795512E+01  0.56633518896E+02 -0.15473687212E+03  0.20702590091E+03  0.12500000000E+03 0.  0.
         25    1    1    2    0    0 -0.23879760922E+02  0.29806247738E+02  0.19894117437E+02  0.13220980030E+03  0.12500000000E+03 0.  0.
</event>
<event>
 5    0  0.5605075E-005  0.3964781E+03  0.7546771E-02  0.1045006E+00
         21   -1    0    0  502  501  0.00000000000E+00  0.00000000000E+00  0.38262313214E+03  0.38262313214E+03  0.00000000000E+00 0. -1.
         21   -1    0    0  501  502 -0.00000000000E+00 -0.00000000000E+00 -0.41083466528E+03  0.41083466528E+03  0.00000000000E+00 0. -1.
         25    1    1    2    0    0  0.41656895910E+02 -0.84667336630E+02  0.12916289578E+03  0.20300716370E+03  0.12500000000E+03 0.  0.
         25    1    1    2    0    0  0.20027971865E+03 -0.73132971603E+02 -0.11594319488E+03  0.27299857450E+03  0.12500000000E+03 0.  0.
         25    1    1    2    0    0 -0.24193661456E+03  0.15780030823E+03 -0.41431234035E+02  0.31745205921E+03  0.12500000000E+03 0.  0.
</event>
<event>
 5    0  0.5605075E-005  0.2789204E+03  0.7546771E-02  0.1096280E+00
         21   -1    0    0  502  501  0.00000000000E+00  0.00000000000E+00  0.10101421352E+04  0.10101421352E+04  0.00000000000E+00 0.  1.
         21   -1    0    0  501  502 -0.00000000000E+00 -0.00000000000E+00 -0.77015485874E+02  0.77015485874E+02  0.00000000000E+00 0.  1.
         25    1    1    2    0    0  0.13105982661E+03 -0.72109944364E+02  0.32542587824E+03  0.37934618023E+03  0.12500000000E+03 0.  0.
         25    1    1    2    0    0 -0.15173588000E+03 -0.26192471106E+02  0.38872041069E+03  0.43639246157E+03  0.12500000000E+03 0.  0.
         25    1    1    2    0    0  0.20676053387E+02  0.98302415470E+02  0.21898036036E+03  0.27141897924E+03  0.12500000000E+03 0.  0.
</event>
<event>
 5    0  0.5605075E-005  0.4922367E+03  0.7546771E-02  0.1015825E+00
         21   -1    0    0  502  501  0.00000000000E+00  0.00000000000E+00  0.79656509255E+02  0.79656509255E+02  0.00000000000E+00 0. -1.
         21   -1    0    0  501  502 -0.00000000000E+00 -0.00000000000E+00 -0.30417725416E+04  0.30417725416E+04  0.00000000000E+00 0. -1.
         25    1    1    2    0    0 -0.37391778792E+03  0.13773170621E+03 -0.87780416775E+03  0.97208522874E+03  0.12500000000E+03 0.  0.
         25    1    1    2    0    0  0.18085134385E+03  0.38005131756E+01 -0.13320626225E+04  0.13500879537E+04  0.12500000000E+03 0.  0.
         25    1    1    2    0    0  0.19306644407E+03 -0.14153221939E+03 -0.75224924203E+03  0.79925586834E+03  0.12500000000E+03 0.  0.
</event>
<event>
 5    0  0.5605075E-005  0.2862758E+03  0.7546771E-02  0.1092310E+00
         21   -1    0    0  502  501  0.00000000000E+00  0.00000000000E+00  0.16791879346E+04  0.16791879346E+04  0.00000000000E+00 0.  1.
         21   -1    0    0  501  502 -0.00000000000E+00 -0.00000000000E+00 -0.48805628024E+02  0.48805628024E+02  0.00000000000E+00 0.  1.
         25    1    1    2    0    0 -0.63104381826E+02  0.12479091762E+03  0.44468005240E+03  0.48261815665E+03  0.12500000000E+03 0.  0.
         25    1    1    2    0    0 -0.49240668214E+02  0.44398050441E+02  0.48382387381E+03  0.50408964596E+03  0.12500000000E+03 0.  0.
         25    1    1    2    0    0  0.11234505004E+03 -0.16918896806E+03  0.70187838035E+03  0.74128576000E+03  0.12500000000E+03 0.  0.
</event>
<event>
 5    0  0.5605075E-005  0.3795853E+03  0.7546771E-02  0.1051087E+00
         21   -1    0    0  502  501  0.00000000000E+00  0.00000000000E+00  0.65987327216E+03  0.65987327216E+03  0.00000000000E+00 0. -1.
         21   -1    0    0  501  502 -0.00000000000E+00 -0.00000000000E+00 -0.21835254066E+03  0.21835254066E+03  0.00000000000E+00 0. -1.
         25    1    1    2    0    0 -0.11031755228E+03 -0.38368278408E+02  0.61668879637E+02  0.18185196684E+03  0.12500000000E+03 0.  0.
         25    1    1    2    0    0 -0.20245601368E+03 -0.25479897397E+02  0.13152589411E+03  0.27305992652E+03  0.12500000000E+03 0.  0.
         25    1    1    2    0    0  0.31277356596E+03  0.63848175805E+02  0.24832595775E+03  0.42331391946E+03  0.12500000000E+03 0.  0.
</event>
<event>
 5    0  0.5605075E-005  0.3241222E+03  0.7546771E-02  0.1073768E+00
         21   -1    0    0  502  501  0.00000000000E+00  0.00000000000E+00  0.23664356525E+03  0.23664356525E+03  0.00000000000E+00 0. -1.
         21   -1    0    0  501  502 -0.00000000000E+00 -0.00000000000E+00 -0.44393848621E+03  0.44393848621E+03  0.00000000000E+00 0. -1.
         25    1    1    2    0    0 -0.13574775396E+02  0.22250854426E+03 -0.33541740753E+02  0.25776806468E+03  0.12500000000E+03 0.  0.
         25    1    1    2    0    0  0.94622272943E+02 -0.88068487126E+02 -0.48426580731E+02  0.18622450613E+03  0.12500000000E+03 0.  0.
         25    1    1    2    0    0 -0.81047497546E+02 -0.13444005714E+03 -0.12532659947E+03  0.23658948066E+03  0.12500000000E+03 0.  0.
</event>
<event>
 5    0  0.5605075E-005  0.6066646E+03  0.7546771E-02  0.9891675E-01
         21   -1    0    0  502  501  0.00000000000E+00  0.00000000000E+00  0.51632414666E+03  0.51632414666E+03  0.00000000000E+00 0. -1.
         21   -1    0    0  501  502 -0.00000000000E+00 -0.00000000000E+00 -0.71281172940E+03  0.71281172940E+03  0.00000000000E+00 0. -1.
         25    1    1    2    0    0  0.15709442194E+03 -0.44042754317E+03 -0.40023361221E+03  0.62806609726E+03  0.12500000000E+03 0.  0.
         25    1    1    2    0    0  0.11649671139E+02  0.83029372497E+02  0.64857994904E+02  0.16389371873E+03  0.12500000000E+03 0.  0.
         25    1    1    2    0    0 -0.16874409308E+03  0.35739817067E+03  0.13888803457E+03  0.43717606006E+03  0.12500000000E+03 0.  0.
</event>
<event>
 5    0  0.5605075E-005  0.2973971E+03  0.7546771E-02  0.1086549E+00
         21   -1    0    0  502  501  0.00000000000E+00  0.00000000000E+00  0.35232610297E+03  0.35232610297E+03  0.00000000000E+00 0.  1.
         21   -1    0    0  501  502 -0.00000000000E+00 -0.00000000000E+00 -0.25103173889E+03  0.25103173889E+03  0.00000000000E+00 0.  1.
         25    1    1    2    0    0  0.41616160728E+01  0.10744354203E+03  0.26903754539E+02  0.16706359801E+03  0.12500000000E+03 0.  0.
         25    1    1    2    0    0 -0.12091366445E+03 -0.22135098918E+02 -0.77961062221E+02  0.19186715216E+03  0.12500000000E+03 0.  0.
         25    1    1    2    0    0  0.11675204837E+03 -0.85308443108E+02  0.15235167177E+03  0.24442709170E+03  0.12500000000E+03 0.  0.
</event>
<event>
 5    0  0.5605075E-005  0.4239978E+03  0.7546771E-02  0.1035773E+00
         21   -1    0    0  502  501  0.00000000000E+00  0.00000000000E+00  0.31184299204E+03  0.31184299204E+03  0.00000000000E+00 0. -1.
         21   -1    0    0  501  502 -0.00000000000E+00 -0.00000000000E+00 -0.57648934103E+03  0.57648934103E+03  0.00000000000E+00 0. -1.
         25    1    1    2    0    0  0.82882674515E+02  0.12199408423E+03 -0.47695007735E+02  0.19912786868E+03  0.12500000000E+03 0.  0.
         25    1    1    2    0    0  0.65476324455E+02 -0.30435503720E+03 -0.25346029285E+03  0.42045957925E+03  0.12500000000E+03 0.  0.
         25    1    1    2    0    0 -0.14835899897E+03  0.18236095296E+03  0.36508951596E+02  0.26874488514E+03  0.12500000000E+03 0.  0.
</event>
<event>
 5    0  0.5605075E-005  0.2481829E+03  0.7546771E-02  0.1114459E+00
         21   -1    0    0  502  501  0.00000000000E+00  0.00000000000E+00  0.82212107926E+03  0.82212107926E+03  0.00000000000E+00 0. -1.
         21   -1    0    0  501  502 -0.00000000000E+00 -0.00000000000E+00 -0.74921754447E+02  0.74921754447E+02  0.00000000000E+00 0. -1.
         25    1    1    2    0    0 -0.29515873592E+02 -0.80106316487E+02  0.19112738780E+03  0.24380912022E+03  0.12500000000E+03 0.  0.
         25    1    1    2    0    0  0.19618294947E+02  0.15194584950E+03  0.30308108808E+03  0.36187783109E+03  0.12500000000E+03 0.  0.
         25    1    1    2    0    0  0.98975786450E+01 -0.71839533017E+02  0.25299084893E+03  0.29135588240E+03  0.12500000000E+03 0.  0.
</event>
<event>
 5    0  0.6229923E-005  0.2485152E+03  0.7546771E-02  0.1114247E+00
         21   -1    0    0  502  501  0.00000000000E+00  0.00000000000E+00  0.16055725033E+03  0.16055725033E+03  0.00000000000E+00 0.  1.
         21   -1    0    0  501  502 -0.00000000000E+00 -0.00000000000E+00 -0.38465904589E+03  0.38465904589E+03  0.00000000000E+00 0.  1.
         25    1    1    2    0    0 -0.82858418622E+02  0.13028761355E+02 -0.29336245232E+02  0.15336518980E+03  0.12500000000E+03 0.  0.
         25    1    1    2    0    0  0.22068862821E+02  0.17070984295E+02  0.24600267619E+02  0.13041712456E+03  0.12500000000E+03 0.  0.
         25    1    1    2    0    0  0.60789555801E+02 -0.30099745650E+02 -0.21936581795E+03  0.26143398185E+03  0.12500000000E+03 0.  0.
</event>
<event>
 5    0  0.5605075E-005  0.4631092E+03  0.7546771E-02  0.1023883E+00
         21   -1    0    0  502  501  0.00000000000E+00  0.00000000000E+00  0.37232655182E+03  0.37232655182E+03  0.00000000000E+00 0. -1.
         21   -1    0    0  501  502 -0.00000000000E+00 -0.00000000000E+00 -0.57602686624E+03  0.57602686624E+03  0.00000000000E+00 0. -1.
         25    1    1    2    0    0  0.24501103395E+03 -0.10777210157E+03 -0.19990947739E+03  0.35669879700E+03  0.12500000000E+03 0.  0.
         25    1    1    2    0    0  0.26527099403E+02 -0.10756518674E+03  0.11701584460E+03  0.20394034493E+03  0.12500000000E+03 0.  0.
         25    1    1    2    0    0 -0.27153813335E+03  0.21533728831E+03 -0.12080668163E+03  0.38771427614E+03  0.12500000000E+03 0.  0.
</event>
<event>
 5    0  0.5843935E-005  0.3220455E+03  0.7546771E-02  0.1074712E+00
         21   -1    0    0  502  501  0.00000000000E+00  0.00000000000E+00  0.17373903762E+03  0.17373903762E+03  0.00000000000E+00 0.  1.
         21   -1    0    0  501  502 -0.00000000000E+00 -0.00000000000E+00 -0.59694867141E+03  0.59694867141E+03  0.00000000000E+00 0.  1.
         25    1    1    2    0    0  0.99499026967E+02 -0.10714368792E+03  0.29047967266E+02  0.19454719384E+03  0.12500000000E+03 0.  0.
         25    1    1    2    0    0 -0.52124572896E+02 -0.24514490205E+02 -0.31473478863E+03  0.34351261768E+03  0.12500000000E+03 0.  0.
         25    1    1    2    0    0 -0.47374454071E+02  0.13165817812E+03 -0.13752281242E+03  0.23262789751E+03  0.12500000000E+03 0.  0.
</event>
<event>
 5    0  0.5605075E-005  0.2834852E+03  0.7546771E-02  0.1093800E+00
         21   -1    0    0  502  501  0.00000000000E+00  0.00000000000E+00  0.46455800680E+02  0.46455800680E+02  0.00000000000E+00 0. -1.
         21   -1    0    0  501  502 -0.00000000000E+00 -0.00000000000E+00 -0.17298996533E+04  0.17298996533E+04  0.00000000000E+00 0. -1.
         25    1    1    2    0    0  0.13755392479E+03  0.12124764287E+01 -0.50439422817E+03  0.53755101129E+03  0.12500000000E+03 0.  0.
         25    1    1    2    0    0 -0.19668232527E+03  0.42332934843E+01 -0.86019675365E+03  0.89121563768E+03  0.12500000000E+03 0.  0.
         25    1    1    2    0    0  0.59128400487E+02 -0.54457699130E+01 -0.31885287077E+03  0.34758880498E+03  0.12500000000E+03 0.  0.
</event>
<event>
 5    0  0.5605075E-005  0.2805155E+03  0.7546771E-02  0.1095408E+00
         21   -1    0    0  502  501  0.00000000000E+00  0.00000000000E+00  0.42476009463E+03  0.42476009463E+03  0.00000000000E+00 0.  1.
         21   -1    0    0  501  502 -0.00000000000E+00 -0.00000000000E+00 -0.18525504419E+03  0.18525504419E+03  0.00000000000E+00 0.  1.
         25    1    1    2    0    0 -0.46608444796E+02 -0.10389580922E+03  0.12982598550E+03  0.21318178349E+03  0.12500000000E+03 0.  0.
         25    1    1    2    0    0 -0.81165864098E+02  0.37997553641E+02 -0.34848249610E+02  0.15770577693E+03  0.12500000000E+03 0.  0.
         25    1    1    2    0    0  0.12777430889E+03  0.65898255583E+02  0.14452731455E+03  0.23912757840E+03  0.12500000000E+03 0.  0.
</event>
<event>
 5    0  0.5605075E-005  0.3360958E+03  0.7546771E-02  0.1068471E+00
         21   -1    0    0  502  501  0.00000000000E+00  0.00000000000E+00  0.10594097447E+03  0.10594097447E+03  0.00000000000E+00 0. -1.
         21   -1    0    0  501  502 -0.00000000000E+00 -0.00000000000E+00 -0.10662580015E+04  0.10662580015E+04  0.00000000000E+00 0. -1.
         25    1    1    2    0    0  0.22616914829E+03 -0.15028838608E+03 -0.37750155219E+03  0.48153037758E+03  0.12500000000E+03 0.  0.
         25    1    1    2    0    0 -0.12713647676E+03  0.70502250379E+02 -0.28298915980E+03  0.34182175998E+03  0.12500000000E+03 0.  0.
         25    1    1    2    0    0 -0.99032671525E+02  0.79786135700E+02 -0.29982631509E+03  0.34884683845E+03  0.12500000000E+03 0.  0.
</event>
<event>
 5    0  0.5605075E-005  0.3993089E+03  0.7546771E-02  0.1044019E+00
         21   -1    0    0  502  501  0.00000000000E+00  0.00000000000E+00  0.29165885031E+03  0.29165885031E+03  0.00000000000E+00 0.  1.
         21   -1    0    0  501  502 -0.00000000000E+00 -0.00000000000E+00 -0.54669201524E+03  0.54669201524E+03  0.00000000000E+00 0.  1.
         25    1    1    2    0    0  0.21490086259E+03 -0.17498031220E+03 -0.75112122973E+02  0.31315702358E+03  0.12500000000E+03 0.  0.
         25    1    1    2    0    0  0.63506780674E+02  0.83954268138E+02 -0.87856512000E+01  0.16365701328E+03  0.12500000000E+03 0.  0.
         25    1    1    2    0    0 -0.27840764327E+03  0.91026044065E+02 -0.17113539076E+03  0.36153682869E+03  0.12500000000E+03 0.  0.
</event>
<event>
 5    0  0.5605075E-005  0.2476353E+03  0.7546771E-02  0.1114808E+00
         21   -1    0    0  502  501  0.00000000000E+00  0.00000000000E+00  0.30011310477E+03  0.30011310477E+03  0.00000000000E+00 0.  1.
         21   -1    0    0  501  502 -0.00000000000E+00 -0.00000000000E+00 -0.20433373516E+03  0.20433373516E+03  0.00000000000E+00 0.  1.
         25    1    1    2    0    0  0.12195687292E+03 -0.10745408661E+02  0.81574049282E+02  0.19304991110E+03  0.12500000000E+03 0.  0.
         25    1    1    2    0    0  0.99575987241E+01 -0.65115880090E+01  0.26874042285E+02  0.12840860057E+03  0.12500000000E+03 0.  0.
         25    1    1    2    0    0 -0.13191447165E+03  0.17256996670E+02 -0.12668721958E+02  0.18298832826E+03  0.12500000000E+03 0.  0.
</event>
<event>
 5    0  0.5605075E-005  0.3577508E+03  0.7546771E-02  0.1059478E+00
         21   -1    0    0  502  501  0.00000000000E+00  0.00000000000E+00  0.87067133736E+02  0.87067133736E+02  0.00000000000E+00 0. -1.
         21   -1    0    0  501  502 -0.00000000000E+00 -0.00000000000E+00 -0.14699645712E+04  0.14699645712E+04  0.00000000000E+00 0. -1.
         25    1    1    2    0    0 -0.42223652498E+02 -0.13428430067E+03 -0.10562930238E+03  0.21586491090E+03  0.12500000000E+03 0.  0.
         25    1    1    2    0    0 -0.11548392956E+01  0.21688802454E+03 -0.86017865344E+03  0.89586498128E+03  0.12500000000E+03 0.  0.
         25    1    1    2    0    0  0.43378491794E+02 -0.82603723868E+02 -0.41708948159E+03  0.44530181271E+03  0.12500000000E+03 0.  0.
</event>
<event>
 5    0  0.5605075E-005  0.3331456E+03  0.7546771E-02  0.1069753E+00
         21   -1    0    0  502  501  0.00000000000E+00  0.00000000000E+00  0.15579267646E+03  0.15579267646E+03  0.00000000000E+00 0.  1.
         21   -1    0    0  501  502 -0.00000000000E+00 -0.00000000000E+00 -0.71239532925E+03  0.71239532925E+03  0.00000000000E+00 0.  1.
         25    1    1    2    0    0  0.34106402911E+02 -0.92307090224E+02 -0.41716043017E+03  0.44646575470E+03  0.12500000000E+03 0.  0.
         25    1    1    2    0    0 -0.54292943244E+02  0.13423333525E+03  0.42669840563E+02  0.19598986523E+03  0.12500000000E+03 0.  0.
         25    1    1    2    0    0  0.20186540333E+02 -0.41926245028E+02 -0.18211206318E+03  0.22573238578E+03  0.12500000000E+03 0.  0.
</event>
<event>
 5    0  0.6744043E-005  0.3317381E+03  0.7546771E-02  0.1070370E+00
         21   -1    0    0  502  501  0.00000000000E+00  0.00000000000E+00  0.53545886147E+03  0.53545886147E+03  0.00000000000E+00 0. -1.
         21   -1    0    0  501  502 -0.00000000000E+00 -0.00000000000E+00 -0.20552502368E+03  0.20552502368E+03  0.00000000000E+00 0. -1.
         25    1    1    2    0    0 -0.87174230939E+02 -0.96632992820E+02  0.25095166755E+03  0.30909387132E+03  0.12500000000E+03 0.  0.
         25    1    1    2    0    0  0.16139912534E+03 -0.22227876111E+02  0.12252442475E+03  0.23912547083E+03  0.12500000000E+03 0.  0.
         25    1    1    2    0    0 -0.74224894406E+02  0.11886086893E+03 -0.43542254513E+02  0.19276454301E+03  0.12500000000E+03 0.  0.
</event>
<event>
 5    0  0.5605075E-005  0.2478658E+03  0.7546771E-02  0.1114661E+00
         21   -1    0    0  502  501  0.00000000000E+00  0.00000000000E+00  0.41178482069E+03  0.41178482069E+03  0.00000000000E+00 0.  1.
         21   -1    0    0  501  502 -0.00000000000E+00 -0.00000000000E+00 -0.14919795764E+03  0.14919795764E+03  0.00000000000E+00 0.  1.
         25    1    1    2    0    0  0.15856480132E+02  0.11891970500E+02 -0.60657594960E+02  0.14034668058E+03  0.12500000000E+03 0.  0.
         25    1    1    2    0    0 -0.19624502572E+02 -0.29151993443E+02  0.22842449046E+03  0.26275027624E+03  0.12500000000E+03 0.  0.
         25    1    1    2    0    0  0.37680224396E+01  0.17260022943E+02  0.94819967552E+02  0.15788582150E+03  0.12500000000E+03 0.  0.
</event>
<event>
 5    0  0.5605075E-005  0.4437261E+03  0.7546771E-02  0.1029610E+00
         21   -1    0    0  502  501  0.00000000000E+00  0.00000000000E+00  0.25614126458E+03  0.25614126458E+03  0.00000000000E+00 0.  1.
         21   -1    0    0  501  502 -0.00000000000E+00 -0.00000000000E+00 -0.76868838209E+03  0.76868838209E+03  0.00000000000E+00 0.  1.
         25    1    1    2    0    0 -0.23947679076E+03  0.18430914149E+03  0.43996933174E+02  0.32996927596E+03  0.12500000000E+03 0.  0.
         25    1    1    2    0    0  0.65479042101E+02 -0.18020677233E+02 -0.22927414787E+03  0.26982194989E+03  0.12500000000E+03 0.  0.
         25    1    1    2    0    0  0.17399774866E+03 -0.16628846425E+03 -0.32726990282E+03  0.42503842082E+03  0.12500000000E+03 0.  0.
</event>
