<event>
 6    0  0.4340992E+002  0.1815291E+03  0.7546771E-02  0.1166331E+00
          2   -1    0    0  503    0 -0.00000000000E+00  0.00000000000E+00  0.26629525939E+04  0.26629525939E+04  0.00000000000E+00 0. -1.
         21   -1    0    0  505  502  0.00000000000E+00 -0.00000000000E+00 -0.38375282072E+02  0.38375282072E+02  0.00000000000E+00 0. -1.
         21    1    1    2  503  502  0.92393422436E+02  0.19895556353E+02  0.54163509142E+03  0.54981901562E+03  0.00000000000E+00 0. -1.
         21    1    1    2  504  501 -0.16576438388E+03  0.62523303041E+02  0.31975043371E+03  0.36555072732E+03  0.00000000000E+00 0. -1.
         21    1    1    2  505  504 -0.31238499535E+02 -0.95836085570E+01  0.20420790458E+02  0.38531780248E+02  0.00000000000E+00 0. -1.
          2    1    1    2  501    0  0.10460946098E+03 -0.72835250837E+02  0.17427709962E+04  0.17474263528E+04  0.00000000000E+00 0. -1.
<scales pt_clust_3="89.96849" pt_clust_4="14000.00000" pt_clust_5="32.67552" pt_clust_6="181.52915"></scales>
<clustering>
<clus scale="   32.676">  2  5  1 -1</clus>
<clus scale="   89.968">  1  3  2 -1</clus>
<clus scale="  181.529">  1  6  2 -1</clus>
<clus scale="   32.676">  2  3  1 -1</clus>
</clustering>
</event>
<event>
 6    0  0.4340992E+002  0.9420115E+02  0.7546771E-02  0.1292985E+00
          2   -1    0    0  504    0 -0.00000000000E+00  0.00000000000E+00  0.11921647868E+04  0.11921647868E+04  0.00000000000E+00 0. -1.
         21   -1    0    0  505  502  0.00000000000E+00 -0.00000000000E+00 -0.22417717380E+03  0.22417717380E+03  0.00000000000E+00 0.  1.
         21    1    1    2  503  502 -0.40768737473E+02  0.61650235785E+02  0.11222117094E+03  0.13437422645E+03  0.00000000000E+00 0. -1.
         21    1    1    2  504  503 -0.38262929570E+02 -0.34319659237E+02  0.79941280477E+03  0.80106349512E+03  0.00000000000E+00 0. -1.
         21    1    1    2  505  501 -0.43886253663E+02  0.19758847025E+02 -0.19301621824E+03  0.19892630747E+03  0.00000000000E+00 0.  1.
          2    1    1    2  501    0  0.12291792071E+03 -0.47089423573E+02  0.24936985557E+03  0.28197793160E+03  0.00000000000E+00 0. -1.
<scales pt_clust_3="14000.00000" pt_clust_4="51.98520" pt_clust_5="48.12915" pt_clust_6="94.20115"></scales>
<clustering>
<clus scale="   48.129">  2  5  1 -1</clus>
<clus scale="   51.985">  1  4  2 -1</clus>
<clus scale="   94.201">  2  6  1 -1</clus>
<clus scale="   48.129">  2  3  1 -1</clus>
</clustering>
</event>
<event>
 6    0  0.4340992E+002  0.2250511E+03  0.7546771E-02  0.1130172E+00
         21   -1    0    0  505  502  0.00000000000E+00  0.00000000000E+00  0.68683373606E+02  0.68683373606E+02  0.00000000000E+00 0.  1.
         -3   -1    0    0    0  501 -0.00000000000E+00 -0.00000000000E+00 -0.10714321618E+04  0.10714321618E+04  0.00000000000E+00 0.  1.
         21    1    1    2  503  502 -0.18327602788E+02  0.50515195408E+02 -0.49015323308E+02  0.72733677963E+02  0.00000000000E+00 0.  1.
         21    1    1    2  504  503  0.13002186763E+03 -0.35714833158E+02 -0.35614606348E+03  0.38081656201E+03  0.00000000000E+00 0.  1.
         21    1    1    2  505  501 -0.20560718213E+03  0.92725730426E+01 -0.24046913203E+03  0.31652124323E+03  0.00000000000E+00 0.  1.
         -3    1    1    2    0  504  0.93912917294E+02 -0.24072935293E+02 -0.35711826933E+03  0.37004405216E+03  0.00000000000E+00 0.  1.
<scales pt_clust_3="53.73719" pt_clust_4="30.85727" pt_clust_5="222.08944" pt_clust_6="30.85727"></scales>
<clustering>
<clus scale="   30.857">  4  6 -1 -1</clus>
<clus scale="   53.737">  1  3  2 -1</clus>
<clus scale="  222.089">  1  5  2 -1</clus>
<clus scale="   53.737">  1  3  2 -1</clus>
</clustering>
</event>
<event>
 6    0  0.4340992E+002  0.9223003E+02  0.7546771E-02  0.1297539E+00
         21   -1    0    0  503  502  0.00000000000E+00  0.00000000000E+00  0.10043141363E+03  0.10043141363E+03  0.00000000000E+00 0.  1.
          2   -1    0    0  505    0 -0.00000000000E+00 -0.00000000000E+00 -0.22898463279E+04  0.22898463279E+04  0.00000000000E+00 0. -1.
         21    1    1    2  503  501 -0.62940337366E+02 -0.68642692134E+02 -0.12479297951E+03  0.15571317538E+03  0.00000000000E+00 0.  1.
         21    1    1    2  504  502  0.24442722981E+02 -0.18344093323E+02  0.80013870473E+02  0.85651456115E+02  0.00000000000E+00 0.  1.
         21    1    1    2  505  504  0.70151470297E+02  0.46786387959E+02 -0.13558321545E+04  0.13584517018E+04  0.00000000000E+00 0. -1.
          2    1    1    2  501    0 -0.31653855913E+02  0.40200397498E+02 -0.78880365070E+03  0.79046140824E+03  0.00000000000E+00 0. -1.
<scales pt_clust_3="92.23003" pt_clust_4="30.56064" pt_clust_5="14000.00000" pt_clust_6="49.77715"></scales>
<clustering>
<clus scale="   30.561">  1  4  2 -1</clus>
<clus scale="   49.777">  2  6  1 -1</clus>
<clus scale="   92.230">  1  3  2 -1</clus>
<clus scale="   30.561">  1  3  2 -1</clus>
</clustering>
</event>
<event>
 6    0  0.1081052E+003  0.7919078E+02  0.7546771E-02  0.1331364E+00
          2   -1    0    0  505    0 -0.00000000000E+00  0.00000000000E+00  0.13465212296E+04  0.13465212296E+04  0.00000000000E+00 0.  1.
         21   -1    0    0  501  502  0.00000000000E+00 -0.00000000000E+00 -0.62900129268E+03  0.62900129268E+03  0.00000000000E+00 0. -1.
         21    1    1    2  503  502 -0.46183515085E+00  0.79206734708E+02 -0.60865337323E+03  0.61378567013E+03  0.00000000000E+00 0. -1.
         21    1    1    2  504  503 -0.54992554938E+02 -0.10076354293E+02  0.11137392630E+03  0.12461888089E+03  0.00000000000E+00 0.  1.
         21    1    1    2  505  504  0.46960960402E+02  0.21176493092E+01  0.44854719120E+02  0.64975088055E+02  0.00000000000E+00 0.  1.
          2    1    1    2  501    0  0.84934296868E+01 -0.71248029724E+02  0.11699446647E+04  0.11721428832E+04  0.00000000000E+00 0.  1.
<scales pt_clust_3="79.19078" pt_clust_4="51.65658" pt_clust_5="47.00868" pt_clust_6="14000.00000"></scales>
<clustering>
<clus scale="   47.009">  1  5  2 -1</clus>
<clus scale="   51.657">  1  4  2 -1</clus>
<clus scale="   79.191">  2  3  1 -1</clus>
<clus scale="   79.191">  2  3  1 -1</clus>
</clustering>
</event>
<event>
 6    0  0.4340992E+002  0.2171767E+03  0.7546771E-02  0.1136006E+00
         21   -1    0    0  503  502  0.00000000000E+00  0.00000000000E+00  0.85586426283E+02  0.85586426283E+02  0.00000000000E+00 0. -1.
         -3   -1    0    0    0  501 -0.00000000000E+00 -0.00000000000E+00 -0.91264601790E+03  0.91264601790E+03  0.00000000000E+00 0.  1.
         21    1    1    2  503  504  0.53754760469E+01 -0.11514099251E+03 -0.27290302149E+02  0.11845296320E+03  0.00000000000E+00 0. -1.
         21    1    1    2  504  501  0.73622171747E+02 -0.64092224139E+02 -0.66495829137E+02  0.11810898637E+03  0.00000000000E+00 0. -1.
         21    1    1    2  505  502 -0.24074306578E+02  0.27614069708E+02 -0.69216947717E+02  0.78314078774E+02  0.00000000000E+00 0.  1.
         -3    1    1    2    0  505 -0.54923341217E+02  0.15161914694E+03 -0.66405651261E+03  0.68335641584E+03  0.00000000000E+00 0.  1.
<scales pt_clust_3="86.32851" pt_clust_4="86.32851" pt_clust_5="30.47016" pt_clust_6="206.03877"></scales>
<clustering>
<clus scale="   30.470">  5  6 -1 -1</clus>
<clus scale="   86.329">  3  4 -1 -1</clus>
<clus scale="  206.039">  2  5  1 -1</clus>
<clus scale="  217.177">  1  3  2 -1</clus>
</clustering>
</event>
<event>
 6    0  0.4340992E+002  0.8513768E+02  0.7546771E-02  0.1315073E+00
         21   -1    0    0  504  502  0.00000000000E+00  0.00000000000E+00  0.34957283381E+02  0.34957283381E+02  0.00000000000E+00 0.  1.
          1   -1    0    0  505    0 -0.00000000000E+00 -0.00000000000E+00 -0.12215528315E+04  0.12215528315E+04  0.00000000000E+00 0.  1.
         21    1    1    2  503  502 -0.59780134398E+02 -0.83209010421E+01 -0.22389311179E+02  0.64375330041E+02  0.00000000000E+00 0.  1.
         21    1    1    2  504  501  0.40743285376E+02 -0.97869897741E+01 -0.53834409699E+02  0.68219822191E+02  0.00000000000E+00 0. -1.
         21    1    1    2  505  503 -0.72317345059E+02 -0.19901202822E+02 -0.47982095585E+03  0.48564802681E+03  0.00000000000E+00 0.  1.
          1    1    1    2  501    0  0.91354194080E+02  0.38009093638E+02 -0.63055087135E+03  0.63826693580E+03  0.00000000000E+00 0.  1.
<scales pt_clust_3="32.96407" pt_clust_4="41.90227" pt_clust_5="14000.00000" pt_clust_6="85.13768"></scales>
<clustering>
<clus scale="   41.902">  1  4  2 -1</clus>
<clus scale="   32.964">  1  3  2 -1</clus>
<clus scale="   85.138">  1  6  2 -1</clus>
<clus scale="   41.902">  1  3  2 -1</clus>
</clustering>
</event>
<event>
 6    0  0.5053418E+002  0.1212730E+03  0.7546771E-02  0.1241012E+00
         21   -1    0    0  505  502  0.00000000000E+00  0.00000000000E+00  0.15474491672E+04  0.15474491672E+04  0.00000000000E+00 0. -1.
          2   -1    0    0  503    0 -0.00000000000E+00 -0.00000000000E+00 -0.86383629075E+03  0.86383629075E+03  0.00000000000E+00 0. -1.
         21    1    1    2  503  504  0.43444723097E+02 -0.34564192715E+01 -0.17940571049E+03  0.18462339981E+03  0.00000000000E+00 0. -1.
         21    1    1    2  504  502  0.50734760294E+02  0.20601588606E+02 -0.35183871160E+02  0.65087219521E+02  0.00000000000E+00 0. -1.
         21    1    1    2  505  501 -0.10046723027E+03  0.68387267990E+02  0.15245481973E+04  0.15293847418E+04  0.00000000000E+00 0. -1.
          2    1    1    2  501    0  0.62877468761E+01 -0.85532437324E+02 -0.62634573913E+03  0.63219009682E+03  0.00000000000E+00 0. -1.
<scales pt_clust_3="43.58200" pt_clust_4="57.64018" pt_clust_5="121.27303" pt_clust_6="14000.00000"></scales>
<clustering>
<clus scale="   43.582">  2  3  1 -1</clus>
<clus scale="   57.640">  2  4  1 -1</clus>
<clus scale="  121.273">  1  5  2 -1</clus>
<clus scale="  121.273">  1  3  2 -1</clus>
</clustering>
</event>
<event>
 6    0  0.4340992E+002  0.1126994E+03  0.7546771E-02  0.1255651E+00
          2   -1    0    0  505    0 -0.00000000000E+00  0.00000000000E+00  0.61998623907E+03  0.61998623907E+03  0.00000000000E+00 0.  1.
         21   -1    0    0  504  502  0.00000000000E+00 -0.00000000000E+00 -0.88640881478E+02  0.88640881478E+02  0.00000000000E+00 0.  1.
         21    1    1    2  503  501  0.18176542148E+02  0.47352170059E+02  0.16705850423E+03  0.17458854066E+03  0.00000000000E+00 0.  1.
         21    1    1    2  504  503 -0.10336799398E+03 -0.69845716019E+02  0.10375504913E+02  0.12518393399E+03  0.00000000000E+00 0.  1.
         21    1    1    2  505  502  0.38308067893E+02 -0.30886968692E+01 -0.11063164971E+02  0.39993021056E+02  0.00000000000E+00 0. -1.
          2    1    1    2  501    0  0.46883383942E+02  0.25582242830E+02  0.36497451342E+03  0.36886162484E+03  0.00000000000E+00 0.  1.
<scales pt_clust_3="50.76396" pt_clust_4="99.87200" pt_clust_5="38.43238" pt_clust_6="50.76396"></scales>
<clustering>
<clus scale="   38.432">  2  5  1 -1</clus>
<clus scale="   50.764">  3  6 -1 -1</clus>
<clus scale="   99.872">  2  4  1 -1</clus>
<clus scale="   38.432">  2  3  1 -1</clus>
</clustering>
</event>
<event>
 6    0  0.4340992E+002  0.7071939E+02  0.7546771E-02  0.1357664E+00
         21   -1    0    0  501  502  0.00000000000E+00  0.00000000000E+00  0.13289064660E+03  0.13289064660E+03  0.00000000000E+00 0. -1.
          2   -1    0    0  503    0 -0.00000000000E+00 -0.00000000000E+00 -0.14465396024E+04  0.14465396024E+04  0.00000000000E+00 0. -1.
         21    1    1    2  503  504  0.17406488651E+02  0.31381689884E+02 -0.24604706596E+03  0.24865026639E+03  0.00000000000E+00 0. -1.
         21    1    1    2  504  505 -0.69448163155E+02 -0.11322820915E+03 -0.49254024186E+03  0.51013680966E+03  0.00000000000E+00 0. -1.
         21    1    1    2  505  502  0.51071280130E+01  0.69580658590E+02  0.11195571232E+03  0.13191524676E+03  0.00000000000E+00 0. -1.
          2    1    1    2  501    0  0.46934546491E+02  0.12265860675E+02 -0.68701736026E+03  0.68872792618E+03  0.00000000000E+00 0. -1.
<scales pt_clust_3="35.88588" pt_clust_4="70.71939" pt_clust_5="14000.00000" pt_clust_6="64.46605"></scales>
<clustering>
<clus scale="   35.886">  2  3  1 -1</clus>
<clus scale="   64.466">  2  6  1 -1</clus>
<clus scale="   70.719">  2  4  1 -1</clus>
<clus scale="   70.719">  1  3  2 -1</clus>
</clustering>
</event>
<event>
 6    0  0.4340992E+002  0.1086303E+03  0.7546771E-02  0.1263128E+00
          1   -1    0    0  505    0 -0.00000000000E+00  0.00000000000E+00  0.23486082239E+03  0.23486082239E+03  0.00000000000E+00 0. -1.
         21   -1    0    0  501  502  0.00000000000E+00 -0.00000000000E+00 -0.42815728094E+03  0.42815728094E+03  0.00000000000E+00 0.  1.
         21    1    1    2  503  504  0.29802764869E+01 -0.51561846682E+02 -0.26176426507E+03  0.26681086288E+03  0.00000000000E+00 0.  1.
         21    1    1    2  504  502  0.21979019278E+02 -0.46458612824E+02 -0.13223469201E+03  0.14187139869E+03  0.00000000000E+00 0.  1.
         21    1    1    2  505  503 -0.37615157127E+02 -0.11310496953E+02  0.23609333142E+02  0.45828244549E+02  0.00000000000E+00 0.  1.
          1    1    1    2  501    0  0.12655861363E+02  0.10933095646E+03  0.17709316540E+03  0.20850759722E+03  0.00000000000E+00 0. -1.
<scales pt_clust_3="39.24211" pt_clust_4="39.24211" pt_clust_5="39.27884" pt_clust_6="101.22011"></scales>
<clustering>
<clus scale="   39.279">  1  5  2 -1</clus>
<clus scale="   39.242">  3  4 -1 -1</clus>
<clus scale="  101.220">  1  6  2 -1</clus>
<clus scale="  108.630">  2  3  1 -1</clus>
</clustering>
</event>
<event>
 6    0  0.4340992E+002  0.1087431E+03  0.7546771E-02  0.1262915E+00
          2   -1    0    0  505    0 -0.00000000000E+00  0.00000000000E+00  0.77144778631E+02  0.77144778631E+02  0.00000000000E+00 0. -1.
         21   -1    0    0  501  502  0.00000000000E+00 -0.00000000000E+00 -0.11622549979E+04  0.11622549979E+04  0.00000000000E+00 0.  1.
         21    1    1    2  503  502  0.27088623129E+02 -0.25095323023E+02 -0.69182223741E+03  0.69280702718E+03  0.00000000000E+00 0.  1.
         21    1    1    2  504  503 -0.38674982290E+02 -0.91522706351E+02 -0.39553647576E+03  0.40782504053E+03  0.00000000000E+00 0.  1.
         21    1    1    2  505  504 -0.53026984172E+01  0.42781869042E+02 -0.33899063132E+02  0.54841165291E+02  0.00000000000E+00 0.  1.
          2    1    1    2  501    0  0.16889057578E+02  0.73836160332E+02  0.36147556986E+02  0.83926543564E+02  0.00000000000E+00 0. -1.
<scales pt_clust_3="36.92653" pt_clust_4="14000.00000" pt_clust_5="40.50558" pt_clust_6="108.74313"></scales>
<clustering>
<clus scale="   36.927">  2  3  1 -1</clus>
<clus scale="   40.506">  1  5  2 -1</clus>
<clus scale="  108.743">  1  6  2 -1</clus>
<clus scale="   36.927">  2  3  1 -1</clus>
</clustering>
</event>
<event>
 6    0  0.4340992E+002  0.1102312E+03  0.7546771E-02  0.1260142E+00
         21   -1    0    0  505  502  0.00000000000E+00  0.00000000000E+00  0.13013509018E+03  0.13013509018E+03  0.00000000000E+00 0.  1.
          4   -1    0    0  503    0 -0.00000000000E+00 -0.00000000000E+00 -0.61377691627E+03  0.61377691627E+03  0.00000000000E+00 0.  1.
         21    1    1    2  503  504 -0.13425808331E+03  0.50085644036E+01 -0.50952551575E+03  0.52694076503E+03  0.00000000000E+00 0.  1.
         21    1    1    2  504  502  0.20243412150E+02 -0.32855510960E+02 -0.61657906259E+01  0.39080651350E+02  0.00000000000E+00 0. -1.
         21    1    1    2  505  501  0.88588431664E+02  0.10863018094E+02  0.80767784745E+02  0.12037171777E+03  0.00000000000E+00 0.  1.
          4    1    1    2  501    0  0.25426239498E+02  0.16983928462E+02 -0.48718304462E+02  0.57518872300E+02  0.00000000000E+00 0.  1.
<scales pt_clust_3="110.23122" pt_clust_4="38.56563" pt_clust_5="14000.00000" pt_clust_6="30.57691"></scales>
<clustering>
<clus scale="   30.577">  2  6  1 -1</clus>
<clus scale="   38.566">  1  4  2 -1</clus>
<clus scale="  110.231">  2  3  1 -1</clus>
<clus scale="   38.566">  1  3  2 -1</clus>
</clustering>
</event>
<event>
 6    0  0.4340992E+002  0.2450771E+03  0.7546771E-02  0.1116456E+00
          1   -1    0    0  505    0 -0.00000000000E+00  0.00000000000E+00  0.15066351275E+04  0.15066351275E+04  0.00000000000E+00 0.  1.
         21   -1    0    0  503  502  0.00000000000E+00 -0.00000000000E+00 -0.52596642908E+02  0.52596642908E+02  0.00000000000E+00 0.  1.
         21    1    1    2  503  501  0.31291841520E+02 -0.44938254377E+02  0.32994979530E+03  0.33446299268E+03  0.00000000000E+00 0.  1.
         21    1    1    2  504  502 -0.54943345332E+02  0.25080008745E+02  0.31566619241E+02  0.68148583883E+02  0.00000000000E+00 0.  1.
         21    1    1    2  505  504 -0.13670654693E+03  0.98824021133E+02  0.29982613859E+03  0.34402119194E+03  0.00000000000E+00 0.  1.
          1    1    1    2  501    0  0.16035805074E+03 -0.78965775501E+02  0.79269593146E+03  0.81259900190E+03  0.00000000000E+00 0.  1.
<scales pt_clust_3="31.96822" pt_clust_4="53.45560" pt_clust_5="53.45560" pt_clust_6="235.40984"></scales>
<clustering>
<clus scale="   31.968">  3  6 -1 -1</clus>
<clus scale="   53.456">  4  5 -1 -1</clus>
<clus scale="  235.410">  1  3  2 -1</clus>
<clus scale="  245.077">  2  3  1 -1</clus>
</clustering>
</event>
<event>
 6    0  0.4340992E+002  0.1063381E+03  0.7546771E-02  0.1267505E+00
         21   -1    0    0  505  502  0.00000000000E+00  0.00000000000E+00  0.24812405289E+02  0.24812405289E+02  0.00000000000E+00 0.  1.
          2   -1    0    0  504    0 -0.00000000000E+00 -0.00000000000E+00 -0.16046987828E+04  0.16046987828E+04  0.00000000000E+00 0. -1.
         21    1    1    2  503  502  0.35747718187E+02  0.26822725977E+02 -0.84424241124E+02  0.95523873842E+02  0.00000000000E+00 0. -1.
         21    1    1    2  504  503  0.52289719303E+02  0.17962660243E+02 -0.35096432761E+03  0.35529259936E+03  0.00000000000E+00 0.  1.
         21    1    1    2  505  501 -0.14697584453E+03 -0.19909093487E+01 -0.33378645873E+03  0.36471805909E+03  0.00000000000E+00 0.  1.
          2    1    1    2  501    0  0.58938407045E+02 -0.42794476871E+02 -0.81071135000E+03  0.81397665575E+03  0.00000000000E+00 0. -1.
<scales pt_clust_3="44.69181" pt_clust_4="60.08627" pt_clust_5="106.33808" pt_clust_6="14000.00000"></scales>
<clustering>
<clus scale="   44.692">  1  3  2 -1</clus>
<clus scale="   60.086">  2  4  1 -1</clus>
<clus scale="  106.338">  1  5  2 -1</clus>
<clus scale="   44.692">  1  3  2 -1</clus>
</clustering>
</event>
<event>
 6    0  0.4340992E+002  0.9871937E+02  0.7546771E-02  0.1283012E+00
          2   -1    0    0  503    0 -0.00000000000E+00  0.00000000000E+00  0.17679017587E+04  0.17679017587E+04  0.00000000000E+00 0. -1.
         21   -1    0    0  501  502  0.00000000000E+00 -0.00000000000E+00 -0.73478353042E+03  0.73478353042E+03  0.00000000000E+00 0.  1.
         21    1    1    2  503  504 -0.28280476750E+02 -0.15772460700E+02  0.22601180369E+03  0.22831971288E+03  0.00000000000E+00 0.  1.
         21    1    1    2  504  505  0.13295354108E+03 -0.62967194870E+02 -0.96645227510E+02  0.17601650978E+03  0.00000000000E+00 0.  1.
         21    1    1    2  505  502 -0.84988874455E+02  0.40601980967E+02 -0.59327602650E+03  0.60070631199E+03  0.00000000000E+00 0.  1.
          2    1    1    2  501    0 -0.19684189877E+02  0.38137674603E+02  0.14970276786E+04  0.14976427544E+04  0.00000000000E+00 0. -1.
<scales pt_clust_3="32.38141" pt_clust_4="14000.00000" pt_clust_5="98.71937" pt_clust_6="52.39368"></scales>
<clustering>
<clus scale="   32.381">  1  3  2 -1</clus>
<clus scale="   52.394">  1  6  2 -1</clus>
<clus scale="   98.719">  2  5  1 -1</clus>
<clus scale="   98.719">  2  3  1 -1</clus>
</clustering>
</event>
<event>
 6    0  0.4340992E+002  0.1507419E+03  0.7546771E-02  0.1199564E+00
          2   -1    0    0  505    0 -0.00000000000E+00  0.00000000000E+00  0.11875865843E+04  0.11875865843E+04  0.00000000000E+00 0.  1.
         21   -1    0    0  504  502  0.00000000000E+00 -0.00000000000E+00 -0.47618814014E+03  0.47618814014E+03  0.00000000000E+00 0. -1.
         21    1    1    2  503  502  0.29891593420E+02  0.50919571692E+02 -0.37691283066E+02  0.70049574999E+02  0.00000000000E+00 0. -1.
         21    1    1    2  504  501 -0.15697150157E+03  0.31711609912E+02 -0.39485758725E+03  0.42609645941E+03  0.00000000000E+00 0. -1.
         21    1    1    2  505  503  0.40658744735E+02  0.12232548132E+02  0.47552949538E+02  0.63749915819E+02  0.00000000000E+00 0.  1.
          2    1    1    2  501    0  0.86421163417E+02 -0.94863729735E+02  0.10963943650E+04  0.11038787742E+04  0.00000000000E+00 0.  1.
<scales pt_clust_3="59.49141" pt_clust_4="150.74188" pt_clust_5="42.45902" pt_clust_6="14000.00000"></scales>
<clustering>
<clus scale="   42.459">  1  5  2 -1</clus>
<clus scale="   59.491">  2  3  1 -1</clus>
<clus scale="  150.742">  2  4  1 -1</clus>
<clus scale="   59.491">  2  3  1 -1</clus>
</clustering>
</event>
<event>
 6    0  0.4340992E+002  0.1281722E+03  0.7546771E-02  0.1230193E+00
         21   -1    0    0  503  502  0.00000000000E+00  0.00000000000E+00  0.11834153621E+04  0.11834153621E+04  0.00000000000E+00 0.  1.
          3   -1    0    0  505    0 -0.00000000000E+00 -0.00000000000E+00 -0.36321332231E+03  0.36321332231E+03  0.00000000000E+00 0.  1.
         21    1    1    2  503  501  0.28533415664E+02  0.12358975365E+03  0.10269173031E+04  0.10347210882E+04  0.00000000000E+00 0.  1.
         21    1    1    2  504  502 -0.89044700601E+02 -0.12634933834E+03  0.80599104766E+02  0.17432535586E+03  0.00000000000E+00 0.  1.
         21    1    1    2  505  504 -0.29080416369E+02 -0.56258774707E+02 -0.15363734852E+03  0.16617808281E+03  0.00000000000E+00 0.  1.
          3    1    1    2  501    0  0.89591701306E+02  0.59018359405E+02 -0.13367701950E+03  0.17140415757E+03  0.00000000000E+00 0.  1.
<scales pt_clust_3="128.17218" pt_clust_4="14000.00000" pt_clust_5="63.33025" pt_clust_6="69.82558"></scales>
<clustering>
<clus scale="   63.330">  2  5  1 -1</clus>
<clus scale="   69.826">  2  6  1 -1</clus>
<clus scale="  128.172">  1  3  2 -1</clus>
<clus scale="  128.172">  1  3  2 -1</clus>
</clustering>
</event>
<event>
 6    0  0.4340992E+002  0.1834931E+03  0.7546771E-02  0.1164465E+00
          1   -1    0    0  504    0 -0.00000000000E+00  0.00000000000E+00  0.95278844456E+03  0.95278844456E+03  0.00000000000E+00 0.  1.
         21   -1    0    0  503  502  0.00000000000E+00 -0.00000000000E+00 -0.59131029949E+03  0.59131029949E+03  0.00000000000E+00 0. -1.
         21    1    1    2  503  501  0.16712233672E+03 -0.17341347617E+02 -0.53099598670E+03  0.55694464326E+03  0.00000000000E+00 0. -1.
         21    1    1    2  504  505 -0.10604424104E+03  0.77663458934E+02  0.21833658441E+03  0.25484869629E+03  0.00000000000E+00 0.  1.
         21    1    1    2  505  502  0.17221440392E+02 -0.41668707125E+02 -0.76942456968E+01  0.45739048739E+02  0.00000000000E+00 0.  1.
          1    1    1    2  501    0 -0.78299536069E+02 -0.18653404192E+02  0.68183179306E+03  0.68656635576E+03  0.00000000000E+00 0.  1.
<scales pt_clust_3="14000.00000" pt_clust_4="183.49308" pt_clust_5="45.08724" pt_clust_6="80.46125"></scales>
<clustering>
<clus scale="   45.087">  2  5  1 -1</clus>
<clus scale="   80.461">  1  6  2 -1</clus>
<clus scale="  183.493">  1  4  2 -1</clus>
<clus scale="   45.087">  2  3  1 -1</clus>
</clustering>
</event>
<event>
 6    0  0.4340992E+002  0.1178667E+03  0.7546771E-02  0.1246658E+00
          3   -1    0    0  505    0 -0.00000000000E+00  0.00000000000E+00  0.69739781158E+03  0.69739781158E+03  0.00000000000E+00 0. -1.
         21   -1    0    0  504  502  0.00000000000E+00 -0.00000000000E+00 -0.50455587677E+03  0.50455587677E+03  0.00000000000E+00 0. -1.
         21    1    1    2  503  501  0.10603351881E+03 -0.32511076137E+02  0.19992539677E+03  0.22862686075E+03  0.00000000000E+00 0. -1.
         21    1    1    2  504  503 -0.35863076887E+02  0.21791247623E+02 -0.45098069067E+03  0.45292891508E+03  0.00000000000E+00 0. -1.
         21    1    1    2  505  502  0.53320920045E+02  0.80937451197E+01 -0.56155911854E+01  0.54223279953E+02  0.00000000000E+00 0. -1.
          3    1    1    2  501    0 -0.12349136197E+03  0.26260833945E+01  0.44951281990E+03  0.46617463256E+03  0.00000000000E+00 0. -1.
<scales pt_clust_3="14000.00000" pt_clust_4="41.96449" pt_clust_5="38.77683" pt_clust_6="117.86671"></scales>
<clustering>
<clus scale="   41.964">  2  4  1 -1</clus>
<clus scale="   38.777">  2  5  1 -1</clus>
<clus scale="  117.867">  1  6  2 -1</clus>
<clus scale="   41.964">  2  3  1 -1</clus>
</clustering>
</event>
<event>
 6    0  0.4340992E+002  0.1397755E+03  0.7546771E-02  0.1213631E+00
         21   -1    0    0  504  502  0.00000000000E+00  0.00000000000E+00  0.79651198507E+03  0.79651198507E+03  0.00000000000E+00 0.  1.
          2   -1    0    0  505    0 -0.00000000000E+00 -0.00000000000E+00 -0.12460733914E+04  0.12460733914E+04  0.00000000000E+00 0. -1.
         21    1    1    2  503  502 -0.20397794431E+02  0.48520905767E+02  0.12432075059E+03  0.13500369381E+03  0.00000000000E+00 0.  1.
         21    1    1    2  504  501  0.15911839177E+03 -0.62964739376E+02  0.62948221857E+03  0.65232743657E+03  0.00000000000E+00 0.  1.
         21    1    1    2  505  503 -0.52060882741E+02  0.57118575438E+02 -0.38411978592E+02  0.86303807976E+02  0.00000000000E+00 0.  1.
          2    1    1    2  501    0 -0.86659714600E+02 -0.42674741829E+02 -0.11649523969E+04  0.11689504381E+04  0.00000000000E+00 0. -1.
<scales pt_clust_3="52.63410" pt_clust_4="14000.00000" pt_clust_5="79.06797" pt_clust_6="139.77552"></scales>
<clustering>
<clus scale="   52.634">  1  3  2 -1</clus>
<clus scale="   79.068">  2  5  1 -1</clus>
<clus scale="  139.776">  2  6  1 -1</clus>
<clus scale="   52.634">  1  3  2 -1</clus>
</clustering>
</event>
<event>
 6    0  0.4340992E+002  0.1497607E+03  0.7546771E-02  0.1200767E+00
         21   -1    0    0  503  502  0.00000000000E+00  0.00000000000E+00  0.10762961325E+03  0.10762961325E+03  0.00000000000E+00 0. -1.
          2   -1    0    0  502    0 -0.00000000000E+00 -0.00000000000E+00 -0.41149432461E+03  0.41149432461E+03  0.00000000000E+00 0. -1.
         21    1    1    2  503  505 -0.15742334649E+02 -0.29270636699E+02  0.27603384956E+02  0.43203450487E+02  0.00000000000E+00 0. -1.
         21    1    1    2  504  501  0.35232483377E+02 -0.90439998712E+02 -0.18213917733E+02  0.98754584963E+02  0.00000000000E+00 0. -1.
         21    1    1    2  505  504  0.36956294299E+02 -0.14988445441E+02 -0.10832204469E+02  0.41325026784E+02  0.00000000000E+00 0. -1.
          2    1    1    2  501    0 -0.56446443027E+02  0.13469908085E+03 -0.30242197411E+03  0.33584087562E+03  0.00000000000E+00 0. -1.
<scales pt_clust_3="33.23539" pt_clust_4="31.74233" pt_clust_5="31.74233" pt_clust_6="141.33657"></scales>
<clustering>
<clus scale="   31.742">  4  5 -1 -1</clus>
<clus scale="   33.235">  1  3  2 -1</clus>
<clus scale="  141.337">  2  6  1 -1</clus>
<clus scale="   33.235">  1  3  2 -1</clus>
</clustering>
</event>
<event>
 6    0  0.4340992E+002  0.8743405E+02  0.7546771E-02  0.1309187E+00
         21   -1    0    0  503  502  0.00000000000E+00  0.00000000000E+00  0.10783724004E+04  0.10783724004E+04  0.00000000000E+00 0. -1.
         -1   -1    0    0    0  501 -0.00000000000E+00 -0.00000000000E+00 -0.31298210325E+03  0.31298210325E+03  0.00000000000E+00 0. -1.
         21    1    1    2  503  501 -0.50747403572E+02 -0.37911798212E+02  0.15464485436E+03  0.16711563180E+03  0.00000000000E+00 0.  1.
         21    1    1    2  504  502  0.40755594407E+02 -0.11855972544E+02  0.88591941247E+03  0.88693561658E+03  0.00000000000E+00 0. -1.
         21    1    1    2  505  504 -0.29722455171E+01 -0.52751052964E+02 -0.11455965249E+02  0.54062435868E+02  0.00000000000E+00 0.  1.
         -1    1    1    2    0  505  0.12964054683E+02  0.10251882372E+03 -0.26371800442E+03  0.28324081942E+03  0.00000000000E+00 0. -1.
<scales pt_clust_3="50.64266" pt_clust_4="42.44505" pt_clust_5="87.43405" pt_clust_6="14000.00000"></scales>
<clustering>
<clus scale="   42.445">  1  4  2 -1</clus>
<clus scale="   50.643">  1  3  2 -1</clus>
<clus scale="   87.434">  1  5  2 -1</clus>
<clus scale="   42.445">  1  3  2 -1</clus>
</clustering>
</event>
<event>
 6    0  0.4340992E+002  0.8014988E+02  0.7546771E-02  0.1328627E+00
         21   -1    0    0  501  502  0.00000000000E+00  0.00000000000E+00  0.35403341148E+03  0.35403341148E+03  0.00000000000E+00 0. -1.
          2   -1    0    0  505    0 -0.00000000000E+00 -0.00000000000E+00 -0.10635767417E+04  0.10635767417E+04  0.00000000000E+00 0.  1.
         21    1    1    2  503  504  0.10084243123E+03 -0.19020739160E+02  0.10342714537E+03  0.14569886360E+03  0.00000000000E+00 0. -1.
         21    1    1    2  504  502 -0.38217716605E+02 -0.29534973856E+02  0.21869291395E+03  0.22396316473E+03  0.00000000000E+00 0. -1.
         21    1    1    2  505  503  0.24378283250E+02  0.22890044047E+02 -0.39965983461E+02  0.52110792017E+02  0.00000000000E+00 0.  1.
          2    1    1    2  501    0 -0.87002997872E+02  0.25665668969E+02 -0.99169740608E+03  0.99583733281E+03  0.00000000000E+00 0.  1.
<scales pt_clust_3="14000.00000" pt_clust_4="48.21399" pt_clust_5="33.44032" pt_clust_6="80.14988"></scales>
<clustering>
<clus scale="   33.440">  2  5  1 -1</clus>
<clus scale="   48.214">  1  4  2 -1</clus>
<clus scale="   80.150">  2  6  1 -1</clus>
<clus scale="   48.214">  1  3  2 -1</clus>
</clustering>
</event>
<event>
 6    0  0.4340992E+002  0.6729899E+02  0.7546771E-02  0.1369526E+00
          2   -1    0    0  503    0 -0.00000000000E+00  0.00000000000E+00  0.56244882552E+03  0.56244882552E+03  0.00000000000E+00 0.  1.
         21   -1    0    0  504  502  0.00000000000E+00 -0.00000000000E+00 -0.76505264372E+02  0.76505264372E+02  0.00000000000E+00 0. -1.
         21    1    1    2  503  505  0.17982100259E+02  0.36681120301E+02  0.12383794879E+03  0.13040206316E+03  0.00000000000E+00 0. -1.
         21    1    1    2  504  501 -0.68293362038E+01 -0.58254783334E+02  0.10326994345E+01  0.58662816864E+02  0.00000000000E+00 0. -1.
         21    1    1    2  505  502 -0.42574291070E+02  0.93279008947E+02  0.25984269093E+02  0.10577677444E+03  0.00000000000E+00 0. -1.
          2    1    1    2  501    0  0.31421527015E+02 -0.71705345913E+02  0.33508864383E+03  0.34411243543E+03  0.00000000000E+00 0.  1.
<scales pt_clust_3="40.85169" pt_clust_4="56.02003" pt_clust_5="67.29899" pt_clust_6="14000.00000"></scales>
<clustering>
<clus scale="   40.852">  1  3  2 -1</clus>
<clus scale="   56.020">  2  4  1 -1</clus>
<clus scale="   67.299">  2  5  1 -1</clus>
<clus scale="   56.020">  2  3  1 -1</clus>
</clustering>
</event>
<event>
 6    0  0.4340992E+002  0.1078950E+03  0.7546771E-02  0.1264518E+00
          1   -1    0    0  504    0 -0.00000000000E+00  0.00000000000E+00  0.35645349028E+03  0.35645349028E+03  0.00000000000E+00 0.  1.
         21   -1    0    0  503  502  0.00000000000E+00 -0.00000000000E+00 -0.24711418620E+03  0.24711418620E+03  0.00000000000E+00 0.  1.
         21    1    1    2  503  501 -0.14640921057E+03  0.55160975103E+02  0.15049410723E+02  0.15717784474E+03  0.00000000000E+00 0.  1.
         21    1    1    2  504  505  0.86756428405E+02 -0.13637199685E+02  0.30182145141E+02  0.92863410287E+02  0.00000000000E+00 0.  1.
         21    1    1    2  505  502 -0.40173459001E+02 -0.32397107560E+02 -0.12735213598E+03  0.13741195699E+03  0.00000000000E+00 0.  1.
          1    1    1    2  501    0  0.99826241163E+02 -0.91266678582E+01  0.19145988419E+03  0.21611446445E+03  0.00000000000E+00 0.  1.
<scales pt_clust_3="14000.00000" pt_clust_4="79.04840" pt_clust_5="51.60891" pt_clust_6="107.89504"></scales>
<clustering>
<clus scale="   51.609">  2  5  1 -1</clus>
<clus scale="   79.048">  2  4  1 -1</clus>
<clus scale="  107.895">  1  6  2 -1</clus>
<clus scale="   51.609">  2  3  1 -1</clus>
</clustering>
</event>
<event>
 6    0  0.4340992E+002  0.1149835E+03  0.7546771E-02  0.1251610E+00
          2   -1    0    0  503    0 -0.00000000000E+00  0.00000000000E+00  0.36412947500E+03  0.36412947500E+03  0.00000000000E+00 0. -1.
         21   -1    0    0  505  502  0.00000000000E+00 -0.00000000000E+00 -0.12199375519E+03  0.12199375519E+03  0.00000000000E+00 0. -1.
         21    1    1    2  503  504  0.56750484424E+02 -0.18107317469E+02  0.73330514342E+02  0.94476752495E+02  0.00000000000E+00 0. -1.
         21    1    1    2  504  502 -0.10163647751E+03 -0.54357313411E+02  0.80213146217E+01  0.11553801353E+03  0.00000000000E+00 0. -1.
         21    1    1    2  505  501 -0.25572185108E+02  0.18120418338E+02 -0.43310103394E+02  0.53460745112E+02  0.00000000000E+00 0. -1.
          2    1    1    2  501    0  0.70458178195E+02  0.54344212541E+02  0.20409399424E+03  0.22264771905E+03  0.00000000000E+00 0. -1.
<scales pt_clust_3="55.29546" pt_clust_4="114.98349" pt_clust_5="31.34145" pt_clust_6="14000.00000"></scales>
<clustering>
<clus scale="   31.341">  2  5  1 -1</clus>
<clus scale="   55.295">  1  3  2 -1</clus>
<clus scale="  114.983">  2  4  1 -1</clus>
<clus scale="   31.341">  2  3  1 -1</clus>
</clustering>
</event>
<event>
 6    0  0.4340992E+002  0.1211314E+03  0.7546771E-02  0.1241242E+00
         21   -1    0    0  501  502  0.00000000000E+00  0.00000000000E+00  0.22086589574E+02  0.22086589574E+02  0.00000000000E+00 0.  1.
          2   -1    0    0  504    0 -0.00000000000E+00 -0.00000000000E+00 -0.28920766487E+04  0.28920766487E+04  0.00000000000E+00 0.  1.
         21    1    1    2  503  502  0.72819376447E+02 -0.10197721324E+03 -0.25433843426E+03  0.28353139640E+03  0.00000000000E+00 0.  1.
         21    1    1    2  504  505 -0.73730987145E+02 -0.12659975964E+02 -0.72169950096E+03  0.72556647052E+03  0.00000000000E+00 0.  1.
         21    1    1    2  505  503  0.64962423022E+02  0.40816036263E+02 -0.36413685583E+03  0.37213131418E+03  0.00000000000E+00 0.  1.
          2    1    1    2  501    0 -0.64050812324E+02  0.73821152942E+02 -0.15298152681E+04  0.15329340572E+04  0.00000000000E+00 0.  1.
<scales pt_clust_3="121.13139" pt_clust_4="74.80998" pt_clust_5="65.15841" pt_clust_6="14000.00000"></scales>
<clustering>
<clus scale="   74.810">  2  4  1 -1</clus>
<clus scale="   65.158">  2  5  1 -1</clus>
<clus scale="  121.131">  1  3  2 -1</clus>
<clus scale="  121.131">  1  3  2 -1</clus>
</clustering>
</event>
<event>
 6    0  0.4340992E+002  0.9332628E+02  0.7546771E-02  0.1294991E+00
          2   -1    0    0  504    0 -0.00000000000E+00  0.00000000000E+00  0.69569152465E+03  0.69569152465E+03  0.00000000000E+00 0. -1.
         21   -1    0    0  503  502  0.00000000000E+00 -0.00000000000E+00 -0.50708525287E+02  0.50708525287E+02  0.00000000000E+00 0. -1.
         21    1    1    2  503  501 -0.87473252564E+01  0.10107405663E+03  0.32680792734E+02  0.10658571592E+03  0.00000000000E+00 0. -1.
         21    1    1    2  504  505  0.35515052372E+02 -0.74464472527E+01  0.76072791369E+02  0.84284269638E+02  0.00000000000E+00 0.  1.
         21    1    1    2  505  502 -0.52596661769E+02 -0.47705085042E+02  0.15274985046E+03  0.16844791712E+03  0.00000000000E+00 0. -1.
          2    1    1    2  501    0  0.25828934653E+02 -0.45922524339E+02  0.38347956480E+03  0.38708214726E+03  0.00000000000E+00 0. -1.
<scales pt_clust_3="93.32628" pt_clust_4="36.28731" pt_clust_5="65.89707" pt_clust_6="14000.00000"></scales>
<clustering>
<clus scale="   36.287">  1  4  2 -1</clus>
<clus scale="   65.897">  1  5  2 -1</clus>
<clus scale="   93.326">  2  3  1 -1</clus>
<clus scale="   93.326">  2  3  1 -1</clus>
</clustering>
</event>
<event>
 6    0  0.4340992E+002  0.1352888E+03  0.7546771E-02  0.1219813E+00
          2   -1    0    0  504    0 -0.00000000000E+00  0.00000000000E+00  0.10606096116E+04  0.10606096116E+04  0.00000000000E+00 0. -1.
         21   -1    0    0  505  502  0.00000000000E+00 -0.00000000000E+00 -0.13723023477E+04  0.13723023477E+04  0.00000000000E+00 0.  1.
         21    1    1    2  503  501 -0.34779835483E+02  0.96661554811E+02  0.86357627407E+03  0.86966492068E+03  0.00000000000E+00 0. -1.
         21    1    1    2  504  502  0.18157391814E+02 -0.79566742627E+02 -0.10643754005E+03  0.13412496912E+03  0.00000000000E+00 0.  1.
         21    1    1    2  505  503  0.10195899248E+03  0.13302809751E+02 -0.12353156507E+04  0.12395875757E+04  0.00000000000E+00 0.  1.
          2    1    1    2  501    0 -0.85336548814E+02 -0.30397621935E+02  0.16648418060E+03  0.18953449389E+03  0.00000000000E+00 0. -1.
<scales pt_clust_3="14000.00000" pt_clust_4="81.61224" pt_clust_5="135.28884" pt_clust_6="90.68025"></scales>
<clustering>
<clus scale="   81.612">  2  4  1 -1</clus>
<clus scale="   90.680">  1  6  2 -1</clus>
<clus scale="  135.289">  2  5  1 -1</clus>
<clus scale="   81.612">  2  3  1 -1</clus>
</clustering>
</event>
<event>
 6    0  0.4340992E+002  0.7508234E+02  0.7546771E-02  0.1343616E+00
         21   -1    0    0  504  502  0.00000000000E+00  0.00000000000E+00  0.19930559014E+03  0.19930559014E+03  0.00000000000E+00 0.  1.
          1   -1    0    0  505    0 -0.00000000000E+00 -0.00000000000E+00 -0.63614916857E+03  0.63614916857E+03  0.00000000000E+00 0.  1.
         21    1    1    2  503  501  0.51195391052E+02 -0.29973602022E+02 -0.58650105368E+02  0.83421938019E+02  0.00000000000E+00 0.  1.
         21    1    1    2  504  503 -0.11859740660E+02 -0.52123663044E+02  0.16550487511E+03  0.17392352740E+03  0.00000000000E+00 0.  1.
         21    1    1    2  505  502 -0.75430710745E+02  0.23355200620E+01 -0.96931973348E+02  0.12284565208E+03  0.00000000000E+00 0.  1.
          1    1    1    2  501    0  0.36095060353E+02  0.79761745004E+02 -0.44676637482E+03  0.45526364122E+03  0.00000000000E+00 0.  1.
<scales pt_clust_3="69.42345" pt_clust_4="53.45587" pt_clust_5="75.08234" pt_clust_6="14000.00000"></scales>
<clustering>
<clus scale="   53.456">  1  4  2 -1</clus>
<clus scale="   69.423">  1  3  2 -1</clus>
<clus scale="   75.082">  1  5  2 -1</clus>
<clus scale="   53.456">  1  3  2 -1</clus>
</clustering>
</event>
<event>
 6    0  0.4340992E+002  0.2034334E+03  0.7546771E-02  0.1146874E+00
         -2   -1    0    0    0  501 -0.00000000000E+00  0.00000000000E+00  0.96963467782E+03  0.96963467782E+03  0.00000000000E+00 0.  1.
         21   -1    0    0  503  502  0.00000000000E+00 -0.00000000000E+00 -0.20549158566E+03  0.20549158566E+03  0.00000000000E+00 0. -1.
         21    1    1    2  503  501 -0.16348902541E+03 -0.18605476673E+03  0.41339333178E+03  0.48191190524E+03  0.00000000000E+00 0. -1.
         21    1    1    2  504  502  0.25275026317E+02 -0.79482020446E+02 -0.78450637340E+02  0.11450205688E+03  0.00000000000E+00 0. -1.
         21    1    1    2  505  504 -0.26248470949E+02  0.19589219475E+03  0.15364433292E+03  0.25033840142E+03  0.00000000000E+00 0.  1.
         -2    1    1    2    0  505  0.16446247005E+03  0.69644592426E+02  0.27555606481E+03  0.32837389994E+03  0.00000000000E+00 0.  1.
<scales pt_clust_3="203.43336" pt_clust_4="83.40395" pt_clust_5="161.34526" pt_clust_6="14000.00000"></scales>
<clustering>
<clus scale="   83.404">  2  4  1 -1</clus>
<clus scale="  161.345">  2  5  1 -1</clus>
<clus scale="  203.433">  2  3  1 -1</clus>
<clus scale="   83.404">  2  3  1 -1</clus>
</clustering>
</event>
<event>
 6    0  0.4340992E+002  0.1316257E+03  0.7546771E-02  0.1225063E+00
          1   -1    0    0  504    0 -0.00000000000E+00  0.00000000000E+00  0.88348048578E+03  0.88348048578E+03  0.00000000000E+00 0. -1.
         21   -1    0    0  501  502  0.00000000000E+00 -0.00000000000E+00 -0.59925107086E+02  0.59925107086E+02  0.00000000000E+00 0. -1.
         21    1    1    2  503  505  0.42614742013E+02  0.14720394755E+03  0.12320892626E+03  0.19663534250E+03  0.00000000000E+00 0. -1.
         21    1    1    2  504  503 -0.16416464766E+01 -0.59919370470E+02  0.38943842931E+03  0.39402451216E+03  0.00000000000E+00 0. -1.
         21    1    1    2  505  502  0.35693196009E+02 -0.16605756143E+02  0.20921110166E+02  0.44580805612E+02  0.00000000000E+00 0. -1.
          1    1    1    2  501    0 -0.76666291545E+02 -0.70678820940E+02  0.28998691296E+03  0.30816493259E+03  0.00000000000E+00 0. -1.
<scales pt_clust_3="14000.00000" pt_clust_4="60.71111" pt_clust_5="39.36693" pt_clust_6="131.62571"></scales>
<clustering>
<clus scale="   39.367">  2  5  1 -1</clus>
<clus scale="   60.711">  1  4  2 -1</clus>
<clus scale="  131.626">  1  6  2 -1</clus>
<clus scale="   39.367">  2  3  1 -1</clus>
</clustering>
</event>
<event>
 6    0  0.4340992E+002  0.9448810E+02  0.7546771E-02  0.1292333E+00
          1   -1    0    0  505    0 -0.00000000000E+00  0.00000000000E+00  0.35019198233E+02  0.35019198233E+02  0.00000000000E+00 0.  1.
         21   -1    0    0  503  502  0.00000000000E+00 -0.00000000000E+00 -0.91463567411E+03  0.91463567411E+03  0.00000000000E+00 0.  1.
         21    1    1    2  503  504 -0.32437853082E+01  0.49027070941E+02 -0.14406576877E+03  0.15221406492E+03  0.00000000000E+00 0. -1.
         21    1    1    2  504  501 -0.19257262889E+02  0.34460339585E+02 -0.47835398329E+02  0.62020823209E+02  0.00000000000E+00 0.  1.
         21    1    1    2  505  502  0.40606105634E+02 -0.12304034502E+03 -0.67874991500E+03  0.69100595470E+03  0.00000000000E+00 0.  1.
          1    1    1    2  501    0 -0.18105057438E+02  0.39552934497E+02 -0.89653937808E+01  0.44414029516E+02  0.00000000000E+00 0.  1.
<scales pt_clust_3="49.13426" pt_clust_4="33.38469" pt_clust_5="87.74886" pt_clust_6="33.38469"></scales>
<clustering>
<clus scale="   33.385">  4  6 -1 -1</clus>
<clus scale="   49.134">  2  3  1 -1</clus>
<clus scale="   87.749">  2  5  1 -1</clus>
<clus scale="   49.134">  2  3  1 -1</clus>
</clustering>
</event>
<event>
 6    0  0.4340992E+002  0.1322397E+03  0.7546771E-02  0.1224170E+00
         21   -1    0    0  504  502  0.00000000000E+00  0.00000000000E+00  0.20617715799E+03  0.20617715799E+03  0.00000000000E+00 0. -1.
          2   -1    0    0  503    0 -0.00000000000E+00 -0.00000000000E+00 -0.83785056602E+03  0.83785056602E+03  0.00000000000E+00 0. -1.
         21    1    1    2  503  505  0.15239448304E+03  0.17426660288E+02 -0.53729449649E+03  0.55876036269E+03  0.00000000000E+00 0. -1.
         21    1    1    2  504  501 -0.18338109552E+02  0.34714739748E+02 -0.71105466037E+01  0.39899364540E+02  0.00000000000E+00 0. -1.
         21    1    1    2  505  502 -0.30758065453E+02 -0.99419389236E+01  0.16573099071E+03  0.16885396656E+03  0.00000000000E+00 0. -1.
          2    1    1    2  501    0 -0.10329830803E+03 -0.42199461112E+02 -0.25299935564E+03  0.27651403023E+03  0.00000000000E+00 0. -1.
<scales pt_clust_3="14000.00000" pt_clust_4="43.72340" pt_clust_5="32.32492" pt_clust_6="132.23973"></scales>
<clustering>
<clus scale="   32.325">  1  5  2 -1</clus>
<clus scale="   43.723">  1  4  2 -1</clus>
<clus scale="  132.240">  1  6  2 -1</clus>
<clus scale="   32.325">  1  3  2 -1</clus>
</clustering>
</event>
<event>
 6    0  0.4340992E+002  0.9319179E+02  0.7546771E-02  0.1295301E+00
          2   -1    0    0  505    0 -0.00000000000E+00  0.00000000000E+00  0.95886272124E+02  0.95886272124E+02  0.00000000000E+00 0.  1.
         21   -1    0    0  504  502  0.00000000000E+00 -0.00000000000E+00 -0.54938272582E+03  0.54938272582E+03  0.00000000000E+00 0. -1.
         21    1    1    2  503  502  0.15884747610E+02  0.29204795205E+02 -0.18207096969E+03  0.18508128828E+03  0.00000000000E+00 0. -1.
         21    1    1    2  504  501 -0.40468434708E+01 -0.57224515590E+02 -0.43241541879E+02  0.71839077602E+02  0.00000000000E+00 0.  1.
         21    1    1    2  505  503 -0.80936061078E+02  0.86478711970E+02 -0.26528806050E+03  0.29052877422E+03  0.00000000000E+00 0. -1.
          2    1    1    2  501    0  0.69098156939E+02 -0.58458991584E+02  0.37104118362E+02  0.97819857845E+02  0.00000000000E+00 0.  1.
<scales pt_clust_3="33.24523" pt_clust_4="52.65345" pt_clust_5="93.19179" pt_clust_6="14000.00000"></scales>
<clustering>
<clus scale="   33.245">  2  3  1 -1</clus>
<clus scale="   52.653">  2  4  1 -1</clus>
<clus scale="   93.192">  2  5  1 -1</clus>
<clus scale="   33.245">  2  3  1 -1</clus>
</clustering>
</event>
<event>
 6    0  0.4340992E+002  0.1357615E+03  0.7546771E-02  0.1219149E+00
         21   -1    0    0  505  502  0.00000000000E+00  0.00000000000E+00  0.50095195099E+03  0.50095195099E+03  0.00000000000E+00 0.  1.
         -1   -1    0    0    0  501 -0.00000000000E+00 -0.00000000000E+00 -0.22033153715E+03  0.22033153715E+03  0.00000000000E+00 0. -1.
         21    1    1    2  503  501 -0.41707555277E+02 -0.47018938953E+02 -0.30181543833E+02  0.69722495478E+02  0.00000000000E+00 0. -1.
         21    1    1    2  504  502  0.34655384485E+02  0.52749380445E+02  0.72787871255E+02  0.96340889621E+02  0.00000000000E+00 0.  1.
         21    1    1    2  505  503  0.40764555534E+00  0.91513958900E+02  0.37561038071E+03  0.38659814917E+03  0.00000000000E+00 0.  1.
         -1    1    1    2    0  504  0.66445252363E+01 -0.97244400392E+02 -0.13759629429E+03  0.16862195386E+03  0.00000000000E+00 0. -1.
<scales pt_clust_3="62.85142" pt_clust_4="58.81917" pt_clust_5="14000.00000" pt_clust_6="135.76153"></scales>
<clustering>
<clus scale="   62.851">  2  3  1 -1</clus>
<clus scale="   58.819">  1  4  2 -1</clus>
<clus scale="  135.762">  2  6  1 -1</clus>
<clus scale="   58.819">  1  3  2 -1</clus>
</clustering>
</event>
<event>
 6    0  0.4340992E+002  0.1221059E+03  0.7546771E-02  0.1239663E+00
         21   -1    0    0  501  502  0.00000000000E+00  0.00000000000E+00  0.67865201185E+01  0.67865201185E+01  0.00000000000E+00 0.  1.
          1   -1    0    0  503    0 -0.00000000000E+00 -0.00000000000E+00 -0.36128115208E+04  0.36128115208E+04  0.00000000000E+00 0.  1.
         21    1    1    2  503  505  0.45142185059E+02 -0.57632369867E+02 -0.17894080678E+04  0.17909049500E+04  0.00000000000E+00 0.  1.
         21    1    1    2  504  502 -0.16491784940E+02 -0.28745275254E+02 -0.11696929121E+03  0.12157337252E+03  0.00000000000E+00 0.  1.
         21    1    1    2  505  504  0.40145957943E+02 -0.89852634100E+01 -0.52060573174E+03  0.52222864802E+03  0.00000000000E+00 0.  1.
          1    1    1    2  501    0 -0.68796358063E+02  0.95362908531E+02 -0.11790419099E+04  0.11848910703E+04  0.00000000000E+00 0.  1.
<scales pt_clust_3="37.80487" pt_clust_4="33.14015" pt_clust_5="37.80487" pt_clust_6="110.44701"></scales>
<clustering>
<clus scale="   33.140">  1  4  2 -1</clus>
<clus scale="   37.805">  3  5 -1 -1</clus>
<clus scale="  110.447">  1  6  2 -1</clus>
<clus scale="   33.140">  1  3  2 -1</clus>
</clustering>
</event>
<event>
 6    0  0.4340992E+002  0.1266289E+03  0.7546771E-02  0.1232545E+00
          2   -1    0    0  504    0 -0.00000000000E+00  0.00000000000E+00  0.17520233413E+04  0.17520233413E+04  0.00000000000E+00 0. -1.
         21   -1    0    0  503  502  0.00000000000E+00 -0.00000000000E+00 -0.44201251239E+03  0.44201251239E+03  0.00000000000E+00 0. -1.
         21    1    1    2  503  505 -0.36614893585E+02  0.53932257610E+01 -0.18710504863E+03  0.19073027169E+03  0.00000000000E+00 0.  1.
         21    1    1    2  504  502 -0.47861245920E+01  0.37833822902E+02  0.47117258459E+02  0.60616344237E+02  0.00000000000E+00 0.  1.
         21    1    1    2  505  501  0.76825051555E+02  0.11396984651E+03 -0.22299658552E+03  0.26195169710E+03  0.00000000000E+00 0. -1.
          2    1    1    2  501    0 -0.35424033378E+02 -0.15719689518E+03  0.16729952046E+04  0.16807375407E+04  0.00000000000E+00 0. -1.
<scales pt_clust_3="37.00996" pt_clust_4="38.41236" pt_clust_5="14000.00000" pt_clust_6="126.62889"></scales>
<clustering>
<clus scale="   37.010">  2  3  1 -1</clus>
<clus scale="   38.412">  1  4  2 -1</clus>
<clus scale="  126.629">  1  6  2 -1</clus>
<clus scale="   37.010">  2  3  1 -1</clus>
</clustering>
</event>
<event>
 6    0  0.7933900E+002  0.1778267E+03  0.7546771E-02  0.1169923E+00
         21   -1    0    0  503  502  0.00000000000E+00  0.00000000000E+00  0.14628179717E+04  0.14628179717E+04  0.00000000000E+00 0. -1.
          2   -1    0    0  504    0 -0.00000000000E+00 -0.00000000000E+00 -0.11416002511E+04  0.11416002511E+04  0.00000000000E+00 0. -1.
         21    1    1    2  503  501  0.27703269364E+02  0.12434131687E+02  0.12335528434E+03  0.12703780909E+03  0.00000000000E+00 0.  1.
         21    1    1    2  504  505  0.62502351642E+02 -0.95282692308E+02  0.10044032562E+02  0.11439500865E+03  0.00000000000E+00 0. -1.
         21    1    1    2  505  502  0.70521113521E+01 -0.75704739468E+02  0.12663002769E+04  0.12685808335E+04  0.00000000000E+00 0. -1.
          2    1    1    2  501    0 -0.97257732358E+02  0.15855330009E+03 -0.10784818732E+04  0.10944045716E+04  0.00000000000E+00 0. -1.
<scales pt_clust_3="30.36575" pt_clust_4="177.82674" pt_clust_5="72.07748" pt_clust_6="14000.00000"></scales>
<clustering>
<clus scale="   30.366">  1  3  2 -1</clus>
<clus scale="   72.077">  1  5  2 -1</clus>
<clus scale="  177.827">  1  4  2 -1</clus>
<clus scale="   30.366">  1  3  2 -1</clus>
</clustering>
</event>
<event>
 6    0  0.4340992E+002  0.1241041E+03  0.7546771E-02  0.1236476E+00
          1   -1    0    0  505    0 -0.00000000000E+00  0.00000000000E+00  0.28606227754E+04  0.28606227754E+04  0.00000000000E+00 0. -1.
         21   -1    0    0  504  502  0.00000000000E+00 -0.00000000000E+00 -0.19473154721E+02  0.19473154721E+02  0.00000000000E+00 0.  1.
         21    1    1    2  503  502 -0.98654007982E+02 -0.27552801174E+02  0.17417538867E+03  0.20206146629E+03  0.00000000000E+00 0.  1.
         21    1    1    2  504  501 -0.45445676498E+02  0.17402949152E+02  0.21991665337E+03  0.22523655693E+03  0.00000000000E+00 0.  1.
         21    1    1    2  505  503  0.55632701038E+02 -0.37591225717E+02  0.10067149361E+04  0.10089514657E+04  0.00000000000E+00 0. -1.
          1    1    1    2  501    0  0.88466983441E+02  0.47741077739E+02  0.14403426426E+04  0.14438464412E+04  0.00000000000E+00 0. -1.
<scales pt_clust_3="124.10409" pt_clust_4="48.66387" pt_clust_5="63.99403" pt_clust_6="14000.00000"></scales>
<clustering>
<clus scale="   48.664">  2  4  1 -1</clus>
<clus scale="   63.994">  1  5  2 -1</clus>
<clus scale="  124.104">  2  3  1 -1</clus>
<clus scale="   48.664">  2  3  1 -1</clus>
</clustering>
</event>
<event>
 6    0  0.4340992E+002  0.2587305E+03  0.7546771E-02  0.1107908E+00
          2   -1    0    0  503    0 -0.00000000000E+00  0.00000000000E+00  0.23184829086E+04  0.23184829086E+04  0.00000000000E+00 0.  1.
         21   -1    0    0  504  502  0.00000000000E+00 -0.00000000000E+00 -0.49357266912E+02  0.49357266912E+02  0.00000000000E+00 0.  1.
         21    1    1    2  503  505 -0.92340841598E+02  0.16984107495E+03  0.25643076225E+03  0.32113791055E+03  0.00000000000E+00 0.  1.
         21    1    1    2  504  501  0.43824765676E+02 -0.15665995931E+03  0.93774167130E+03  0.95174702260E+03  0.00000000000E+00 0.  1.
         21    1    1    2  505  502  0.24600543931E+02  0.59187998730E+02  0.11241867122E+03  0.12940774163E+03  0.00000000000E+00 0. -1.
          2    1    1    2  501    0  0.23915531991E+02 -0.72369114372E+02  0.96253453695E+03  0.96554750076E+03  0.00000000000E+00 0.  1.
<scales pt_clust_3="57.28781" pt_clust_4="60.93758" pt_clust_5="57.28781" pt_clust_6="254.88943"></scales>
<clustering>
<clus scale="   57.288">  3  5 -1 -1</clus>
<clus scale="   60.938">  4  6 -1 -1</clus>
<clus scale="  254.889">  1  4  2 -1</clus>
<clus scale="  258.731">  2  3  1 -1</clus>
</clustering>
</event>
<event>
 6    0  0.4340992E+002  0.1554332E+03  0.7546771E-02  0.1193951E+00
         21   -1    0    0  504  502  0.00000000000E+00  0.00000000000E+00  0.22558250273E+03  0.22558250273E+03  0.00000000000E+00 0.  1.
          1   -1    0    0  505    0 -0.00000000000E+00 -0.00000000000E+00 -0.20619159323E+04  0.20619159323E+04  0.00000000000E+00 0. -1.
         21    1    1    2  503  501  0.31039150035E+02 -0.72801265181E+02 -0.36537120871E+03  0.37384431679E+03  0.00000000000E+00 0. -1.
         21    1    1    2  504  503 -0.26342821794E+02 -0.27279820237E+02  0.21260302466E+03  0.21595874363E+03  0.00000000000E+00 0.  1.
         21    1    1    2  505  502 -0.14243682899E+02  0.15805968956E+03 -0.11483210969E+04  0.11592355625E+04  0.00000000000E+00 0. -1.
          1    1    1    2  501    0  0.95473546575E+01 -0.57978604146E+02 -0.53524414864E+03  0.53845981203E+03  0.00000000000E+00 0. -1.
<scales pt_clust_3="42.06464" pt_clust_4="37.92272" pt_clust_5="147.37471" pt_clust_6="42.06464"></scales>
<clustering>
<clus scale="   37.923">  1  4  2 -1</clus>
<clus scale="   42.065">  3  6 -1 -1</clus>
<clus scale="  147.375">  2  5  1 -1</clus>
<clus scale="   37.923">  1  3  2 -1</clus>
</clustering>
</event>
<event>
 6    0  0.4340992E+002  0.1982693E+03  0.7546771E-02  0.1151207E+00
          1   -1    0    0  503    0 -0.00000000000E+00  0.00000000000E+00  0.18201872632E+03  0.18201872632E+03  0.00000000000E+00 0. -1.
         21   -1    0    0  501  502  0.00000000000E+00 -0.00000000000E+00 -0.16589790402E+04  0.16589790402E+04  0.00000000000E+00 0. -1.
         21    1    1    2  503  505  0.76873220542E+02 -0.23309724400E+02 -0.11782866145E+02  0.81189107784E+02  0.00000000000E+00 0. -1.
         21    1    1    2  504  502  0.81300940735E+02  0.48074151685E+02 -0.81897289315E+03  0.82440133839E+03  0.00000000000E+00 0. -1.
         21    1    1    2  505  504 -0.27000255602E+03 -0.10741744851E+03 -0.72111076556E+03  0.77745779609E+03  0.00000000000E+00 0. -1.
          1    1    1    2  501    0  0.11182839474E+03  0.82653021229E+02  0.74906210930E+02  0.15794952430E+03  0.00000000000E+00 0. -1.
<scales pt_clust_3="80.32954" pt_clust_4="95.45767" pt_clust_5="198.26934" pt_clust_6="14000.00000"></scales>
<clustering>
<clus scale="   80.330">  1  3  2 -1</clus>
<clus scale="   95.458">  2  4  1 -1</clus>
<clus scale="  198.269">  2  5  1 -1</clus>
<clus scale="   95.458">  2  3  1 -1</clus>
</clustering>
</event>
<event>
 6    0  0.4340992E+002  0.1052432E+03  0.7546771E-02  0.1269641E+00
         -4   -1    0    0    0  501 -0.00000000000E+00  0.00000000000E+00  0.16697257872E+03  0.16697257872E+03  0.00000000000E+00 0.  1.
         21   -1    0    0  503  502  0.00000000000E+00 -0.00000000000E+00 -0.88643842313E+03  0.88643842313E+03  0.00000000000E+00 0. -1.
         21    1    1    2  503  504  0.76477120239E+02  0.24641320648E+02 -0.73072617125E+03  0.73513038433E+03  0.00000000000E+00 0. -1.
         21    1    1    2  504  501  0.27594177570E+02 -0.18347988009E+02 -0.17863948107E+02  0.37645822368E+02  0.00000000000E+00 0.  1.
         21    1    1    2  505  502  0.13546771272E+02  0.32261684625E+02 -0.97484957649E+02  0.10357436109E+03  0.00000000000E+00 0. -1.
         -4    1    1    2    0  505 -0.11761806908E+03 -0.38555017263E+02  0.12660923261E+03  0.17706043407E+03  0.00000000000E+00 0.  1.
<scales pt_clust_3="105.24319" pt_clust_4="33.13740" pt_clust_5="34.87532" pt_clust_6="14000.00000"></scales>
<clustering>
<clus scale="   33.137">  1  4  2 -1</clus>
<clus scale="   34.875">  2  5  1 -1</clus>
<clus scale="  105.243">  2  3  1 -1</clus>
<clus scale="   34.875">  2  3  1 -1</clus>
</clustering>
</event>
<event>
 6    0  0.4340992E+002  0.1150107E+03  0.7546771E-02  0.1251562E+00
         21   -1    0    0  503  502  0.00000000000E+00  0.00000000000E+00  0.15513562853E+03  0.15513562853E+03  0.00000000000E+00 0.  1.
          2   -1    0    0  502    0 -0.00000000000E+00 -0.00000000000E+00 -0.33871000473E+03  0.33871000473E+03  0.00000000000E+00 0.  1.
         21    1    1    2  503  505 -0.28340438309E+02 -0.17644115960E+02  0.16705034800E+02  0.37330328946E+02  0.00000000000E+00 0.  1.
         21    1    1    2  504  501 -0.28702849127E+02  0.25472442795E+02 -0.76362974498E+02  0.85463458648E+02  0.00000000000E+00 0.  1.
         21    1    1    2  505  504  0.12988727895E+03  0.14469393080E+01  0.81200134964E+02  0.15318701245E+03  0.00000000000E+00 0.  1.
          2    1    1    2  501    0 -0.72843991511E+02 -0.92752661428E+01 -0.20511657147E+03  0.21786483322E+03  0.00000000000E+00 0.  1.
<scales pt_clust_3="33.38406" pt_clust_4="33.74246" pt_clust_5="104.99647" pt_clust_6="33.74246"></scales>
<clustering>
<clus scale="   33.384">  1  3  2 -1</clus>
<clus scale="   33.742">  4  6 -1 -1</clus>
<clus scale="  104.996">  1  5  2 -1</clus>
<clus scale="   33.384">  1  3  2 -1</clus>
</clustering>
</event>
<event>
 6    0  0.4340992E+002  0.1620685E+03  0.7546771E-02  0.1186381E+00
         21   -1    0    0  505  502  0.00000000000E+00  0.00000000000E+00  0.60504379831E+02  0.60504379831E+02  0.00000000000E+00 0.  1.
          2   -1    0    0  504    0 -0.00000000000E+00 -0.00000000000E+00 -0.13440370771E+04  0.13440370771E+04  0.00000000000E+00 0. -1.
         21    1    1    2  503  501 -0.39343428363E+02 -0.12876150206E+02 -0.16946117864E+03  0.17444423655E+03  0.00000000000E+00 0. -1.
         21    1    1    2  504  502 -0.40583346515E+02 -0.15191991525E+02 -0.44575434718E+02  0.62167306530E+02  0.00000000000E+00 0. -1.
         21    1    1    2  505  503  0.17912003786E+03  0.71907374806E+02 -0.15642800164E+03  0.24844391361E+03  0.00000000000E+00 0.  1.
          2    1    1    2  501    0 -0.99193262979E+02 -0.43839233074E+02 -0.91306808226E+03  0.91948600023E+03  0.00000000000E+00 0. -1.
<scales pt_clust_3="30.29721" pt_clust_4="43.33364" pt_clust_5="154.47161" pt_clust_6="30.29721"></scales>
<clustering>
<clus scale="   30.297">  3  6 -1 -1</clus>
<clus scale="   43.334">  1  4  2 -1</clus>
<clus scale="  154.472">  1  5  2 -1</clus>
<clus scale="   43.334">  1  3  2 -1</clus>
</clustering>
</event>
<event>
 6    0  0.4340992E+002  0.1823916E+03  0.7546771E-02  0.1165508E+00
         21   -1    0    0  505  502  0.00000000000E+00  0.00000000000E+00  0.66982542192E+03  0.66982542192E+03  0.00000000000E+00 0. -1.
         -1   -1    0    0    0  501 -0.00000000000E+00 -0.00000000000E+00 -0.80061297688E+02  0.80061297688E+02  0.00000000000E+00 0. -1.
         21    1    1    2  503  502  0.76269518886E+02  0.67746229204E+02  0.11334083672E+03  0.15248847941E+03  0.00000000000E+00 0. -1.
         21    1    1    2  504  501 -0.66545369653E+02 -0.15935529148E+03  0.16734563108E+03  0.24047235888E+03  0.00000000000E+00 0. -1.
         21    1    1    2  505  504 -0.55486996312E+02  0.12473468404E+02  0.22718121380E+03  0.23419158413E+03  0.00000000000E+00 0. -1.
         -1    1    1    2    0  503  0.45762847079E+02  0.79135593876E+02  0.81896442632E+02  0.12273429719E+03  0.00000000000E+00 0. -1.
<scales pt_clust_3="32.29408" pt_clust_4="179.17273" pt_clust_5="56.87173" pt_clust_6="32.29408"></scales>
<clustering>
<clus scale="   32.294">  3  6 -1 -1</clus>
<clus scale="   56.872">  1  5  2 -1</clus>
<clus scale="  179.173">  2  4  1 -1</clus>
<clus scale="   56.872">  1  3  2 -1</clus>
</clustering>
</event>
<event>
 6    0  0.4340992E+002  0.9690591E+02  0.7546771E-02  0.1286940E+00
         -3   -1    0    0    0  501 -0.00000000000E+00  0.00000000000E+00  0.85081968336E+03  0.85081968336E+03  0.00000000000E+00 0. -1.
         21   -1    0    0  505  502  0.00000000000E+00 -0.00000000000E+00 -0.13950682490E+03  0.13950682490E+03  0.00000000000E+00 0. -1.
         21    1    1    2  503  504 -0.73479003335E+02 -0.13088998613E+02 -0.81245749670E+02  0.11032387618E+03  0.00000000000E+00 0. -1.
         21    1    1    2  504  502 -0.27020567862E+02  0.31765554479E+02 -0.25280363923E+02  0.48767390119E+02  0.00000000000E+00 0.  1.
         21    1    1    2  505  501  0.42523803109E+02 -0.53752039394E+02  0.24512458772E+03  0.25452626402E+03  0.00000000000E+00 0.  1.
         -3    1    1    2    0  503  0.57975768088E+02  0.35075483528E+02  0.57271438433E+03  0.57670897795E+03  0.00000000000E+00 0. -1.
<scales pt_clust_3="14000.00000" pt_clust_4="41.70326" pt_clust_5="66.62705" pt_clust_6="96.90591"></scales>
<clustering>
<clus scale="   41.703">  2  4  1 -1</clus>
<clus scale="   66.627">  1  5  2 -1</clus>
<clus scale="   96.906">  1  6  2 -1</clus>
<clus scale="   41.703">  2  3  1 -1</clus>
</clustering>
</event>
<event>
 6    0  0.4340992E+002  0.7085204E+02  0.7546771E-02  0.1357219E+00
         -3   -1    0    0    0  501 -0.00000000000E+00  0.00000000000E+00  0.11931370628E+04  0.11931370628E+04  0.00000000000E+00 0. -1.
         21   -1    0    0  503  502  0.00000000000E+00 -0.00000000000E+00 -0.18435893654E+03  0.18435893654E+03  0.00000000000E+00 0. -1.
         21    1    1    2  503  505 -0.12027685170E+03 -0.31006302789E+02  0.40047809977E+02  0.13050570467E+03  0.00000000000E+00 0.  1.
         21    1    1    2  504  502  0.52785969412E+02  0.25900698060E+02 -0.13010659764E+03  0.14277580844E+03  0.00000000000E+00 0. -1.
         21    1    1    2  505  501 -0.51314510810E+01  0.31137812823E+02  0.29423285797E+03  0.29592037762E+03  0.00000000000E+00 0. -1.
         -3    1    1    2    0  504  0.72622333369E+02 -0.26032208094E+02  0.80460405598E+03  0.80829410864E+03  0.00000000000E+00 0. -1.
<scales pt_clust_3="14000.00000" pt_clust_4="58.86264" pt_clust_5="31.55781" pt_clust_6="70.85204"></scales>
<clustering>
<clus scale="   31.558">  1  5  2 -1</clus>
<clus scale="   58.863">  2  4  1 -1</clus>
<clus scale="   70.852">  1  6  2 -1</clus>
<clus scale="   58.863">  2  3  1 -1</clus>
</clustering>
</event>
<event>
 6    0  0.4340992E+002  0.1574862E+03  0.7546771E-02  0.1191564E+00
         21   -1    0    0  505  502  0.00000000000E+00  0.00000000000E+00  0.14451917250E+04  0.14451917250E+04  0.00000000000E+00 0. -1.
          2   -1    0    0  503    0 -0.00000000000E+00 -0.00000000000E+00 -0.22963406740E+04  0.22963406740E+04  0.00000000000E+00 0. -1.
         21    1    1    2  503  504 -0.98321275153E+02  0.81382665546E+02 -0.38691088030E+03  0.40741899894E+03  0.00000000000E+00 0.  1.
         21    1    1    2  504  502  0.34418902294E+02 -0.94954095619E+02  0.16343130644E+03  0.19212166206E+03  0.00000000000E+00 0. -1.
         21    1    1    2  505  501  0.82922625175E+02  0.19962382760E+03  0.12431722767E+04  0.12618253223E+04  0.00000000000E+00 0. -1.
          2    1    1    2  501    0 -0.19020252316E+02 -0.18605239752E+03 -0.18708416518E+04  0.18801664157E+04  0.00000000000E+00 0. -1.
<scales pt_clust_3="126.92943" pt_clust_4="100.99971" pt_clust_5="14000.00000" pt_clust_6="157.48617"></scales>
<clustering>
<clus scale="  101.000">  1  4  2 -1</clus>
<clus scale="  126.929">  2  3  1 -1</clus>
<clus scale="  157.486">  2  6  1 -1</clus>
<clus scale="  101.000">  1  3  2 -1</clus>
</clustering>
</event>
<event>
 6    0  0.4340992E+002  0.7260614E+02  0.7546771E-02  0.1351448E+00
          1   -1    0    0  504    0 -0.00000000000E+00  0.00000000000E+00  0.27260787641E+04  0.27260787641E+04  0.00000000000E+00 0. -1.
         21   -1    0    0  501  502  0.00000000000E+00 -0.00000000000E+00 -0.10617983812E+04  0.10617983812E+04  0.00000000000E+00 0. -1.
         21    1    1    2  503  505 -0.44320300138E+02 -0.97908407885E+02  0.10980932749E+03  0.15365036200E+03  0.00000000000E+00 0.  1.
         21    1    1    2  504  503 -0.44563952295E+02  0.20750967997E+02  0.27391303264E+03  0.27828923437E+03  0.00000000000E+00 0.  1.
         21    1    1    2  505  502  0.33991372463E+02  0.63782977205E+02 -0.10360864331E+04  0.10386042454E+04  0.00000000000E+00 0. -1.
          1    1    1    2  501    0  0.54892879970E+02  0.13374462683E+02  0.23166444559E+04  0.23173333036E+04  0.00000000000E+00 0. -1.
<scales pt_clust_3="72.60614" pt_clust_4="49.15840" pt_clust_5="14000.00000" pt_clust_6="35.37578"></scales>
<clustering>
<clus scale="   49.158">  1  4  2 -1</clus>
<clus scale="   35.376">  1  6  2 -1</clus>
<clus scale="   72.606">  1  3  2 -1</clus>
<clus scale="   72.606">  2  3  1 -1</clus>
</clustering>
</event>
<event>
 6    0  0.4340992E+002  0.2164417E+03  0.7546771E-02  0.1136564E+00
          1   -1    0    0  503    0 -0.00000000000E+00  0.00000000000E+00  0.16188129206E+04  0.16188129206E+04  0.00000000000E+00 0.  1.
         21   -1    0    0  504  502  0.00000000000E+00 -0.00000000000E+00 -0.23259768966E+03  0.23259768966E+03  0.00000000000E+00 0.  1.
         21    1    1    2  503  502  0.34073960731E+02  0.10968258033E+03 -0.15187277095E+03  0.19041176903E+03  0.00000000000E+00 0.  1.
         21    1    1    2  504  505 -0.38246851369E+01  0.10158761148E+03 -0.54115954826E+01  0.10180351854E+03  0.00000000000E+00 0.  1.
         21    1    1    2  505  501  0.15735545314E+02 -0.73112075823E+02  0.48704460498E+03  0.49275290994E+03  0.00000000000E+00 0. -1.
          1    1    1    2  501    0 -0.45984820907E+02 -0.13815811598E+03  0.10564549924E+04  0.10664424128E+04  0.00000000000E+00 0.  1.
<scales pt_clust_3="209.04084" pt_clust_4="101.65958" pt_clust_5="40.21584" pt_clust_6="40.21584"></scales>
<clustering>
<clus scale="   40.216">  5  6 -1 -1</clus>
<clus scale="  101.660">  2  4  1 -1</clus>
<clus scale="  209.041">  2  3  1 -1</clus>
<clus scale="  101.660">  2  3  1 -1</clus>
</clustering>
</event>
<event>
 6    0  0.4340992E+002  0.1368113E+03  0.7546771E-02  0.1217685E+00
          2   -1    0    0  504    0 -0.00000000000E+00  0.00000000000E+00  0.39165246270E+03  0.39165246270E+03  0.00000000000E+00 0.  1.
         21   -1    0    0  505  502  0.00000000000E+00 -0.00000000000E+00 -0.19967410477E+03  0.19967410477E+03  0.00000000000E+00 0. -1.
         21    1    1    2  503  501  0.72060411025E+02 -0.18798615281E+02  0.11208526893E+03  0.13457042129E+03  0.00000000000E+00 0.  1.
         21    1    1    2  504  502 -0.13140922568E+03  0.18293820671E+02  0.47494590594E+02  0.14092119999E+03  0.00000000000E+00 0.  1.
         21    1    1    2  505  503  0.13066598379E+02  0.32187864738E+02 -0.13494366558E+03  0.13934341574E+03  0.00000000000E+00 0. -1.
          2    1    1    2  501    0  0.46282216279E+02 -0.31683070128E+02  0.16734216398E+03  0.17649153045E+03  0.00000000000E+00 0.  1.
<scales pt_clust_3="39.56309" pt_clust_4="128.80547" pt_clust_5="34.73895" pt_clust_6="39.56309"></scales>
<clustering>
<clus scale="   34.739">  2  5  1 -1</clus>
<clus scale="   39.563">  3  6 -1 -1</clus>
<clus scale="  128.805">  2  4  1 -1</clus>
<clus scale="   34.739">  2  3  1 -1</clus>
</clustering>
</event>
<event>
 6    0  0.7166423E+002  0.8660280E+02  0.7546771E-02  0.1311293E+00
         21   -1    0    0  504  502  0.00000000000E+00  0.00000000000E+00  0.62378618164E+03  0.62378618164E+03  0.00000000000E+00 0.  1.
          3   -1    0    0  503    0 -0.00000000000E+00 -0.00000000000E+00 -0.12199427815E+04  0.12199427815E+04  0.00000000000E+00 0. -1.
         21    1    1    2  503  505  0.79274486869E+02  0.67700626145E+01 -0.12554951479E+03  0.14863700306E+03  0.00000000000E+00 0. -1.
         21    1    1    2  504  501 -0.62440755946E+02  0.97510418772E+02  0.58789266288E+03  0.59918687639E+03  0.00000000000E+00 0.  1.
         21    1    1    2  505  502  0.10632513758E+02 -0.28096609865E+02  0.40152675186E+01  0.30308286127E+02  0.00000000000E+00 0. -1.
          3    1    1    2  501    0 -0.27466244681E+02 -0.76183871522E+02 -0.10625150154E+04  0.10655967975E+04  0.00000000000E+00 0. -1.
<scales pt_clust_3="79.72104" pt_clust_4="14000.00000" pt_clust_5="30.04114" pt_clust_6="86.60280"></scales>
<clustering>
<clus scale="   30.041">  1  5  2 -1</clus>
<clus scale="   79.721">  2  3  1 -1</clus>
<clus scale="   86.603">  2  6  1 -1</clus>
<clus scale="   30.041">  1  3  2 -1</clus>
</clustering>
</event>
<event>
 6    0  0.4340992E+002  0.1109451E+03  0.7546771E-02  0.1258830E+00
          2   -1    0    0  505    0 -0.00000000000E+00  0.00000000000E+00  0.41120045604E+03  0.41120045604E+03  0.00000000000E+00 0.  1.
         21   -1    0    0  504  502  0.00000000000E+00 -0.00000000000E+00 -0.64511775137E+03  0.64511775137E+03  0.00000000000E+00 0. -1.
         21    1    1    2  503  501  0.81096550578E+02 -0.30055054871E+02 -0.68759668249E+02  0.11048913438E+03  0.00000000000E+00 0.  1.
         21    1    1    2  504  503 -0.48358630235E+01 -0.65871282067E+02 -0.52813756025E+03  0.53225153257E+03  0.00000000000E+00 0. -1.
         21    1    1    2  505  502 -0.18641603556E+02  0.12815022256E+03  0.27107376987E+03  0.30041800484E+03  0.00000000000E+00 0.  1.
          2    1    1    2  501    0 -0.57619083999E+02 -0.32223885620E+02  0.91906163306E+02  0.11315953561E+03  0.00000000000E+00 0.  1.
<scales pt_clust_3="14000.00000" pt_clust_4="66.29185" pt_clust_5="110.94506" pt_clust_6="66.01771"></scales>
<clustering>
<clus scale="   66.018">  1  6  2 -1</clus>
<clus scale="   66.292">  2  4  1 -1</clus>
<clus scale="  110.945">  1  5  2 -1</clus>
<clus scale="   66.292">  2  3  1 -1</clus>
</clustering>
</event>
<event>
 6    0  0.4340992E+002  0.1003290E+03  0.7546771E-02  0.1279606E+00
          2   -1    0    0  503    0 -0.00000000000E+00  0.00000000000E+00  0.16415998132E+04  0.16415998132E+04  0.00000000000E+00 0.  1.
         21   -1    0    0  501  502  0.00000000000E+00 -0.00000000000E+00 -0.16299878420E+03  0.16299878420E+03  0.00000000000E+00 0. -1.
         21    1    1    2  503  505 -0.14087837089E+02 -0.34933499066E+02  0.17790048054E+03  0.18184443210E+03  0.00000000000E+00 0. -1.
         21    1    1    2  504  502 -0.82860514464E+02 -0.39389315505E+02 -0.94216021600E+02  0.13150681260E+03  0.00000000000E+00 0. -1.
         21    1    1    2  505  504  0.15180036993E+03  0.96842665349E+02  0.12325819401E+03  0.21820732466E+03  0.00000000000E+00 0.  1.
          2    1    1    2  501    0 -0.54852018381E+02 -0.22519850778E+02  0.12716583761E+04  0.12730400281E+04  0.00000000000E+00 0.  1.
<scales pt_clust_3="37.66718" pt_clust_4="100.32900" pt_clust_5="14000.00000" pt_clust_6="85.47334"></scales>
<clustering>
<clus scale="   37.667">  1  3  2 -1</clus>
<clus scale="   85.473">  1  6  2 -1</clus>
<clus scale="  100.329">  2  4  1 -1</clus>
<clus scale="  100.329">  2  3  1 -1</clus>
</clustering>
</event>
<event>
 6    0  0.4340992E+002  0.1557553E+03  0.7546771E-02  0.1193574E+00
         -2   -1    0    0    0  501 -0.00000000000E+00  0.00000000000E+00  0.82166233022E+03  0.82166233022E+03  0.00000000000E+00 0. -1.
         21   -1    0    0  503  502  0.00000000000E+00 -0.00000000000E+00 -0.82440393342E+03  0.82440393342E+03  0.00000000000E+00 0.  1.
         21    1    1    2  503  504 -0.18842330007E+03  0.50635721724E+02  0.11340437612E+03  0.22567203824E+03  0.00000000000E+00 0. -1.
         21    1    1    2  504  501  0.37241919627E+01 -0.46324246392E+02  0.18198781671E+03  0.18782803529E+03  0.00000000000E+00 0. -1.
         21    1    1    2  505  502  0.15132857598E+03  0.33024921710E+02 -0.75613468155E+03  0.77183588929E+03  0.00000000000E+00 0.  1.
         -2    1    1    2    0  505  0.33370532119E+02 -0.37336397042E+02  0.45800088551E+03  0.46073030081E+03  0.00000000000E+00 0. -1.
<scales pt_clust_3="155.75527" pt_clust_4="46.47371" pt_clust_5="14000.00000" pt_clust_6="79.41326"></scales>
<clustering>
<clus scale="   46.474">  1  4  2 -1</clus>
<clus scale="   79.413">  1  6  2 -1</clus>
<clus scale="  155.755">  1  3  2 -1</clus>
<clus scale="  155.755">  2  3  1 -1</clus>
</clustering>
</event>
<event>
 6    0  0.4340992E+002  0.9139959E+02  0.7546771E-02  0.1299497E+00
         -1   -1    0    0    0  501 -0.00000000000E+00  0.00000000000E+00  0.98115473345E+03  0.98115473345E+03  0.00000000000E+00 0.  1.
         21   -1    0    0  505  502  0.00000000000E+00 -0.00000000000E+00 -0.90889775898E+02  0.90889775898E+02  0.00000000000E+00 0. -1.
         21    1    1    2  503  504 -0.74758111291E+02  0.25787407993E+02  0.22327991565E+03  0.23687061098E+03  0.00000000000E+00 0.  1.
         21    1    1    2  504  502  0.12414305150E+03  0.52588531798E+02  0.56192719207E+02  0.14606393327E+03  0.00000000000E+00 0. -1.
         21    1    1    2  505  501 -0.37883251343E+02 -0.25216610710E+02 -0.24370259858E+02  0.51622938250E+02  0.00000000000E+00 0. -1.
         -1    1    1    2    0  503 -0.11501688862E+02 -0.53159329081E+02  0.63516258256E+03  0.63748702685E+03  0.00000000000E+00 0.  1.
<scales pt_clust_3="14000.00000" pt_clust_4="91.39959" pt_clust_5="45.50844" pt_clust_6="55.11135"></scales>
<clustering>
<clus scale="   45.508">  2  5  1 -1</clus>
<clus scale="   55.111">  1  6  2 -1</clus>
<clus scale="   91.400">  2  4  1 -1</clus>
<clus scale="   45.508">  2  3  1 -1</clus>
</clustering>
</event>
<event>
 6    0  0.4340992E+002  0.9489152E+02  0.7546771E-02  0.1291421E+00
          3   -1    0    0  503    0 -0.00000000000E+00  0.00000000000E+00  0.27557371870E+03  0.27557371870E+03  0.00000000000E+00 0. -1.
         21   -1    0    0  505  502  0.00000000000E+00 -0.00000000000E+00 -0.57713627293E+03  0.57713627293E+03  0.00000000000E+00 0. -1.
         21    1    1    2  503  504  0.37948851266E+02  0.33034444392E+02 -0.14537833934E+02  0.52371160424E+02  0.00000000000E+00 0.  1.
         21    1    1    2  504  502  0.72909423782E+00 -0.56918049462E+02  0.16286201887E+03  0.17252313793E+03  0.00000000000E+00 0. -1.
         21    1    1    2  505  501 -0.96785798620E+02 -0.15026200843E+01 -0.52251231801E+03  0.53140273913E+03  0.00000000000E+00 0. -1.
          3    1    1    2  501    0  0.58107853116E+02  0.25386225154E+02  0.72625578855E+02  0.96412954136E+02  0.00000000000E+00 0. -1.
<scales pt_clust_3="50.31292" pt_clust_4="43.58871" pt_clust_5="94.89152" pt_clust_6="14000.00000"></scales>
<clustering>
<clus scale="   50.313">  1  3  2 -1</clus>
<clus scale="   43.589">  1  4  2 -1</clus>
<clus scale="   94.892">  2  5  1 -1</clus>
<clus scale="   94.892">  2  3  1 -1</clus>
</clustering>
</event>
<event>
 6    0  0.4340992E+002  0.9222079E+02  0.7546771E-02  0.1297561E+00
         21   -1    0    0  505  502  0.00000000000E+00  0.00000000000E+00  0.41080949085E+02  0.41080949085E+02  0.00000000000E+00 0.  1.
          2   -1    0    0  503    0 -0.00000000000E+00 -0.00000000000E+00 -0.39424303081E+04  0.39424303081E+04  0.00000000000E+00 0.  1.
         21    1    1    2  503  504 -0.13720170069E+02  0.28992034041E+02 -0.36891674142E+03  0.37030844334E+03  0.00000000000E+00 0. -1.
         21    1    1    2  504  502 -0.60491422525E+01  0.83160046403E+02 -0.31227354838E+03  0.32321348125E+03  0.00000000000E+00 0. -1.
         21    1    1    2  505  501  0.58442234912E+02 -0.16129899158E+03 -0.17810982111E+03  0.24729732688E+03  0.00000000000E+00 0.  1.
          2    1    1    2  501    0 -0.38672922590E+02  0.49146911136E+02 -0.30420492481E+04  0.30426920057E+04  0.00000000000E+00 0.  1.
<scales pt_clust_3="32.07462" pt_clust_4="86.04603" pt_clust_5="92.22079" pt_clust_6="14000.00000"></scales>
<clustering>
<clus scale="   32.075">  2  3  1 -1</clus>
<clus scale="   86.046">  1  4  2 -1</clus>
<clus scale="   92.221">  1  5  2 -1</clus>
<clus scale="   86.046">  1  3  2 -1</clus>
</clustering>
</event>
<event>
 6    0  0.4340992E+002  0.1850996E+03  0.7546771E-02  0.1162957E+00
         21   -1    0    0  505  502  0.00000000000E+00  0.00000000000E+00  0.23566329940E+03  0.23566329940E+03  0.00000000000E+00 0. -1.
          2   -1    0    0  503    0 -0.00000000000E+00 -0.00000000000E+00 -0.82160738417E+03  0.82160738417E+03  0.00000000000E+00 0. -1.
         21    1    1    2  503  504 -0.49824483858E+02 -0.16675767990E+03 -0.51708668935E+03  0.54559073242E+03  0.00000000000E+00 0.  1.
         21    1    1    2  504  502 -0.73372799671E+02  0.15516165041E+02  0.17758261850E+03  0.19276904706E+03  0.00000000000E+00 0. -1.
         21    1    1    2  505  501  0.84243559716E+02  0.68897644370E+02 -0.10903726343E+03  0.15405514458E+03  0.00000000000E+00 0. -1.
          2    1    1    2  501    0  0.38953723814E+02  0.82343870493E+02 -0.13740275049E+03  0.16485575953E+03  0.00000000000E+00 0. -1.
<scales pt_clust_3="177.03654" pt_clust_4="74.99546" pt_clust_5="49.43723" pt_clust_6="49.43723"></scales>
<clustering>
<clus scale="   49.437">  5  6 -1 -1</clus>
<clus scale="   74.995">  1  4  2 -1</clus>
<clus scale="  177.037">  2  3  1 -1</clus>
<clus scale="   74.995">  1  3  2 -1</clus>
</clustering>
</event>
<event>
 6    0  0.4340992E+002  0.1887609E+03  0.7546771E-02  0.1159584E+00
         21   -1    0    0  505  502  0.00000000000E+00  0.00000000000E+00  0.74767911189E+02  0.74767911189E+02  0.00000000000E+00 0.  1.
         -3   -1    0    0    0  501 -0.00000000000E+00 -0.00000000000E+00 -0.16559030050E+04  0.16559030050E+04  0.00000000000E+00 0.  1.
         21    1    1    2  503  504 -0.10229533929E+03  0.12644838503E+02 -0.59782669080E+02  0.11915618281E+03  0.00000000000E+00 0.  1.
         21    1    1    2  504  501  0.81003692268E+02  0.82226418298E+01 -0.30946592295E+03  0.31999744915E+03  0.00000000000E+00 0.  1.
         21    1    1    2  505  503 -0.70583876708E+02 -0.55865970755E+02 -0.15795591671E+02  0.91392510940E+02  0.00000000000E+00 0.  1.
         -3    1    1    2    0  502  0.91875523726E+02  0.34998490423E+02 -0.11960909101E+04  0.12001247733E+04  0.00000000000E+00 0.  1.
<scales pt_clust_3="77.42080" pt_clust_4="81.41996" pt_clust_5="77.42080" pt_clust_6="169.60927"></scales>
<clustering>
<clus scale="   77.421">  3  5 -1 -1</clus>
<clus scale="   81.420">  2  4  1 -1</clus>
<clus scale="  169.609">  2  6  1 -1</clus>
<clus scale="  188.761">  1  3  2 -1</clus>
</clustering>
</event>
<event>
 6    0  0.4340992E+002  0.9216470E+02  0.7546771E-02  0.1297693E+00
          1   -1    0    0  503    0 -0.00000000000E+00  0.00000000000E+00  0.37189987580E+03  0.37189987580E+03  0.00000000000E+00 0. -1.
         21   -1    0    0  505  502  0.00000000000E+00 -0.00000000000E+00 -0.22191397550E+03  0.22191397550E+03  0.00000000000E+00 0.  1.
         21    1    1    2  503  504  0.86924490518E+01  0.54509133081E+02  0.86032894358E+02  0.10221772435E+03  0.00000000000E+00 0. -1.
         21    1    1    2  504  502  0.72425227552E+02  0.18768315486E+02 -0.13914463153E+03  0.15798383378E+03  0.00000000000E+00 0.  1.
         21    1    1    2  505  501 -0.37856463269E+02 -0.11807917460E+03  0.29880954978E+01  0.12403520468E+03  0.00000000000E+00 0.  1.
          1    1    1    2  501    0 -0.43261213335E+02  0.44801726032E+02  0.20010954197E+03  0.20957708849E+03  0.00000000000E+00 0. -1.
<scales pt_clust_3="55.19786" pt_clust_4="75.58604" pt_clust_5="14000.00000" pt_clust_6="92.16470"></scales>
<clustering>
<clus scale="   55.198">  1  3  2 -1</clus>
<clus scale="   75.586">  2  4  1 -1</clus>
<clus scale="   92.165">  1  6  2 -1</clus>
<clus scale="   75.586">  2  3  1 -1</clus>
</clustering>
</event>
<event>
 6    0  0.4340992E+002  0.3116225E+03  0.7546771E-02  0.1079571E+00
         21   -1    0    0  504  502  0.00000000000E+00  0.00000000000E+00  0.43035827785E+03  0.43035827785E+03  0.00000000000E+00 0. -1.
          2   -1    0    0  503    0 -0.00000000000E+00 -0.00000000000E+00 -0.86003410963E+03  0.86003410963E+03  0.00000000000E+00 0. -1.
         21    1    1    2  503  505  0.81348550490E+00 -0.25565241390E+03  0.31547540671E+03  0.40605855579E+03  0.00000000000E+00 0. -1.
         21    1    1    2  504  501  0.31577114204E+02  0.20490091112E+03 -0.37693973755E+03  0.43019189121E+03  0.00000000000E+00 0. -1.
         21    1    1    2  505  502 -0.40309140239E+02 -0.31440733881E+02  0.21734379543E+02  0.55549345521E+02  0.00000000000E+00 0.  1.
          2    1    1    2  501    0  0.79185405298E+01  0.82192236669E+02 -0.38994588048E+03  0.39859259496E+03  0.00000000000E+00 0. -1.
<scales pt_clust_3="286.91597" pt_clust_4="77.03366" pt_clust_5="51.12090" pt_clust_6="77.03366"></scales>
<clustering>
<clus scale="   51.121">  1  5  2 -1</clus>
<clus scale="   77.034">  4  6 -1 -1</clus>
<clus scale="  286.916">  1  3  2 -1</clus>
<clus scale="   51.121">  1  3  2 -1</clus>
</clustering>
</event>
<event>
 6    0  0.4340992E+002  0.1010595E+03  0.7546771E-02  0.1278084E+00
          2   -1    0    0  503    0 -0.00000000000E+00  0.00000000000E+00  0.43670488653E+04  0.43670488653E+04  0.00000000000E+00 0. -1.
         21   -1    0    0  505  502  0.00000000000E+00 -0.00000000000E+00 -0.16969887423E+03  0.16969887423E+03  0.00000000000E+00 0.  1.
         21    1    1    2  503  504 -0.42994266717E+01  0.49084587057E+02  0.38472448469E+03  0.38786687262E+03  0.00000000000E+00 0. -1.
         21    1    1    2  504  502  0.32505734798E+02 -0.11829770039E+03 -0.10995127058E+03  0.16474298350E+03  0.00000000000E+00 0.  1.
         21    1    1    2  505  501 -0.75467172996E+02  0.25740896050E+02  0.21569652322E+02  0.82602287080E+02  0.00000000000E+00 0.  1.
          2    1    1    2  501    0  0.47260864869E+02  0.43472217280E+02  0.39010071246E+04  0.39015355963E+04  0.00000000000E+00 0. -1.
<scales pt_clust_3="49.27253" pt_clust_4="101.05948" pt_clust_5="79.99911" pt_clust_6="14000.00000"></scales>
<clustering>
<clus scale="   49.273">  1  3  2 -1</clus>
<clus scale="   79.999">  2  5  1 -1</clus>
<clus scale="  101.059">  2  4  1 -1</clus>
<clus scale="   79.999">  2  3  1 -1</clus>
</clustering>
</event>
<event>
 6    0  0.4340992E+002  0.2124674E+03  0.7546771E-02  0.1139627E+00
         21   -1    0    0  505  502  0.00000000000E+00  0.00000000000E+00  0.58204879575E+03  0.58204879575E+03  0.00000000000E+00 0.  1.
          2   -1    0    0  504    0 -0.00000000000E+00 -0.00000000000E+00 -0.46779708804E+03  0.46779708804E+03  0.00000000000E+00 0.  1.
         21    1    1    2  503  502  0.22248544931E+02 -0.30170304390E+02  0.67692113115E+01  0.38092876504E+02  0.00000000000E+00 0.  1.
         21    1    1    2  504  503  0.23906413788E+01 -0.37820631371E+02 -0.28211950794E+02  0.47244359358E+02  0.00000000000E+00 0. -1.
         21    1    1    2  505  501 -0.21194875911E+03  0.12504236205E+03  0.49641955466E+03  0.55406700230E+03  0.00000000000E+00 0.  1.
          2    1    1    2  501    0  0.18730957280E+03 -0.57051426285E+02 -0.36072510747E+03  0.41044164562E+03  0.00000000000E+00 0.  1.
<scales pt_clust_3="37.48660" pt_clust_4="38.43355" pt_clust_5="14000.00000" pt_clust_6="212.46740"></scales>
<clustering>
<clus scale="   37.487">  1  3  2 -1</clus>
<clus scale="   38.434">  2  4  1 -1</clus>
<clus scale="  212.467">  2  6  1 -1</clus>
<clus scale="   37.487">  1  3  2 -1</clus>
</clustering>
</event>
<event>
 6    0  0.4340992E+002  0.1427819E+03  0.7546771E-02  0.1209634E+00
         21   -1    0    0  504  502  0.00000000000E+00  0.00000000000E+00  0.43648192912E+02  0.43648192912E+02  0.00000000000E+00 0. -1.
          2   -1    0    0  503    0 -0.00000000000E+00 -0.00000000000E+00 -0.95477125036E+03  0.95477125036E+03  0.00000000000E+00 0.  1.
         21    1    1    2  503  505 -0.98300006113E+02  0.39486834516E+02 -0.20413638409E+03  0.22998644441E+03  0.00000000000E+00 0. -1.
         21    1    1    2  504  501  0.67519397893E+02 -0.20007978053E+02 -0.22119933079E+03  0.23213860562E+03  0.00000000000E+00 0.  1.
         21    1    1    2  505  502 -0.62821231879E+02 -0.32780048627E+02 -0.41623207610E+02  0.82179864775E+02  0.00000000000E+00 0. -1.
          2    1    1    2  501    0  0.93601840099E+02  0.13301192164E+02 -0.44416413495E+03  0.45411452846E+03  0.00000000000E+00 0.  1.
<scales pt_clust_3="134.74750" pt_clust_4="40.75413" pt_clust_5="70.85929" pt_clust_6="40.75413"></scales>
<clustering>
<clus scale="   40.754">  4  6 -1 -1</clus>
<clus scale="   70.859">  1  5  2 -1</clus>
<clus scale="  134.747">  1  3  2 -1</clus>
<clus scale="   70.859">  1  3  2 -1</clus>
</clustering>
</event>
<event>
 6    0  0.4340992E+002  0.1671080E+03  0.7546771E-02  0.1180898E+00
         -1   -1    0    0    0  501 -0.00000000000E+00  0.00000000000E+00  0.28863458432E+02  0.28863458432E+02  0.00000000000E+00 0.  1.
         21   -1    0    0  504  502  0.00000000000E+00 -0.00000000000E+00 -0.12009922512E+04  0.12009922512E+04  0.00000000000E+00 0.  1.
         21    1    1    2  503  502  0.30796405193E+02 -0.41180264976E+02 -0.11077355562E+03  0.12212703804E+03  0.00000000000E+00 0.  1.
         21    1    1    2  504  505  0.30271638202E+02 -0.53958320360E+01 -0.14579537184E+03  0.14900260915E+03  0.00000000000E+00 0.  1.
         21    1    1    2  505  501 -0.60251766770E+02  0.15743814774E+03 -0.63665531313E+03  0.65859474148E+03  0.00000000000E+00 0.  1.
         -1    1    1    2    0  503 -0.81627662521E+00 -0.11086205073E+03 -0.27890455218E+03  0.30013132097E+03  0.00000000000E+00 0.  1.
<scales pt_clust_3="34.17555" pt_clust_4="30.74877" pt_clust_5="159.64856" pt_clust_6="34.17555"></scales>
<clustering>
<clus scale="   30.749">  2  4  1 -1</clus>
<clus scale="   34.176">  3  6 -1 -1</clus>
<clus scale="  159.649">  2  5  1 -1</clus>
<clus scale="   30.749">  2  3  1 -1</clus>
</clustering>
</event>
<event>
 6    0  0.4340992E+002  0.9003803E+02  0.7546771E-02  0.1302760E+00
          2   -1    0    0  502    0 -0.00000000000E+00  0.00000000000E+00  0.11165264089E+04  0.11165264089E+04  0.00000000000E+00 0. -1.
         21   -1    0    0  503  502  0.00000000000E+00 -0.00000000000E+00 -0.11313570080E+04  0.11313570080E+04  0.00000000000E+00 0. -1.
         21    1    1    2  503  505  0.77638534405E+02  0.49362448447E+01 -0.60040171622E+03  0.60542078704E+03  0.00000000000E+00 0.  1.
         21    1    1    2  504  501  0.35536759537E+02 -0.11849153208E+02  0.18570200783E+03  0.18944260192E+03  0.00000000000E+00 0.  1.
         21    1    1    2  505  504 -0.13529747998E+03  0.32998141023E+02 -0.51704328954E+03  0.53546993255E+03  0.00000000000E+00 0. -1.
          2    1    1    2  501    0  0.22122186039E+02 -0.26085232660E+02  0.91691239887E+03  0.91755009546E+03  0.00000000000E+00 0. -1.
<scales pt_clust_3="90.03803" pt_clust_4="67.09061" pt_clust_5="14000.00000" pt_clust_6="34.20278"></scales>
<clustering>
<clus scale="   34.203">  1  6  2 -1</clus>
<clus scale="   67.091">  1  4  2 -1</clus>
<clus scale="   90.038">  2  3  1 -1</clus>
<clus scale="   90.038">  2  3  1 -1</clus>
</clustering>
</event>
<event>
 6    0  0.4340992E+002  0.1380601E+03  0.7546771E-02  0.1215963E+00
         21   -1    0    0  504  502  0.00000000000E+00  0.00000000000E+00  0.48027145833E+03  0.48027145833E+03  0.00000000000E+00 0.  1.
          2   -1    0    0  505    0 -0.00000000000E+00 -0.00000000000E+00 -0.71147331832E+03  0.71147331832E+03  0.00000000000E+00 0. -1.
         21    1    1    2  503  501  0.27304058322E+02  0.20954259292E+03  0.27518227785E+03  0.34695661960E+03  0.00000000000E+00 0.  1.
         21    1    1    2  504  503 -0.32726245019E+02 -0.71696039342E+02  0.14980508045E+03  0.16927164942E+03  0.00000000000E+00 0.  1.
         21    1    1    2  505  502 -0.16432957080E+02 -0.41161492541E+02 -0.85724765001E+02  0.96504123648E+02  0.00000000000E+00 0.  1.
          2    1    1    2  501    0  0.21855143777E+02 -0.96685061035E+02 -0.57046445328E+03  0.57901238398E+03  0.00000000000E+00 0. -1.
<scales pt_clust_3="138.06005" pt_clust_4="79.50656" pt_clust_5="44.32054" pt_clust_6="14000.00000"></scales>
<clustering>
<clus scale="   44.321">  2  5  1 -1</clus>
<clus scale="   79.507">  1  4  2 -1</clus>
<clus scale="  138.060">  1  3  2 -1</clus>
<clus scale="   79.507">  1  3  2 -1</clus>
</clustering>
</event>
<event>
 6    0  0.4340992E+002  0.2417383E+03  0.7546771E-02  0.1118640E+00
         21   -1    0    0  505  502  0.00000000000E+00  0.00000000000E+00  0.10718164488E+03  0.10718164488E+03  0.00000000000E+00 0.  1.
         -1   -1    0    0    0  501 -0.00000000000E+00 -0.00000000000E+00 -0.18398798663E+04  0.18398798663E+04  0.00000000000E+00 0.  1.
         21    1    1    2  503  501 -0.59246135249E+02  0.53864214852E+01 -0.36548407340E+03  0.37029410741E+03  0.00000000000E+00 0.  1.
         21    1    1    2  504  502  0.10689977085E+02 -0.49612198736E+02 -0.12392341458E+03  0.13391287673E+03  0.00000000000E+00 0.  1.
         21    1    1    2  505  503 -0.26523922594E+02  0.21940966756E+03 -0.40043233633E+02  0.22460539007E+03  0.00000000000E+00 0.  1.
         -1    1    1    2    0  504  0.75080080758E+02 -0.17518389030E+03 -0.12032474998E+04  0.12182491370E+04  0.00000000000E+00 0.  1.
<scales pt_clust_3="59.49049" pt_clust_4="49.14305" pt_clust_5="222.18850" pt_clust_6="49.14305"></scales>
<clustering>
<clus scale="   49.143">  4  6 -1 -1</clus>
<clus scale="   59.490">  2  3  1 -1</clus>
<clus scale="  222.189">  1  5  2 -1</clus>
<clus scale="  222.189">  1  3  2 -1</clus>
</clustering>
</event>
<event>
 6    0  0.4340992E+002  0.3135204E+03  0.7546771E-02  0.1078671E+00
          1   -1    0    0  505    0 -0.00000000000E+00  0.00000000000E+00  0.13748312781E+04  0.13748312781E+04  0.00000000000E+00 0. -1.
         21   -1    0    0  504  502  0.00000000000E+00 -0.00000000000E+00 -0.67493555029E+03  0.67493555029E+03  0.00000000000E+00 0. -1.
         21    1    1    2  503  502 -0.31195619072E+03  0.19206567451E+03 -0.37147979721E+03  0.52173089614E+03  0.00000000000E+00 0. -1.
         21    1    1    2  504  501  0.15590863559E+02 -0.11659545369E+03 -0.16949747843E+03  0.20631764355E+03  0.00000000000E+00 0. -1.
         21    1    1    2  505  503 -0.65517321152E+02  0.10164517089E+02  0.86896207658E+02  0.10930136177E+03  0.00000000000E+00 0.  1.
          1    1    1    2  501    0  0.36188264832E+03 -0.85634737912E+02  0.11539767958E+04  0.12124169269E+04  0.00000000000E+00 0. -1.
<scales pt_clust_3="313.52040" pt_clust_4="117.36631" pt_clust_5="66.30111" pt_clust_6="14000.00000"></scales>
<clustering>
<clus scale="   66.301">  1  5  2 -1</clus>
<clus scale="  117.366">  2  4  1 -1</clus>
<clus scale="  313.520">  2  3  1 -1</clus>
<clus scale="  117.366">  2  3  1 -1</clus>
</clustering>
</event>
<event>
 6    0  0.4340992E+002  0.9385167E+02  0.7546771E-02  0.1293784E+00
          2   -1    0    0  505    0 -0.00000000000E+00  0.00000000000E+00  0.22431638568E+03  0.22431638568E+03  0.00000000000E+00 0.  1.
         21   -1    0    0  504  502  0.00000000000E+00 -0.00000000000E+00 -0.31934744648E+03  0.31934744648E+03  0.00000000000E+00 0. -1.
         21    1    1    2  503  501  0.64918941715E+02 -0.25120046838E+02  0.35985308921E+02  0.78360884405E+02  0.00000000000E+00 0. -1.
         21    1    1    2  504  503 -0.17675337121E+02 -0.46156144013E+02 -0.22215424631E+03  0.22758584386E+03  0.00000000000E+00 0. -1.
         21    1    1    2  505  502 -0.10357259896E+03  0.53194779880E+02 -0.13802648733E+02  0.11724965234E+03  0.00000000000E+00 0. -1.
          2    1    1    2  501    0  0.56328994369E+02  0.18081410972E+02  0.10494052532E+03  0.12046745155E+03  0.00000000000E+00 0.  1.
<scales pt_clust_3="93.85167" pt_clust_4="49.42476" pt_clust_5="14000.00000" pt_clust_6="56.70628"></scales>
<clustering>
<clus scale="   49.425">  2  4  1 -1</clus>
<clus scale="   56.706">  1  6  2 -1</clus>
<clus scale="   93.852">  1  3  2 -1</clus>
<clus scale="   49.425">  2  3  1 -1</clus>
</clustering>
</event>
<event>
 6    0  0.4340992E+002  0.1323533E+03  0.7546771E-02  0.1224005E+00
         21   -1    0    0  504  502  0.00000000000E+00  0.00000000000E+00  0.20445203952E+04  0.20445203952E+04  0.00000000000E+00 0. -1.
          4   -1    0    0  503    0 -0.00000000000E+00 -0.00000000000E+00 -0.12345522891E+03  0.12345522891E+03  0.00000000000E+00 0.  1.
         21    1    1    2  503  502 -0.88903181839E+02 -0.91696074820E+02  0.18504013403E+04  0.18548037810E+04  0.00000000000E+00 0. -1.
         21    1    1    2  504  505 -0.32378661473E+02  0.54413282519E+02  0.14705597285E+03  0.16010822023E+03  0.00000000000E+00 0. -1.
         21    1    1    2  505  501  0.50689805309E+02  0.23306355065E+02 -0.13287158476E+02  0.57351470156E+02  0.00000000000E+00 0.  1.
          4    1    1    2  501    0  0.70592038003E+02  0.13976437236E+02 -0.63104988360E+02  0.95712152745E+02  0.00000000000E+00 0.  1.
<scales pt_clust_3="126.58583" pt_clust_4="63.31811" pt_clust_5="34.02677" pt_clust_6="34.02677"></scales>
<clustering>
<clus scale="   34.027">  5  6 -1 -1</clus>
<clus scale="   63.318">  1  4  2 -1</clus>
<clus scale="  126.586">  1  3  2 -1</clus>
<clus scale="   63.318">  1  3  2 -1</clus>
</clustering>
</event>
<event>
 6    0  0.4340992E+002  0.8106506E+02  0.7546771E-02  0.1326056E+00
         21   -1    0    0  505  502  0.00000000000E+00  0.00000000000E+00  0.25765410645E+03  0.25765410645E+03  0.00000000000E+00 0. -1.
          1   -1    0    0  504    0 -0.00000000000E+00 -0.00000000000E+00 -0.38794253035E+03  0.38794253035E+03  0.00000000000E+00 0. -1.
         21    1    1    2  503  501  0.86460951045E+02  0.22400389907E+02  0.34934374809E+02  0.95904557071E+02  0.00000000000E+00 0. -1.
         21    1    1    2  504  502 -0.72454434077E+02 -0.53924272337E+02 -0.14127657690E+03  0.16767988354E+03  0.00000000000E+00 0. -1.
         21    1    1    2  505  503 -0.74771489218E+02  0.38295604366E+02  0.16405799226E+03  0.18431590745E+03  0.00000000000E+00 0. -1.
          1    1    1    2  501    0  0.60764972250E+02 -0.67717219362E+01 -0.18800421407E+03  0.19769628874E+03  0.00000000000E+00 0. -1.
<scales pt_clust_3="81.06506" pt_clust_4="64.08798" pt_clust_5="14000.00000" pt_clust_6="61.14113"></scales>
<clustering>
<clus scale="   61.141">  2  6  1 -1</clus>
<clus scale="   64.088">  2  4  1 -1</clus>
<clus scale="   81.065">  2  3  1 -1</clus>
<clus scale="   81.065">  1  3  2 -1</clus>
</clustering>
</event>
<event>
 6    0  0.4340992E+002  0.1597881E+03  0.7546771E-02  0.1188936E+00
          1   -1    0    0  505    0 -0.00000000000E+00  0.00000000000E+00  0.96897595732E+03  0.96897595732E+03  0.00000000000E+00 0.  1.
         21   -1    0    0  504  502  0.00000000000E+00 -0.00000000000E+00 -0.11929183781E+03  0.11929183781E+03  0.00000000000E+00 0.  1.
         21    1    1    2  503  502  0.13625136752E+03  0.11747598239E+03 -0.19430323775E+02  0.18094910631E+03  0.00000000000E+00 0.  1.
         21    1    1    2  504  501  0.51647356622E+01 -0.31536817551E+02  0.22875774157E+02  0.39300717537E+02  0.00000000000E+00 0. -1.
         21    1    1    2  505  503 -0.17893017014E+02 -0.64575193238E+02  0.25696369219E+03  0.26555687666E+03  0.00000000000E+00 0.  1.
          1    1    1    2  501    0 -0.12352308617E+03 -0.21363971603E+02  0.58927497693E+03  0.60246109463E+03  0.00000000000E+00 0.  1.
<scales pt_clust_3="14000.00000" pt_clust_4="31.95693" pt_clust_5="68.13251" pt_clust_6="159.78810"></scales>
<clustering>
<clus scale="   31.957">  2  4  1 -1</clus>
<clus scale="   68.133">  1  5  2 -1</clus>
<clus scale="  159.788">  1  6  2 -1</clus>
<clus scale="   31.957">  2  3  1 -1</clus>
</clustering>
</event>
<event>
 6    0  0.4340992E+002  0.7171225E+02  0.7546771E-02  0.1354365E+00
         21   -1    0    0  503  502  0.00000000000E+00  0.00000000000E+00  0.24025538720E+03  0.24025538720E+03  0.00000000000E+00 0.  1.
          2   -1    0    0  504    0 -0.00000000000E+00 -0.00000000000E+00 -0.11531029310E+04  0.11531029310E+04  0.00000000000E+00 0. -1.
         21    1    1    2  503  501 -0.27607971314E+02  0.37351804070E+02  0.24376294405E+02  0.52455324575E+02  0.00000000000E+00 0. -1.
         21    1    1    2  504  505 -0.24388962529E+02 -0.47897007731E+02 -0.53670055340E+02  0.75956696104E+02  0.00000000000E+00 0.  1.
         21    1    1    2  505  502  0.61193587402E+02 -0.63730891691E+02  0.17907499550E+03  0.19968509135E+03  0.00000000000E+00 0.  1.
          2    1    1    2  501    0 -0.91966535597E+01  0.74276095351E+02 -0.10626287784E+04  0.10652612062E+04  0.00000000000E+00 0. -1.
<scales pt_clust_3="46.44736" pt_clust_4="14000.00000" pt_clust_5="45.47738" pt_clust_6="71.71225"></scales>
<clustering>
<clus scale="   46.447">  1  3  2 -1</clus>
<clus scale="   45.477">  1  5  2 -1</clus>
<clus scale="   71.712">  2  6  1 -1</clus>
<clus scale="   46.447">  1  3  2 -1</clus>
</clustering>
</event>
<event>
 6    0  0.4340992E+002  0.7623570E+02  0.7546771E-02  0.1340087E+00
          1   -1    0    0  504    0 -0.00000000000E+00  0.00000000000E+00  0.73448351716E+03  0.73448351716E+03  0.00000000000E+00 0.  1.
         21   -1    0    0  503  502  0.00000000000E+00 -0.00000000000E+00 -0.22432608358E+03  0.22432608358E+03  0.00000000000E+00 0. -1.
         21    1    1    2  503  501 -0.74550644569E+02  0.19221597433E+02 -0.18893620973E+03  0.20401999843E+03  0.00000000000E+00 0. -1.
         21    1    1    2  504  505 -0.38343864061E+02 -0.28581842009E+02  0.17794129581E+03  0.18425601309E+03  0.00000000000E+00 0. -1.
         21    1    1    2  505  502  0.55345102945E+02 -0.56437840286E+02  0.55102428410E+02  0.96356566216E+02  0.00000000000E+00 0. -1.
          1    1    1    2  501    0  0.57549405685E+02  0.65798084863E+02  0.46604991909E+03  0.47417702301E+03  0.00000000000E+00 0.  1.
<scales pt_clust_3="14000.00000" pt_clust_4="47.82440" pt_clust_5="76.23570" pt_clust_6="48.45042"></scales>
<clustering>
<clus scale="   47.824">  1  4  2 -1</clus>
<clus scale="   48.450">  1  6  2 -1</clus>
<clus scale="   76.236">  1  5  2 -1</clus>
<clus scale="   76.236">  2  3  1 -1</clus>
</clustering>
</event>
<event>
 6    0  0.4340992E+002  0.1513777E+03  0.7546771E-02  0.1198790E+00
         21   -1    0    0  505  502  0.00000000000E+00  0.00000000000E+00  0.64065257982E+02  0.64065257982E+02  0.00000000000E+00 0. -1.
          4   -1    0    0  503    0 -0.00000000000E+00 -0.00000000000E+00 -0.13805807678E+04  0.13805807678E+04  0.00000000000E+00 0.  1.
         21    1    1    2  503  502 -0.51979867900E+02 -0.15716041781E+02 -0.16362762557E+03  0.17240330765E+03  0.00000000000E+00 0. -1.
         21    1    1    2  504  501  0.80418620936E+02 -0.51020935936E+02 -0.42281077977E+02  0.10420163171E+03  0.00000000000E+00 0. -1.
         21    1    1    2  505  504  0.54897061703E+02  0.17035376650E+02 -0.44661349334E+01  0.57652734562E+02  0.00000000000E+00 0. -1.
          4    1    1    2  501    0 -0.83335814739E+02  0.49701601067E+02 -0.11061406713E+04  0.11103883518E+04  0.00000000000E+00 0.  1.
<scales pt_clust_3="54.30378" pt_clust_4="52.38109" pt_clust_5="52.38109" pt_clust_6="135.53239"></scales>
<clustering>
<clus scale="   52.381">  4  5 -1 -1</clus>
<clus scale="   54.304">  2  3  1 -1</clus>
<clus scale="  135.532">  2  6  1 -1</clus>
<clus scale="  151.378">  1  3  2 -1</clus>
</clustering>
</event>
<event>
 6    0  0.4340992E+002  0.1322060E+03  0.7546771E-02  0.1224219E+00
          1   -1    0    0  505    0 -0.00000000000E+00  0.00000000000E+00  0.67371305252E+03  0.67371305252E+03  0.00000000000E+00 0. -1.
         21   -1    0    0  504  502  0.00000000000E+00 -0.00000000000E+00 -0.10699205345E+03  0.10699205345E+03  0.00000000000E+00 0.  1.
         21    1    1    2  503  501  0.33742388216E+02  0.71396545621E+02 -0.85684603017E+01  0.79431945721E+02  0.00000000000E+00 0.  1.
         21    1    1    2  504  503  0.43891769010E+02  0.29153646992E+02 -0.36916450077E+02  0.64336978528E+02  0.00000000000E+00 0. -1.
         21    1    1    2  505  502 -0.47105276600E+02 -0.32044010586E+02  0.73301028824E+02  0.92837312136E+02  0.00000000000E+00 0. -1.
          1    1    1    2  501    0 -0.30528880626E+02 -0.68506182027E+02  0.53890488062E+03  0.54409886959E+03  0.00000000000E+00 0. -1.
<scales pt_clust_3="40.54119" pt_clust_4="40.54119" pt_clust_5="56.97127" pt_clust_6="122.53650"></scales>
<clustering>
<clus scale="   40.541">  3  4 -1 -1</clus>
<clus scale="   56.971">  1  5  2 -1</clus>
<clus scale="  122.537">  1  6  2 -1</clus>
<clus scale="  132.206">  2  3  1 -1</clus>
</clustering>
</event>
<event>
 6    0  0.4340992E+002  0.7350505E+02  0.7546771E-02  0.1348564E+00
          2   -1    0    0  504    0 -0.00000000000E+00  0.00000000000E+00  0.34992067009E+03  0.34992067009E+03  0.00000000000E+00 0.  1.
         21   -1    0    0  505  502  0.00000000000E+00 -0.00000000000E+00 -0.16986786364E+03  0.16986786364E+03  0.00000000000E+00 0.  1.
         21    1    1    2  503  502  0.24643062565E+02  0.79208229523E+02 -0.54205524283E+02  0.99093203699E+02  0.00000000000E+00 0.  1.
         21    1    1    2  504  503  0.30738891044E+02  0.13205675224E+02  0.28089724187E+02  0.43684114797E+02  0.00000000000E+00 0.  1.
         21    1    1    2  505  501 -0.51069207203E+02 -0.10239364451E+02 -0.70903214503E+02  0.87978260585E+02  0.00000000000E+00 0.  1.
          2    1    1    2  501    0 -0.43127464060E+01 -0.82174540296E+02  0.27707182105E+03  0.28903295465E+03  0.00000000000E+00 0.  1.
<scales pt_clust_3="73.50505" pt_clust_4="33.45548" pt_clust_5="51.19597" pt_clust_6="14000.00000"></scales>
<clustering>
<clus scale="   33.455">  1  4  2 -1</clus>
<clus scale="   51.196">  2  5  1 -1</clus>
<clus scale="   73.505">  2  3  1 -1</clus>
<clus scale="   51.196">  2  3  1 -1</clus>
</clustering>
</event>
<event>
 6    0  0.4340992E+002  0.9846860E+02  0.7546771E-02  0.1283550E+00
         21   -1    0    0  505  502  0.00000000000E+00  0.00000000000E+00  0.13059448286E+03  0.13059448286E+03  0.00000000000E+00 0. -1.
          2   -1    0    0  503    0 -0.00000000000E+00 -0.00000000000E+00 -0.21389982508E+04  0.21389982508E+04  0.00000000000E+00 0. -1.
         21    1    1    2  503  504  0.52723130421E+02 -0.18147915912E+01 -0.14551921076E+03  0.15478650668E+03  0.00000000000E+00 0.  1.
         21    1    1    2  504  502 -0.80364862733E+02  0.15366414497E+03  0.29418230869E+02  0.17588806929E+03  0.00000000000E+00 0. -1.
         21    1    1    2  505  501  0.48261624830E+02 -0.63575387738E+02 -0.49573136521E+02  0.93960152308E+02  0.00000000000E+00 0. -1.
          2    1    1    2  501    0 -0.20619892518E+02 -0.88273965637E+02 -0.18427296515E+04  0.18449580054E+04  0.00000000000E+00 0. -1.
<scales pt_clust_3="52.75435" pt_clust_4="14000.00000" pt_clust_5="81.03456" pt_clust_6="98.46860"></scales>
<clustering>
<clus scale="   52.754">  2  3  1 -1</clus>
<clus scale="   81.035">  1  5  2 -1</clus>
<clus scale="   98.469">  2  6  1 -1</clus>
<clus scale="   81.035">  1  3  2 -1</clus>
</clustering>
</event>
<event>
 6    0  0.4340992E+002  0.1101710E+03  0.7546771E-02  0.1260254E+00
          2   -1    0    0  504    0 -0.00000000000E+00  0.00000000000E+00  0.19325427905E+04  0.19325427905E+04  0.00000000000E+00 0.  1.
         21   -1    0    0  503  502  0.00000000000E+00 -0.00000000000E+00 -0.63397870392E+03  0.63397870392E+03  0.00000000000E+00 0.  1.
         21    1    1    2  503  501 -0.43764613683E+02  0.26561554534E+02 -0.18775653561E+03  0.19461082769E+03  0.00000000000E+00 0.  1.
         21    1    1    2  504  505  0.36522117976E+02  0.12096743323E+03  0.38891344700E+03  0.40892622105E+03  0.00000000000E+00 0.  1.
         21    1    1    2  505  502  0.74533624413E+01 -0.39607998276E+02 -0.42994215558E+03  0.43182705252E+03  0.00000000000E+00 0.  1.
          2    1    1    2  501    0 -0.21086673454E+00 -0.10792098948E+03  0.15273493307E+04  0.15311573931E+04  0.00000000000E+00 0.  1.
<scales pt_clust_3="38.28104" pt_clust_4="14000.00000" pt_clust_5="40.30318" pt_clust_6="110.17099"></scales>
<clustering>
<clus scale="   40.303">  2  5  1 -1</clus>
<clus scale="   38.281">  2  3  1 -1</clus>
<clus scale="  110.171">  1  6  2 -1</clus>
<clus scale="   40.303">  2  3  1 -1</clus>
</clustering>
</event>
<event>
 6    0  0.4340992E+002  0.2044205E+03  0.7546771E-02  0.1146062E+00
         21   -1    0    0  504  502  0.00000000000E+00  0.00000000000E+00  0.32609190634E+03  0.32609190634E+03  0.00000000000E+00 0.  1.
          2   -1    0    0  505    0 -0.00000000000E+00 -0.00000000000E+00 -0.11208982618E+04  0.11208982618E+04  0.00000000000E+00 0.  1.
         21    1    1    2  503  502 -0.53359208356E+02 -0.18839890917E+03  0.23746133616E+03  0.30778115645E+03  0.00000000000E+00 0.  1.
         21    1    1    2  504  501  0.64837801022E+02  0.14178166292E+02 -0.15945920268E+03  0.17271999931E+03  0.00000000000E+00 0.  1.
         21    1    1    2  505  503 -0.15881183263E+03  0.16848580625E+03 -0.32405150044E+03  0.39826880374E+03  0.00000000000E+00 0.  1.
          2    1    1    2  501    0  0.14733323997E+03  0.57349366344E+01 -0.54875698848E+03  0.56822020864E+03  0.00000000000E+00 0.  1.
<scales pt_clust_3="195.80948" pt_clust_4="30.07291" pt_clust_5="199.44575" pt_clust_6="30.07291"></scales>
<clustering>
<clus scale="   30.073">  4  6 -1 -1</clus>
<clus scale="  195.809">  1  3  2 -1</clus>
<clus scale="  199.446">  1  5  2 -1</clus>
<clus scale="  195.809">  1  3  2 -1</clus>
</clustering>
</event>
<event>
 6    0  0.4340992E+002  0.1719071E+03  0.7546771E-02  0.1175873E+00
         21   -1    0    0  504  502  0.00000000000E+00  0.00000000000E+00  0.42332301197E+03  0.42332301197E+03  0.00000000000E+00 0. -1.
         -1   -1    0    0    0  501 -0.00000000000E+00 -0.00000000000E+00 -0.80220356467E+03  0.80220356467E+03  0.00000000000E+00 0. -1.
         21    1    1    2  503  502  0.70702906181E+02  0.17861829362E+02  0.11620684185E+03  0.13719320677E+03  0.00000000000E+00 0. -1.
         21    1    1    2  504  505  0.31915880126E+02  0.67965399688E+01  0.26307150053E+03  0.26508759072E+03  0.00000000000E+00 0. -1.
         21    1    1    2  505  501  0.67430412886E+02  0.36725249582E+02 -0.48264366981E+02  0.90692081567E+02  0.00000000000E+00 0. -1.
         -1    1    1    2    0  503 -0.17004919919E+03 -0.61383618912E+02 -0.70989452810E+03  0.73255369758E+03  0.00000000000E+00 0. -1.
<scales pt_clust_3="14000.00000" pt_clust_4="32.63152" pt_clust_5="80.95922" pt_clust_6="171.90714"></scales>
<clustering>
<clus scale="   32.632">  1  4  2 -1</clus>
<clus scale="   80.959">  1  5  2 -1</clus>
<clus scale="  171.907">  2  6  1 -1</clus>
<clus scale="   32.632">  1  3  2 -1</clus>
</clustering>
</event>
<event>
 6    0  0.4340992E+002  0.1258449E+03  0.7546771E-02  0.1233755E+00
         21   -1    0    0  501  502  0.00000000000E+00  0.00000000000E+00  0.10097009265E+03  0.10097009265E+03  0.00000000000E+00 0. -1.
         -1   -1    0    0    0  501 -0.00000000000E+00 -0.00000000000E+00 -0.67354164467E+03  0.67354164467E+03  0.00000000000E+00 0.  1.
         21    1    1    2  503  505  0.71836468115E+02 -0.68131275896E+02 -0.55961328618E+02  0.11372782952E+03  0.00000000000E+00 0. -1.
         21    1    1    2  504  503 -0.50735933287E+01  0.67340776980E+02 -0.35447775235E+03  0.36085315366E+03  0.00000000000E+00 0.  1.
         21    1    1    2  505  502 -0.15882964870E+02 -0.30306183569E+02  0.60470361995E+02  0.69479479096E+02  0.00000000000E+00 0. -1.
         -1    1    1    2    0  504 -0.50879909916E+02  0.31096682485E+02 -0.22260283304E+03  0.23045127505E+03  0.00000000000E+00 0.  1.
<scales pt_clust_3="109.72122" pt_clust_4="58.97383" pt_clust_5="34.21598" pt_clust_6="58.97383"></scales>
<clustering>
<clus scale="   34.216">  1  5  2 -1</clus>
<clus scale="   58.974">  4  6 -1 -1</clus>
<clus scale="  109.721">  1  3  2 -1</clus>
<clus scale="   34.216">  1  3  2 -1</clus>
</clustering>
</event>
<event>
 6    0  0.4340992E+002  0.1488889E+03  0.7546771E-02  0.1201845E+00
          1   -1    0    0  503    0 -0.00000000000E+00  0.00000000000E+00  0.55199024370E+03  0.55199024370E+03  0.00000000000E+00 0. -1.
         21   -1    0    0  504  502  0.00000000000E+00 -0.00000000000E+00 -0.60737389502E+03  0.60737389502E+03  0.00000000000E+00 0. -1.
         21    1    1    2  503  505 -0.22194200596E+02 -0.97625283624E+02  0.24315089030E+02  0.10302670575E+03  0.00000000000E+00 0. -1.
         21    1    1    2  504  501  0.14866135862E+03 -0.35930353633E+02 -0.36100114552E+03  0.39206251660E+03  0.00000000000E+00 0. -1.
         21    1    1    2  505  502  0.56290462098E+00  0.31058534373E+02 -0.17599759077E+03  0.17871793803E+03  0.00000000000E+00 0.  1.
          1    1    1    2  501    0 -0.12703006264E+03  0.10249710288E+03  0.45729999594E+03  0.48555697833E+03  0.00000000000E+00 0. -1.
<scales pt_clust_3="97.33483" pt_clust_4="148.88887" pt_clust_5="31.06363" pt_clust_6="14000.00000"></scales>
<clustering>
<clus scale="   31.064">  2  5  1 -1</clus>
<clus scale="   97.335">  1  3  2 -1</clus>
<clus scale="  148.889">  2  4  1 -1</clus>
<clus scale="   31.064">  2  3  1 -1</clus>
</clustering>
</event>
<event>
 6    0  0.4340992E+002  0.1230140E+03  0.7546771E-02  0.1238206E+00
         -2   -1    0    0    0  501 -0.00000000000E+00  0.00000000000E+00  0.52490077775E+03  0.52490077775E+03  0.00000000000E+00 0. -1.
         21   -1    0    0  504  502  0.00000000000E+00 -0.00000000000E+00 -0.32948613107E+03  0.32948613107E+03  0.00000000000E+00 0. -1.
         21    1    1    2  503  501  0.66744965027E+02 -0.41386415578E+02  0.48304288334E+02  0.92201030484E+02  0.00000000000E+00 0.  1.
         21    1    1    2  504  503  0.62243213775E+02  0.43513647548E+02 -0.29159542708E+03  0.30132299660E+03  0.00000000000E+00 0. -1.
         21    1    1    2  505  502 -0.48938509957E+02  0.19574031808E+02  0.11182583227E+03  0.12362498632E+03  0.00000000000E+00 0.  1.
         -2    1    1    2    0  505 -0.80049668844E+02 -0.21701263778E+02  0.32687995316E+03  0.33723789542E+03  0.00000000000E+00 0. -1.
<scales pt_clust_3="108.82601" pt_clust_4="75.94508" pt_clust_5="45.72076" pt_clust_6="45.72076"></scales>
<clustering>
<clus scale="   45.721">  5  6 -1 -1</clus>
<clus scale="   75.945">  2  4  1 -1</clus>
<clus scale="  108.826">  2  3  1 -1</clus>
<clus scale="   75.945">  2  3  1 -1</clus>
</clustering>
</event>
<event>
 6    0  0.4340992E+002  0.1014180E+03  0.7546771E-02  0.1277342E+00
          2   -1    0    0  503    0 -0.00000000000E+00  0.00000000000E+00  0.27183632004E+04  0.27183632004E+04  0.00000000000E+00 0.  1.
         21   -1    0    0  505  502  0.00000000000E+00 -0.00000000000E+00 -0.42642660722E+02  0.42642660722E+02  0.00000000000E+00 0. -1.
         21    1    1    2  503  504  0.52535183489E+02 -0.14077404335E+02  0.25910161776E+03  0.26474849791E+03  0.00000000000E+00 0. -1.
         21    1    1    2  504  502  0.36144309622E+02 -0.11074502724E+02  0.49198322793E+02  0.62044586342E+02  0.00000000000E+00 0. -1.
         21    1    1    2  505  501  0.23839014014E+02 -0.72916176498E+02  0.16385499800E+02  0.78444579086E+02  0.00000000000E+00 0. -1.
          2    1    1    2  501    0 -0.11251850713E+03  0.98068083557E+02  0.23510350993E+04  0.23557681978E+04  0.00000000000E+00 0.  1.
<scales pt_clust_3="57.33369" pt_clust_4="37.80285" pt_clust_5="101.41799" pt_clust_6="14000.00000"></scales>
<clustering>
<clus scale="   37.803">  2  4  1 -1</clus>
<clus scale="   57.334">  1  3  2 -1</clus>
<clus scale="  101.418">  2  5  1 -1</clus>
<clus scale="   37.803">  2  3  1 -1</clus>
</clustering>
</event>
<event>
 6    0  0.4340992E+002  0.6120177E+02  0.7546771E-02  0.1392857E+00
         21   -1    0    0  505  502  0.00000000000E+00  0.00000000000E+00  0.34206648390E+03  0.34206648390E+03  0.00000000000E+00 0. -1.
          1   -1    0    0  503    0 -0.00000000000E+00 -0.00000000000E+00 -0.19792869183E+03  0.19792869183E+03  0.00000000000E+00 0.  1.
         21    1    1    2  503  504 -0.32636950793E+02  0.22022242396E+02  0.10108092543E+02  0.40648779220E+02  0.00000000000E+00 0. -1.
         21    1    1    2  504  502  0.76031099733E+01  0.56075006098E+02  0.92474013275E+02  0.10841428283E+03  0.00000000000E+00 0. -1.
         21    1    1    2  505  501 -0.55564574394E+02 -0.16093679580E+02  0.19692379326E+03  0.20524475341E+03  0.00000000000E+00 0. -1.
          1    1    1    2  501    0  0.80598415213E+02 -0.62003568914E+02 -0.15536810700E+03  0.18568736027E+03  0.00000000000E+00 0.  1.
<scales pt_clust_3="39.37194" pt_clust_4="57.36966" pt_clust_5="61.20177" pt_clust_6="14000.00000"></scales>
<clustering>
<clus scale="   39.372">  2  3  1 -1</clus>
<clus scale="   57.370">  1  4  2 -1</clus>
<clus scale="   61.202">  1  5  2 -1</clus>
<clus scale="   57.370">  1  3  2 -1</clus>
</clustering>
</event>
<event>
 6    0  0.4340992E+002  0.1150963E+03  0.7546771E-02  0.1251413E+00
         21   -1    0    0  501  502  0.00000000000E+00  0.00000000000E+00  0.12798451432E+04  0.12798451432E+04  0.00000000000E+00 0. -1.
          2   -1    0    0  503    0 -0.00000000000E+00 -0.00000000000E+00 -0.12549585313E+03  0.12549585313E+03  0.00000000000E+00 0. -1.
         21    1    1    2  503  505  0.10318911266E+03  0.58081665375E+02 -0.85405583445E+02  0.14599858392E+03  0.00000000000E+00 0. -1.
         21    1    1    2  504  502 -0.31251345679E+02 -0.71353286526E+01  0.71830316258E+03  0.71901807550E+03  0.00000000000E+00 0. -1.
         21    1    1    2  505  504 -0.71796340791E+02 -0.55852418180E+01  0.44974893938E+03  0.45547779084E+03  0.00000000000E+00 0. -1.
          2    1    1    2  501    0 -0.14142618618E+00 -0.45361094905E+02  0.71702771564E+02  0.84846546083E+02  0.00000000000E+00 0. -1.
<scales pt_clust_3="115.09628" pt_clust_4="32.05557" pt_clust_5="14000.00000" pt_clust_6="46.57428"></scales>
<clustering>
<clus scale="   32.056">  1  4  2 -1</clus>
<clus scale="   46.574">  1  6  2 -1</clus>
<clus scale="  115.096">  2  3  1 -1</clus>
<clus scale="   32.056">  1  3  2 -1</clus>
</clustering>
</event>
<event>
 6    0  0.4340992E+002  0.1321126E+03  0.7546771E-02  0.1224354E+00
          4   -1    0    0  505    0 -0.00000000000E+00  0.00000000000E+00  0.13309522060E+04  0.13309522060E+04  0.00000000000E+00 0. -1.
         21   -1    0    0  504  502  0.00000000000E+00 -0.00000000000E+00 -0.20783210851E+03  0.20783210851E+03  0.00000000000E+00 0. -1.
         21    1    1    2  503  502  0.18473432003E+02  0.40452207424E+02 -0.13429438505E+03  0.14146600522E+03  0.00000000000E+00 0. -1.
         21    1    1    2  504  501  0.10450355836E+03 -0.82614476011E+02  0.21007897205E+03  0.24875554236E+03  0.00000000000E+00 0. -1.
         21    1    1    2  505  503  0.15665731578E+02  0.64293598641E+02 -0.22240031172E+02  0.69811896971E+02  0.00000000000E+00 0. -1.
          4    1    1    2  501    0 -0.13864272194E+03 -0.22131330054E+02  0.10695755417E+04  0.10787508700E+04  0.00000000000E+00 0. -1.
<scales pt_clust_3="44.47076" pt_clust_4="132.11259" pt_clust_5="95.07141" pt_clust_6="14000.00000"></scales>
<clustering>
<clus scale="   44.471">  2  3  1 -1</clus>
<clus scale="   95.071">  2  5  1 -1</clus>
<clus scale="  132.113">  2  4  1 -1</clus>
<clus scale="   44.471">  2  3  1 -1</clus>
</clustering>
</event>
<event>
 6    0  0.4340992E+002  0.8131157E+02  0.7546771E-02  0.1325370E+00
         -4   -1    0    0    0  501 -0.00000000000E+00  0.00000000000E+00  0.25064814305E+03  0.25064814305E+03  0.00000000000E+00 0.  1.
         21   -1    0    0  504  502  0.00000000000E+00 -0.00000000000E+00 -0.63724206899E+03  0.63724206899E+03  0.00000000000E+00 0.  1.
         21    1    1    2  503  502  0.12231770770E+03  0.66515371527E+02 -0.13529093678E+03  0.19413797630E+03  0.00000000000E+00 0.  1.
         21    1    1    2  504  505 -0.76709013495E+02  0.25949516483E+01 -0.45479295286E+03  0.46122406322E+03  0.00000000000E+00 0.  1.
         21    1    1    2  505  501  0.24442559936E+00 -0.49265492636E+02  0.46371743705E+02  0.67657129136E+02  0.00000000000E+00 0.  1.
         -4    1    1    2    0  503 -0.45853119802E+02 -0.19844830539E+02  0.15711821999E+03  0.16487104339E+03  0.00000000000E+00 0.  1.
<scales pt_clust_3="81.31157" pt_clust_4="14000.00000" pt_clust_5="49.26610" pt_clust_6="76.03481"></scales>
<clustering>
<clus scale="   49.266">  1  5  2 -1</clus>
<clus scale="   76.035">  1  6  2 -1</clus>
<clus scale="   81.312">  1  3  2 -1</clus>
<clus scale="   81.312">  2  3  1 -1</clus>
</clustering>
</event>
<event>
 6    0  0.4340992E+002  0.7759947E+02  0.7546771E-02  0.1336005E+00
         21   -1    0    0  505  502  0.00000000000E+00  0.00000000000E+00  0.10525544932E+03  0.10525544932E+03  0.00000000000E+00 0.  1.
          2   -1    0    0  503    0 -0.00000000000E+00 -0.00000000000E+00 -0.21402689900E+04  0.21402689900E+04  0.00000000000E+00 0.  1.
         21    1    1    2  503  504  0.21332360976E+02  0.22232729781E+02 -0.83321805467E+02  0.88836294185E+02  0.00000000000E+00 0. -1.
         21    1    1    2  504  502 -0.42719364480E+02  0.36728275069E+02 -0.14990291963E+02  0.58297677006E+02  0.00000000000E+00 0.  1.
         21    1    1    2  505  501  0.11585248053E+03 -0.52647204702E+02  0.28913139673E+02  0.13049710745E+03  0.00000000000E+00 0.  1.
          2    1    1    2  501    0 -0.94465477021E+02 -0.63138001482E+01 -0.19656145829E+04  0.19678933607E+04  0.00000000000E+00 0.  1.
<scales pt_clust_3="30.81175" pt_clust_4="56.31015" pt_clust_5="14000.00000" pt_clust_6="77.59947"></scales>
<clustering>
<clus scale="   30.812">  2  3  1 -1</clus>
<clus scale="   56.310">  1  4  2 -1</clus>
<clus scale="   77.599">  2  6  1 -1</clus>
<clus scale="   56.310">  1  3  2 -1</clus>
</clustering>
</event>
<event>
 6    0  0.4340992E+002  0.2648751E+03  0.7546771E-02  0.1104249E+00
         21   -1    0    0  503  502  0.00000000000E+00  0.00000000000E+00  0.11426355041E+03  0.11426355041E+03  0.00000000000E+00 0.  1.
          2   -1    0    0  504    0 -0.00000000000E+00 -0.00000000000E+00 -0.23030098445E+04  0.23030098445E+04  0.00000000000E+00 0. -1.
         21    1    1    2  503  505 -0.21269811160E+03  0.14192610950E+03 -0.57308239839E+02  0.26204530446E+03  0.00000000000E+00 0.  1.
         21    1    1    2  504  502  0.17760037485E+02 -0.71683367401E+02 -0.25276233758E+03  0.26333006549E+03  0.00000000000E+00 0. -1.
         21    1    1    2  505  501  0.56612072346E+02  0.17702297642E+02 -0.48122835821E+03  0.48487011747E+03  0.00000000000E+00 0. -1.
          2    1    1    2  501    0  0.13832600176E+03 -0.87945039740E+02 -0.13974473584E+04  0.14070279074E+04  0.00000000000E+00 0. -1.
<scales pt_clust_3="251.47176" pt_clust_4="73.85069" pt_clust_5="50.04383" pt_clust_6="50.04383"></scales>
<clustering>
<clus scale="   50.044">  5  6 -1 -1</clus>
<clus scale="   73.851">  2  4  1 -1</clus>
<clus scale="  251.472">  1  3  2 -1</clus>
<clus scale="  251.472">  1  3  2 -1</clus>
</clustering>
</event>
<event>
 6    0  0.4340992E+002  0.1169711E+03  0.7546771E-02  0.1248179E+00
          1   -1    0    0  504    0 -0.00000000000E+00  0.00000000000E+00  0.18334610105E+03  0.18334610105E+03  0.00000000000E+00 0. -1.
         21   -1    0    0  505  502  0.00000000000E+00 -0.00000000000E+00 -0.52437725658E+03  0.52437725658E+03  0.00000000000E+00 0.  1.
         21    1    1    2  503  501 -0.58223535906E+02  0.69425383093E+02 -0.44838102116E+02  0.10109559512E+03  0.00000000000E+00 0. -1.
         21    1    1    2  504  502 -0.48344068085E+02 -0.18100806073E+00 -0.10877524216E+03  0.11903459577E+03  0.00000000000E+00 0.  1.
         21    1    1    2  505  503 -0.24924762897E+02 -0.41492152722E+02 -0.30512744189E+03  0.30894271044E+03  0.00000000000E+00 0. -1.
          1    1    1    2  501    0  0.13149236689E+03 -0.27752222309E+02  0.11770963063E+03  0.17865045630E+03  0.00000000000E+00 0. -1.
<scales pt_clust_3="14000.00000" pt_clust_4="48.34441" pt_clust_5="73.92153" pt_clust_6="116.97108"></scales>
<clustering>
<clus scale="   48.344">  2  4  1 -1</clus>
<clus scale="   73.922">  2  5  1 -1</clus>
<clus scale="  116.971">  1  6  2 -1</clus>
<clus scale="   48.344">  2  3  1 -1</clus>
</clustering>
</event>
<event>
 6    0  0.4340992E+002  0.1018851E+03  0.7546771E-02  0.1276381E+00
          2   -1    0    0  503    0 -0.00000000000E+00  0.00000000000E+00  0.23983462677E+04  0.23983462677E+04  0.00000000000E+00 0.  1.
         21   -1    0    0  504  502  0.00000000000E+00 -0.00000000000E+00 -0.40760182472E+02  0.40760182472E+02  0.00000000000E+00 0.  1.
         21    1    1    2  503  502 -0.72254423458E+02 -0.51727654093E+02  0.24915717751E+03  0.26452930086E+03  0.00000000000E+00 0. -1.
         21    1    1    2  504  505 -0.19855486170E+02  0.80319995169E+02  0.22287091354E+02  0.85686967481E+02  0.00000000000E+00 0.  1.
         21    1    1    2  505  501  0.54767947530E+02 -0.31824576934E+02  0.93777581504E+03  0.93991266139E+03  0.00000000000E+00 0.  1.
          2    1    1    2  501    0  0.37341962098E+02  0.32322358577E+01  0.11483660013E+04  0.11489775204E+04  0.00000000000E+00 0.  1.
<scales pt_clust_3="90.59699" pt_clust_4="82.73779" pt_clust_5="35.85629" pt_clust_6="35.85629"></scales>
<clustering>
<clus scale="   35.856">  5  6 -1 -1</clus>
<clus scale="   82.738">  2  4  1 -1</clus>
<clus scale="   90.597">  2  3  1 -1</clus>
<clus scale="   82.738">  2  3  1 -1</clus>
</clustering>
</event>
<event>
 6    0  0.4340992E+002  0.1317536E+03  0.7546771E-02  0.1224877E+00
          2   -1    0    0  505    0 -0.00000000000E+00  0.00000000000E+00  0.16680345472E+04  0.16680345472E+04  0.00000000000E+00 0. -1.
         21   -1    0    0  503  502  0.00000000000E+00 -0.00000000000E+00 -0.14765913130E+03  0.14765913130E+03  0.00000000000E+00 0. -1.
         21    1    1    2  503  501 -0.47301559788E+02 -0.57707958434E+02  0.71658434072E+03  0.72045871734E+03  0.00000000000E+00 0. -1.
         21    1    1    2  504  502  0.25236257696E+02  0.16239523292E+02 -0.72325275369E+02  0.78304126816E+02  0.00000000000E+00 0. -1.
         21    1    1    2  505  504  0.55219548854E+02  0.82670246184E+02 -0.34158723701E+02  0.10512081899E+03  0.00000000000E+00 0. -1.
          2    1    1    2  501    0 -0.33154246762E+02 -0.41201811041E+02  0.91027507420E+03  0.91181001531E+03  0.00000000000E+00 0. -1.
<scales pt_clust_3="31.27050" pt_clust_4="30.00985" pt_clust_5="126.43425" pt_clust_6="31.27050"></scales>
<clustering>
<clus scale="   30.010">  2  4  1 -1</clus>
<clus scale="   31.271">  3  6 -1 -1</clus>
<clus scale="  126.434">  2  5  1 -1</clus>
<clus scale="   30.010">  2  3  1 -1</clus>
</clustering>
</event>
<event>
 6    0  0.4340992E+002  0.6757620E+02  0.7546771E-02  0.1368535E+00
         21   -1    0    0  504  502  0.00000000000E+00  0.00000000000E+00  0.79607194534E+02  0.79607194534E+02  0.00000000000E+00 0.  1.
          2   -1    0    0  503    0 -0.00000000000E+00 -0.00000000000E+00 -0.14389437638E+04  0.14389437638E+04  0.00000000000E+00 0. -1.
         21    1    1    2  503  505  0.51712141898E+01 -0.39000350182E+02 -0.21392005021E+03  0.21750760137E+03  0.00000000000E+00 0. -1.
         21    1    1    2  504  501  0.57764870371E+02  0.12837001352E+02 -0.88705993392E+02  0.10663171253E+03  0.00000000000E+00 0.  1.
         21    1    1    2  505  502  0.11977805593E+01 -0.56244870001E+02  0.54487049299E+02  0.78318316000E+02  0.00000000000E+00 0.  1.
          2    1    1    2  501    0 -0.64133865120E+02  0.82408218832E+02 -0.11111975750E+04  0.11160933284E+04  0.00000000000E+00 0. -1.
<scales pt_clust_3="39.34169" pt_clust_4="14000.00000" pt_clust_5="56.63853" pt_clust_6="67.57620"></scales>
<clustering>
<clus scale="   39.342">  2  3  1 -1</clus>
<clus scale="   56.639">  1  5  2 -1</clus>
<clus scale="   67.576">  2  6  1 -1</clus>
<clus scale="   56.639">  1  3  2 -1</clus>
</clustering>
</event>
<event>
 6    0  0.4340992E+002  0.9934819E+02  0.7546771E-02  0.1281673E+00
         21   -1    0    0  503  502  0.00000000000E+00  0.00000000000E+00  0.10811990522E+04  0.10811990522E+04  0.00000000000E+00 0. -1.
          1   -1    0    0  505    0 -0.00000000000E+00 -0.00000000000E+00 -0.87646479787E+02  0.87646479787E+02  0.00000000000E+00 0. -1.
         21    1    1    2  503  504  0.46743897386E+01 -0.39696263042E+02  0.29898757591E+03  0.30164749919E+03  0.00000000000E+00 0. -1.
         21    1    1    2  504  501 -0.68811567078E+02 -0.15876790784E+02  0.63969311763E+03  0.64357935718E+03  0.00000000000E+00 0. -1.
         21    1    1    2  505  502  0.33332140094E+02  0.12958340822E+03  0.16734860018E+02  0.13484415742E+03  0.00000000000E+00 0. -1.
          1    1    1    2  501    0  0.30805037245E+02 -0.74010354395E+02  0.38137018886E+02  0.88774518229E+02  0.00000000000E+00 0. -1.
<scales pt_clust_3="39.97053" pt_clust_4="81.07348" pt_clust_5="99.34819" pt_clust_6="14000.00000"></scales>
<clustering>
<clus scale="   39.971">  1  3  2 -1</clus>
<clus scale="   81.073">  1  4  2 -1</clus>
<clus scale="   99.348">  1  5  2 -1</clus>
<clus scale="   39.971">  1  3  2 -1</clus>
</clustering>
</event>
<event>
 6    0  0.4340992E+002  0.8646877E+02  0.7546771E-02  0.1311636E+00
         21   -1    0    0  504  502  0.00000000000E+00  0.00000000000E+00  0.83558072393E+03  0.83558072393E+03  0.00000000000E+00 0. -1.
          1   -1    0    0  503    0 -0.00000000000E+00 -0.00000000000E+00 -0.25357655078E+03  0.25357655078E+03  0.00000000000E+00 0.  1.
         21    1    1    2  503  505  0.27243473590E+02  0.47252135738E+02 -0.66644458290E+02  0.86118842339E+02  0.00000000000E+00 0.  1.
         21    1    1    2  504  501 -0.11560063611E+02 -0.13254262873E+03  0.74262252868E+03  0.75444642195E+03  0.00000000000E+00 0. -1.
         21    1    1    2  505  502  0.23768729226E+02  0.44727933709E+02  0.63519592430E+02  0.81242102172E+02  0.00000000000E+00 0. -1.
          1    1    1    2  501    0 -0.39452139206E+02  0.40562559281E+02 -0.15749348966E+03  0.16734990824E+03  0.00000000000E+00 0.  1.
<scales pt_clust_3="55.18914" pt_clust_4="14000.00000" pt_clust_5="50.65117" pt_clust_6="86.46877"></scales>
<clustering>
<clus scale="   50.651">  1  5  2 -1</clus>
<clus scale="   55.189">  2  3  1 -1</clus>
<clus scale="   86.469">  2  6  1 -1</clus>
<clus scale="   50.651">  1  3  2 -1</clus>
</clustering>
</event>
<event>
 6    0  0.4340992E+002  0.7360491E+02  0.7546771E-02  0.1348246E+00
         21   -1    0    0  501  502  0.00000000000E+00  0.00000000000E+00  0.13077321882E+03  0.13077321882E+03  0.00000000000E+00 0. -1.
         -3   -1    0    0    0  501 -0.00000000000E+00 -0.00000000000E+00 -0.23973130402E+03  0.23973130402E+03  0.00000000000E+00 0. -1.
         21    1    1    2  503  505  0.46661086038E+02  0.38229747284E+02 -0.36432431817E+01  0.60432141684E+02  0.00000000000E+00 0. -1.
         21    1    1    2  504  503 -0.14654430869E+03  0.24929566794E+02 -0.18870612773E+02  0.14984264325E+03  0.00000000000E+00 0. -1.
         21    1    1    2  505  502  0.45916629508E+02 -0.31071605433E+02 -0.26259889410E+01  0.55503849844E+02  0.00000000000E+00 0. -1.
         -3    1    1    2    0  504  0.53966593147E+02 -0.32087708645E+02 -0.83818240305E+02  0.10472588806E+03  0.00000000000E+00 0. -1.
<scales pt_clust_3="66.22725" pt_clust_4="73.60491" pt_clust_5="55.44169" pt_clust_6="14000.00000"></scales>
<clustering>
<clus scale="   55.442">  1  5  2 -1</clus>
<clus scale="   66.227">  1  3  2 -1</clus>
<clus scale="   73.605">  1  4  2 -1</clus>
<clus scale="   55.442">  1  3  2 -1</clus>
</clustering>
</event>
<event>
 6    0  0.4340992E+002  0.9159362E+02  0.7546771E-02  0.1299038E+00
         -1   -1    0    0    0  501 -0.00000000000E+00  0.00000000000E+00  0.43536309638E+03  0.43536309638E+03  0.00000000000E+00 0. -1.
         21   -1    0    0  501  502  0.00000000000E+00 -0.00000000000E+00 -0.28801812629E+03  0.28801812629E+03  0.00000000000E+00 0.  1.
         21    1    1    2  503  504 -0.11952179178E+02 -0.69559771928E+02 -0.62958584135E+00  0.70581958291E+02  0.00000000000E+00 0.  1.
         21    1    1    2  504  505  0.49858341563E+02 -0.57700501544E+02 -0.10753964751E+03  0.13183314412E+03  0.00000000000E+00 0.  1.
         21    1    1    2  505  502  0.62575270202E+01  0.40442971675E+02 -0.12325585344E+03  0.12987222955E+03  0.00000000000E+00 0.  1.
         -1    1    1    2    0  503 -0.44163689405E+02  0.86817301797E+02  0.37877005688E+03  0.39109389070E+03  0.00000000000E+00 0. -1.
<scales pt_clust_3="14000.00000" pt_clust_4="61.14187" pt_clust_5="40.92421" pt_clust_6="91.59362"></scales>
<clustering>
<clus scale="   40.924">  2  5  1 -1</clus>
<clus scale="   61.142">  2  4  1 -1</clus>
<clus scale="   91.594">  1  6  2 -1</clus>
<clus scale="   40.924">  2  3  1 -1</clus>
</clustering>
</event>
<event>
 6    0  0.4340992E+002  0.1174783E+03  0.7546771E-02  0.1247316E+00
         21   -1    0    0  501  502  0.00000000000E+00  0.00000000000E+00  0.55371145374E+03  0.55371145374E+03  0.00000000000E+00 0.  1.
          2   -1    0    0  505    0 -0.00000000000E+00 -0.00000000000E+00 -0.12332251149E+04  0.12332251149E+04  0.00000000000E+00 0.  1.
         21    1    1    2  503  502 -0.35807509824E+02 -0.11011171266E+03  0.45390830725E+03  0.46844371958E+03  0.00000000000E+00 0.  1.
         21    1    1    2  504  503 -0.84768424500E+02  0.11524356780E+03  0.26442833969E+02  0.14548535727E+03  0.00000000000E+00 0. -1.
         21    1    1    2  505  504  0.22690869869E+02  0.27777183302E+02 -0.73905548774E+02  0.82149118237E+02  0.00000000000E+00 0.  1.
          2    1    1    2  501    0  0.97885064455E+02 -0.32909038440E+02 -0.10859592536E+04  0.10908583736E+04  0.00000000000E+00 0.  1.
<scales pt_clust_3="115.57729" pt_clust_4="14000.00000" pt_clust_5="35.86708" pt_clust_6="117.47833"></scales>
<clustering>
<clus scale="   35.867">  2  5  1 -1</clus>
<clus scale="  115.577">  1  3  2 -1</clus>
<clus scale="  117.478">  2  6  1 -1</clus>
<clus scale="  115.577">  1  3  2 -1</clus>
</clustering>
</event>
<event>
 6    0  0.4340992E+002  0.1185947E+03  0.7546771E-02  0.1245433E+00
          2   -1    0    0  505    0 -0.00000000000E+00  0.00000000000E+00  0.85377116291E+03  0.85377116291E+03  0.00000000000E+00 0.  1.
         21   -1    0    0  503  502  0.00000000000E+00 -0.00000000000E+00 -0.31411272215E+03  0.31411272215E+03  0.00000000000E+00 0.  1.
         21    1    1    2  503  501  0.48231946015E+02 -0.10260749700E+03 -0.27128841559E+03  0.29402724957E+03  0.00000000000E+00 0.  1.
         21    1    1    2  504  502  0.30741818259E+02  0.15223930355E+02  0.17310774713E+02  0.38425126759E+02  0.00000000000E+00 0. -1.
         21    1    1    2  505  504 -0.12878856812E+02 -0.49233789721E+02  0.35000970443E+02  0.61764868129E+02  0.00000000000E+00 0.  1.
          2    1    1    2  501    0 -0.66094907462E+02  0.13661735636E+03  0.75863511119E+03  0.77366664061E+03  0.00000000000E+00 0.  1.
<scales pt_clust_3="118.59472" pt_clust_4="34.30492" pt_clust_5="49.91118" pt_clust_6="14000.00000"></scales>
<clustering>
<clus scale="   34.305">  2  4  1 -1</clus>
<clus scale="   49.911">  1  5  2 -1</clus>
<clus scale="  118.595">  2  3  1 -1</clus>
<clus scale="   34.305">  2  3  1 -1</clus>
</clustering>
</event>
<event>
 6    0  0.4340992E+002  0.1257528E+03  0.7546771E-02  0.1233897E+00
         21   -1    0    0  504  502  0.00000000000E+00  0.00000000000E+00  0.12442071140E+04  0.12442071140E+04  0.00000000000E+00 0. -1.
          2   -1    0    0  503    0 -0.00000000000E+00 -0.00000000000E+00 -0.59620168646E+03  0.59620168646E+03  0.00000000000E+00 0. -1.
         21    1    1    2  503  502  0.51255714207E+02  0.13381096720E+02 -0.39183703919E+02  0.65890550469E+02  0.00000000000E+00 0.  1.
         21    1    1    2  504  505 -0.14729740274E+02  0.55944688201E+02  0.11685561748E+04  0.11699873106E+04  0.00000000000E+00 0. -1.
         21    1    1    2  505  501 -0.11908646192E+03 -0.74405016797E+02 -0.27372736732E+02  0.14306277871E+03  0.00000000000E+00 0.  1.
          2    1    1    2  501    0  0.82560487988E+02  0.50792318751E+01 -0.45399430665E+03  0.46146816060E+03  0.00000000000E+00 0. -1.
<scales pt_clust_3="52.97360" pt_clust_4="57.85120" pt_clust_5="125.75278" pt_clust_6="14000.00000"></scales>
<clustering>
<clus scale="   52.974">  2  3  1 -1</clus>
<clus scale="   57.851">  1  4  2 -1</clus>
<clus scale="  125.753">  1  5  2 -1</clus>
<clus scale="   57.851">  1  3  2 -1</clus>
</clustering>
</event>
<event>
 6    0  0.5561427E+002  0.1183703E+03  0.7546771E-02  0.1245810E+00
          2   -1    0    0  503    0 -0.00000000000E+00  0.00000000000E+00  0.22670676934E+04  0.22670676934E+04  0.00000000000E+00 0.  1.
         21   -1    0    0  504  502  0.00000000000E+00 -0.00000000000E+00 -0.13588788694E+03  0.13588788694E+03  0.00000000000E+00 0. -1.
         21    1    1    2  503  505 -0.22848916864E+02 -0.26203929021E+02  0.10355134464E+03  0.10923186291E+03  0.00000000000E+00 0.  1.
         21    1    1    2  504  501  0.46646419575E+02  0.19130861317E+02  0.67958478577E+02  0.84618160725E+02  0.00000000000E+00 0. -1.
         21    1    1    2  505  502 -0.11452554369E+02  0.96481323629E+02 -0.10465857435E+03  0.14280484584E+03  0.00000000000E+00 0. -1.
          2    1    1    2  501    0 -0.12344948342E+02 -0.89408255925E+02  0.20643285576E+04  0.20663007109E+04  0.00000000000E+00 0.  1.
<scales pt_clust_3="34.76663" pt_clust_4="49.32263" pt_clust_5="14000.00000" pt_clust_6="118.37031"></scales>
<clustering>
<clus scale="   34.767">  1  3  2 -1</clus>
<clus scale="   49.323">  2  4  1 -1</clus>
<clus scale="  118.370">  1  6  2 -1</clus>
<clus scale="   49.323">  2  3  1 -1</clus>
</clustering>
</event>
<event>
 6    0  0.4340992E+002  0.1175370E+03  0.7546771E-02  0.1247216E+00
         21   -1    0    0  503  502  0.00000000000E+00  0.00000000000E+00  0.15659020899E+03  0.15659020899E+03  0.00000000000E+00 0.  1.
          2   -1    0    0  504    0 -0.00000000000E+00 -0.00000000000E+00 -0.17283370073E+04  0.17283370073E+04  0.00000000000E+00 0.  1.
         21    1    1    2  503  501  0.43658806391E+02 -0.38517620028E+02  0.11798245787E+03  0.13156579644E+03  0.00000000000E+00 0.  1.
         21    1    1    2  504  505 -0.12101599821E+03 -0.41547124194E+02 -0.15059837924E+04  0.15114093483E+04  0.00000000000E+00 0.  1.
         21    1    1    2  505  502  0.70470289596E+01  0.31959900410E+02  0.66229280972E+01  0.33391002200E+02  0.00000000000E+00 0. -1.
          2    1    1    2  501    0  0.70310162859E+02  0.48104843813E+02 -0.19036839192E+03  0.20856106934E+03  0.00000000000E+00 0.  1.
<scales pt_clust_3="50.95630" pt_clust_4="117.53701" pt_clust_5="32.72760" pt_clust_6="14000.00000"></scales>
<clustering>
<clus scale="   32.728">  1  5  2 -1</clus>
<clus scale="   50.956">  1  3  2 -1</clus>
<clus scale="  117.537">  2  4  1 -1</clus>
<clus scale="   32.728">  1  3  2 -1</clus>
</clustering>
</event>
<event>
 6    0  0.4340992E+002  0.1060693E+03  0.7546771E-02  0.1268027E+00
          4   -1    0    0  504    0 -0.00000000000E+00  0.00000000000E+00  0.91534258912E+03  0.91534258912E+03  0.00000000000E+00 0.  1.
         21   -1    0    0  505  502  0.00000000000E+00 -0.00000000000E+00 -0.19124048947E+03  0.19124048947E+03  0.00000000000E+00 0. -1.
         21    1    1    2  503  502 -0.31192992973E+02  0.19654515767E+02  0.14317027015E+01  0.36896511668E+02  0.00000000000E+00 0.  1.
         21    1    1    2  504  503 -0.36482324795E+02 -0.10179016618E+03  0.47544491275E+03  0.48758595448E+03  0.00000000000E+00 0.  1.
         21    1    1    2  505  501  0.11420751743E+03  0.47082062170E+02 -0.14218724070E+03  0.18835415852E+03  0.00000000000E+00 0. -1.
          4    1    1    2  501    0 -0.46532199663E+02  0.35053588247E+02  0.38941272490E+03  0.39374645391E+03  0.00000000000E+00 0.  1.
<scales pt_clust_3="36.86872" pt_clust_4="14000.00000" pt_clust_5="106.06930" pt_clust_6="58.71689"></scales>
<clustering>
<clus scale="   36.869">  2  3  1 -1</clus>
<clus scale="   58.717">  1  6  2 -1</clus>
<clus scale="  106.069">  2  5  1 -1</clus>
<clus scale="   36.869">  2  3  1 -1</clus>
</clustering>
</event>
<event>
 6    0  0.4340992E+002  0.1203507E+03  0.7546771E-02  0.1242520E+00
         21   -1    0    0  505  502  0.00000000000E+00  0.00000000000E+00  0.17333236492E+03  0.17333236492E+03  0.00000000000E+00 0.  1.
          1   -1    0    0  504    0 -0.00000000000E+00 -0.00000000000E+00 -0.17880586426E+03  0.17880586426E+03  0.00000000000E+00 0.  1.
         21    1    1    2  503  501  0.30324497268E+02  0.66245073799E+02 -0.70747591128E+02  0.10155395899E+03  0.00000000000E+00 0.  1.
         21    1    1    2  504  502  0.44089655896E+02 -0.84424649812E+02  0.67519675486E+02  0.11674898642E+03  0.00000000000E+00 0.  1.
         21    1    1    2  505  503 -0.45857769193E+02 -0.25426344055E+02  0.40636722736E+02  0.66338353930E+02  0.00000000000E+00 0.  1.
          1    1    1    2  501    0 -0.28556383971E+02  0.43605920069E+02 -0.42882306435E+02  0.67496929825E+02  0.00000000000E+00 0.  1.
<scales pt_clust_3="50.72272" pt_clust_4="104.34663" pt_clust_5="52.43505" pt_clust_6="50.72272"></scales>
<clustering>
<clus scale="   50.723">  3  6 -1 -1</clus>
<clus scale="   52.435">  1  5  2 -1</clus>
<clus scale="  104.347">  1  4  2 -1</clus>
<clus scale="   52.435">  1  3  2 -1</clus>
</clustering>
</event>
<event>
 6    0  0.4340992E+002  0.1866781E+03  0.7546771E-02  0.1161492E+00
         21   -1    0    0  505  502  0.00000000000E+00  0.00000000000E+00  0.27386313562E+04  0.27386313562E+04  0.00000000000E+00 0.  1.
         -1   -1    0    0    0  501 -0.00000000000E+00 -0.00000000000E+00 -0.42175206149E+03  0.42175206149E+03  0.00000000000E+00 0.  1.
         21    1    1    2  503  501  0.10453982116E+03  0.19986525280E+03  0.16484901368E+04  0.16638492794E+04  0.00000000000E+00 0.  1.
         21    1    1    2  504  502 -0.32029898761E+01 -0.55334784422E+02 -0.13593853124E+03  0.14680422946E+03  0.00000000000E+00 0.  1.
         21    1    1    2  505  503 -0.11380117582E+03 -0.11299410009E+03  0.10699752719E+04  0.10819267336E+04  0.00000000000E+00 0.  1.
         -1    1    1    2    0  504  0.12464344537E+02 -0.31536368282E+02 -0.26564758281E+03  0.26780317523E+03  0.00000000000E+00 0.  1.
<scales pt_clust_3="186.67809" pt_clust_4="84.48863" pt_clust_5="14000.00000" pt_clust_6="33.91021"></scales>
<clustering>
<clus scale="   33.910">  2  6  1 -1</clus>
<clus scale="   84.489">  2  4  1 -1</clus>
<clus scale="  186.678">  2  3  1 -1</clus>
<clus scale="  186.678">  1  3  2 -1</clus>
</clustering>
</event>
<event>
 6    0  0.4340992E+002  0.2088257E+03  0.7546771E-02  0.1142499E+00
          2   -1    0    0  503    0 -0.00000000000E+00  0.00000000000E+00  0.11208067436E+04  0.11208067436E+04  0.00000000000E+00 0. -1.
         21   -1    0    0  504  502  0.00000000000E+00 -0.00000000000E+00 -0.44632213095E+03  0.44632213095E+03  0.00000000000E+00 0.  1.
         21    1    1    2  503  502 -0.18046498614E+03  0.11008801873E+03 -0.32324698678E+03  0.38623256926E+03  0.00000000000E+00 0.  1.
         21    1    1    2  504  505  0.19835153597E+03 -0.54208793067E+02  0.28500766291E+02  0.20759147079E+03  0.00000000000E+00 0. -1.
         21    1    1    2  505  501  0.85018255267E+01 -0.35073484379E+02  0.19288933056E+03  0.19623639873E+03  0.00000000000E+00 0. -1.
          2    1    1    2  501    0 -0.26388375356E+02 -0.20805741285E+02  0.77634150261E+03  0.77706843579E+03  0.00000000000E+00 0. -1.
<scales pt_clust_3="208.82573" pt_clust_4="14000.00000" pt_clust_5="47.27529" pt_clust_6="33.60395"></scales>
<clustering>
<clus scale="   33.604">  1  6  2 -1</clus>
<clus scale="   47.275">  1  5  2 -1</clus>
<clus scale="  208.826">  2  3  1 -1</clus>
<clus scale="  208.826">  2  3  1 -1</clus>
</clustering>
</event>
<event>
 6    0  0.4340992E+002  0.9474956E+02  0.7546771E-02  0.1291741E+00
          1   -1    0    0  504    0 -0.00000000000E+00  0.00000000000E+00  0.42259428816E+03  0.42259428816E+03  0.00000000000E+00 0. -1.
         21   -1    0    0  503  502  0.00000000000E+00 -0.00000000000E+00 -0.29482736538E+03  0.29482736538E+03  0.00000000000E+00 0.  1.
         21    1    1    2  503  501  0.48677535265E+02 -0.59924319699E+02  0.17214103175E+03  0.18866096931E+03  0.00000000000E+00 0. -1.
         21    1    1    2  504  505  0.23968731725E+02  0.38060171675E+02  0.81183300782E+01  0.45705405060E+02  0.00000000000E+00 0. -1.
         21    1    1    2  505  502 -0.76750902605E+02  0.57155825007E+02 -0.25764826060E+03  0.27484562134E+03  0.00000000000E+00 0.  1.
          1    1    1    2  501    0  0.41046356152E+01 -0.35291676983E+02  0.20515582155E+03  0.20820965783E+03  0.00000000000E+00 0. -1.
<scales pt_clust_3="14000.00000" pt_clust_4="41.62176" pt_clust_5="94.74956" pt_clust_6="35.52957"></scales>
<clustering>
<clus scale="   35.530">  1  6  2 -1</clus>
<clus scale="   41.622">  1  4  2 -1</clus>
<clus scale="   94.750">  2  5  1 -1</clus>
<clus scale="   94.750">  2  3  1 -1</clus>
</clustering>
</event>
<event>
 6    0  0.4340992E+002  0.1138227E+03  0.7546771E-02  0.1253650E+00
          1   -1    0    0  504    0 -0.00000000000E+00  0.00000000000E+00  0.70831885355E+03  0.70831885355E+03  0.00000000000E+00 0.  1.
         21   -1    0    0  505  502  0.00000000000E+00 -0.00000000000E+00 -0.16929111368E+03  0.16929111368E+03  0.00000000000E+00 0.  1.
         21    1    1    2  503  502 -0.54995836753E+02 -0.27199596952E+02 -0.25931099402E+02  0.66609173923E+02  0.00000000000E+00 0.  1.
         21    1    1    2  504  503 -0.63775033156E+02 -0.12302171883E+02  0.21057234555E+03  0.22036177299E+03  0.00000000000E+00 0.  1.
         21    1    1    2  505  501  0.27200715485E+02 -0.85846180089E+02 -0.85493665503E+02  0.12417170531E+03  0.00000000000E+00 0.  1.
          1    1    1    2  501    0  0.91570154424E+02  0.12534794892E+03  0.43988015923E+03  0.46646731500E+03  0.00000000000E+00 0.  1.
<scales pt_clust_3="61.35438" pt_clust_4="67.30738" pt_clust_5="113.82274" pt_clust_6="14000.00000"></scales>
<clustering>
<clus scale="   61.354">  2  3  1 -1</clus>
<clus scale="   67.307">  1  4  2 -1</clus>
<clus scale="  113.823">  2  5  1 -1</clus>
<clus scale="   61.354">  2  3  1 -1</clus>
</clustering>
</event>
<event>
 6    0  0.4340992E+002  0.2008192E+03  0.7546771E-02  0.1149050E+00
          2   -1    0    0  505    0 -0.00000000000E+00  0.00000000000E+00  0.28792718366E+04  0.28792718366E+04  0.00000000000E+00 0.  1.
         21   -1    0    0  501  502  0.00000000000E+00 -0.00000000000E+00 -0.54586201034E+02  0.54586201034E+02  0.00000000000E+00 0. -1.
         21    1    1    2  503  504  0.55505009270E+02 -0.11030907456E+03  0.42688770406E+03  0.44438947991E+03  0.00000000000E+00 0. -1.
         21    1    1    2  504  502 -0.18558640139E+03 -0.78837089197E+02  0.23779112680E+03  0.31177270406E+03  0.00000000000E+00 0. -1.
         21    1    1    2  505  503 -0.20154078711E+02  0.48133663289E+02  0.19311715440E+03  0.20004317472E+03  0.00000000000E+00 0.  1.
          2    1    1    2  501    0  0.15023547083E+03  0.14101250047E+03  0.19668896503E+04  0.19776526789E+04  0.00000000000E+00 0.  1.
<scales pt_clust_3="115.03461" pt_clust_4="200.81925" pt_clust_5="52.18272" pt_clust_6="14000.00000"></scales>
<clustering>
<clus scale="   52.183">  1  5  2 -1</clus>
<clus scale="  115.035">  1  3  2 -1</clus>
<clus scale="  200.819">  2  4  1 -1</clus>
<clus scale="  200.819">  2  3  1 -1</clus>
</clustering>
</event>
<event>
 6    0  0.4340992E+002  0.1301151E+03  0.7546771E-02  0.1227285E+00
         21   -1    0    0  503  502  0.00000000000E+00  0.00000000000E+00  0.27109081986E+02  0.27109081986E+02  0.00000000000E+00 0. -1.
          2   -1    0    0  502    0 -0.00000000000E+00 -0.00000000000E+00 -0.30641620451E+04  0.30641620451E+04  0.00000000000E+00 0.  1.
         21    1    1    2  503  505  0.87361869179E+02  0.59645945790E-01 -0.78855986831E+02  0.11768757965E+03  0.00000000000E+00 0. -1.
         21    1    1    2  504  501 -0.66923196248E+02 -0.36540389299E+02 -0.16959339954E+04  0.16976472046E+04  0.00000000000E+00 0.  1.
         21    1    1    2  505  504  0.30702272769E+02  0.26940790918E+02 -0.60207283649E+02  0.72755431226E+02  0.00000000000E+00 0. -1.
          2    1    1    2  501    0 -0.51140945700E+02  0.95399524351E+01 -0.12020556972E+04  0.12031809117E+04  0.00000000000E+00 0.  1.
<scales pt_clust_3="32.51934" pt_clust_4="34.95986" pt_clust_5="32.51934" pt_clust_6="128.29459"></scales>
<clustering>
<clus scale="   32.519">  3  5 -1 -1</clus>
<clus scale="   34.960">  4  6 -1 -1</clus>
<clus scale="  128.295">  2  4  1 -1</clus>
<clus scale="  130.115">  1  3  2 -1</clus>
</clustering>
</event>
<event>
 6    0  0.4340992E+002  0.8926012E+02  0.7546771E-02  0.1304653E+00
         21   -1    0    0  504  502  0.00000000000E+00  0.00000000000E+00  0.79531274986E+02  0.79531274986E+02  0.00000000000E+00 0. -1.
          4   -1    0    0  503    0 -0.00000000000E+00 -0.00000000000E+00 -0.77305247096E+03  0.77305247096E+03  0.00000000000E+00 0. -1.
         21    1    1    2  503  502 -0.13202598421E+03  0.21043036008E+02 -0.16100751175E+02  0.13465847192E+03  0.00000000000E+00 0. -1.
         21    1    1    2  504  505  0.35178297198E+02 -0.24291374177E+02 -0.15477100469E+02  0.45465636387E+02  0.00000000000E+00 0. -1.
         21    1    1    2  505  501  0.51867834680E+02 -0.23583437934E+02 -0.21364878975E+03  0.22111593380E+03  0.00000000000E+00 0. -1.
          4    1    1    2  501    0  0.44979852337E+02  0.26831776103E+02 -0.44829455457E+03  0.45134370383E+03  0.00000000000E+00 0. -1.
<scales pt_clust_3="89.26012" pt_clust_4="42.75025" pt_clust_5="14000.00000" pt_clust_6="52.80261"></scales>
<clustering>
<clus scale="   42.750">  1  4  2 -1</clus>
<clus scale="   52.803">  2  6  1 -1</clus>
<clus scale="   89.260">  1  3  2 -1</clus>
<clus scale="   42.750">  1  3  2 -1</clus>
</clustering>
</event>
<event>
 6    0  0.4340992E+002  0.1816018E+03  0.7546771E-02  0.1166262E+00
          2   -1    0    0  505    0 -0.00000000000E+00  0.00000000000E+00  0.12627406722E+04  0.12627406722E+04  0.00000000000E+00 0. -1.
         21   -1    0    0  503  502  0.00000000000E+00 -0.00000000000E+00 -0.66468712748E+03  0.66468712748E+03  0.00000000000E+00 0. -1.
         21    1    1    2  503  504  0.17501773935E+02 -0.33350398842E+02 -0.23769438667E+03  0.24065988999E+03  0.00000000000E+00 0.  1.
         21    1    1    2  504  501 -0.17693081780E+03  0.12108334167E+03 -0.38357761695E+03  0.43942858139E+03  0.00000000000E+00 0. -1.
         21    1    1    2  505  502  0.72998166922E+02 -0.13019499737E+02  0.11316353905E+03  0.13529311260E+03  0.00000000000E+00 0. -1.
          2    1    1    2  501    0  0.86430876942E+02 -0.74713443095E+02  0.11061620092E+04  0.11120462157E+04  0.00000000000E+00 0. -1.
<scales pt_clust_3="37.66379" pt_clust_4="14000.00000" pt_clust_5="74.75443" pt_clust_6="181.60182"></scales>
<clustering>
<clus scale="   37.664">  2  3  1 -1</clus>
<clus scale="   74.754">  1  5  2 -1</clus>
<clus scale="  181.602">  1  6  2 -1</clus>
<clus scale="   37.664">  2  3  1 -1</clus>
</clustering>
</event>
<event>
 6    0  0.4340992E+002  0.2354683E+03  0.7546771E-02  0.1122849E+00
         21   -1    0    0  504  502  0.00000000000E+00  0.00000000000E+00  0.41421078371E+02  0.41421078371E+02  0.00000000000E+00 0.  1.
          2   -1    0    0  505    0 -0.00000000000E+00 -0.00000000000E+00 -0.26100423012E+04  0.26100423012E+04  0.00000000000E+00 0.  1.
         21    1    1    2  503  501 -0.26407060922E+01 -0.81818204131E+02 -0.72545815997E+03  0.73006214374E+03  0.00000000000E+00 0. -1.
         21    1    1    2  504  503 -0.30620646888E+02  0.29746043371E+02 -0.36380432637E+02  0.56089098681E+02  0.00000000000E+00 0.  1.
         21    1    1    2  505  502  0.11416195833E+03  0.18656522669E+03 -0.45930192898E+03  0.50872172993E+03  0.00000000000E+00 0.  1.
          2    1    1    2  501    0 -0.80900605351E+02 -0.13449306593E+03 -0.13474807012E+04  0.13565904072E+04  0.00000000000E+00 0.  1.
<scales pt_clust_3="41.32113" pt_clust_4="42.69018" pt_clust_5="228.41125" pt_clust_6="41.32113"></scales>
<clustering>
<clus scale="   41.321">  3  6 -1 -1</clus>
<clus scale="   42.690">  1  4  2 -1</clus>
<clus scale="  228.411">  1  5  2 -1</clus>
<clus scale="   42.690">  1  3  2 -1</clus>
</clustering>
</event>
<event>
 6    0  0.4340992E+002  0.6924442E+02  0.7546771E-02  0.1362681E+00
          2   -1    0    0  505    0 -0.00000000000E+00  0.00000000000E+00  0.94356833750E+03  0.94356833750E+03  0.00000000000E+00 0. -1.
         21   -1    0    0  504  502  0.00000000000E+00 -0.00000000000E+00 -0.71676073769E+02  0.71676073769E+02  0.00000000000E+00 0.  1.
         21    1    1    2  503  501  0.52671187330E+02 -0.51640235578E+01  0.30149307170E+03  0.30610291309E+03  0.00000000000E+00 0.  1.
         21    1    1    2  504  503 -0.48810529867E+02 -0.46347542507E+02 -0.31672281412E+02  0.74388815907E+02  0.00000000000E+00 0.  1.
         21    1    1    2  505  502 -0.27752758715E+02  0.88306736329E+02  0.12434532124E+03  0.15501630305E+03  0.00000000000E+00 0.  1.
          2    1    1    2  501    0  0.23892101252E+02 -0.36795170264E+02  0.47772615219E+03  0.47973637922E+03  0.00000000000E+00 0. -1.
<scales pt_clust_3="14000.00000" pt_clust_4="67.70653" pt_clust_5="69.24442" pt_clust_6="43.87160"></scales>
<clustering>
<clus scale="   43.872">  1  6  2 -1</clus>
<clus scale="   67.707">  2  4  1 -1</clus>
<clus scale="   69.244">  2  5  1 -1</clus>
<clus scale="   67.707">  2  3  1 -1</clus>
</clustering>
</event>
<event>
 6    0  0.4340992E+002  0.1021211E+03  0.7546771E-02  0.1275898E+00
         21   -1    0    0  505  502  0.00000000000E+00  0.00000000000E+00  0.13732190697E+02  0.13732190697E+02  0.00000000000E+00 0. -1.
          2   -1    0    0  503    0 -0.00000000000E+00 -0.00000000000E+00 -0.26066727170E+04  0.26066727170E+04  0.00000000000E+00 0.  1.
         21    1    1    2  503  502 -0.12830525220E+03  0.93764687078E+02 -0.90365528598E+03  0.91752216876E+03  0.00000000000E+00 0. -1.
         21    1    1    2  504  501  0.27784796947E+02 -0.68578738621E+02 -0.31595020157E+03  0.32449894946E+03  0.00000000000E+00 0. -1.
         21    1    1    2  505  504  0.32036799195E+02 -0.52572256160E+01 -0.17895504877E+03  0.18187606881E+03  0.00000000000E+00 0.  1.
          2    1    1    2  501    0  0.68483656060E+02 -0.19928722841E+02 -0.11943799900E+04  0.11965077207E+04  0.00000000000E+00 0.  1.
<scales pt_clust_3="14000.00000" pt_clust_4="102.12108" pt_clust_5="32.46529" pt_clust_6="74.11922"></scales>
<clustering>
<clus scale="   32.465">  1  5  2 -1</clus>
<clus scale="   74.119">  2  6  1 -1</clus>
<clus scale="  102.121">  1  4  2 -1</clus>
<clus scale="   32.465">  1  3  2 -1</clus>
</clustering>
</event>
<event>
 6    0  0.4340992E+002  0.1247676E+03  0.7546771E-02  0.1235433E+00
         21   -1    0    0  504  502  0.00000000000E+00  0.00000000000E+00  0.26649385745E+04  0.26649385745E+04  0.00000000000E+00 0.  1.
          3   -1    0    0  503    0 -0.00000000000E+00 -0.00000000000E+00 -0.54713848687E+02  0.54713848687E+02  0.00000000000E+00 0.  1.
         21    1    1    2  503  502 -0.34138128234E+02  0.85801982478E+02  0.18306879857E+04  0.18330155191E+04  0.00000000000E+00 0.  1.
         21    1    1    2  504  505  0.12176493195E+03 -0.11137056011E+02  0.74489536215E+03  0.75486411574E+03  0.00000000000E+00 0.  1.
         21    1    1    2  505  501 -0.55830780253E+02 -0.48592093249E+02  0.48373922333E+02  0.88421173436E+02  0.00000000000E+00 0.  1.
          3    1    1    2  501    0 -0.31796023463E+02 -0.26072833217E+02 -0.13732544437E+02  0.43351614927E+02  0.00000000000E+00 0.  1.
<scales pt_clust_3="92.34388" pt_clust_4="112.49982" pt_clust_5="40.21261" pt_clust_6="40.21261"></scales>
<clustering>
<clus scale="   40.213">  5  6 -1 -1</clus>
<clus scale="   92.344">  1  3  2 -1</clus>
<clus scale="  112.500">  1  4  2 -1</clus>
<clus scale="   92.344">  1  3  2 -1</clus>
</clustering>
</event>
<event>
 6    0  0.4340992E+002  0.7403159E+02  0.7546771E-02  0.1346896E+00
         -2   -1    0    0    0  501 -0.00000000000E+00  0.00000000000E+00  0.11466832054E+04  0.11466832054E+04  0.00000000000E+00 0. -1.
         21   -1    0    0  503  502  0.00000000000E+00 -0.00000000000E+00 -0.51212383948E+02  0.51212383948E+02  0.00000000000E+00 0.  1.
         21    1    1    2  503  501 -0.56425306092E+02  0.61254332258E+02  0.60437757188E+03  0.61008864748E+03  0.00000000000E+00 0. -1.
         21    1    1    2  504  502  0.34781409613E+02 -0.85781671154E+01 -0.16564919862E+01  0.35861893026E+02  0.00000000000E+00 0. -1.
         21    1    1    2  505  504 -0.58248867094E+02 -0.57508889604E+02  0.38070764862E+02  0.90275057675E+02  0.00000000000E+00 0.  1.
         -2    1    1    2    0  505  0.79892763573E+02  0.48327244608E+01  0.45467897673E+03  0.46166999120E+03  0.00000000000E+00 0. -1.
<scales pt_clust_3="74.03159" pt_clust_4="35.82362" pt_clust_5="71.16850" pt_clust_6="14000.00000"></scales>
<clustering>
<clus scale="   35.824">  2  4  1 -1</clus>
<clus scale="   71.168">  2  5  1 -1</clus>
<clus scale="   74.032">  1  3  2 -1</clus>
<clus scale="   35.824">  2  3  1 -1</clus>
</clustering>
</event>
<event>
 6    0  0.4340992E+002  0.7896455E+02  0.7546771E-02  0.1332016E+00
         21   -1    0    0  505  502  0.00000000000E+00  0.00000000000E+00  0.13156383317E+04  0.13156383317E+04  0.00000000000E+00 0.  1.
          1   -1    0    0  503    0 -0.00000000000E+00 -0.00000000000E+00 -0.86328819334E+03  0.86328819334E+03  0.00000000000E+00 0.  1.
         21    1    1    2  503  504 -0.22490442260E+02 -0.56314231078E+02 -0.14918402870E+03  0.16103722252E+03  0.00000000000E+00 0.  1.
         21    1    1    2  504  502  0.88445525899E+01 -0.31203342502E+02  0.65133008925E+03  0.65213707137E+03  0.00000000000E+00 0.  1.
         21    1    1    2  505  501 -0.65199069595E+02  0.38093958221E+02  0.65273344780E+03  0.65708676916E+03  0.00000000000E+00 0.  1.
          1    1    1    2  501    0  0.78844959265E+02  0.49423615359E+02 -0.70252936997E+03  0.70866546200E+03  0.00000000000E+00 0.  1.
<scales pt_clust_3="78.96455" pt_clust_4="32.43262" pt_clust_5="56.94591" pt_clust_6="14000.00000"></scales>
<clustering>
<clus scale="   32.433">  1  4  2 -1</clus>
<clus scale="   56.946">  1  5  2 -1</clus>
<clus scale="   78.965">  1  3  2 -1</clus>
<clus scale="   32.433">  1  3  2 -1</clus>
</clustering>
</event>
<event>
 6    0  0.4340992E+002  0.7829878E+02  0.7546771E-02  0.1333950E+00
         21   -1    0    0  503  502  0.00000000000E+00  0.00000000000E+00  0.23901413026E+03  0.23901413026E+03  0.00000000000E+00 0.  1.
          3   -1    0    0  505    0 -0.00000000000E+00 -0.00000000000E+00 -0.38567764104E+03  0.38567764104E+03  0.00000000000E+00 0. -1.
         21    1    1    2  503  501  0.37736151945E+02  0.91894343300E+02  0.12829417133E+03  0.16225899633E+03  0.00000000000E+00 0.  1.
         21    1    1    2  504  502 -0.30029070579E+02 -0.94223730780E+01  0.23308191803E+01  0.31558816713E+02  0.00000000000E+00 0.  1.
         21    1    1    2  505  504 -0.41673172291E+02 -0.11561084772E+02  0.65883708234E+02  0.78809739123E+02  0.00000000000E+00 0.  1.
          3    1    1    2  501    0  0.33966090925E+02 -0.70910885450E+02 -0.34317220952E+03  0.35206421913E+03  0.00000000000E+00 0. -1.
<scales pt_clust_3="78.29878" pt_clust_4="31.47263" pt_clust_5="53.49576" pt_clust_6="14000.00000"></scales>
<clustering>
<clus scale="   31.473">  1  4  2 -1</clus>
<clus scale="   53.496">  1  5  2 -1</clus>
<clus scale="   78.299">  1  3  2 -1</clus>
<clus scale="   31.473">  1  3  2 -1</clus>
</clustering>
</event>
<event>
 6    0  0.4340992E+002  0.1515731E+03  0.7546771E-02  0.1198553E+00
          2   -1    0    0  503    0 -0.00000000000E+00  0.00000000000E+00  0.20541783012E+04  0.20541783012E+04  0.00000000000E+00 0.  1.
         21   -1    0    0  504  502  0.00000000000E+00 -0.00000000000E+00 -0.46565209143E+02  0.46565209143E+02  0.00000000000E+00 0.  1.
         21    1    1    2  503  505  0.40892609349E+02  0.25613207856E+02  0.39956516754E+03  0.40246809194E+03  0.00000000000E+00 0. -1.
         21    1    1    2  504  501 -0.72288666613E+02 -0.92452047500E+01  0.76001947889E+02  0.10529682433E+03  0.00000000000E+00 0.  1.
         21    1    1    2  505  502  0.84391454586E+02 -0.14551874464E+03  0.23813009815E+03  0.29155371082E+03  0.00000000000E+00 0.  1.
          2    1    1    2  501    0 -0.52995397323E+02  0.12915074153E+03  0.12939158785E+04  0.13014248833E+04  0.00000000000E+00 0.  1.
<scales pt_clust_3="48.25186" pt_clust_4="70.48383" pt_clust_5="14000.00000" pt_clust_6="151.57312"></scales>
<clustering>
<clus scale="   48.252">  1  3  2 -1</clus>
<clus scale="   70.484">  2  4  1 -1</clus>
<clus scale="  151.573">  1  6  2 -1</clus>
<clus scale="   70.484">  2  3  1 -1</clus>
</clustering>
</event>
<event>
 6    0  0.4340992E+002  0.1655732E+03  0.7546771E-02  0.1182545E+00
         21   -1    0    0  504  502  0.00000000000E+00  0.00000000000E+00  0.21312158707E+03  0.21312158707E+03  0.00000000000E+00 0. -1.
          2   -1    0    0  503    0 -0.00000000000E+00 -0.00000000000E+00 -0.65300109805E+03  0.65300109805E+03  0.00000000000E+00 0.  1.
         21    1    1    2  503  502 -0.15871786654E+03 -0.70354637857E+02  0.12661815791E+03  0.21487972017E+03  0.00000000000E+00 0. -1.
         21    1    1    2  504  505  0.51840946370E+01  0.32154454858E+02  0.22525285492E+02  0.39600155188E+02  0.00000000000E+00 0. -1.
         21    1    1    2  505  501  0.83088557791E+02  0.13506498372E+02 -0.22947886876E+03  0.24443135057E+03  0.00000000000E+00 0.  1.
          2    1    1    2  501    0  0.70445214109E+02  0.24693684627E+02 -0.35954408562E+03  0.36721145919E+03  0.00000000000E+00 0.  1.
<scales pt_clust_3="159.02034" pt_clust_4="32.56968" pt_clust_5="43.41476" pt_clust_6="43.41476"></scales>
<clustering>
<clus scale="   32.570">  1  4  2 -1</clus>
<clus scale="   43.415">  5  6 -1 -1</clus>
<clus scale="  159.020">  1  3  2 -1</clus>
<clus scale="   32.570">  1  3  2 -1</clus>
</clustering>
</event>
<event>
 6    0  0.4340992E+002  0.6848934E+02  0.7546771E-02  0.1365307E+00
          2   -1    0    0  504    0 -0.00000000000E+00  0.00000000000E+00  0.33830910660E+03  0.33830910660E+03  0.00000000000E+00 0. -1.
         21   -1    0    0  505  502  0.00000000000E+00 -0.00000000000E+00 -0.79387186715E+02  0.79387186715E+02  0.00000000000E+00 0. -1.
         21    1    1    2  503  502 -0.83228668512E+02  0.14985402081E+02  0.48689158229E+02  0.97581799875E+02  0.00000000000E+00 0. -1.
         21    1    1    2  504  503 -0.37997991444E+02 -0.85455473654E+01  0.87671406345E+02  0.95933045527E+02  0.00000000000E+00 0. -1.
         21    1    1    2  505  501  0.43916663568E+02  0.19935148005E+02 -0.25890892311E+02  0.54739581379E+02  0.00000000000E+00 0. -1.
          2    1    1    2  501    0  0.77309996389E+02 -0.26375002721E+02  0.14845224762E+03  0.16944186653E+03  0.00000000000E+00 0. -1.
<scales pt_clust_3="68.48934" pt_clust_4="38.94706" pt_clust_5="46.00051" pt_clust_6="14000.00000"></scales>
<clustering>
<clus scale="   38.947">  1  4  2 -1</clus>
<clus scale="   46.001">  2  5  1 -1</clus>
<clus scale="   68.489">  2  3  1 -1</clus>
<clus scale="   46.001">  2  3  1 -1</clus>
</clustering>
</event>
<event>
 6    0  0.4340992E+002  0.8447032E+02  0.7546771E-02  0.1316824E+00
         -1   -1    0    0    0  501 -0.00000000000E+00  0.00000000000E+00  0.23924544675E+03  0.23924544675E+03  0.00000000000E+00 0. -1.
         21   -1    0    0  503  502  0.00000000000E+00 -0.00000000000E+00 -0.37885275537E+03  0.37885275537E+03  0.00000000000E+00 0.  1.
         21    1    1    2  503  505  0.84723054019E+02 -0.56361448587E+02 -0.17813534001E+02  0.10330503745E+03  0.00000000000E+00 0.  1.
         21    1    1    2  504  502 -0.46880911111E+02 -0.19121307474E+02 -0.29850179177E+03  0.30276519601E+03  0.00000000000E+00 0.  1.
         21    1    1    2  505  501  0.22340650126E+02  0.25610723569E+02  0.28016337429E+02  0.44044624788E+02  0.00000000000E+00 0.  1.
         -1    1    1    2    0  504 -0.60182793034E+02  0.49872032492E+02  0.14869167971E+03  0.16798334387E+03  0.00000000000E+00 0. -1.
<scales pt_clust_3="84.47032" pt_clust_4="50.31227" pt_clust_5="33.98549" pt_clust_6="14000.00000"></scales>
<clustering>
<clus scale="   33.985">  1  5  2 -1</clus>
<clus scale="   50.312">  2  4  1 -1</clus>
<clus scale="   84.470">  2  3  1 -1</clus>
<clus scale="   50.312">  2  3  1 -1</clus>
</clustering>
</event>
<event>
 6    0  0.4340992E+002  0.9147016E+02  0.7546771E-02  0.1299330E+00
         21   -1    0    0  501  502  0.00000000000E+00  0.00000000000E+00  0.53727794980E+03  0.53727794980E+03  0.00000000000E+00 0. -1.
          2   -1    0    0  505    0 -0.00000000000E+00 -0.00000000000E+00 -0.20979306911E+03  0.20979306911E+03  0.00000000000E+00 0.  1.
         21    1    1    2  503  502 -0.36541042091E+02 -0.21688355067E+01  0.23731222789E+03  0.24011881457E+03  0.00000000000E+00 0. -1.
         21    1    1    2  504  503  0.18089578954E+02 -0.89552296112E+02  0.26225967719E+03  0.27771745514E+03  0.00000000000E+00 0. -1.
         21    1    1    2  505  504 -0.45184447190E+02  0.28837300076E+02 -0.30276572794E+02  0.61562123125E+02  0.00000000000E+00 0.  1.
          2    1    1    2  501    0  0.63635910327E+02  0.62883831543E+02 -0.14181045160E+03  0.16767262608E+03  0.00000000000E+00 0.  1.
<scales pt_clust_3="36.60535" pt_clust_4="91.47016" pt_clust_5="55.16667" pt_clust_6="14000.00000"></scales>
<clustering>
<clus scale="   36.605">  1  3  2 -1</clus>
<clus scale="   55.167">  2  5  1 -1</clus>
<clus scale="   91.470">  1  4  2 -1</clus>
<clus scale="   36.605">  1  3  2 -1</clus>
</clustering>
</event>
<event>
 6    0  0.4340992E+002  0.1081439E+03  0.7546771E-02  0.1264046E+00
          2   -1    0    0  505    0 -0.00000000000E+00  0.00000000000E+00  0.41000252745E+03  0.41000252745E+03  0.00000000000E+00 0. -1.
         21   -1    0    0  504  502  0.00000000000E+00 -0.00000000000E+00 -0.22525364129E+03  0.22525364129E+03  0.00000000000E+00 0. -1.
         21    1    1    2  503  501 -0.12240434295E+03  0.83229099537E+02 -0.14560371257E+03  0.20763031402E+03  0.00000000000E+00 0. -1.
         21    1    1    2  504  503  0.34828846354E+02 -0.92842048860E+01 -0.26888001762E+02  0.44968985284E+02  0.00000000000E+00 0. -1.
         21    1    1    2  505  502  0.46097908070E+02 -0.52361500095E+02  0.10462348601E+03  0.12574902642E+03  0.00000000000E+00 0.  1.
          2    1    1    2  501    0  0.41477588529E+02 -0.21583394556E+02  0.25261711449E+03  0.25690784302E+03  0.00000000000E+00 0. -1.
<scales pt_clust_3="14000.00000" pt_clust_4="36.04504" pt_clust_5="108.14390" pt_clust_6="47.15592"></scales>
<clustering>
<clus scale="   36.045">  2  4  1 -1</clus>
<clus scale="   47.156">  1  6  2 -1</clus>
<clus scale="  108.144">  1  5  2 -1</clus>
<clus scale="   36.045">  2  3  1 -1</clus>
</clustering>
</event>
<event>
 6    0  0.4340992E+002  0.1969826E+03  0.7546771E-02  0.1152310E+00
          2   -1    0    0  503    0 -0.00000000000E+00  0.00000000000E+00  0.15455170484E+04  0.15455170484E+04  0.00000000000E+00 0.  1.
         21   -1    0    0  505  502  0.00000000000E+00 -0.00000000000E+00 -0.16005235114E+03  0.16005235114E+03  0.00000000000E+00 0.  1.
         21    1    1    2  503  502  0.14082224701E+03 -0.16044758139E+03  0.87430596255E+03  0.89999180428E+03  0.00000000000E+00 0.  1.
         21    1    1    2  504  501  0.80631563479E+02  0.19295990948E+03  0.15704889822E+03  0.26153265977E+03  0.00000000000E+00 0.  1.
         21    1    1    2  505  504 -0.35270495361E+02 -0.78893210854E+02 -0.47746728516E+02  0.98731436969E+02  0.00000000000E+00 0.  1.
          2    1    1    2  501    0 -0.18618331513E+03  0.46380882772E+02  0.40185656498E+03  0.44531349849E+03  0.00000000000E+00 0.  1.
<scales pt_clust_3="14000.00000" pt_clust_4="157.14574" pt_clust_5="86.41844" pt_clust_6="196.98257"></scales>
<clustering>
<clus scale="   86.418">  2  5  1 -1</clus>
<clus scale="  157.146">  2  4  1 -1</clus>
<clus scale="  196.983">  2  6  1 -1</clus>
<clus scale="   86.418">  2  3  1 -1</clus>
</clustering>
</event>
<event>
 6    0  0.4340992E+002  0.1137175E+03  0.7546771E-02  0.1253836E+00
         21   -1    0    0  503  502  0.00000000000E+00  0.00000000000E+00  0.14928713231E+03  0.14928713231E+03  0.00000000000E+00 0.  1.
          1   -1    0    0  502    0 -0.00000000000E+00 -0.00000000000E+00 -0.19534611521E+04  0.19534611521E+04  0.00000000000E+00 0.  1.
         21    1    1    2  503  504 -0.47545586674E+02 -0.46088417095E+02  0.69053441039E+02  0.95671849161E+02  0.00000000000E+00 0. -1.
         21    1    1    2  504  505  0.50384425859E+02 -0.78047647628E+02  0.27521847414E+02  0.96888997076E+02  0.00000000000E+00 0.  1.
         21    1    1    2  505  501  0.20880544469E+02  0.83205964561E+02 -0.41943311829E+03  0.42811607117E+03  0.00000000000E+00 0. -1.
          1    1    1    2  501    0 -0.23719383654E+02  0.40930100162E+02 -0.14813161900E+04  0.14820713670E+04  0.00000000000E+00 0.  1.
<scales pt_clust_3="65.90676" pt_clust_4="14000.00000" pt_clust_5="113.71750" pt_clust_6="47.30626"></scales>
<clustering>
<clus scale="   47.306">  2  6  1 -1</clus>
<clus scale="   65.907">  1  3  2 -1</clus>
<clus scale="  113.717">  2  5  1 -1</clus>
<clus scale="   65.907">  1  3  2 -1</clus>
</clustering>
</event>
<event>
 6    0  0.4340992E+002  0.2950054E+03  0.7546771E-02  0.1087764E+00
          2   -1    0    0  503    0 -0.00000000000E+00  0.00000000000E+00  0.17489862678E+04  0.17489862678E+04  0.00000000000E+00 0. -1.
         21   -1    0    0  504  502  0.00000000000E+00 -0.00000000000E+00 -0.25636410383E+03  0.25636410383E+03  0.00000000000E+00 0. -1.
         21    1    1    2  503  502  0.11530412023E+03  0.12698743320E+03  0.17049780516E+03  0.24184778250E+03  0.00000000000E+00 0. -1.
         21    1    1    2  504  505 -0.23700296203E+03 -0.37209217929E+03  0.31777782579E+02  0.44230399203E+03  0.00000000000E+00 0. -1.
         21    1    1    2  505  501  0.37780106673E+02  0.92509635737E+02  0.31638659811E+03  0.33179187547E+03  0.00000000000E+00 0.  1.
          2    1    1    2  501    0  0.83918735131E+02  0.15259511035E+03  0.97395997809E+03  0.98940672159E+03  0.00000000000E+00 0. -1.
<scales pt_clust_3="171.52507" pt_clust_4="285.20810" pt_clust_5="57.11204" pt_clust_6="57.11204"></scales>
<clustering>
<clus scale="   57.112">  5  6 -1 -1</clus>
<clus scale="  171.525">  2  3  1 -1</clus>
<clus scale="  285.208">  2  4  1 -1</clus>
<clus scale="  171.525">  2  3  1 -1</clus>
</clustering>
</event>
<event>
 6    0  0.4340992E+002  0.6272420E+02  0.7546771E-02  0.1386743E+00
          1   -1    0    0  503    0 -0.00000000000E+00  0.00000000000E+00  0.26699211740E+04  0.26699211740E+04  0.00000000000E+00 0.  1.
         21   -1    0    0  505  502  0.00000000000E+00 -0.00000000000E+00 -0.31392880966E+03  0.31392880966E+03  0.00000000000E+00 0. -1.
         21    1    1    2  503  504 -0.31796920647E+02 -0.12021990242E+02  0.11089436774E+03  0.11598764248E+03  0.00000000000E+00 0. -1.
         21    1    1    2  504  502 -0.55997864395E+01 -0.10237510934E+03 -0.26229792773E+03  0.28162425945E+03  0.00000000000E+00 0. -1.
         21    1    1    2  505  501  0.22339138848E+02  0.42356065439E+02 -0.24144099436E+02  0.53628452723E+02  0.00000000000E+00 0. -1.
          1    1    1    2  501    0  0.15057568238E+02  0.72041034142E+02  0.25315400238E+04  0.25326096291E+04  0.00000000000E+00 0.  1.
<scales pt_clust_3="33.99371" pt_clust_4="62.72420" pt_clust_5="47.73936" pt_clust_6="14000.00000"></scales>
<clustering>
<clus scale="   33.994">  1  3  2 -1</clus>
<clus scale="   47.739">  2  5  1 -1</clus>
<clus scale="   62.724">  2  4  1 -1</clus>
<clus scale="   47.739">  2  3  1 -1</clus>
</clustering>
</event>
<event>
 6    0  0.4340992E+002  0.9265747E+02  0.7546771E-02  0.1296541E+00
         21   -1    0    0  503  502  0.00000000000E+00  0.00000000000E+00  0.30352791583E+02  0.30352791583E+02  0.00000000000E+00 0. -1.
          2   -1    0    0  504    0 -0.00000000000E+00 -0.00000000000E+00 -0.10612049212E+04  0.10612049212E+04  0.00000000000E+00 0.  1.
         21    1    1    2  503  501  0.24103938101E+02  0.33702438387E+02 -0.84066813595E+02  0.93723440681E+02  0.00000000000E+00 0.  1.
         21    1    1    2  504  505  0.31914317694E+02  0.83694422422E+01 -0.48383268719E+03  0.48495632837E+03  0.00000000000E+00 0.  1.
         21    1    1    2  505  502 -0.20426653250E+02 -0.12005400016E+03 -0.18077488560E+03  0.21796736081E+03  0.00000000000E+00 0. -1.
          2    1    1    2  501    0 -0.35591602545E+02  0.77982119531E+02 -0.28217774327E+03  0.29491058295E+03  0.00000000000E+00 0.  1.
<scales pt_clust_3="45.46164" pt_clust_4="32.99350" pt_clust_5="14000.00000" pt_clust_6="92.65747"></scales>
<clustering>
<clus scale="   32.994">  2  4  1 -1</clus>
<clus scale="   45.462">  1  3  2 -1</clus>
<clus scale="   92.657">  2  6  1 -1</clus>
<clus scale="   45.462">  1  3  2 -1</clus>
</clustering>
</event>
<event>
 6    0  0.4340992E+002  0.1385493E+03  0.7546771E-02  0.1215294E+00
          2   -1    0    0  505    0 -0.00000000000E+00  0.00000000000E+00  0.23121534704E+04  0.23121534704E+04  0.00000000000E+00 0. -1.
         21   -1    0    0  503  502  0.00000000000E+00 -0.00000000000E+00 -0.22784792611E+03  0.22784792611E+03  0.00000000000E+00 0. -1.
         21    1    1    2  503  504 -0.71732858581E+02 -0.99369440081E+01 -0.15307866326E+03  0.16934409645E+03  0.00000000000E+00 0. -1.
         21    1    1    2  504  501 -0.56932575211E+02  0.13375699359E+02 -0.50867808840E+02  0.77509750546E+02  0.00000000000E+00 0. -1.
         21    1    1    2  505  502  0.44951240851E+02  0.32775598691E+02  0.65881051410E+03  0.66115516138E+03  0.00000000000E+00 0. -1.
          2    1    1    2  501    0  0.83714192942E+02 -0.36214354042E+02  0.16294415023E+04  0.16319923881E+04  0.00000000000E+00 0. -1.
<scales pt_clust_3="47.34823" pt_clust_4="47.34823" pt_clust_5="55.63141" pt_clust_6="128.14002"></scales>
<clustering>
<clus scale="   47.348">  3  4 -1 -1</clus>
<clus scale="   55.631">  1  5  2 -1</clus>
<clus scale="  128.140">  1  6  2 -1</clus>
<clus scale="  138.549">  2  3  1 -1</clus>
</clustering>
</event>
<event>
 6    0  0.4340992E+002  0.9770604E+02  0.7546771E-02  0.1285195E+00
          2   -1    0    0  503    0 -0.00000000000E+00  0.00000000000E+00  0.13681705245E+04  0.13681705245E+04  0.00000000000E+00 0. -1.
         21   -1    0    0  504  502  0.00000000000E+00 -0.00000000000E+00 -0.27849576641E+03  0.27849576641E+03  0.00000000000E+00 0. -1.
         21    1    1    2  503  505  0.20936906019E+02 -0.24560279283E+02  0.12196219562E+03  0.12615997191E+03  0.00000000000E+00 0. -1.
         21    1    1    2  504  501  0.48231889604E+02 -0.74154501214E+02 -0.17627518654E+03  0.19722613066E+03  0.00000000000E+00 0. -1.
         21    1    1    2  505  502 -0.10745472081E+03  0.13217517243E+03 -0.76554011539E+01  0.17051509727E+03  0.00000000000E+00 0. -1.
          2    1    1    2  501    0  0.38285925183E+02 -0.33460391931E+02  0.11516431501E+04  0.11527650910E+04  0.00000000000E+00 0. -1.
<scales pt_clust_3="32.27323" pt_clust_4="97.70604" pt_clust_5="14000.00000" pt_clust_6="80.53381"></scales>
<clustering>
<clus scale="   32.273">  1  3  2 -1</clus>
<clus scale="   80.534">  1  6  2 -1</clus>
<clus scale="   97.706">  2  4  1 -1</clus>
<clus scale="   97.706">  2  3  1 -1</clus>
</clustering>
</event>
<event>
 6    0  0.4340992E+002  0.1946144E+03  0.7546771E-02  0.1154364E+00
         21   -1    0    0  503  502  0.00000000000E+00  0.00000000000E+00  0.43456128935E+03  0.43456128935E+03  0.00000000000E+00 0.  1.
          3   -1    0    0  504    0 -0.00000000000E+00 -0.00000000000E+00 -0.37395688658E+03  0.37395688658E+03  0.00000000000E+00 0.  1.
         21    1    1    2  503  505  0.48684308683E+02  0.32379512464E+02  0.21242683840E+02  0.62208089153E+02  0.00000000000E+00 0.  1.
         21    1    1    2  504  502 -0.19667595582E+03 -0.13875890544E+03  0.32411379401E+03  0.40371427632E+03  0.00000000000E+00 0.  1.
         21    1    1    2  505  501  0.63769073971E+02  0.32397953701E+02 -0.68613978840E+02  0.99116095017E+02  0.00000000000E+00 0.  1.
          3    1    1    2  501    0  0.84222573164E+02  0.73981439275E+02 -0.21613809624E+03  0.24347971544E+03  0.00000000000E+00 0.  1.
<scales pt_clust_3="58.46875" pt_clust_4="186.56023" pt_clust_5="44.25905" pt_clust_6="44.25905"></scales>
<clustering>
<clus scale="   44.259">  5  6 -1 -1</clus>
<clus scale="   58.469">  1  3  2 -1</clus>
<clus scale="  186.560">  1  4  2 -1</clus>
<clus scale="   58.469">  1  3  2 -1</clus>
</clustering>
</event>
<event>
 6    0  0.4340992E+002  0.8377463E+02  0.7546771E-02  0.1318668E+00
         21   -1    0    0  505  502  0.00000000000E+00  0.00000000000E+00  0.84541793359E+03  0.84541793359E+03  0.00000000000E+00 0.  1.
          2   -1    0    0  503    0 -0.00000000000E+00 -0.00000000000E+00 -0.17812794006E+04  0.17812794006E+04  0.00000000000E+00 0. -1.
         21    1    1    2  503  502  0.41965503576E+02  0.22282521392E+02 -0.14199253658E+02  0.49590654910E+02  0.00000000000E+00 0. -1.
         21    1    1    2  504  501  0.70260751715E+02  0.76953674663E+02  0.14360945168E+03  0.17743200356E+03  0.00000000000E+00 0. -1.
         21    1    1    2  505  504 -0.74141894101E+02 -0.24737263663E+02  0.66389748019E+03  0.66848247313E+03  0.00000000000E+00 0.  1.
          2    1    1    2  501    0 -0.38084361191E+02 -0.74498932393E+02 -0.17291691452E+04  0.17311922025E+04  0.00000000000E+00 0. -1.
<scales pt_clust_3="47.51436" pt_clust_4="14000.00000" pt_clust_5="40.93536" pt_clust_6="83.77463"></scales>
<clustering>
<clus scale="   47.514">  1  3  2 -1</clus>
<clus scale="   40.935">  1  5  2 -1</clus>
<clus scale="   83.775">  2  6  1 -1</clus>
<clus scale="   47.514">  1  3  2 -1</clus>
</clustering>
</event>
<event>
 6    0  0.4340992E+002  0.8134878E+02  0.7546771E-02  0.1325267E+00
         21   -1    0    0  503  502  0.00000000000E+00  0.00000000000E+00  0.75829030330E+02  0.75829030330E+02  0.00000000000E+00 0.  1.
          1   -1    0    0  504    0 -0.00000000000E+00 -0.00000000000E+00 -0.57651019159E+03  0.57651019159E+03  0.00000000000E+00 0.  1.
         21    1    1    2  503  501  0.28844381841E+02 -0.48401333214E+02  0.27607553760E+02  0.62744437564E+02  0.00000000000E+00 0.  1.
         21    1    1    2  504  505  0.41256617108E+02  0.27128300669E+02 -0.26553362325E+03  0.27008546468E+03  0.00000000000E+00 0.  1.
         21    1    1    2  505  502  0.48789297566E+02 -0.14786581943E+02 -0.41404996573E+02  0.65676573478E+02  0.00000000000E+00 0.  1.
          1    1    1    2  501    0 -0.11889029651E+03  0.36059614488E+02 -0.22135009520E+03  0.25383274621E+03  0.00000000000E+00 0.  1.
<scales pt_clust_3="56.29015" pt_clust_4="49.37665" pt_clust_5="81.34878" pt_clust_6="14000.00000"></scales>
<clustering>
<clus scale="   49.377">  2  4  1 -1</clus>
<clus scale="   56.290">  1  3  2 -1</clus>
<clus scale="   81.349">  1  5  2 -1</clus>
<clus scale="   56.290">  1  3  2 -1</clus>
</clustering>
</event>
<event>
 6    0  0.4340992E+002  0.1162056E+03  0.7546771E-02  0.1249491E+00
         21   -1    0    0  505  502  0.00000000000E+00  0.00000000000E+00  0.20473506742E+02  0.20473506742E+02  0.00000000000E+00 0.  1.
          2   -1    0    0  504    0 -0.00000000000E+00 -0.00000000000E+00 -0.99867253686E+03  0.99867253686E+03  0.00000000000E+00 0.  1.
         21    1    1    2  503  502  0.31400478315E+02  0.17228966153E+02 -0.73501814034E+02  0.81763952812E+02  0.00000000000E+00 0.  1.
         21    1    1    2  504  503  0.75971430827E+01 -0.11767364785E+03 -0.30668640760E+03  0.32857473516E+03  0.00000000000E+00 0.  1.
         21    1    1    2  505  501  0.77234708756E-01  0.48352114421E+02 -0.22263473716E+03  0.22782484308E+03  0.00000000000E+00 0. -1.
          2    1    1    2  501    0 -0.39074856107E+02  0.52092567273E+02 -0.37537607133E+03  0.38098251255E+03  0.00000000000E+00 0.  1.
<scales pt_clust_3="35.81658" pt_clust_4="109.92824" pt_clust_5="32.46573" pt_clust_6="32.46573"></scales>
<clustering>
<clus scale="   32.466">  5  6 -1 -1</clus>
<clus scale="   35.817">  1  3  2 -1</clus>
<clus scale="  109.928">  1  4  2 -1</clus>
<clus scale="   35.817">  1  3  2 -1</clus>
</clustering>
</event>
<event>
 6    0  0.4340992E+002  0.8252194E+02  0.7546771E-02  0.1322043E+00
          1   -1    0    0  503    0 -0.00000000000E+00  0.00000000000E+00  0.35298620601E+03  0.35298620601E+03  0.00000000000E+00 0.  1.
         21   -1    0    0  504  502  0.00000000000E+00 -0.00000000000E+00 -0.43392337928E+03  0.43392337928E+03  0.00000000000E+00 0.  1.
         21    1    1    2  503  502  0.98820430167E+02 -0.58599705125E+02 -0.27047427494E+03  0.29386346535E+03  0.00000000000E+00 0.  1.
         21    1    1    2  504  505 -0.51434010071E+02  0.37453162571E+02 -0.14021882951E+03  0.15397894963E+03  0.00000000000E+00 0. -1.
         21    1    1    2  505  501 -0.16955790073E+02  0.37747579337E+02  0.13326212368E+03  0.13953914207E+03  0.00000000000E+00 0.  1.
          1    1    1    2  501    0 -0.30430630023E+02 -0.16601036783E+02  0.19649380750E+03  0.19952802824E+03  0.00000000000E+00 0.  1.
<scales pt_clust_3="82.52194" pt_clust_4="14000.00000" pt_clust_5="49.48130" pt_clust_6="34.66436"></scales>
<clustering>
<clus scale="   34.664">  1  6  2 -1</clus>
<clus scale="   49.481">  1  5  2 -1</clus>
<clus scale="   82.522">  1  3  2 -1</clus>
<clus scale="   82.522">  2  3  1 -1</clus>
</clustering>
</event>
<event>
 6    0  0.4340992E+002  0.1199345E+03  0.7546771E-02  0.1243205E+00
          2   -1    0    0  505    0 -0.00000000000E+00  0.00000000000E+00  0.21449671823E+03  0.21449671823E+03  0.00000000000E+00 0. -1.
         21   -1    0    0  501  502  0.00000000000E+00 -0.00000000000E+00 -0.39757880558E+03  0.39757880558E+03  0.00000000000E+00 0. -1.
         21    1    1    2  503  502  0.29213285582E+02  0.81125506922E+01 -0.45672024672E+02  0.54819370398E+02  0.00000000000E+00 0. -1.
         21    1    1    2  504  503 -0.10385460437E+03  0.91122935006E+02 -0.28992409464E+03  0.32116218456E+03  0.00000000000E+00 0. -1.
         21    1    1    2  505  504  0.46455264336E+02 -0.39272111738E+02 -0.90231205186E+01  0.61496398666E+02  0.00000000000E+00 0. -1.
          2    1    1    2  501    0  0.28186054454E+02 -0.59963373960E+02  0.16153715248E+03  0.17459757018E+03  0.00000000000E+00 0. -1.
<scales pt_clust_3="30.31880" pt_clust_4="119.93453" pt_clust_5="62.61561" pt_clust_6="14000.00000"></scales>
<clustering>
<clus scale="   30.319">  2  3  1 -1</clus>
<clus scale="   62.616">  1  5  2 -1</clus>
<clus scale="  119.935">  2  4  1 -1</clus>
<clus scale="   30.319">  2  3  1 -1</clus>
</clustering>
</event>
<event>
 6    0  0.4340992E+002  0.9452947E+02  0.7546771E-02  0.1292239E+00
         21   -1    0    0  504  502  0.00000000000E+00  0.00000000000E+00  0.76926459938E+03  0.76926459938E+03  0.00000000000E+00 0.  1.
         -1   -1    0    0    0  501 -0.00000000000E+00 -0.00000000000E+00 -0.10480340448E+03  0.10480340448E+03  0.00000000000E+00 0. -1.
         21    1    1    2  503  501  0.24724501165E+02 -0.71981630014E+02  0.45738820531E+02  0.88795809140E+02  0.00000000000E+00 0. -1.
         21    1    1    2  504  503  0.31473627796E+02 -0.39064227697E+02  0.18408370576E+03  0.19079678682E+03  0.00000000000E+00 0.  1.
         21    1    1    2  505  502  0.20452157252E+02  0.35329527380E+02  0.47697187902E+03  0.47871561455E+03  0.00000000000E+00 0.  1.
         -1    1    1    2    0  505 -0.76650286214E+02  0.75716330331E+02 -0.42333210407E+02  0.11575979336E+03  0.00000000000E+00 0. -1.
<scales pt_clust_3="14000.00000" pt_clust_4="47.52578" pt_clust_5="40.82237" pt_clust_6="94.52947"></scales>
<clustering>
<clus scale="   40.822">  1  5  2 -1</clus>
<clus scale="   47.526">  1  4  2 -1</clus>
<clus scale="   94.529">  2  6  1 -1</clus>
<clus scale="   40.822">  1  3  2 -1</clus>
</clustering>
</event>
<event>
 6    0  0.4340992E+002  0.7947891E+02  0.7546771E-02  0.1330537E+00
          2   -1    0    0  503    0 -0.00000000000E+00  0.00000000000E+00  0.37285034453E+03  0.37285034453E+03  0.00000000000E+00 0. -1.
         21   -1    0    0  501  502  0.00000000000E+00 -0.00000000000E+00 -0.88917324906E+02  0.88917324906E+02  0.00000000000E+00 0. -1.
         21    1    1    2  503  504 -0.34128916415E+02 -0.33557463903E+02  0.79111464209E+02  0.92463560869E+02  0.00000000000E+00 0. -1.
         21    1    1    2  504  505 -0.53572432385E+02 -0.62858663818E+02  0.25088329398E+02  0.86317097962E+02  0.00000000000E+00 0. -1.
         21    1    1    2  505  502  0.59784958243E+02 -0.79987854739E+01 -0.13289296682E+02  0.61764287477E+02  0.00000000000E+00 0.  1.
          2    1    1    2  501    0  0.27916390557E+02  0.10441491320E+03  0.19302252270E+03  0.22122272313E+03  0.00000000000E+00 0. -1.
<scales pt_clust_3="47.86320" pt_clust_4="79.47891" pt_clust_5="57.92519" pt_clust_6="14000.00000"></scales>
<clustering>
<clus scale="   47.863">  1  3  2 -1</clus>
<clus scale="   57.925">  2  5  1 -1</clus>
<clus scale="   79.479">  2  4  1 -1</clus>
<clus scale="   57.925">  2  3  1 -1</clus>
</clustering>
</event>
<event>
 6    0  0.4340992E+002  0.1191133E+03  0.7546771E-02  0.1244567E+00
         21   -1    0    0  505  502  0.00000000000E+00  0.00000000000E+00  0.50137822057E+02  0.50137822057E+02  0.00000000000E+00 0.  1.
          2   -1    0    0  504    0 -0.00000000000E+00 -0.00000000000E+00 -0.14026194868E+04  0.14026194868E+04  0.00000000000E+00 0.  1.
         21    1    1    2  503  502  0.92214601641E+02  0.42856394695E+01 -0.19789855244E+03  0.21837064025E+03  0.00000000000E+00 0.  1.
         21    1    1    2  504  503  0.28718696444E+02 -0.17143739062E+02 -0.25456333148E+03  0.25675116562E+03  0.00000000000E+00 0.  1.
         21    1    1    2  505  501 -0.20322548215E+03 -0.37646592934E+02 -0.26880232669E+03  0.33907602892E+03  0.00000000000E+00 0.  1.
          2    1    1    2  501    0  0.82292184066E+02  0.50504692526E+02 -0.63121745416E+03  0.63855947410E+03  0.00000000000E+00 0.  1.
<scales pt_clust_3="97.43315" pt_clust_4="33.44654" pt_clust_5="14000.00000" pt_clust_6="119.11333"></scales>
<clustering>
<clus scale="   33.447">  2  4  1 -1</clus>
<clus scale="   97.433">  1  3  2 -1</clus>
<clus scale="  119.113">  2  6  1 -1</clus>
<clus scale="   97.433">  1  3  2 -1</clus>
</clustering>
</event>
<event>
 6    0  0.4340992E+002  0.9444422E+02  0.7546771E-02  0.1292433E+00
         21   -1    0    0  503  502  0.00000000000E+00  0.00000000000E+00  0.82852326951E+03  0.82852326951E+03  0.00000000000E+00 0. -1.
          2   -1    0    0  505    0 -0.00000000000E+00 -0.00000000000E+00 -0.22364275101E+03  0.22364275101E+03  0.00000000000E+00 0.  1.
         21    1    1    2  503  501 -0.25895118219E+02  0.11483127922E+03 -0.87910528680E+01  0.11804262978E+03  0.00000000000E+00 0. -1.
         21    1    1    2  504  502 -0.49410560172E+02 -0.80951979865E+02  0.74074152400E+03  0.74678821086E+03  0.00000000000E+00 0. -1.
         21    1    1    2  505  504  0.17869406593E+02 -0.34027192002E+02  0.91442217269E+01  0.39506737128E+02  0.00000000000E+00 0. -1.
          2    1    1    2  501    0  0.57436271798E+02  0.14789264300E+00 -0.13621417435E+03  0.14782844275E+03  0.00000000000E+00 0.  1.
<scales pt_clust_3="94.44422" pt_clust_4="14000.00000" pt_clust_5="38.43391" pt_clust_6="73.32247"></scales>
<clustering>
<clus scale="   38.434">  2  5  1 -1</clus>
<clus scale="   73.322">  2  6  1 -1</clus>
<clus scale="   94.444">  2  3  1 -1</clus>
<clus scale="   94.444">  1  3  2 -1</clus>
</clustering>
</event>
<event>
 6    0  0.4340992E+002  0.1026817E+03  0.7546771E-02  0.1274756E+00
          2   -1    0    0  505    0 -0.00000000000E+00  0.00000000000E+00  0.27808197650E+04  0.27808197650E+04  0.00000000000E+00 0.  1.
         21   -1    0    0  504  502  0.00000000000E+00 -0.00000000000E+00 -0.19467199578E+02  0.19467199578E+02  0.00000000000E+00 0.  1.
         21    1    1    2  503  502  0.62695390682E+02 -0.49613499262E+02  0.23101634333E+03  0.24446014441E+03  0.00000000000E+00 0.  1.
         21    1    1    2  504  501 -0.11642542613E+03  0.10407947122E+03  0.54684330464E+03  0.56870468259E+03  0.00000000000E+00 0.  1.
         21    1    1    2  505  503  0.53087524229E+02  0.67165903877E+01  0.63855950049E+03  0.64079765408E+03  0.00000000000E+00 0.  1.
          2    1    1    2  501    0  0.64251121428E+00 -0.61182562350E+02  0.13449334169E+04  0.13463244835E+04  0.00000000000E+00 0.  1.
<scales pt_clust_3="14000.00000" pt_clust_4="102.68174" pt_clust_5="53.51073" pt_clust_6="66.34017"></scales>
<clustering>
<clus scale="   53.511">  1  5  2 -1</clus>
<clus scale="   66.340">  1  6  2 -1</clus>
<clus scale="  102.682">  1  4  2 -1</clus>
<clus scale="  102.682">  2  3  1 -1</clus>
</clustering>
</event>
<event>
 6    0  0.4340992E+002  0.1021421E+03  0.7546771E-02  0.1275855E+00
         21   -1    0    0  503  502  0.00000000000E+00  0.00000000000E+00  0.60998907704E+03  0.60998907704E+03  0.00000000000E+00 0. -1.
          1   -1    0    0  504    0 -0.00000000000E+00 -0.00000000000E+00 -0.14341117484E+04  0.14341117484E+04  0.00000000000E+00 0.  1.
         21    1    1    2  503  501  0.16478790355E+02 -0.39641646226E+02  0.32781686706E+02  0.54015272196E+02  0.00000000000E+00 0. -1.
         21    1    1    2  504  505  0.60749844008E+01 -0.81845019987E+02 -0.11147882033E+03  0.13843063286E+03  0.00000000000E+00 0. -1.
         21    1    1    2  505  502 -0.10846034740E+03 -0.40925833330E+01  0.54327123932E+03  0.55400725236E+03  0.00000000000E+00 0. -1.
          1    1    1    2  501    0  0.85906572642E+02  0.12557924955E+03 -0.12886967770E+04  0.12976476680E+04  0.00000000000E+00 0.  1.
<scales pt_clust_3="42.93030" pt_clust_4="83.04006" pt_clust_5="102.14213" pt_clust_6="14000.00000"></scales>
<clustering>
<clus scale="   42.930">  1  3  2 -1</clus>
<clus scale="   83.040">  2  4  1 -1</clus>
<clus scale="  102.142">  1  5  2 -1</clus>
<clus scale="   42.930">  1  3  2 -1</clus>
</clustering>
</event>
<event>
 6    0  0.4340992E+002  0.8522958E+02  0.7546771E-02  0.1314833E+00
         21   -1    0    0  504  502  0.00000000000E+00  0.00000000000E+00  0.37598083269E+03  0.37598083269E+03  0.00000000000E+00 0.  1.
          2   -1    0    0  503    0 -0.00000000000E+00 -0.00000000000E+00 -0.52787261679E+03  0.52787261679E+03  0.00000000000E+00 0. -1.
         21    1    1    2  503  502  0.10304812886E+03  0.67284988059E+02 -0.27660127259E+03  0.30274486037E+03  0.00000000000E+00 0. -1.
         21    1    1    2  504  505 -0.34246680373E+02 -0.52077608402E+01  0.26948965423E+03  0.27170688182E+03  0.00000000000E+00 0.  1.
         21    1    1    2  505  501 -0.62633892259E+00 -0.42660771201E+02  0.81655343175E+02  0.92129955872E+02  0.00000000000E+00 0. -1.
          2    1    1    2  501    0 -0.68175109563E+02 -0.19416456018E+02 -0.22643550891E+03  0.23727175142E+03  0.00000000000E+00 0. -1.
<scales pt_clust_3="85.22958" pt_clust_4="34.64038" pt_clust_5="55.11714" pt_clust_6="14000.00000"></scales>
<clustering>
<clus scale="   34.640">  1  4  2 -1</clus>
<clus scale="   55.117">  1  5  2 -1</clus>
<clus scale="   85.230">  1  3  2 -1</clus>
<clus scale="   34.640">  1  3  2 -1</clus>
</clustering>
</event>
<event>
 6    0  0.4340992E+002  0.1423025E+03  0.7546771E-02  0.1210264E+00
         21   -1    0    0  503  502  0.00000000000E+00  0.00000000000E+00  0.67083282149E+03  0.67083282149E+03  0.00000000000E+00 0. -1.
          1   -1    0    0  504    0 -0.00000000000E+00 -0.00000000000E+00 -0.37888952554E+03  0.37888952554E+03  0.00000000000E+00 0.  1.
         21    1    1    2  503  501  0.27142647526E+02 -0.36222684969E+02  0.74031666871E+01  0.45865162140E+02  0.00000000000E+00 0.  1.
         21    1    1    2  504  505  0.24274233620E+02  0.19983574735E+03  0.23890306727E+03  0.31240717003E+03  0.00000000000E+00 0. -1.
         21    1    1    2  505  502 -0.80270898758E+01 -0.31268640255E+02  0.35275406724E+03  0.35422816656E+03  0.00000000000E+00 0. -1.
          1    1    1    2  501    0 -0.43389791271E+02 -0.13234442212E+03 -0.30711700525E+03  0.33722184829E+03  0.00000000000E+00 0.  1.
<scales pt_clust_3="47.00741" pt_clust_4="14000.00000" pt_clust_5="32.28253" pt_clust_6="142.30250"></scales>
<clustering>
<clus scale="   32.283">  1  5  2 -1</clus>
<clus scale="   47.007">  1  3  2 -1</clus>
<clus scale="  142.303">  2  6  1 -1</clus>
<clus scale="   32.283">  1  3  2 -1</clus>
</clustering>
</event>
<event>
 6    0  0.4340992E+002  0.8888089E+02  0.7546771E-02  0.1305585E+00
          2   -1    0    0  504    0 -0.00000000000E+00  0.00000000000E+00  0.86242305575E+03  0.86242305575E+03  0.00000000000E+00 0.  1.
         21   -1    0    0  505  502  0.00000000000E+00 -0.00000000000E+00 -0.59977417530E+02  0.59977417530E+02  0.00000000000E+00 0. -1.
         21    1    1    2  503  502  0.49454972897E+02 -0.97429680279E+02  0.12134840005E+03  0.16329045023E+03  0.00000000000E+00 0. -1.
         21    1    1    2  504  503 -0.41472287561E+02 -0.24561637323E+02  0.18605095394E+03  0.19219308553E+03  0.00000000000E+00 0. -1.
         21    1    1    2  505  501 -0.87478729304E+01  0.83050617093E+02  0.14457236124E+02  0.84752238653E+02  0.00000000000E+00 0. -1.
          2    1    1    2  501    0  0.76518759454E+00  0.38940700509E+02  0.48058904811E+03  0.48216469887E+03  0.00000000000E+00 0.  1.
<scales pt_clust_3="14000.00000" pt_clust_4="41.42456" pt_clust_5="88.88089" pt_clust_6="38.94822"></scales>
<clustering>
<clus scale="   38.948">  1  6  2 -1</clus>
<clus scale="   41.425">  1  4  2 -1</clus>
<clus scale="   88.881">  2  5  1 -1</clus>
<clus scale="   88.881">  2  3  1 -1</clus>
</clustering>
</event>
<event>
 6    0  0.4340992E+002  0.8068167E+02  0.7546771E-02  0.1327128E+00
         21   -1    0    0  505  502  0.00000000000E+00  0.00000000000E+00  0.45358890399E+03  0.45358890399E+03  0.00000000000E+00 0. -1.
         -3   -1    0    0    0  501 -0.00000000000E+00 -0.00000000000E+00 -0.12516324945E+03  0.12516324945E+03  0.00000000000E+00 0. -1.
         21    1    1    2  503  501 -0.19571818054E+02 -0.35098580678E+02  0.46656167760E+01  0.40456574341E+02  0.00000000000E+00 0. -1.
         21    1    1    2  504  502 -0.39527054014E+02 -0.43405013047E+02  0.34914002923E+03  0.35404116027E+03  0.00000000000E+00 0. -1.
         21    1    1    2  505  503  0.89592165526E+01 -0.30826198553E+02  0.36816265486E+02  0.48846284227E+02  0.00000000000E+00 0. -1.
         -3    1    1    2    0  504  0.50139655515E+02  0.10932979228E+03 -0.62196256961E+02  0.13540813460E+03  0.00000000000E+00 0. -1.
<scales pt_clust_3="41.44475" pt_clust_4="80.68167" pt_clust_5="32.10175" pt_clust_6="14000.00000"></scales>
<clustering>
<clus scale="   32.102">  1  5  2 -1</clus>
<clus scale="   41.445">  2  3  1 -1</clus>
<clus scale="   80.682">  1  4  2 -1</clus>
<clus scale="   32.102">  1  3  2 -1</clus>
</clustering>
</event>
<event>
 6    0  0.4340992E+002  0.1694038E+03  0.7546771E-02  0.1178471E+00
          1   -1    0    0  505    0 -0.00000000000E+00  0.00000000000E+00  0.69912665084E+02  0.69912665084E+02  0.00000000000E+00 0. -1.
         21   -1    0    0  503  502  0.00000000000E+00 -0.00000000000E+00 -0.16632176218E+04  0.16632176218E+04  0.00000000000E+00 0. -1.
         21    1    1    2  503  501  0.57015584031E+02 -0.58774985746E+01 -0.13190502857E+02  0.58815909221E+02  0.00000000000E+00 0.  1.
         21    1    1    2  504  502 -0.59166931735E+02 -0.44365923191E+02 -0.12578279324E+04  0.12600000669E+04  0.00000000000E+00 0. -1.
         21    1    1    2  505  504 -0.10291461407E+03 -0.35062631633E+02 -0.21747322696E+03  0.24313660845E+03  0.00000000000E+00 0. -1.
          1    1    1    2  501    0  0.10506596177E+03  0.85306053399E+02 -0.10481329443E+03  0.17117770228E+03  0.00000000000E+00 0. -1.
<scales pt_clust_3="52.03361" pt_clust_4="73.95310" pt_clust_5="149.34794" pt_clust_6="52.03361"></scales>
<clustering>
<clus scale="   52.034">  3  6 -1 -1</clus>
<clus scale="   73.953">  2  4  1 -1</clus>
<clus scale="  149.348">  2  5  1 -1</clus>
<clus scale="   73.953">  2  3  1 -1</clus>
</clustering>
</event>
<event>
 6    0  0.4340992E+002  0.1362623E+03  0.7546771E-02  0.1218449E+00
          1   -1    0    0  504    0 -0.00000000000E+00  0.00000000000E+00  0.25899191380E+04  0.25899191380E+04  0.00000000000E+00 0. -1.
         21   -1    0    0  505  502  0.00000000000E+00 -0.00000000000E+00 -0.92890891251E+02  0.92890891251E+02  0.00000000000E+00 0.  1.
         21    1    1    2  503  502 -0.12594558448E+03 -0.38986231795E+02  0.11718336366E+02  0.13236138382E+03  0.00000000000E+00 0.  1.
         21    1    1    2  504  503  0.64924869321E+02 -0.58053899769E+02  0.10146892177E+03  0.13372148676E+03  0.00000000000E+00 0.  1.
         21    1    1    2  505  501  0.14233722825E+03  0.94090648778E+02  0.45135825313E+03  0.48253208121E+03  0.00000000000E+00 0.  1.
          1    1    1    2  501    0 -0.81316513096E+02  0.29494827862E+01  0.19324827354E+04  0.19341950774E+04  0.00000000000E+00 0. -1.
<scales pt_clust_3="136.26227" pt_clust_4="76.45533" pt_clust_5="14000.00000" pt_clust_6="81.36999"></scales>
<clustering>
<clus scale="   81.370">  1  6  2 -1</clus>
<clus scale="   76.455">  1  4  2 -1</clus>
<clus scale="  136.262">  2  3  1 -1</clus>
<clus scale="  136.262">  2  3  1 -1</clus>
</clustering>
</event>
<event>
 6    0  0.4340992E+002  0.8109519E+02  0.7546771E-02  0.1325972E+00
          4   -1    0    0  503    0 -0.00000000000E+00  0.00000000000E+00  0.34901086586E+03  0.34901086586E+03  0.00000000000E+00 0. -1.
         21   -1    0    0  505  502  0.00000000000E+00 -0.00000000000E+00 -0.86407316364E+03  0.86407316364E+03  0.00000000000E+00 0. -1.
         21    1    1    2  503  504  0.14419763936E+02  0.71813948801E+02  0.18828128764E+02  0.75628508296E+02  0.00000000000E+00 0. -1.
         21    1    1    2  504  502  0.44676511923E+02 -0.50154123474E+01 -0.10848076200E+03  0.11742751298E+03  0.00000000000E+00 0. -1.
         21    1    1    2  505  501 -0.12037151144E+03 -0.21462222147E+02 -0.71253897924E+03  0.72295347339E+03  0.00000000000E+00 0. -1.
          4    1    1    2  501    0  0.61275235583E+02 -0.45336314307E+02  0.28712931470E+03  0.29707453484E+03  0.00000000000E+00 0. -1.
<scales pt_clust_3="73.41350" pt_clust_4="44.95715" pt_clust_5="14000.00000" pt_clust_6="81.09519"></scales>
<clustering>
<clus scale="   44.957">  2  4  1 -1</clus>
<clus scale="   73.414">  1  3  2 -1</clus>
<clus scale="   81.095">  1  6  2 -1</clus>
<clus scale="   44.957">  2  3  1 -1</clus>
</clustering>
</event>
<event>
 6    0  0.4340992E+002  0.1310770E+03  0.7546771E-02  0.1225866E+00
         21   -1    0    0  505  502  0.00000000000E+00  0.00000000000E+00  0.42789795635E+03  0.42789795635E+03  0.00000000000E+00 0. -1.
          1   -1    0    0  504    0 -0.00000000000E+00 -0.00000000000E+00 -0.11230116363E+04  0.11230116363E+04  0.00000000000E+00 0.  1.
         21    1    1    2  503  501 -0.77866430012E+02  0.14826423238E+01 -0.22187904518E+03  0.23515035581E+03  0.00000000000E+00 0. -1.
         21    1    1    2  504  502  0.16133669337E+02  0.45771693687E+02  0.15057594363E+03  0.15820384961E+03  0.00000000000E+00 0. -1.
         21    1    1    2  505  503  0.10925396566E+03 -0.10093451897E+03  0.24455436042E+03  0.28623598888E+03  0.00000000000E+00 0. -1.
          1    1    1    2  501    0 -0.47521204983E+02  0.53680182954E+02 -0.86836493880E+03  0.87131939832E+03  0.00000000000E+00 0.  1.
<scales pt_clust_3="131.07697" pt_clust_4="48.53188" pt_clust_5="14000.00000" pt_clust_6="71.82030"></scales>
<clustering>
<clus scale="   48.532">  1  4  2 -1</clus>
<clus scale="   71.820">  2  6  1 -1</clus>
<clus scale="  131.077">  2  3  1 -1</clus>
<clus scale="   48.532">  1  3  2 -1</clus>
</clustering>
</event>
<event>
 6    0  0.4340992E+002  0.7420318E+02  0.7546771E-02  0.1346356E+00
         21   -1    0    0  505  502  0.00000000000E+00  0.00000000000E+00  0.22827369389E+03  0.22827369389E+03  0.00000000000E+00 0. -1.
         -2   -1    0    0    0  501 -0.00000000000E+00 -0.00000000000E+00 -0.23609513185E+03  0.23609513185E+03  0.00000000000E+00 0.  1.
         21    1    1    2  503  502 -0.65975923395E+02  0.15849119055E+02  0.16847175216E+03  0.18162254353E+03  0.00000000000E+00 0. -1.
         21    1    1    2  504  503  0.15190330174E+02 -0.93931882630E+02 -0.35594146598E+02  0.10159177121E+03  0.00000000000E+00 0. -1.
         21    1    1    2  505  501 -0.28180739974E+00  0.40024065437E+02 -0.20140455901E+02  0.44806731564E+02  0.00000000000E+00 0.  1.
         -2    1    1    2    0  504  0.51067400621E+02  0.38058698138E+02 -0.12055858761E+03  0.13634777944E+03  0.00000000000E+00 0.  1.
<scales pt_clust_3="68.17520" pt_clust_4="14000.00000" pt_clust_5="40.02506" pt_clust_6="74.20318"></scales>
<clustering>
<clus scale="   40.025">  2  5  1 -1</clus>
<clus scale="   68.175">  1  3  2 -1</clus>
<clus scale="   74.203">  2  6  1 -1</clus>
<clus scale="   68.175">  1  3  2 -1</clus>
</clustering>
</event>
<event>
 6    0  0.4340992E+002  0.1042190E+03  0.7546771E-02  0.1271666E+00
         21   -1    0    0  503  502  0.00000000000E+00  0.00000000000E+00  0.61335542512E+03  0.61335542512E+03  0.00000000000E+00 0.  1.
         -1   -1    0    0    0  501 -0.00000000000E+00 -0.00000000000E+00 -0.36890586036E+03  0.36890586036E+03  0.00000000000E+00 0.  1.
         21    1    1    2  503  501  0.75977645389E+02 -0.13811877522E+02  0.21753749919E+01  0.77253497111E+02  0.00000000000E+00 0.  1.
         21    1    1    2  504  502  0.72533135813E+02  0.50912764356E+01  0.30723410685E+03  0.31572103715E+03  0.00000000000E+00 0.  1.
         21    1    1    2  505  504 -0.95287199317E+02 -0.84085229196E+02  0.23700700762E+03  0.26892805317E+03  0.00000000000E+00 0.  1.
         -1    1    1    2    0  505 -0.53223581884E+02  0.92805830283E+02 -0.30196692470E+03  0.32035869805E+03  0.00000000000E+00 0.  1.
<scales pt_clust_3="86.52385" pt_clust_4="72.71160" pt_clust_5="104.21905" pt_clust_6="14000.00000"></scales>
<clustering>
<clus scale="   72.712">  1  4  2 -1</clus>
<clus scale="   86.524">  1  3  2 -1</clus>
<clus scale="  104.219">  1  5  2 -1</clus>
<clus scale="   72.712">  1  3  2 -1</clus>
</clustering>
</event>
<event>
 6    0  0.4340992E+002  0.7791763E+02  0.7546771E-02  0.1335067E+00
         21   -1    0    0  503  502  0.00000000000E+00  0.00000000000E+00  0.61619229249E+03  0.61619229249E+03  0.00000000000E+00 0.  1.
          2   -1    0    0  504    0 -0.00000000000E+00 -0.00000000000E+00 -0.99826088894E+03  0.99826088894E+03  0.00000000000E+00 0.  1.
         21    1    1    2  503  501  0.70751418527E+02 -0.54385510560E+02  0.24830678267E+03  0.26385565240E+03  0.00000000000E+00 0.  1.
         21    1    1    2  504  505  0.22604791858E+02 -0.28976565226E+02 -0.52359699881E+02  0.63969962630E+02  0.00000000000E+00 0.  1.
         21    1    1    2  505  502 -0.34016402843E+02  0.66747783314E+02  0.34931177707E+03  0.35725495076E+03  0.00000000000E+00 0.  1.
          2    1    1    2  501    0 -0.59339807542E+02  0.16614292473E+02 -0.92732745632E+03  0.92937261565E+03  0.00000000000E+00 0.  1.
<scales pt_clust_3="14000.00000" pt_clust_4="36.75075" pt_clust_5="77.91763" pt_clust_6="38.91397"></scales>
<clustering>
<clus scale="   36.751">  2  4  1 -1</clus>
<clus scale="   38.914">  2  6  1 -1</clus>
<clus scale="   77.918">  1  5  2 -1</clus>
<clus scale="   77.918">  1  3  2 -1</clus>
</clustering>
</event>
<event>
 6    0  0.4340992E+002  0.1196414E+03  0.7546771E-02  0.1243690E+00
         21   -1    0    0  505  502  0.00000000000E+00  0.00000000000E+00  0.39063206941E+02  0.39063206941E+02  0.00000000000E+00 0. -1.
          1   -1    0    0  503    0 -0.00000000000E+00 -0.00000000000E+00 -0.58720800103E+03  0.58720800103E+03  0.00000000000E+00 0. -1.
         21    1    1    2  503  504 -0.11186205084E+03  0.30492679353E+01 -0.36531511476E+03  0.38207008457E+03  0.00000000000E+00 0. -1.
         21    1    1    2  504  502  0.14843042180E+02  0.35510697108E+02 -0.17984464886E+02  0.42482543326E+02  0.00000000000E+00 0.  1.
         21    1    1    2  505  501  0.66479650107E+02 -0.44650899598E+01 -0.71368242656E+02  0.97636606693E+02  0.00000000000E+00 0. -1.
          1    1    1    2  501    0  0.30539358555E+02 -0.34094875083E+02 -0.93476971787E+02  0.10408197338E+03  0.00000000000E+00 0. -1.
<scales pt_clust_3="108.15349" pt_clust_4="38.48799" pt_clust_5="38.79010" pt_clust_6="38.79010"></scales>
<clustering>
<clus scale="   38.488">  1  4  2 -1</clus>
<clus scale="   38.790">  5  6 -1 -1</clus>
<clus scale="  108.153">  2  3  1 -1</clus>
<clus scale="   38.488">  1  3  2 -1</clus>
</clustering>
</event>
<event>
 6    0  0.4340992E+002  0.1303841E+03  0.7546771E-02  0.1226887E+00
         21   -1    0    0  503  502  0.00000000000E+00  0.00000000000E+00  0.62181038438E+03  0.62181038438E+03  0.00000000000E+00 0.  1.
          1   -1    0    0  505    0 -0.00000000000E+00 -0.00000000000E+00 -0.14495721593E+04  0.14495721593E+04  0.00000000000E+00 0.  1.
         21    1    1    2  503  501 -0.40824095760E+02  0.87435691584E+01  0.41779020354E+02  0.59063891999E+02  0.00000000000E+00 0.  1.
         21    1    1    2  504  502 -0.54443646170E+02  0.80828115992E+02  0.55970704520E+03  0.56812786535E+03  0.00000000000E+00 0.  1.
         21    1    1    2  505  504 -0.28757007422E+02 -0.20497441689E+02 -0.79409692061E+02  0.86908053625E+02  0.00000000000E+00 0. -1.
          1    1    1    2  501    0  0.12402474935E+03 -0.69074243461E+02 -0.13498381484E+04  0.13572827327E+04  0.00000000000E+00 0.  1.
<scales pt_clust_3="41.90096" pt_clust_4="14000.00000" pt_clust_5="35.31445" pt_clust_6="130.38409"></scales>
<clustering>
<clus scale="   35.314">  2  5  1 -1</clus>
<clus scale="   41.901">  1  3  2 -1</clus>
<clus scale="  130.384">  2  6  1 -1</clus>
<clus scale="   41.901">  1  3  2 -1</clus>
</clustering>
</event>
<event>
 6    0  0.4340992E+002  0.1138793E+03  0.7546771E-02  0.1253550E+00
         21   -1    0    0  501  502  0.00000000000E+00  0.00000000000E+00  0.12512716139E+04  0.12512716139E+04  0.00000000000E+00 0.  1.
          1   -1    0    0  503    0 -0.00000000000E+00 -0.00000000000E+00 -0.53704112769E+02  0.53704112769E+02  0.00000000000E+00 0. -1.
         21    1    1    2  503  504  0.48091927278E+02 -0.31003622391E+01  0.11104410289E+03  0.12105056175E+03  0.00000000000E+00 0. -1.
         21    1    1    2  504  505 -0.10586643630E+02 -0.74911019979E+02  0.42032232637E+02  0.86547365749E+02  0.00000000000E+00 0. -1.
         21    1    1    2  505  502 -0.92238294876E+02 -0.62471237202E+02  0.81637095018E+03  0.82393694347E+03  0.00000000000E+00 0.  1.
          1    1    1    2  501    0  0.54733011228E+02  0.14048261942E+03  0.22812021545E+03  0.27344085571E+03  0.00000000000E+00 0. -1.
<scales pt_clust_3="48.19176" pt_clust_4="77.17351" pt_clust_5="113.87927" pt_clust_6="14000.00000"></scales>
<clustering>
<clus scale="   48.192">  2  3  1 -1</clus>
<clus scale="   77.174">  2  4  1 -1</clus>
<clus scale="  113.879">  1  5  2 -1</clus>
<clus scale="  113.879">  1  3  2 -1</clus>
</clustering>
</event>
<event>
 6    0  0.4340992E+002  0.7749087E+02  0.7546771E-02  0.1336327E+00
         21   -1    0    0  505  502  0.00000000000E+00  0.00000000000E+00  0.21359646661E+02  0.21359646661E+02  0.00000000000E+00 0.  1.
          2   -1    0    0  504    0 -0.00000000000E+00 -0.00000000000E+00 -0.14886837535E+04  0.14886837535E+04  0.00000000000E+00 0. -1.
         21    1    1    2  503  501 -0.38508381729E+02 -0.32443809960E+02 -0.69557567951E+02  0.85870550990E+02  0.00000000000E+00 0.  1.
         21    1    1    2  504  502 -0.46501799829E+02  0.43235516762E+02 -0.53803516036E+03  0.54176891852E+03  0.00000000000E+00 0.  1.
         21    1    1    2  505  503 -0.24859343451E+02  0.18140523647E+02 -0.24110314418E+02  0.39094409017E+02  0.00000000000E+00 0. -1.
          2    1    1    2  501    0  0.10986952501E+03 -0.28932230448E+02 -0.83562106406E+03  0.84330952158E+03  0.00000000000E+00 0. -1.
<scales pt_clust_3="57.41860" pt_clust_4="77.49087" pt_clust_5="30.77443" pt_clust_6="14000.00000"></scales>
<clustering>
<clus scale="   30.774">  1  5  2 -1</clus>
<clus scale="   57.419">  1  3  2 -1</clus>
<clus scale="   77.491">  2  4  1 -1</clus>
<clus scale="   30.774">  1  3  2 -1</clus>
</clustering>
</event>
<event>
 6    0  0.4340992E+002  0.2021592E+03  0.7546771E-02  0.1147930E+00
         21   -1    0    0  505  502  0.00000000000E+00  0.00000000000E+00  0.12362440360E+03  0.12362440360E+03  0.00000000000E+00 0.  1.
          2   -1    0    0  504    0 -0.00000000000E+00 -0.00000000000E+00 -0.14608176952E+04  0.14608176952E+04  0.00000000000E+00 0.  1.
         21    1    1    2  503  502 -0.57468400634E+02  0.24826573625E+03 -0.14288638933E+03  0.29215580282E+03  0.00000000000E+00 0.  1.
         21    1    1    2  504  503 -0.98207915269E+02 -0.88014364120E+02 -0.58355045215E+03  0.59826620590E+03  0.00000000000E+00 0.  1.
         21    1    1    2  505  501  0.34512948965E+02 -0.41652287713E+02  0.59616733335E+01  0.54420568418E+02  0.00000000000E+00 0.  1.
          2    1    1    2  501    0  0.12116336694E+03 -0.11859908441E+03 -0.61671812346E+03  0.63959952166E+03  0.00000000000E+00 0.  1.
<scales pt_clust_3="202.15921" pt_clust_4="132.10990" pt_clust_5="54.09304" pt_clust_6="14000.00000"></scales>
<clustering>
<clus scale="   54.093">  1  5  2 -1</clus>
<clus scale="  132.110">  2  4  1 -1</clus>
<clus scale="  202.159">  1  3  2 -1</clus>
<clus scale="   54.093">  1  3  2 -1</clus>
</clustering>
</event>
<event>
 6    0  0.4340992E+002  0.1309336E+03  0.7546771E-02  0.1226077E+00
         21   -1    0    0  505  502  0.00000000000E+00  0.00000000000E+00  0.14844551807E+03  0.14844551807E+03  0.00000000000E+00 0.  1.
          2   -1    0    0  503    0 -0.00000000000E+00 -0.00000000000E+00 -0.80844895386E+03  0.80844895386E+03  0.00000000000E+00 0.  1.
         21    1    1    2  503  502  0.10522079513E+03  0.58665892596E+02  0.52619833953E+02  0.13146082918E+03  0.00000000000E+00 0.  1.
         21    1    1    2  504  501 -0.61079508197E+02  0.54558127982E+01 -0.32523748837E+03  0.33096811940E+03  0.00000000000E+00 0.  1.
         21    1    1    2  505  504  0.17067546588E+02 -0.30663480785E+02  0.44674765037E+02  0.56810076848E+02  0.00000000000E+00 0.  1.
          2    1    1    2  501    0 -0.61208833523E+02 -0.33458224609E+02 -0.43206054640E+03  0.43765544650E+03  0.00000000000E+00 0.  1.
<scales pt_clust_3="124.90118" pt_clust_4="36.66127" pt_clust_5="35.09345" pt_clust_6="36.66127"></scales>
<clustering>
<clus scale="   35.093">  1  5  2 -1</clus>
<clus scale="   36.661">  4  6 -1 -1</clus>
<clus scale="  124.901">  1  3  2 -1</clus>
<clus scale="   35.093">  1  3  2 -1</clus>
</clustering>
</event>
<event>
 6    0  0.4340992E+002  0.7461513E+02  0.7546771E-02  0.1345067E+00
         21   -1    0    0  504  502  0.00000000000E+00  0.00000000000E+00  0.73094679198E+02  0.73094679198E+02  0.00000000000E+00 0. -1.
          2   -1    0    0  503    0 -0.00000000000E+00 -0.00000000000E+00 -0.92082644816E+03  0.92082644816E+03  0.00000000000E+00 0.  1.
         21    1    1    2  503  505  0.30733233230E+02  0.44963122255E+02 -0.18650341926E+03  0.19429292159E+03  0.00000000000E+00 0.  1.
         21    1    1    2  504  501  0.56654264999E+02 -0.88235942923E+02 -0.35959944946E+02  0.11085307847E+03  0.00000000000E+00 0. -1.
         21    1    1    2  505  502 -0.30625410038E+02  0.19746030766E+02  0.19334054972E+02  0.41250783662E+02  0.00000000000E+00 0. -1.
          2    1    1    2  501    0 -0.56762088191E+02  0.23526789902E+02 -0.64460245973E+03  0.64752434363E+03  0.00000000000E+00 0.  1.
<scales pt_clust_3="54.47472" pt_clust_4="14000.00000" pt_clust_5="36.43928" pt_clust_6="74.61513"></scales>
<clustering>
<clus scale="   36.439">  1  5  2 -1</clus>
<clus scale="   54.475">  2  3  1 -1</clus>
<clus scale="   74.615">  2  6  1 -1</clus>
<clus scale="   36.439">  1  3  2 -1</clus>
</clustering>
</event>
<event>
 6    0  0.4340992E+002  0.1084833E+03  0.7546771E-02  0.1263405E+00
          2   -1    0    0  504    0 -0.00000000000E+00  0.00000000000E+00  0.10564913975E+04  0.10564913975E+04  0.00000000000E+00 0. -1.
         21   -1    0    0  503  502  0.00000000000E+00 -0.00000000000E+00 -0.12809791039E+03  0.12809791039E+03  0.00000000000E+00 0.  1.
         21    1    1    2  503  501  0.70723527549E+01  0.78297071397E+02  0.28936551998E+03  0.29985472102E+03  0.00000000000E+00 0. -1.
         21    1    1    2  504  505  0.36625874066E+02 -0.44165974814E+02  0.14057101225E+03  0.15182983062E+03  0.00000000000E+00 0. -1.
         21    1    1    2  505  502 -0.21103208687E+02 -0.10923495178E+03 -0.87612612928E+02  0.14161069893E+03  0.00000000000E+00 0.  1.
          2    1    1    2  501    0 -0.22595018134E+02  0.75103855201E+02  0.58606956780E+03  0.59129405731E+03  0.00000000000E+00 0. -1.
<scales pt_clust_3="108.48328" pt_clust_4="57.37672" pt_clust_5="14000.00000" pt_clust_6="46.55466"></scales>
<clustering>
<clus scale="   57.377">  1  4  2 -1</clus>
<clus scale="   46.555">  1  6  2 -1</clus>
<clus scale="  108.483">  1  3  2 -1</clus>
<clus scale="  108.483">  2  3  1 -1</clus>
</clustering>
</event>
<event>
 6    0  0.4340992E+002  0.1594439E+03  0.7546771E-02  0.1189326E+00
         21   -1    0    0  503  502  0.00000000000E+00  0.00000000000E+00  0.51855187017E+03  0.51855187017E+03  0.00000000000E+00 0. -1.
         -1   -1    0    0    0  501 -0.00000000000E+00 -0.00000000000E+00 -0.54867688983E+03  0.54867688983E+03  0.00000000000E+00 0. -1.
         21    1    1    2  503  505 -0.80355415904E+02 -0.26606894413E+02 -0.25987000630E+01  0.84685730424E+02  0.00000000000E+00 0.  1.
         21    1    1    2  504  502  0.14229002927E+03  0.75329119296E+02  0.44927908137E+03  0.47725530023E+03  0.00000000000E+00 0. -1.
         21    1    1    2  505  501  0.47440975606E+02 -0.46836754035E+01 -0.10697171686E+03  0.11711332627E+03  0.00000000000E+00 0.  1.
         -1    1    1    2    0  504 -0.10937558897E+03 -0.44038549480E+02 -0.36983368411E+03  0.38817440308E+03  0.00000000000E+00 0. -1.
<scales pt_clust_3="80.31487" pt_clust_4="14000.00000" pt_clust_5="47.67162" pt_clust_6="159.44386"></scales>
<clustering>
<clus scale="   47.672">  2  5  1 -1</clus>
<clus scale="   80.315">  2  3  1 -1</clus>
<clus scale="  159.444">  2  6  1 -1</clus>
<clus scale="  159.444">  1  3  2 -1</clus>
</clustering>
</event>
<event>
 6    0  0.4340992E+002  0.1519048E+03  0.7546771E-02  0.1198152E+00
          2   -1    0    0  504    0 -0.00000000000E+00  0.00000000000E+00  0.17237076990E+04  0.17237076990E+04  0.00000000000E+00 0.  1.
         21   -1    0    0  505  502  0.00000000000E+00 -0.00000000000E+00 -0.53055158162E+02  0.53055158162E+02  0.00000000000E+00 0.  1.
         21    1    1    2  503  501 -0.37900574916E+02  0.29527456084E+02  0.67724733191E+03  0.67894938900E+03  0.00000000000E+00 0.  1.
         21    1    1    2  504  502 -0.20283995759E+02 -0.72719440529E+02  0.23203919111E+03  0.24401176965E+03  0.00000000000E+00 0.  1.
         21    1    1    2  505  503  0.13491228758E+03  0.53497145843E+02  0.75528688689E+02  0.16360884074E+03  0.00000000000E+00 0.  1.
          2    1    1    2  501    0 -0.76727716909E+02 -0.10305161399E+02  0.68583732909E+03  0.69019285774E+03  0.00000000000E+00 0.  1.
<scales pt_clust_3="43.44652" pt_clust_4="75.49541" pt_clust_5="141.53982" pt_clust_6="43.44652"></scales>
<clustering>
<clus scale="   43.447">  3  6 -1 -1</clus>
<clus scale="   75.495">  1  4  2 -1</clus>
<clus scale="  141.540">  2  5  1 -1</clus>
<clus scale="  141.540">  2  3  1 -1</clus>
</clustering>
</event>
<event>
 6    0  0.4340992E+002  0.1262560E+03  0.7546771E-02  0.1233119E+00
          2   -1    0    0  505    0 -0.00000000000E+00  0.00000000000E+00  0.40641921818E+04  0.40641921818E+04  0.00000000000E+00 0.  1.
         21   -1    0    0  504  502  0.00000000000E+00 -0.00000000000E+00 -0.19561208956E+03  0.19561208956E+03  0.00000000000E+00 0.  1.
         21    1    1    2  503  501 -0.83639584136E+02  0.14517192753E+02  0.26066406655E+04  0.26080226011E+04  0.00000000000E+00 0.  1.
         21    1    1    2  504  503 -0.40376803108E+02 -0.16106113944E+02 -0.15762534765E+03  0.16350976533E+03  0.00000000000E+00 0.  1.
         21    1    1    2  505  502  0.15415887159E+03  0.72317107396E+02  0.18545768535E+03  0.25177226767E+03  0.00000000000E+00 0.  1.
          2    1    1    2  501    0 -0.30142484344E+02 -0.70728186206E+02  0.12341070891E+04  0.12364996373E+04  0.00000000000E+00 0.  1.
<scales pt_clust_3="126.25603" pt_clust_4="43.47060" pt_clust_5="14000.00000" pt_clust_6="77.93658"></scales>
<clustering>
<clus scale="   43.471">  2  4  1 -1</clus>
<clus scale="   77.937">  1  6  2 -1</clus>
<clus scale="  126.256">  1  3  2 -1</clus>
<clus scale="   43.471">  2  3  1 -1</clus>
</clustering>
</event>
<event>
 6    0  0.4340992E+002  0.9007275E+02  0.7546771E-02  0.1302676E+00
         21   -1    0    0  504  502  0.00000000000E+00  0.00000000000E+00  0.24826546484E+03  0.24826546484E+03  0.00000000000E+00 0. -1.
          1   -1    0    0  503    0 -0.00000000000E+00 -0.00000000000E+00 -0.21862006360E+04  0.21862006360E+04  0.00000000000E+00 0.  1.
         21    1    1    2  503  505 -0.45890731765E+02  0.13772888372E+02 -0.34929558234E+03  0.35256638461E+03  0.00000000000E+00 0. -1.
         21    1    1    2  504  501  0.13288733842E+02  0.60675295116E+02 -0.43398552368E+02  0.75772793482E+02  0.00000000000E+00 0.  1.
         21    1    1    2  505  502 -0.92784794555E+02 -0.98528762956E+02  0.20804791212E+03  0.24819522350E+03  0.00000000000E+00 0. -1.
          1    1    1    2  501    0  0.12538679248E+03  0.24080579469E+02 -0.17532889486E+04  0.17579316993E+04  0.00000000000E+00 0.  1.
<scales pt_clust_3="47.91296" pt_clust_4="62.25084" pt_clust_5="14000.00000" pt_clust_6="90.07275"></scales>
<clustering>
<clus scale="   47.913">  2  3  1 -1</clus>
<clus scale="   62.251">  1  4  2 -1</clus>
<clus scale="   90.073">  2  6  1 -1</clus>
<clus scale="   62.251">  1  3  2 -1</clus>
</clustering>
</event>
<event>
 6    0  0.4340992E+002  0.1072047E+03  0.7546771E-02  0.1265836E+00
         21   -1    0    0  503  502  0.00000000000E+00  0.00000000000E+00  0.54060913273E+02  0.54060913273E+02  0.00000000000E+00 0. -1.
          2   -1    0    0  505    0 -0.00000000000E+00 -0.00000000000E+00 -0.26688371542E+04  0.26688371542E+04  0.00000000000E+00 0.  1.
         21    1    1    2  503  501  0.99623621302E+02  0.72817542355E+02 -0.38490619196E+02  0.12926247778E+03  0.00000000000E+00 0. -1.
         21    1    1    2  504  502 -0.54670531490E+02 -0.10113127043E+02 -0.28997875396E+03  0.29526059693E+03  0.00000000000E+00 0.  1.
         21    1    1    2  505  504  0.37706561131E+01 -0.67053596565E+02 -0.19040103738E+03  0.20189838457E+03  0.00000000000E+00 0. -1.
          2    1    1    2  501    0 -0.48723745925E+02  0.43491812534E+01 -0.20959058304E+04  0.20964766082E+04  0.00000000000E+00 0.  1.
<scales pt_clust_3="107.20473" pt_clust_4="14000.00000" pt_clust_5="66.82451" pt_clust_6="48.91747"></scales>
<clustering>
<clus scale="   48.917">  2  6  1 -1</clus>
<clus scale="   66.825">  2  5  1 -1</clus>
<clus scale="  107.205">  1  3  2 -1</clus>
<clus scale="  107.205">  1  3  2 -1</clus>
</clustering>
</event>
<event>
 6    0  0.4340992E+002  0.1338532E+03  0.7546771E-02  0.1221848E+00
         21   -1    0    0  504  502  0.00000000000E+00  0.00000000000E+00  0.38432205218E+03  0.38432205218E+03  0.00000000000E+00 0.  1.
          4   -1    0    0  505    0 -0.00000000000E+00 -0.00000000000E+00 -0.13137431369E+03  0.13137431369E+03  0.00000000000E+00 0.  1.
         21    1    1    2  503  501  0.13395323652E+02  0.35090298175E+02 -0.31216169596E+01  0.37689630061E+02  0.00000000000E+00 0.  1.
         21    1    1    2  504  503 -0.13057997835E+03 -0.90469383020E+02  0.27605365263E+03  0.31849875846E+03  0.00000000000E+00 0.  1.
         21    1    1    2  505  502  0.40204031464E+02  0.11782898755E+02  0.35641748112E+02  0.55004863944E+02  0.00000000000E+00 0. -1.
          4    1    1    2  501    0  0.76980623233E+02  0.43596186090E+02 -0.55626045296E+02  0.10450311340E+03  0.00000000000E+00 0.  1.
<scales pt_clust_3="31.97483" pt_clust_4="124.53340" pt_clust_5="41.89512" pt_clust_6="31.97483"></scales>
<clustering>
<clus scale="   31.975">  3  6 -1 -1</clus>
<clus scale="   41.895">  1  5  2 -1</clus>
<clus scale="  124.533">  1  4  2 -1</clus>
<clus scale="   41.895">  1  3  2 -1</clus>
</clustering>
</event>
<event>
 6    0  0.4340992E+002  0.8543202E+02  0.7546771E-02  0.1314307E+00
          2   -1    0    0  503    0 -0.00000000000E+00  0.00000000000E+00  0.31249916956E+04  0.31249916956E+04  0.00000000000E+00 0. -1.
         21   -1    0    0  505  502  0.00000000000E+00 -0.00000000000E+00 -0.16556495894E+04  0.16556495894E+04  0.00000000000E+00 0.  1.
         21    1    1    2  503  504 -0.62110373063E+02  0.21490081824E+02  0.46856656725E+03  0.47315341064E+03  0.00000000000E+00 0.  1.
         21    1    1    2  504  502  0.76774297502E+01  0.39520567968E+02 -0.50585828790E+02  0.64650941946E+02  0.00000000000E+00 0.  1.
         21    1    1    2  505  501  0.40457751369E+00  0.45570168305E+02 -0.15940634661E+04  0.15947147513E+04  0.00000000000E+00 0.  1.
          2    1    1    2  501    0  0.54028365799E+02 -0.10658081810E+03  0.26454248338E+04  0.26481221811E+04  0.00000000000E+00 0. -1.
<scales pt_clust_3="65.73123" pt_clust_4="40.25939" pt_clust_5="14000.00000" pt_clust_6="85.43202"></scales>
<clustering>
<clus scale="   40.259">  2  4  1 -1</clus>
<clus scale="   65.731">  1  3  2 -1</clus>
<clus scale="   85.432">  1  6  2 -1</clus>
<clus scale="   40.259">  2  3  1 -1</clus>
</clustering>
</event>
<event>
 6    0  0.4340992E+002  0.1008781E+03  0.7546771E-02  0.1278460E+00
          1   -1    0    0  505    0 -0.00000000000E+00  0.00000000000E+00  0.23995557106E+04  0.23995557106E+04  0.00000000000E+00 0. -1.
         21   -1    0    0  504  502  0.00000000000E+00 -0.00000000000E+00 -0.15981238787E+03  0.15981238787E+03  0.00000000000E+00 0.  1.
         21    1    1    2  503  502  0.11799293522E+03  0.11401332677E+03  0.13957252699E+02  0.16466990115E+03  0.00000000000E+00 0.  1.
         21    1    1    2  504  501 -0.39620328431E+02 -0.76544355613E+02 -0.58399111864E+02  0.10411179120E+03  0.00000000000E+00 0.  1.
         21    1    1    2  505  503 -0.38183871628E+02 -0.22767483759E+02  0.16254833336E+03  0.16851803182E+03  0.00000000000E+00 0. -1.
          1    1    1    2  501    0 -0.40188735158E+02 -0.14701487396E+02  0.21216368486E+04  0.21220683743E+04  0.00000000000E+00 0. -1.
<scales pt_clust_3="100.87807" pt_clust_4="14000.00000" pt_clust_5="69.68151" pt_clust_6="42.79332"></scales>
<clustering>
<clus scale="   42.793">  1  6  2 -1</clus>
<clus scale="   69.682">  1  5  2 -1</clus>
<clus scale="  100.878">  1  3  2 -1</clus>
<clus scale="  100.878">  2  3  1 -1</clus>
</clustering>
</event>
<event>
 6    0  0.4340992E+002  0.9120722E+02  0.7546771E-02  0.1299954E+00
         21   -1    0    0  505  502  0.00000000000E+00  0.00000000000E+00  0.26641326033E+02  0.26641326033E+02  0.00000000000E+00 0.  1.
          2   -1    0    0  504    0 -0.00000000000E+00 -0.00000000000E+00 -0.45547381039E+04  0.45547381039E+04  0.00000000000E+00 0.  1.
         21    1    1    2  503  502  0.72633905312E+01 -0.39158198496E+02 -0.14254555765E+02  0.42300280277E+02  0.00000000000E+00 0.  1.
         21    1    1    2  504  503 -0.52370982682E+02 -0.78716524317E+02 -0.20999313388E+04  0.21020586668E+04  0.00000000000E+00 0.  1.
         21    1    1    2  505  501 -0.22416364179E+02  0.58501287172E+02 -0.81111316931E+02  0.10248872971E+03  0.00000000000E+00 0.  1.
          2    1    1    2  501    0  0.67523956330E+02  0.59373435642E+02 -0.23327995664E+04  0.23345317532E+04  0.00000000000E+00 0.  1.
<scales pt_clust_3="39.82614" pt_clust_4="14000.00000" pt_clust_5="30.10316" pt_clust_6="91.20722"></scales>
<clustering>
<clus scale="   39.826">  1  3  2 -1</clus>
<clus scale="   30.103">  1  5  2 -1</clus>
<clus scale="   91.207">  2  6  1 -1</clus>
<clus scale="   39.826">  1  3  2 -1</clus>
</clustering>
</event>
<event>
 6    0  0.4340992E+002  0.6904447E+02  0.7546771E-02  0.1363373E+00
         21   -1    0    0  503  502  0.00000000000E+00  0.00000000000E+00  0.30483429355E+03  0.30483429355E+03  0.00000000000E+00 0. -1.
         -1   -1    0    0    0  501 -0.00000000000E+00 -0.00000000000E+00 -0.27574088599E+03  0.27574088599E+03  0.00000000000E+00 0. -1.
         21    1    1    2  503  504 -0.10422902901E+03  0.74855068662E+02  0.22273006921E+03  0.25705185376E+03  0.00000000000E+00 0. -1.
         21    1    1    2  504  501  0.38112827606E+02  0.18831035879E+02 -0.10826656034E+02  0.43868120785E+02  0.00000000000E+00 0. -1.
         21    1    1    2  505  502  0.45569937096E+02 -0.41724819496E+02  0.23354376700E+02  0.66053059277E+02  0.00000000000E+00 0. -1.
         -1    1    1    2    0  505  0.20546264308E+02 -0.51961285045E+02 -0.20616438231E+03  0.21360214571E+03  0.00000000000E+00 0. -1.
<scales pt_clust_3="69.04447" pt_clust_4="42.51112" pt_clust_5="63.20142" pt_clust_6="14000.00000"></scales>
<clustering>
<clus scale="   42.511">  2  4  1 -1</clus>
<clus scale="   63.201">  1  5  2 -1</clus>
<clus scale="   69.044">  1  3  2 -1</clus>
<clus scale="   63.201">  1  3  2 -1</clus>
</clustering>
</event>
<event>
 6    0  0.4340992E+002  0.1173561E+03  0.7546771E-02  0.1247523E+00
         21   -1    0    0  504  502  0.00000000000E+00  0.00000000000E+00  0.93452687494E+02  0.93452687494E+02  0.00000000000E+00 0. -1.
          2   -1    0    0  505    0 -0.00000000000E+00 -0.00000000000E+00 -0.30136350991E+04  0.30136350991E+04  0.00000000000E+00 0. -1.
         21    1    1    2  503  502 -0.12766361435E+03  0.51410664299E+02 -0.47918741364E+03  0.49855955735E+03  0.00000000000E+00 0. -1.
         21    1    1    2  504  501  0.48517732402E+02  0.43861926347E+02  0.68663751594E+02  0.94829055270E+02  0.00000000000E+00 0. -1.
         21    1    1    2  505  503  0.31028367304E+02 -0.20547381976E+02 -0.30689798006E+03  0.30914612184E+03  0.00000000000E+00 0. -1.
          2    1    1    2  501    0  0.48117514647E+02 -0.74725208670E+02 -0.22027607695E+04  0.22045530522E+04  0.00000000000E+00 0. -1.
<scales pt_clust_3="14000.00000" pt_clust_4="65.45009" pt_clust_5="37.21498" pt_clust_6="117.35614"></scales>
<clustering>
<clus scale="   37.215">  2  5  1 -1</clus>
<clus scale="   65.450">  1  4  2 -1</clus>
<clus scale="  117.356">  2  6  1 -1</clus>
<clus scale="   65.450">  1  3  2 -1</clus>
</clustering>
</event>
<event>
 6    0  0.4340992E+002  0.1303746E+03  0.7546771E-02  0.1226901E+00
          2   -1    0    0  505    0 -0.00000000000E+00  0.00000000000E+00  0.30352108571E+04  0.30352108571E+04  0.00000000000E+00 0. -1.
         21   -1    0    0  503  502  0.00000000000E+00 -0.00000000000E+00 -0.51207491561E+02  0.51207491561E+02  0.00000000000E+00 0. -1.
         21    1    1    2  503  501 -0.83030884929E+02 -0.66972177198E+02  0.13469294983E+03  0.17181848301E+03  0.00000000000E+00 0. -1.
         21    1    1    2  504  502  0.11063594099E+03  0.12545574041E+03  0.20070628947E+03  0.26127087261E+03  0.00000000000E+00 0. -1.
         21    1    1    2  505  504  0.56009255966E+02 -0.40505491463E+02  0.90927292684E+03  0.91189636861E+03  0.00000000000E+00 0. -1.
          2    1    1    2  501    0 -0.83614312032E+02 -0.17978071747E+02  0.17393311994E+04  0.17414326245E+04  0.00000000000E+00 0. -1.
<scales pt_clust_3="130.37456" pt_clust_4="14000.00000" pt_clust_5="69.12114" pt_clust_6="63.56914"></scales>
<clustering>
<clus scale="   69.121">  1  5  2 -1</clus>
<clus scale="   63.569">  1  6  2 -1</clus>
<clus scale="  130.375">  2  3  1 -1</clus>
<clus scale="  130.375">  2  3  1 -1</clus>
</clustering>
</event>
<event>
 6    0  0.4340992E+002  0.1585372E+03  0.7546771E-02  0.1190358E+00
         21   -1    0    0  504  502  0.00000000000E+00  0.00000000000E+00  0.28958362564E+03  0.28958362564E+03  0.00000000000E+00 0. -1.
         -3   -1    0    0    0  501 -0.00000000000E+00 -0.00000000000E+00 -0.38343013112E+03  0.38343013112E+03  0.00000000000E+00 0. -1.
         21    1    1    2  503  502  0.12497666893E+03 -0.74978858584E+02  0.15732503829E+03  0.21445783894E+03  0.00000000000E+00 0. -1.
         21    1    1    2  504  505  0.34589534275E+02  0.39789586270E+02  0.69895922158E+02  0.87550482530E+02  0.00000000000E+00 0. -1.
         21    1    1    2  505  501 -0.77328610014E+01  0.32152724166E+02 -0.43916995388E+02  0.54975424459E+02  0.00000000000E+00 0. -1.
         -3    1    1    2    0  503 -0.15183334220E+03  0.30365481474E+01 -0.27715047054E+03  0.31603001084E+03  0.00000000000E+00 0. -1.
<scales pt_clust_3="14000.00000" pt_clust_4="53.23438" pt_clust_5="33.06955" pt_clust_6="158.53721"></scales>
<clustering>
<clus scale="   33.070">  2  5  1 -1</clus>
<clus scale="   53.234">  1  4  2 -1</clus>
<clus scale="  158.537">  2  6  1 -1</clus>
<clus scale="   53.234">  1  3  2 -1</clus>
</clustering>
</event>
<event>
 6    0  0.4340992E+002  0.1763128E+03  0.7546771E-02  0.1171420E+00
          1   -1    0    0  503    0 -0.00000000000E+00  0.00000000000E+00  0.21878061932E+04  0.21878061932E+04  0.00000000000E+00 0. -1.
         21   -1    0    0  505  502  0.00000000000E+00 -0.00000000000E+00 -0.17064596399E+03  0.17064596399E+03  0.00000000000E+00 0.  1.
         21    1    1    2  503  502  0.80172890816E+02 -0.17468560027E+02 -0.34412650492E+02  0.88977938418E+02  0.00000000000E+00 0.  1.
         21    1    1    2  504  501 -0.61740840239E+02 -0.73228406240E+02  0.86272980184E+03  0.86803055351E+03  0.00000000000E+00 0. -1.
         21    1    1    2  505  504  0.36533469098E+02  0.13972842862E+03 -0.55647527149E+02  0.15477524158E+03  0.00000000000E+00 0.  1.
          1    1    1    2  501    0 -0.54965519676E+02 -0.49031462348E+02  0.12444906051E+04  0.12466684237E+04  0.00000000000E+00 0. -1.
<scales pt_clust_3="82.05390" pt_clust_4="48.07971" pt_clust_5="167.57124" pt_clust_6="48.07971"></scales>
<clustering>
<clus scale="   48.080">  4  6 -1 -1</clus>
<clus scale="   82.054">  2  3  1 -1</clus>
<clus scale="  167.571">  2  5  1 -1</clus>
<clus scale="   82.054">  2  3  1 -1</clus>
</clustering>
</event>
<event>
 6    0  0.4340992E+002  0.1031747E+03  0.7546771E-02  0.1273758E+00
          1   -1    0    0  504    0 -0.00000000000E+00  0.00000000000E+00  0.55578747417E+03  0.55578747417E+03  0.00000000000E+00 0.  1.
         21   -1    0    0  505  502  0.00000000000E+00 -0.00000000000E+00 -0.14232390561E+03  0.14232390561E+03  0.00000000000E+00 0. -1.
         21    1    1    2  503  502  0.11239229402E+03  0.49606413708E+02 -0.89016755136E+02  0.15171290891E+03  0.00000000000E+00 0. -1.
         21    1    1    2  504  503 -0.31440594509E+02 -0.19400589402E+01  0.25345129810E+02  0.40430810243E+02  0.00000000000E+00 0.  1.
         21    1    1    2  505  501 -0.72279203961E+01 -0.38663537834E+02  0.22516926862E+02  0.45322444621E+02  0.00000000000E+00 0.  1.
          1    1    1    2  501    0 -0.73723779111E+02 -0.90028169345E+01  0.45461826703E+03  0.46064521601E+03  0.00000000000E+00 0.  1.
<scales pt_clust_3="14000.00000" pt_clust_4="31.50039" pt_clust_5="39.88109" pt_clust_6="103.17468"></scales>
<clustering>
<clus scale="   31.500">  1  4  2 -1</clus>
<clus scale="   39.881">  2  5  1 -1</clus>
<clus scale="  103.175">  1  6  2 -1</clus>
<clus scale="   39.881">  2  3  1 -1</clus>
</clustering>
</event>
<event>
 6    0  0.4340992E+002  0.1122272E+03  0.7546771E-02  0.1256500E+00
          1   -1    0    0  505    0 -0.00000000000E+00  0.00000000000E+00  0.14749309175E+04  0.14749309175E+04  0.00000000000E+00 0.  1.
         21   -1    0    0  504  502  0.00000000000E+00 -0.00000000000E+00 -0.14855245358E+03  0.14855245358E+03  0.00000000000E+00 0.  1.
         21    1    1    2  503  501  0.69338942878E+01  0.37201204502E+02  0.37769427738E+03  0.37958526799E+03  0.00000000000E+00 0.  1.
         21    1    1    2  504  503  0.12254787643E+03 -0.14734830236E+03  0.53501727463E+02  0.19897723253E+03  0.00000000000E+00 0.  1.
         21    1    1    2  505  502 -0.81793733669E+02  0.57454525758E+02 -0.39545907700E+02  0.10749472644E+03  0.00000000000E+00 0.  1.
          1    1    1    2  501    0 -0.47688037049E+02  0.52692572097E+02  0.93472836677E+03  0.93742614412E+03  0.00000000000E+00 0.  1.
<scales pt_clust_3="35.17825" pt_clust_4="101.34527" pt_clust_5="99.95618" pt_clust_6="35.17825"></scales>
<clustering>
<clus scale="   35.178">  3  6 -1 -1</clus>
<clus scale="   99.956">  2  5  1 -1</clus>
<clus scale="  101.345">  2  4  1 -1</clus>
<clus scale="   99.956">  2  3  1 -1</clus>
</clustering>
</event>
<event>
 6    0  0.4340992E+002  0.1171347E+03  0.7546771E-02  0.1247900E+00
          3   -1    0    0  503    0 -0.00000000000E+00  0.00000000000E+00  0.19453763734E+03  0.19453763734E+03  0.00000000000E+00 0.  1.
         21   -1    0    0  505  502  0.00000000000E+00 -0.00000000000E+00 -0.11594785770E+04  0.11594785770E+04  0.00000000000E+00 0.  1.
         21    1    1    2  503  504  0.22823340006E+02 -0.53999022813E+02  0.11609180340E+02  0.59762633659E+02  0.00000000000E+00 0.  1.
         21    1    1    2  504  502  0.36792839267E+01  0.10763453652E+03 -0.98744252567E+03  0.99329827952E+03  0.00000000000E+00 0.  1.
         21    1    1    2  505  501 -0.49253558475E+02  0.43056402500E+01 -0.13423011502E+03  0.14304606020E+03  0.00000000000E+00 0. -1.
          3    1    1    2  501    0  0.22750934543E+02 -0.57941153954E+02  0.14512252073E+03  0.15790924092E+03  0.00000000000E+00 0.  1.
<scales pt_clust_3="58.08757" pt_clust_4="117.13469" pt_clust_5="49.44140" pt_clust_6="14000.00000"></scales>
<clustering>
<clus scale="   49.441">  2  5  1 -1</clus>
<clus scale="   58.088">  1  3  2 -1</clus>
<clus scale="  117.135">  2  4  1 -1</clus>
<clus scale="   49.441">  2  3  1 -1</clus>
</clustering>
</event>
<event>
 6    0  0.4340992E+002  0.1251491E+03  0.7546771E-02  0.1234836E+00
         21   -1    0    0  504  502  0.00000000000E+00  0.00000000000E+00  0.34518993026E+02  0.34518993026E+02  0.00000000000E+00 0. -1.
          2   -1    0    0  503    0 -0.00000000000E+00 -0.00000000000E+00 -0.19963247630E+04  0.19963247630E+04  0.00000000000E+00 0. -1.
         21    1    1    2  503  505 -0.86880649784E+02  0.31435315087E+02 -0.66215888188E+03  0.66857371411E+03  0.00000000000E+00 0. -1.
         21    1    1    2  504  501  0.53596151753E+02  0.27521151835E+02 -0.37275348324E+03  0.37759120825E+03  0.00000000000E+00 0. -1.
         21    1    1    2  505  502 -0.65954058459E+02 -0.45992678837E+02 -0.35857465641E+02  0.88039889687E+02  0.00000000000E+00 0. -1.
          2    1    1    2  501    0  0.99238556490E+02 -0.12963788086E+02 -0.89103593925E+03  0.89663894401E+03  0.00000000000E+00 0. -1.
<scales pt_clust_3="112.84451" pt_clust_4="41.98694" pt_clust_5="80.40687" pt_clust_6="41.98694"></scales>
<clustering>
<clus scale="   41.987">  4  6 -1 -1</clus>
<clus scale="   80.407">  1  5  2 -1</clus>
<clus scale="  112.845">  2  3  1 -1</clus>
<clus scale="   80.407">  1  3  2 -1</clus>
</clustering>
</event>
<event>
 6    0  0.4340992E+002  0.1003565E+03  0.7546771E-02  0.1279548E+00
         21   -1    0    0  505  502  0.00000000000E+00  0.00000000000E+00  0.10657042922E+04  0.10657042922E+04  0.00000000000E+00 0. -1.
         -4   -1    0    0    0  501 -0.00000000000E+00 -0.00000000000E+00 -0.11962907232E+03  0.11962907232E+03  0.00000000000E+00 0.  1.
         21    1    1    2  503  502  0.40780691900E+00 -0.53228457847E+02  0.26525586100E+03  0.27054409405E+03  0.00000000000E+00 0.  1.
         21    1    1    2  504  503  0.13413773257E+02 -0.13179810520E+03  0.11894321430E+03  0.17803976543E+03  0.00000000000E+00 0.  1.
         21    1    1    2  505  501 -0.26309540989E+02  0.90800872764E+02  0.61878564453E+03  0.62596538588E+03  0.00000000000E+00 0. -1.
         -4    1    1    2    0  504  0.12487960813E+02  0.94225690279E+02 -0.56909499954E+02  0.11078411916E+03  0.00000000000E+00 0.  1.
<scales pt_clust_3="53.23002" pt_clust_4="14000.00000" pt_clust_5="55.71136" pt_clust_6="100.35651"></scales>
<clustering>
<clus scale="   53.230">  1  3  2 -1</clus>
<clus scale="   55.711">  1  5  2 -1</clus>
<clus scale="  100.357">  2  6  1 -1</clus>
<clus scale="   53.230">  1  3  2 -1</clus>
</clustering>
</event>
<event>
 6    0  0.4340992E+002  0.1453413E+03  0.7546771E-02  0.1206317E+00
         21   -1    0    0  503  502  0.00000000000E+00  0.00000000000E+00  0.12732771901E+04  0.12732771901E+04  0.00000000000E+00 0.  1.
          2   -1    0    0  505    0 -0.00000000000E+00 -0.00000000000E+00 -0.16162781545E+03  0.16162781545E+03  0.00000000000E+00 0.  1.
         21    1    1    2  503  504 -0.66895993406E+01 -0.73090692781E+02  0.71420456373E+03  0.71796598733E+03  0.00000000000E+00 0.  1.
         21    1    1    2  504  501  0.89229849197E+02 -0.32613079858E+02 -0.60891587990E+02  0.11284221042E+03  0.00000000000E+00 0.  1.
         21    1    1    2  505  502 -0.94284658314E+02  0.15081692340E+03  0.50664811503E+03  0.53696150108E+03  0.00000000000E+00 0.  1.
          2    1    1    2  501    0  0.11744408457E+02 -0.45113150760E+02 -0.48311716084E+02  0.67135306750E+02  0.00000000000E+00 0.  1.
<scales pt_clust_3="73.39619" pt_clust_4="45.55549" pt_clust_5="129.97963" pt_clust_6="45.55549"></scales>
<clustering>
<clus scale="   45.555">  4  6 -1 -1</clus>
<clus scale="   73.396">  1  3  2 -1</clus>
<clus scale="  129.980">  1  5  2 -1</clus>
<clus scale="   73.396">  1  3  2 -1</clus>
</clustering>
</event>
<event>
 6    0  0.4340992E+002  0.1278097E+03  0.7546771E-02  0.1230742E+00
         21   -1    0    0  504  502  0.00000000000E+00  0.00000000000E+00  0.77739659459E+02  0.77739659459E+02  0.00000000000E+00 0. -1.
          2   -1    0    0  505    0 -0.00000000000E+00 -0.00000000000E+00 -0.10564838702E+04  0.10564838702E+04  0.00000000000E+00 0.  1.
         21    1    1    2  503  502  0.37560437837E+02 -0.40294367019E+02 -0.28631759443E+02  0.62082204799E+02  0.00000000000E+00 0. -1.
         21    1    1    2  504  501 -0.76175206673E+02  0.34258062004E+02 -0.49896143161E+03  0.50590393076E+03  0.00000000000E+00 0. -1.
         21    1    1    2  505  503  0.68136646962E+02 -0.23382049491E+02  0.33748207089E+02  0.79550388933E+02  0.00000000000E+00 0. -1.
          2    1    1    2  501    0 -0.29521878126E+02  0.29418354506E+02 -0.48489922679E+03  0.48668700518E+03  0.00000000000E+00 0.  1.
<scales pt_clust_3="55.08559" pt_clust_4="31.81419" pt_clust_5="119.61149" pt_clust_6="31.81419"></scales>
<clustering>
<clus scale="   31.814">  4  6 -1 -1</clus>
<clus scale="   55.086">  1  3  2 -1</clus>
<clus scale="  119.611">  1  5  2 -1</clus>
<clus scale="   55.086">  1  3  2 -1</clus>
</clustering>
</event>
<event>
 6    0  0.4340992E+002  0.7233788E+02  0.7546771E-02  0.1352319E+00
          2   -1    0    0  503    0 -0.00000000000E+00  0.00000000000E+00  0.28205050617E+04  0.28205050617E+04  0.00000000000E+00 0.  1.
         21   -1    0    0  501  502  0.00000000000E+00 -0.00000000000E+00 -0.31021345392E+02  0.31021345392E+02  0.00000000000E+00 0.  1.
         21    1    1    2  503  504  0.49695848658E+02 -0.45002895915E+02  0.15604773445E+04  0.15619169251E+04  0.00000000000E+00 0.  1.
         21    1    1    2  504  505 -0.32303448446E+01 -0.44384987332E+02  0.12359865177E+03  0.13136623975E+03  0.00000000000E+00 0.  1.
         21    1    1    2  505  502 -0.32663486824E+02 -0.23433282407E+02 -0.63432162798E+01  0.40697155781E+02  0.00000000000E+00 0.  1.
          2    1    1    2  501    0 -0.13802016989E+02  0.11282116565E+03  0.11117509363E+04  0.11175460865E+04  0.00000000000E+00 0.  1.
<scales pt_clust_3="14000.00000" pt_clust_4="59.99972" pt_clust_5="40.19978" pt_clust_6="72.33788"></scales>
<clustering>
<clus scale="   40.200">  2  5  1 -1</clus>
<clus scale="   60.000">  2  4  1 -1</clus>
<clus scale="   72.338">  2  6  1 -1</clus>
<clus scale="   40.200">  2  3  1 -1</clus>
</clustering>
</event>
<event>
 6    0  0.4340992E+002  0.1270689E+03  0.7546771E-02  0.1231871E+00
          2   -1    0    0  503    0 -0.00000000000E+00  0.00000000000E+00  0.18218094935E+04  0.18218094935E+04  0.00000000000E+00 0.  1.
         21   -1    0    0  504  502  0.00000000000E+00 -0.00000000000E+00 -0.38704736207E+02  0.38704736207E+02  0.00000000000E+00 0. -1.
         21    1    1    2  503  502  0.55149109591E+02 -0.78492904520E+02  0.90133822842E+02  0.13163079567E+03  0.00000000000E+00 0. -1.
         21    1    1    2  504  505 -0.14016583303E+02  0.38877166922E+02  0.47668250283E+02  0.63088515599E+02  0.00000000000E+00 0. -1.
         21    1    1    2  505  501  0.28116882027E+02 -0.97328144706E+02  0.49152092136E+03  0.50185271040E+03  0.00000000000E+00 0. -1.
          2    1    1    2  501    0 -0.69249408315E+02  0.13694388230E+03  0.11537817628E+04  0.11639422081E+04  0.00000000000E+00 0.  1.
<scales pt_clust_3="69.62320" pt_clust_4="41.32673" pt_clust_5="127.06886" pt_clust_6="14000.00000"></scales>
<clustering>
<clus scale="   41.327">  2  4  1 -1</clus>
<clus scale="   69.623">  2  3  1 -1</clus>
<clus scale="  127.069">  2  5  1 -1</clus>
<clus scale="   41.327">  2  3  1 -1</clus>
</clustering>
</event>
<event>
 6    0  0.4340992E+002  0.1084751E+03  0.7546771E-02  0.1263420E+00
         21   -1    0    0  503  502  0.00000000000E+00  0.00000000000E+00  0.15841878618E+02  0.15841878618E+02  0.00000000000E+00 0. -1.
          2   -1    0    0  505    0 -0.00000000000E+00 -0.00000000000E+00 -0.32827114160E+04  0.32827114160E+04  0.00000000000E+00 0.  1.
         21    1    1    2  503  504  0.61986106809E+01  0.10660439850E+03 -0.25146117146E+03  0.27319524392E+03  0.00000000000E+00 0. -1.
         21    1    1    2  504  501 -0.65173822518E+02 -0.28291812864E+02 -0.94262916509E+03  0.94530301846E+03  0.00000000000E+00 0.  1.
         21    1    1    2  505  502  0.44920095125E+02 -0.12020697423E+03 -0.16457902750E+04  0.16507856193E+04  0.00000000000E+00 0.  1.
          2    1    1    2  501    0  0.14055116712E+02  0.41894388599E+02 -0.42698892578E+03  0.42926941289E+03  0.00000000000E+00 0.  1.
<scales pt_clust_3="14000.00000" pt_clust_4="62.22422" pt_clust_5="108.47514" pt_clust_6="44.18921"></scales>
<clustering>
<clus scale="   44.189">  2  6  1 -1</clus>
<clus scale="   62.224">  2  4  1 -1</clus>
<clus scale="  108.475">  2  5  1 -1</clus>
<clus scale="  108.475">  1  3  2 -1</clus>
</clustering>
</event>
<event>
 6    0  0.4340992E+002  0.8612577E+02  0.7546771E-02  0.1312514E+00
         -1   -1    0    0    0  501 -0.00000000000E+00  0.00000000000E+00  0.23910133525E+03  0.23910133525E+03  0.00000000000E+00 0.  1.
         21   -1    0    0  505  502  0.00000000000E+00 -0.00000000000E+00 -0.87387543227E+03  0.87387543227E+03  0.00000000000E+00 0.  1.
         21    1    1    2  503  502  0.18206091785E+02 -0.68790745841E+02 -0.20493247848E+03  0.21693535725E+03  0.00000000000E+00 0.  1.
         21    1    1    2  504  501 -0.59835075272E+02 -0.84209725781E+02  0.70409750182E+02  0.12501618723E+03  0.00000000000E+00 0.  1.
         21    1    1    2  505  504  0.16149844384E+02  0.77354072369E+02 -0.62114800262E+03  0.62615438284E+03  0.00000000000E+00 0.  1.
         -1    1    1    2    0  503  0.25479139103E+02  0.75646399253E+02  0.12089663391E+03  0.14487084020E+03  0.00000000000E+00 0.  1.
<scales pt_clust_3="71.15918" pt_clust_4="86.12577" pt_clust_5="35.59679" pt_clust_6="14000.00000"></scales>
<clustering>
<clus scale="   71.159">  2  3  1 -1</clus>
<clus scale="   35.597">  2  5  1 -1</clus>
<clus scale="   86.126">  2  4  1 -1</clus>
<clus scale="   71.159">  2  3  1 -1</clus>
</clustering>
</event>
<event>
 6    0  0.4340992E+002  0.9263995E+02  0.7546771E-02  0.1296582E+00
          2   -1    0    0  502    0 -0.00000000000E+00  0.00000000000E+00  0.86645106129E+03  0.86645106129E+03  0.00000000000E+00 0. -1.
         21   -1    0    0  505  502  0.00000000000E+00 -0.00000000000E+00 -0.22891530790E+03  0.22891530790E+03  0.00000000000E+00 0. -1.
         21    1    1    2  503  501 -0.17525190580E+02 -0.64344710293E+02  0.33411843780E+03  0.34070882661E+03  0.00000000000E+00 0.  1.
         21    1    1    2  504  503  0.76976085487E+02  0.10064101989E+03  0.49423551184E+02  0.13600227952E+03  0.00000000000E+00 0.  1.
         21    1    1    2  505  504 -0.33160881483E+02 -0.16847615121E+02 -0.17981195289E+03  0.18361869349E+03  0.00000000000E+00 0. -1.
          2    1    1    2  501    0 -0.26290013424E+02 -0.19448694479E+02  0.43380571729E+03  0.43503656959E+03  0.00000000000E+00 0. -1.
<scales pt_clust_3="14000.00000" pt_clust_4="92.63995" pt_clust_5="37.33732" pt_clust_6="32.70193"></scales>
<clustering>
<clus scale="   32.702">  1  6  2 -1</clus>
<clus scale="   37.337">  2  5  1 -1</clus>
<clus scale="   92.640">  2  4  1 -1</clus>
<clus scale="   37.337">  2  3  1 -1</clus>
</clustering>
</event>
<event>
 6    0  0.4340992E+002  0.1200452E+03  0.7546771E-02  0.1243022E+00
         21   -1    0    0  503  502  0.00000000000E+00  0.00000000000E+00  0.43716894086E+03  0.43716894086E+03  0.00000000000E+00 0.  1.
          2   -1    0    0  504    0 -0.00000000000E+00 -0.00000000000E+00 -0.12013675763E+04  0.12013675763E+04  0.00000000000E+00 0. -1.
         21    1    1    2  503  501  0.79150039880E+02 -0.94464184984E+02  0.38264049886E+03  0.40199746570E+03  0.00000000000E+00 0.  1.
         21    1    1    2  504  505 -0.83153574159E+01 -0.34517476946E+02 -0.45841087368E+03  0.45978378668E+03  0.00000000000E+00 0. -1.
         21    1    1    2  505  502 -0.47059846266E+02  0.90846914059E+02 -0.16868361246E+02  0.10369345464E+03  0.00000000000E+00 0.  1.
          2    1    1    2  501    0 -0.23774836198E+02  0.38134747871E+02 -0.67155989941E+03  0.67306181018E+03  0.00000000000E+00 0. -1.
<scales pt_clust_3="14000.00000" pt_clust_4="35.50495" pt_clust_5="120.04521" pt_clust_6="32.05151"></scales>
<clustering>
<clus scale="   35.505">  2  4  1 -1</clus>
<clus scale="   32.052">  2  6  1 -1</clus>
<clus scale="  120.045">  2  5  1 -1</clus>
<clus scale="  120.045">  1  3  2 -1</clus>
</clustering>
</event>
<event>
 6    0  0.4340992E+002  0.3436400E+03  0.7546771E-02  0.1065256E+00
         21   -1    0    0  505  502  0.00000000000E+00  0.00000000000E+00  0.39637792669E+03  0.39637792669E+03  0.00000000000E+00 0.  1.
          1   -1    0    0  502    0 -0.00000000000E+00 -0.00000000000E+00 -0.60726895204E+03  0.60726895204E+03  0.00000000000E+00 0. -1.
         21    1    1    2  503  504  0.21341550825E+03  0.11464055826E+03  0.13181873666E+03  0.27579850633E+03  0.00000000000E+00 0.  1.
         21    1    1    2  504  501 -0.14030302360E+03 -0.61409620727E+02 -0.24986497636E+03  0.29306754573E+03  0.00000000000E+00 0.  1.
         21    1    1    2  505  503  0.73285728371E+02  0.49981935556E+02  0.12466734815E+03  0.15300633830E+03  0.00000000000E+00 0.  1.
          1    1    1    2  501    0 -0.14639821302E+03 -0.10321287309E+03 -0.21751213379E+03  0.28177448837E+03  0.00000000000E+00 0. -1.
<scales pt_clust_3="56.73402" pt_clust_4="48.08144" pt_clust_5="56.73402" pt_clust_6="334.66700"></scales>
<clustering>
<clus scale="   48.081">  4  6 -1 -1</clus>
<clus scale="   56.734">  3  5 -1 -1</clus>
<clus scale="  334.667">  2  4  1 -1</clus>
<clus scale="  343.640">  1  3  2 -1</clus>
</clustering>
</event>
<event>
 6    0  0.4340992E+002  0.1895475E+03  0.7546771E-02  0.1158870E+00
         21   -1    0    0  505  502  0.00000000000E+00  0.00000000000E+00  0.58577068513E+02  0.58577068513E+02  0.00000000000E+00 0.  1.
         -4   -1    0    0    0  501 -0.00000000000E+00 -0.00000000000E+00 -0.22906063297E+04  0.22906063297E+04  0.00000000000E+00 0.  1.
         21    1    1    2  503  501  0.87844276013E+02  0.38584925655E+02 -0.42134262902E+03  0.43212848129E+03  0.00000000000E+00 0. -1.
         21    1    1    2  504  502 -0.14072432586E+03 -0.18641330067E+03 -0.30936158059E+03  0.38763106442E+03  0.00000000000E+00 0.  1.
         21    1    1    2  505  503  0.23210392540E+02  0.28064366893E+02 -0.17371548495E+02  0.40349742354E+02  0.00000000000E+00 0.  1.
         -4    1    1    2    0  504  0.29669657307E+02  0.11976400812E+03 -0.14839535031E+04  0.14890741101E+04  0.00000000000E+00 0.  1.
<scales pt_clust_3="99.68888" pt_clust_4="14000.00000" pt_clust_5="36.41883" pt_clust_6="189.54750"></scales>
<clustering>
<clus scale="   36.419">  1  5  2 -1</clus>
<clus scale="   99.689">  2  3  1 -1</clus>
<clus scale="  189.548">  2  6  1 -1</clus>
<clus scale="   36.419">  1  3  2 -1</clus>
</clustering>
</event>
<event>
 6    0  0.4340992E+002  0.1030112E+03  0.7546771E-02  0.1274088E+00
         21   -1    0    0  503  502  0.00000000000E+00  0.00000000000E+00  0.32729839723E+02  0.32729839723E+02  0.00000000000E+00 0. -1.
         -4   -1    0    0    0  501 -0.00000000000E+00 -0.00000000000E+00 -0.92200669152E+03  0.92200669152E+03  0.00000000000E+00 0. -1.
         21    1    1    2  503  501 -0.81067938108E+02  0.41521216697E+02 -0.21750808213E+03  0.23580879504E+03  0.00000000000E+00 0. -1.
         21    1    1    2  504  505  0.30630541148E+02  0.34394866900E+02 -0.15034294178E+03  0.15723942592E+03  0.00000000000E+00 0. -1.
         21    1    1    2  505  502  0.21297371462E+02 -0.12068630558E+03 -0.19074738476E+03  0.22672301863E+03  0.00000000000E+00 0. -1.
         -4    1    1    2    0  504  0.29140025498E+02  0.44770221985E+02 -0.33067844313E+03  0.33496529165E+03  0.00000000000E+00 0. -1.
<scales pt_clust_3="91.08250" pt_clust_4="30.00617" pt_clust_5="97.81116" pt_clust_6="30.00617"></scales>
<clustering>
<clus scale="   30.006">  4  6 -1 -1</clus>
<clus scale="   91.083">  1  3  2 -1</clus>
<clus scale="   97.811">  1  5  2 -1</clus>
<clus scale="   91.083">  1  3  2 -1</clus>
</clustering>
</event>
<event>
 6    0  0.4340992E+002  0.1371410E+03  0.7546771E-02  0.1217228E+00
          2   -1    0    0  505    0 -0.00000000000E+00  0.00000000000E+00  0.36671975474E+03  0.36671975474E+03  0.00000000000E+00 0. -1.
         21   -1    0    0  504  502  0.00000000000E+00 -0.00000000000E+00 -0.21669442159E+03  0.21669442159E+03  0.00000000000E+00 0. -1.
         21    1    1    2  503  502 -0.30083496942E+02  0.45325955341E+02 -0.11250667646E+03  0.12496884117E+03  0.00000000000E+00 0. -1.
         21    1    1    2  504  501 -0.49974468905E+01 -0.76112213705E+02  0.15145599770E+03  0.16957878049E+03  0.00000000000E+00 0. -1.
         21    1    1    2  505  503  0.59428080817E+01  0.91954744798E+02 -0.56515591912E+02  0.10809719787E+03  0.00000000000E+00 0. -1.
          2    1    1    2  501    0  0.29138135751E+02 -0.61168486434E+02  0.16759160382E+03  0.18076935680E+03  0.00000000000E+00 0. -1.
<scales pt_clust_3="54.40091" pt_clust_4="36.78922" pt_clust_5="131.46856" pt_clust_6="36.78922"></scales>
<clustering>
<clus scale="   36.789">  4  6 -1 -1</clus>
<clus scale="   54.401">  2  3  1 -1</clus>
<clus scale="  131.469">  2  5  1 -1</clus>
<clus scale="   54.401">  2  3  1 -1</clus>
</clustering>
</event>
<event>
 6    0  0.4340992E+002  0.1916361E+03  0.7546771E-02  0.1156994E+00
         21   -1    0    0  505  502  0.00000000000E+00  0.00000000000E+00  0.20246113894E+03  0.20246113894E+03  0.00000000000E+00 0. -1.
         -4   -1    0    0    0  501 -0.00000000000E+00 -0.00000000000E+00 -0.65027224058E+03  0.65027224058E+03  0.00000000000E+00 0.  1.
         21    1    1    2  503  504  0.64613077506E+02 -0.60054581264E+02 -0.32663945204E+03  0.33834115053E+03  0.00000000000E+00 0.  1.
         21    1    1    2  504  502 -0.74284960602E+02  0.17679457657E+03  0.12211134987E+03  0.22734502292E+03  0.00000000000E+00 0. -1.
         21    1    1    2  505  501  0.12404561518E+02 -0.80152217105E+02 -0.62002021718E+02  0.10209065457E+03  0.00000000000E+00 0. -1.
         -4    1    1    2    0  503 -0.27326784228E+01 -0.36587778205E+02 -0.18128097776E+03  0.18495655150E+03  0.00000000000E+00 0.  1.
<scales pt_clust_3="33.43904" pt_clust_4="184.48848" pt_clust_5="81.10642" pt_clust_6="33.43904"></scales>
<clustering>
<clus scale="   33.439">  3  6 -1 -1</clus>
<clus scale="   81.106">  2  5  1 -1</clus>
<clus scale="  184.488">  1  4  2 -1</clus>
<clus scale="  184.488">  1  3  2 -1</clus>
</clustering>
</event>
<event>
 6    0  0.4340992E+002  0.1407907E+03  0.7546771E-02  0.1212269E+00
          1   -1    0    0  505    0 -0.00000000000E+00  0.00000000000E+00  0.57731639698E+03  0.57731639698E+03  0.00000000000E+00 0.  1.
         21   -1    0    0  501  502  0.00000000000E+00 -0.00000000000E+00 -0.21506413822E+03  0.21506413822E+03  0.00000000000E+00 0.  1.
         21    1    1    2  503  504 -0.16110191255E+01  0.11366706961E+03 -0.76175675794E+02  0.13684126453E+03  0.00000000000E+00 0.  1.
         21    1    1    2  504  502  0.90384946376E+02  0.11450575477E+02 -0.68192335284E+02  0.11380135676E+03  0.00000000000E+00 0.  1.
         21    1    1    2  505  503 -0.44128527893E+02 -0.10663234918E+02  0.44518221583E+02  0.63583831324E+02  0.00000000000E+00 0. -1.
          1    1    1    2  501    0 -0.44645399357E+02 -0.11445441016E+03  0.46210204825E+03  0.47815408258E+03  0.00000000000E+00 0.  1.
<scales pt_clust_3="140.79071" pt_clust_4="89.14132" pt_clust_5="45.39859" pt_clust_6="14000.00000"></scales>
<clustering>
<clus scale="   45.399">  1  5  2 -1</clus>
<clus scale="   89.141">  2  4  1 -1</clus>
<clus scale="  140.791">  2  3  1 -1</clus>
<clus scale="   89.141">  2  3  1 -1</clus>
</clustering>
</event>
<event>
 6    0  0.4340992E+002  0.1382138E+03  0.7546771E-02  0.1215753E+00
         21   -1    0    0  504  502  0.00000000000E+00  0.00000000000E+00  0.10401359152E+03  0.10401359152E+03  0.00000000000E+00 0. -1.
          3   -1    0    0  503    0 -0.00000000000E+00 -0.00000000000E+00 -0.21239468141E+04  0.21239468141E+04  0.00000000000E+00 0.  1.
         21    1    1    2  503  505  0.30853964384E+02  0.42918743401E+02 -0.20984142923E+03  0.21639642112E+03  0.00000000000E+00 0. -1.
         21    1    1    2  504  501  0.11329935818E+02 -0.94628923578E+02  0.63569483634E+02  0.11456037654E+03  0.00000000000E+00 0. -1.
         21    1    1    2  505  502  0.30247187436E+02 -0.42109322147E+02 -0.59276016537E+02  0.78751085681E+02  0.00000000000E+00 0. -1.
          3    1    1    2  501    0 -0.72431087638E+02  0.93819502323E+02 -0.18143852605E+04  0.18182525223E+04  0.00000000000E+00 0.  1.
<scales pt_clust_3="52.31121" pt_clust_4="138.21384" pt_clust_5="51.84677" pt_clust_6="14000.00000"></scales>
<clustering>
<clus scale="   51.847">  1  5  2 -1</clus>
<clus scale="   52.311">  2  3  1 -1</clus>
<clus scale="  138.214">  1  4  2 -1</clus>
<clus scale="   51.847">  1  3  2 -1</clus>
</clustering>
</event>
<event>
 6    0  0.4340992E+002  0.3412524E+03  0.7546771E-02  0.1066264E+00
         21   -1    0    0  501  502  0.00000000000E+00  0.00000000000E+00  0.22373944409E+03  0.22373944409E+03  0.00000000000E+00 0.  1.
          2   -1    0    0  503    0 -0.00000000000E+00 -0.00000000000E+00 -0.28745524735E+04  0.28745524735E+04  0.00000000000E+00 0.  1.
         21    1    1    2  503  505 -0.28785931344E+03 -0.15901696471E+03 -0.19404512186E+04  0.19681210103E+04  0.00000000000E+00 0.  1.
         21    1    1    2  504  502 -0.66120292942E+02 -0.34820334169E+02  0.49067929942E+02  0.89398045611E+02  0.00000000000E+00 0.  1.
         21    1    1    2  505  504 -0.83193151256E+02  0.18724726215E+03 -0.55788139421E+02  0.21235572537E+03  0.00000000000E+00 0.  1.
          2    1    1    2  501    0  0.43717275764E+03  0.65900367366E+01 -0.70364160135E+03  0.82841713633E+03  0.00000000000E+00 0.  1.
<scales pt_clust_3="341.25235" pt_clust_4="74.72850" pt_clust_5="205.87221" pt_clust_6="14000.00000"></scales>
<clustering>
<clus scale="   74.729">  1  4  2 -1</clus>
<clus scale="  205.872">  1  5  2 -1</clus>
<clus scale="  341.252">  2  3  1 -1</clus>
<clus scale="   74.729">  1  3  2 -1</clus>
</clustering>
</event>
<event>
 6    0  0.4340992E+002  0.8214873E+02  0.7546771E-02  0.1323062E+00
          1   -1    0    0  504    0 -0.00000000000E+00  0.00000000000E+00  0.26407517564E+03  0.26407517564E+03  0.00000000000E+00 0.  1.
         21   -1    0    0  503  502  0.00000000000E+00 -0.00000000000E+00 -0.77193382413E+02  0.77193382413E+02  0.00000000000E+00 0. -1.
         21    1    1    2  503  501 -0.34862489635E+02 -0.11742648999E+01  0.20521120538E+02  0.40470834804E+02  0.00000000000E+00 0.  1.
         21    1    1    2  504  505  0.96870232499E+02 -0.46390774566E+02  0.50435267254E+02  0.11865775193E+03  0.00000000000E+00 0.  1.
         21    1    1    2  505  502 -0.21440752162E+02  0.71495516525E+02  0.23242640608E+02  0.78176307657E+02  0.00000000000E+00 0. -1.
          1    1    1    2  501    0 -0.40566990702E+02 -0.23930477059E+02  0.92682764822E+02  0.10396366366E+03  0.00000000000E+00 0.  1.
<scales pt_clust_3="34.88226" pt_clust_4="82.14873" pt_clust_5="14000.00000" pt_clust_6="49.68883"></scales>
<clustering>
<clus scale="   34.882">  2  3  1 -1</clus>
<clus scale="   49.689">  1  6  2 -1</clus>
<clus scale="   82.149">  1  4  2 -1</clus>
<clus scale="   34.882">  2  3  1 -1</clus>
</clustering>
</event>
<event>
 6    0  0.4340992E+002  0.1113902E+03  0.7546771E-02  0.1258017E+00
          2   -1    0    0  505    0 -0.00000000000E+00  0.00000000000E+00  0.27653592120E+04  0.27653592120E+04  0.00000000000E+00 0. -1.
         21   -1    0    0  504  502  0.00000000000E+00 -0.00000000000E+00 -0.22334829972E+03  0.22334829972E+03  0.00000000000E+00 0. -1.
         21    1    1    2  503  501 -0.61119261718E+02  0.24676705116E+02  0.96991130644E+03  0.97214836640E+03  0.00000000000E+00 0. -1.
         21    1    1    2  504  503  0.11397286359E+03 -0.43808199250E+02 -0.17487098436E+03  0.21328111291E+03  0.00000000000E+00 0. -1.
         21    1    1    2  505  502 -0.66091327054E+00  0.58788423282E+02  0.38421541020E+01  0.58917549732E+02  0.00000000000E+00 0. -1.
          2    1    1    2  501    0 -0.52192688598E+02 -0.39656929148E+02  0.17431284361E+04  0.17443604826E+04  0.00000000000E+00 0. -1.
<scales pt_clust_3="14000.00000" pt_clust_4="111.39017" pt_clust_5="58.79214" pt_clust_6="65.43952"></scales>
<clustering>
<clus scale="   58.792">  2  5  1 -1</clus>
<clus scale="   65.440">  1  6  2 -1</clus>
<clus scale="  111.390">  2  4  1 -1</clus>
<clus scale="   58.792">  2  3  1 -1</clus>
</clustering>
</event>
<event>
 6    0  0.4340992E+002  0.2066253E+03  0.7546771E-02  0.1144267E+00
          2   -1    0    0  505    0 -0.00000000000E+00  0.00000000000E+00  0.38762708683E+03  0.38762708683E+03  0.00000000000E+00 0.  1.
         21   -1    0    0  504  502  0.00000000000E+00 -0.00000000000E+00 -0.22021157834E+03  0.22021157834E+03  0.00000000000E+00 0.  1.
         21    1    1    2  503  501 -0.35519395536E+02 -0.12548230828E+03  0.16527662853E+03  0.21053218540E+03  0.00000000000E+00 0.  1.
         21    1    1    2  504  503 -0.68449575693E+02 -0.61718983859E+00 -0.30848013832E+02  0.75082123659E+02  0.00000000000E+00 0. -1.
         21    1    1    2  505  502  0.15655294595E+03  0.16831456730E+03 -0.27668340871E+02  0.23152571248E+03  0.00000000000E+00 0.  1.
          2    1    1    2  501    0 -0.52583974725E+02 -0.42215069184E+02  0.60655234668E+02  0.90698643632E+02  0.00000000000E+00 0.  1.
<scales pt_clust_3="44.38634" pt_clust_4="68.45236" pt_clust_5="197.18982" pt_clust_6="44.38634"></scales>
<clustering>
<clus scale="   44.386">  3  6 -1 -1</clus>
<clus scale="   68.452">  2  4  1 -1</clus>
<clus scale="  197.190">  2  5  1 -1</clus>
<clus scale="   68.452">  2  3  1 -1</clus>
</clustering>
</event>
<event>
 6    0  0.4340992E+002  0.1018095E+03  0.7546771E-02  0.1276536E+00
          1   -1    0    0  504    0 -0.00000000000E+00  0.00000000000E+00  0.64908924477E+03  0.64908924477E+03  0.00000000000E+00 0.  1.
         21   -1    0    0  503  502  0.00000000000E+00 -0.00000000000E+00 -0.38392773461E+03  0.38392773461E+03  0.00000000000E+00 0.  1.
         21    1    1    2  503  501 -0.95680088172E+02 -0.35633176717E+02 -0.35646409571E+03  0.37079786149E+03  0.00000000000E+00 0.  1.
         21    1    1    2  504  505  0.26252445878E+02 -0.19085753838E+02  0.22681757457E+03  0.22912806255E+03  0.00000000000E+00 0.  1.
         21    1    1    2  505  502  0.10408003014E+02 -0.32278141903E+02  0.11786637512E+02  0.35904453697E+02  0.00000000000E+00 0.  1.
          1    1    1    2  501    0  0.59019639280E+02  0.86997072459E+02  0.38302139378E+03  0.39718660165E+03  0.00000000000E+00 0.  1.
<scales pt_clust_3="14000.00000" pt_clust_4="32.45700" pt_clust_5="35.41601" pt_clust_6="101.80951"></scales>
<clustering>
<clus scale="   32.457">  1  4  2 -1</clus>
<clus scale="   35.416">  1  5  2 -1</clus>
<clus scale="  101.810">  1  6  2 -1</clus>
<clus scale="  101.810">  2  3  1 -1</clus>
</clustering>
</event>
<event>
 6    0  0.4340992E+002  0.2131777E+03  0.7546771E-02  0.1139074E+00
         21   -1    0    0  503  502  0.00000000000E+00  0.00000000000E+00  0.27937273382E+03  0.27937273382E+03  0.00000000000E+00 0.  1.
         -1   -1    0    0    0  501 -0.00000000000E+00 -0.00000000000E+00 -0.46736228825E+03  0.46736228825E+03  0.00000000000E+00 0. -1.
         21    1    1    2  503  501  0.23574797133E+03  0.75391415662E-01  0.39355603847E+02  0.23901040819E+03  0.00000000000E+00 0.  1.
         21    1    1    2  504  505 -0.96630216293E+02 -0.13849242806E+02 -0.19354507096E+03  0.21676921995E+03  0.00000000000E+00 0. -1.
         21    1    1    2  505  502 -0.32608396909E+02  0.34125335719E+01  0.10825080629E+03  0.11310698474E+03  0.00000000000E+00 0.  1.
         -1    1    1    2    0  504 -0.10650935813E+03  0.10361317819E+02 -0.14205089360E+03  0.17784840918E+03  0.00000000000E+00 0. -1.
<scales pt_clust_3="208.86401" pt_clust_4="40.55297" pt_clust_5="32.78647" pt_clust_6="40.55297"></scales>
<clustering>
<clus scale="   32.786">  1  5  2 -1</clus>
<clus scale="   40.553">  4  6 -1 -1</clus>
<clus scale="  208.864">  1  3  2 -1</clus>
<clus scale="   32.786">  1  3  2 -1</clus>
</clustering>
</event>
<event>
 6    0  0.4340992E+002  0.1966343E+03  0.7546771E-02  0.1152610E+00
         21   -1    0    0  503  502  0.00000000000E+00  0.00000000000E+00  0.20442289440E+03  0.20442289440E+03  0.00000000000E+00 0.  1.
          2   -1    0    0  505    0 -0.00000000000E+00 -0.00000000000E+00 -0.12063157405E+04  0.12063157405E+04  0.00000000000E+00 0.  1.
         21    1    1    2  503  504 -0.36593364114E+02  0.19471080721E+02  0.68983453920E+02  0.80479278056E+02  0.00000000000E+00 0.  1.
         21    1    1    2  504  501 -0.12071176786E+03 -0.22564962784E+02  0.51359793276E+02  0.13311024307E+03  0.00000000000E+00 0.  1.
         21    1    1    2  505  502 -0.23062893069E+02  0.10662949970E+03 -0.82393564596E+02  0.13671300864E+03  0.00000000000E+00 0.  1.
          2    1    1    2  501    0  0.18036802504E+03 -0.10353561764E+03 -0.10398425287E+04  0.10604361051E+04  0.00000000000E+00 0.  1.
<scales pt_clust_3="41.45114" pt_clust_4="196.63432" pt_clust_5="114.89195" pt_clust_6="14000.00000"></scales>
<clustering>
<clus scale="   41.451">  1  3  2 -1</clus>
<clus scale="  114.892">  1  5  2 -1</clus>
<clus scale="  196.634">  1  4  2 -1</clus>
<clus scale="   41.451">  1  3  2 -1</clus>
</clustering>
</event>
<event>
 6    0  0.4340992E+002  0.1690579E+03  0.7546771E-02  0.1178834E+00
         -4   -1    0    0    0  501 -0.00000000000E+00  0.00000000000E+00  0.21761203539E+03  0.21761203539E+03  0.00000000000E+00 0.  1.
         21   -1    0    0  505  502  0.00000000000E+00 -0.00000000000E+00 -0.50854887861E+03  0.50854887861E+03  0.00000000000E+00 0.  1.
         21    1    1    2  503  502  0.40965541591E+01  0.58013639721E+02 -0.21378368173E+03  0.22155321420E+03  0.00000000000E+00 0.  1.
         21    1    1    2  504  501  0.32213397335E+02 -0.19707379666E+02  0.43295329004E+02  0.57450581326E+02  0.00000000000E+00 0.  1.
         21    1    1    2  505  504 -0.15485578793E+03 -0.13102213536E+03 -0.19308186685E+03  0.28004949976E+03  0.00000000000E+00 0.  1.
         -4    1    1    2    0  503  0.11854583643E+03  0.92715875305E+02  0.72633376352E+02  0.16710761871E+03  0.00000000000E+00 0.  1.
<scales pt_clust_3="57.75941" pt_clust_4="37.76352" pt_clust_5="169.05789" pt_clust_6="14000.00000"></scales>
<clustering>
<clus scale="   37.764">  1  4  2 -1</clus>
<clus scale="   57.759">  2  3  1 -1</clus>
<clus scale="  169.058">  2  5  1 -1</clus>
<clus scale="   57.759">  2  3  1 -1</clus>
</clustering>
</event>
<event>
 6    0  0.4340992E+002  0.1163561E+03  0.7546771E-02  0.1249232E+00
          2   -1    0    0  505    0 -0.00000000000E+00  0.00000000000E+00  0.29307982927E+03  0.29307982927E+03  0.00000000000E+00 0.  1.
         21   -1    0    0  503  502  0.00000000000E+00 -0.00000000000E+00 -0.15360416604E+04  0.15360416604E+04  0.00000000000E+00 0.  1.
         21    1    1    2  503  501  0.18350332520E+02  0.56626658951E+02 -0.10029494042E+03  0.11662927712E+03  0.00000000000E+00 0.  1.
         21    1    1    2  504  502  0.10035594039E+03 -0.42520769113E+02 -0.14093617511E+04  0.14135699049E+04  0.00000000000E+00 0.  1.
         21    1    1    2  505  504 -0.57215610189E+02 -0.98038243907E+01  0.61071099542E+02  0.84258057307E+02  0.00000000000E+00 0. -1.
          2    1    1    2  501    0 -0.61490662719E+02 -0.43020654477E+01  0.20562376082E+03  0.21466425036E+03  0.00000000000E+00 0.  1.
<scales pt_clust_3="58.55759" pt_clust_4="14000.00000" pt_clust_5="58.04947" pt_clust_6="116.35609"></scales>
<clustering>
<clus scale="   58.049">  1  5  2 -1</clus>
<clus scale="   58.558">  2  3  1 -1</clus>
<clus scale="  116.356">  1  6  2 -1</clus>
<clus scale="   58.558">  2  3  1 -1</clus>
</clustering>
</event>
<event>
 6    0  0.4340992E+002  0.7013845E+02  0.7546771E-02  0.1359623E+00
         21   -1    0    0  504  502  0.00000000000E+00  0.00000000000E+00  0.27017904525E+03  0.27017904525E+03  0.00000000000E+00 0.  1.
          1   -1    0    0  503    0 -0.00000000000E+00 -0.00000000000E+00 -0.18475169433E+04  0.18475169433E+04  0.00000000000E+00 0.  1.
         21    1    1    2  503  505 -0.49031545136E+02 -0.33911011685E+02 -0.93072974114E+03  0.93263706777E+03  0.00000000000E+00 0.  1.
         21    1    1    2  504  501 -0.48333366825E+02  0.34396127915E+01  0.17471027939E+03  0.18130534192E+03  0.00000000000E+00 0.  1.
         21    1    1    2  505  502  0.21842366936E+02 -0.40048289562E+02  0.82380072875E+02  0.94167037211E+02  0.00000000000E+00 0.  1.
          1    1    1    2  501    0  0.75522545025E+02  0.70519688455E+02 -0.90369850913E+03  0.90958654160E+03  0.00000000000E+00 0.  1.
<scales pt_clust_3="70.13845" pt_clust_4="44.77601" pt_clust_5="45.61748" pt_clust_6="14000.00000"></scales>
<clustering>
<clus scale="   45.617">  1  5  2 -1</clus>
<clus scale="   44.776">  1  4  2 -1</clus>
<clus scale="   70.138">  2  3  1 -1</clus>
<clus scale="   45.617">  1  3  2 -1</clus>
</clustering>
</event>
<event>
 6    0  0.4340992E+002  0.6999149E+02  0.7546771E-02  0.1360122E+00
         21   -1    0    0  504  502  0.00000000000E+00  0.00000000000E+00  0.65707296422E+03  0.65707296422E+03  0.00000000000E+00 0. -1.
          1   -1    0    0  503    0 -0.00000000000E+00 -0.00000000000E+00 -0.64136473313E+03  0.64136473313E+03  0.00000000000E+00 0.  1.
         21    1    1    2  503  502  0.78285708505E+02  0.61813530588E+02  0.42603302428E+03  0.43755422807E+03  0.00000000000E+00 0. -1.
         21    1    1    2  504  505 -0.10015978559E+02 -0.47769171560E+02  0.20869614970E+03  0.21432754484E+03  0.00000000000E+00 0. -1.
         21    1    1    2  505  501 -0.54273988323E+02 -0.49292210997E+02 -0.89579137245E+02  0.11575754707E+03  0.00000000000E+00 0. -1.
          1    1    1    2  501    0 -0.13995741623E+02  0.35247851969E+02 -0.52944180565E+03  0.53079837737E+03  0.00000000000E+00 0.  1.
<scales pt_clust_3="14000.00000" pt_clust_4="48.01038" pt_clust_5="69.99149" pt_clust_6="37.92482"></scales>
<clustering>
<clus scale="   37.925">  2  6  1 -1</clus>
<clus scale="   48.010">  1  4  2 -1</clus>
<clus scale="   69.991">  2  5  1 -1</clus>
<clus scale="   48.010">  1  3  2 -1</clus>
</clustering>
</event>
<event>
 6    0  0.4340992E+002  0.1134983E+03  0.7546771E-02  0.1254225E+00
         21   -1    0    0  505  502  0.00000000000E+00  0.00000000000E+00  0.32857352547E+02  0.32857352547E+02  0.00000000000E+00 0. -1.
          2   -1    0    0  503    0 -0.00000000000E+00 -0.00000000000E+00 -0.13075606568E+04  0.13075606568E+04  0.00000000000E+00 0. -1.
         21    1    1    2  503  502  0.34092130616E+02 -0.19941528037E+02 -0.16922714766E+03  0.17377504256E+03  0.00000000000E+00 0.  1.
         21    1    1    2  504  501 -0.70921541950E+01  0.37800589664E+02 -0.16290188646E+02  0.41767852185E+02  0.00000000000E+00 0. -1.
         21    1    1    2  505  504  0.40764931145E+02  0.60535250665E+02 -0.72326077845E+02  0.10274900350E+03  0.00000000000E+00 0. -1.
          2    1    1    2  501    0 -0.67764907567E+02 -0.78394312292E+02 -0.10168598901E+04  0.10221261111E+04  0.00000000000E+00 0. -1.
<scales pt_clust_3="39.49605" pt_clust_4="34.26921" pt_clust_5="34.26921" pt_clust_6="103.21522"></scales>
<clustering>
<clus scale="   34.269">  4  5 -1 -1</clus>
<clus scale="   39.496">  2  3  1 -1</clus>
<clus scale="  103.215">  2  6  1 -1</clus>
<clus scale="  113.498">  1  3  2 -1</clus>
</clustering>
</event>
<event>
 6    0  0.4340992E+002  0.1183498E+03  0.7546771E-02  0.1245844E+00
         21   -1    0    0  505  502  0.00000000000E+00  0.00000000000E+00  0.14631472710E+03  0.14631472710E+03  0.00000000000E+00 0. -1.
          2   -1    0    0  503    0 -0.00000000000E+00 -0.00000000000E+00 -0.38777196852E+04  0.38777196852E+04  0.00000000000E+00 0. -1.
         21    1    1    2  503  504 -0.78694405506E+01  0.34732511945E+02 -0.27359113559E+03  0.27589922971E+03  0.00000000000E+00 0. -1.
         21    1    1    2  504  502  0.52694825883E+02  0.51839709571E+02  0.11722488781E+03  0.13858489992E+03  0.00000000000E+00 0. -1.
         21    1    1    2  505  501  0.37229284635E+02 -0.13288943109E+03 -0.27051983313E+03  0.30368832814E+03  0.00000000000E+00 0. -1.
          2    1    1    2  501    0 -0.82054669967E+02  0.46317209571E+02 -0.33045188772E+04  0.33058619546E+04  0.00000000000E+00 0. -1.
<scales pt_clust_3="35.61286" pt_clust_4="73.97518" pt_clust_5="118.34983" pt_clust_6="14000.00000"></scales>
<clustering>
<clus scale="   35.613">  2  3  1 -1</clus>
<clus scale="   73.975">  1  4  2 -1</clus>
<clus scale="  118.350">  1  5  2 -1</clus>
<clus scale="   73.975">  1  3  2 -1</clus>
</clustering>
</event>
<event>
 6    0  0.4340992E+002  0.1639245E+03  0.7546771E-02  0.1184336E+00
         21   -1    0    0  504  502  0.00000000000E+00  0.00000000000E+00  0.22576915568E+03  0.22576915568E+03  0.00000000000E+00 0.  1.
         -4   -1    0    0    0  501 -0.00000000000E+00 -0.00000000000E+00 -0.95530622636E+03  0.95530622636E+03  0.00000000000E+00 0.  1.
         21    1    1    2  503  501 -0.69813044551E+01  0.38174660445E+02 -0.28931027555E+03  0.29190148826E+03  0.00000000000E+00 0.  1.
         21    1    1    2  504  503  0.13208497629E+03 -0.33679397303E+02  0.15789505095E+03  0.20859431890E+03  0.00000000000E+00 0.  1.
         21    1    1    2  505  502 -0.25064095773E+01 -0.76482533155E+02 -0.11996306587E+02  0.77458190907E+02  0.00000000000E+00 0. -1.
         -4    1    1    2    0  505 -0.12259726226E+03  0.71987270013E+02 -0.58612553950E+03  0.60312138398E+03  0.00000000000E+00 0.  1.
<scales pt_clust_3="38.80777" pt_clust_4="14000.00000" pt_clust_5="73.97368" pt_clust_6="163.92447"></scales>
<clustering>
<clus scale="   38.808">  2  3  1 -1</clus>
<clus scale="   73.974">  1  5  2 -1</clus>
<clus scale="  163.924">  2  6  1 -1</clus>
<clus scale="   73.974">  1  3  2 -1</clus>
</clustering>
</event>
<event>
 6    0  0.4340992E+002  0.6168003E+02  0.7546771E-02  0.1390914E+00
         21   -1    0    0  503  502  0.00000000000E+00  0.00000000000E+00  0.38301276723E+02  0.38301276723E+02  0.00000000000E+00 0.  1.
          2   -1    0    0  504    0 -0.00000000000E+00 -0.00000000000E+00 -0.87144310111E+03  0.87144310111E+03  0.00000000000E+00 0.  1.
         21    1    1    2  503  501  0.55493469222E+02 -0.70581105940E+02 -0.60441200662E+02  0.10823288031E+03  0.00000000000E+00 0.  1.
         21    1    1    2  504  505 -0.23314047474E+01 -0.34422517499E+02 -0.31872925167E+03  0.32059114309E+03  0.00000000000E+00 0.  1.
         21    1    1    2  505  502 -0.40376949494E+02  0.22930311441E+02 -0.48952840399E+02  0.67472052113E+02  0.00000000000E+00 0.  1.
          2    1    1    2  501    0 -0.12785114981E+02  0.82073311998E+02 -0.40501853166E+03  0.41344830233E+03  0.00000000000E+00 0.  1.
<scales pt_clust_3="61.68003" pt_clust_4="34.50138" pt_clust_5="44.97403" pt_clust_6="14000.00000"></scales>
<clustering>
<clus scale="   34.501">  2  4  1 -1</clus>
<clus scale="   44.974">  1  5  2 -1</clus>
<clus scale="   61.680">  1  3  2 -1</clus>
<clus scale="   44.974">  1  3  2 -1</clus>
</clustering>
</event>
<event>
 6    0  0.4340992E+002  0.1872319E+03  0.7546771E-02  0.1160982E+00
         21   -1    0    0  505  502  0.00000000000E+00  0.00000000000E+00  0.21627195286E+03  0.21627195286E+03  0.00000000000E+00 0. -1.
          1   -1    0    0  503    0 -0.00000000000E+00 -0.00000000000E+00 -0.86010000186E+03  0.86010000186E+03  0.00000000000E+00 0.  1.
         21    1    1    2  503  502  0.38461629840E+02  0.83787451293E+02 -0.45708819487E+02  0.10290252739E+03  0.00000000000E+00 0.  1.
         21    1    1    2  504  501  0.93269509489E+02  0.42923257436E+02  0.57716661371E+02  0.11778293777E+03  0.00000000000E+00 0. -1.
         21    1    1    2  505  504 -0.76209674968E+02  0.73017149382E+02  0.52328735938E+02  0.11780371500E+03  0.00000000000E+00 0. -1.
          1    1    1    2  501    0 -0.55521464360E+02 -0.19972785811E+03 -0.70816462682E+03  0.73788277456E+03  0.00000000000E+00 0.  1.
<scales pt_clust_3="92.19346" pt_clust_4="187.23193" pt_clust_5="125.59674" pt_clust_6="14000.00000"></scales>
<clustering>
<clus scale="   92.193">  1  3  2 -1</clus>
<clus scale="  125.597">  1  5  2 -1</clus>
<clus scale="  187.232">  1  4  2 -1</clus>
<clus scale="   92.193">  1  3  2 -1</clus>
</clustering>
</event>
<event>
 6    0  0.4340992E+002  0.8899247E+02  0.7546771E-02  0.1305310E+00
         21   -1    0    0  505  502  0.00000000000E+00  0.00000000000E+00  0.86036044525E+03  0.86036044525E+03  0.00000000000E+00 0. -1.
          1   -1    0    0  502    0 -0.00000000000E+00 -0.00000000000E+00 -0.50268805859E+03  0.50268805859E+03  0.00000000000E+00 0.  1.
         21    1    1    2  503  504  0.57589833811E+02 -0.44632835110E+01 -0.30831857444E+02  0.65476051282E+02  0.00000000000E+00 0.  1.
         21    1    1    2  504  501  0.70557932390E+02 -0.43956428790E+02 -0.11306003225E+02  0.83895263060E+02  0.00000000000E+00 0.  1.
         21    1    1    2  505  503 -0.62180954457E+02  0.46055634348E+02  0.80219287252E+03  0.80591624706E+03  0.00000000000E+00 0. -1.
          1    1    1    2  501    0 -0.65966811744E+02  0.23640779529E+01 -0.40238262519E+03  0.40776094243E+03  0.00000000000E+00 0.  1.
<scales pt_clust_3="35.06834" pt_clust_4="35.06834" pt_clust_5="78.42059" pt_clust_6="66.00916"></scales>
<clustering>
<clus scale="   35.068">  3  4 -1 -1</clus>
<clus scale="   66.009">  2  6  1 -1</clus>
<clus scale="   78.421">  1  5  2 -1</clus>
<clus scale="   78.421">  1  3  2 -1</clus>
</clustering>
</event>
<event>
 6    0  0.4340992E+002  0.3823778E+03  0.7546771E-02  0.1050058E+00
         21   -1    0    0  504  502  0.00000000000E+00  0.00000000000E+00  0.10561326099E+04  0.10561326099E+04  0.00000000000E+00 0. -1.
          2   -1    0    0  505    0 -0.00000000000E+00 -0.00000000000E+00 -0.29857937104E+04  0.29857937104E+04  0.00000000000E+00 0. -1.
         21    1    1    2  503  501 -0.55386618220E+02  0.64013231070E+01 -0.24989089656E+03  0.25603537763E+03  0.00000000000E+00 0. -1.
         21    1    1    2  504  503  0.30089735090E+03  0.19256430481E+03  0.89516937674E+03  0.96381971360E+03  0.00000000000E+00 0. -1.
         21    1    1    2  505  502  0.73271368623E+02 -0.18425504382E+03  0.27457182385E+02  0.20018119666E+03  0.00000000000E+00 0. -1.
          2    1    1    2  501    0 -0.31878210131E+03 -0.14710584097E+02 -0.26023967631E+04  0.26218900324E+04  0.00000000000E+00 0. -1.
<scales pt_clust_3="34.56571" pt_clust_4="373.32867" pt_clust_5="198.28922" pt_clust_6="34.56571"></scales>
<clustering>
<clus scale="   34.566">  3  6 -1 -1</clus>
<clus scale="  198.289">  1  5  2 -1</clus>
<clus scale="  373.329">  1  4  2 -1</clus>
<clus scale="  198.289">  1  3  2 -1</clus>
</clustering>
</event>
<event>
 6    0  0.4340992E+002  0.1490489E+03  0.7546771E-02  0.1201647E+00
         -4   -1    0    0    0  501 -0.00000000000E+00  0.00000000000E+00  0.23871205948E+04  0.23871205948E+04  0.00000000000E+00 0.  1.
         21   -1    0    0  501  502  0.00000000000E+00 -0.00000000000E+00 -0.32284758178E+03  0.32284758178E+03  0.00000000000E+00 0.  1.
         21    1    1    2  503  504  0.67597634017E+02 -0.65451480980E+01  0.70686774226E+03  0.71012272470E+03  0.00000000000E+00 0. -1.
         21    1    1    2  504  505 -0.63607822628E+02 -0.56376851890E+02 -0.39723039258E+02  0.93820170413E+02  0.00000000000E+00 0.  1.
         21    1    1    2  505  502 -0.71240157491E+02  0.36006868991E+02 -0.24737127090E+03  0.25993114535E+03  0.00000000000E+00 0.  1.
         -4    1    1    2    0  503  0.67250346102E+02  0.26915130997E+02  0.16444995809E+04  0.16460941361E+04  0.00000000000E+00 0.  1.
<scales pt_clust_3="62.98051" pt_clust_4="134.10770" pt_clust_5="79.82264" pt_clust_6="62.98051"></scales>
<clustering>
<clus scale="   62.981">  3  6 -1 -1</clus>
<clus scale="   79.823">  2  5  1 -1</clus>
<clus scale="  134.108">  2  4  1 -1</clus>
<clus scale="   79.823">  2  3  1 -1</clus>
</clustering>
</event>
<event>
 6    0  0.4340992E+002  0.2395359E+03  0.7546771E-02  0.1120102E+00
          1   -1    0    0  503    0 -0.00000000000E+00  0.00000000000E+00  0.12777849872E+04  0.12777849872E+04  0.00000000000E+00 0.  1.
         21   -1    0    0  504  502  0.00000000000E+00 -0.00000000000E+00 -0.33594988733E+03  0.33594988733E+03  0.00000000000E+00 0.  1.
         21    1    1    2  503  505  0.16330793689E+03 -0.90501784980E+02 -0.19645168859E+03  0.27102273205E+03  0.00000000000E+00 0.  1.
         21    1    1    2  504  501 -0.16790502231E+03  0.30478857845E+02  0.86907507476E+03  0.88567067404E+03  0.00000000000E+00 0.  1.
         21    1    1    2  505  502  0.48554426001E+02  0.12253784407E+02 -0.84064981309E+02  0.97849928968E+02  0.00000000000E+00 0.  1.
          1    1    1    2  501    0 -0.43957340585E+02  0.47769142728E+02  0.35327669499E+03  0.35919153945E+03  0.00000000000E+00 0.  1.
<scales pt_clust_3="41.33071" pt_clust_4="41.51058" pt_clust_5="41.33071" pt_clust_6="235.66519"></scales>
<clustering>
<clus scale="   41.331">  3  5 -1 -1</clus>
<clus scale="   41.511">  4  6 -1 -1</clus>
<clus scale="  235.665">  1  4  2 -1</clus>
<clus scale="  239.536">  2  3  1 -1</clus>
</clustering>
</event>
<event>
 6    0  0.4340992E+002  0.5112540E+02  0.7546771E-02  0.1439364E+00
          2   -1    0    0  503    0 -0.00000000000E+00  0.00000000000E+00  0.12510988947E+04  0.12510988947E+04  0.00000000000E+00 0.  1.
         21   -1    0    0  504  502  0.00000000000E+00 -0.00000000000E+00 -0.26600801264E+03  0.26600801264E+03  0.00000000000E+00 0. -1.
         21    1    1    2  503  505  0.28155602264E+02  0.18836379635E+02  0.25257377661E+03  0.25483535816E+03  0.00000000000E+00 0.  1.
         21    1    1    2  504  501  0.88998931805E+02  0.39327349927E+02 -0.23988842619E+03  0.25887044508E+03  0.00000000000E+00 0. -1.
         21    1    1    2  505  502 -0.49349265145E+02 -0.10773728429E+02  0.32945954005E+02  0.60306376777E+02  0.00000000000E+00 0.  1.
          2    1    1    2  501    0 -0.67805268924E+02 -0.47390001133E+02  0.93945957759E+03  0.94309472728E+03  0.00000000000E+00 0.  1.
<scales pt_clust_3="33.87547" pt_clust_4="14000.00000" pt_clust_5="49.04129" pt_clust_6="51.12540"></scales>
<clustering>
<clus scale="   33.875">  1  3  2 -1</clus>
<clus scale="   49.041">  2  5  1 -1</clus>
<clus scale="   51.125">  1  6  2 -1</clus>
<clus scale="   49.041">  2  3  1 -1</clus>
</clustering>
</event>
<event>
 6    0  0.4340992E+002  0.1272776E+03  0.7546771E-02  0.1231552E+00
         21   -1    0    0  504  502  0.00000000000E+00  0.00000000000E+00  0.50617744538E+02  0.50617744538E+02  0.00000000000E+00 0.  1.
          1   -1    0    0  505    0 -0.00000000000E+00 -0.00000000000E+00 -0.11709594407E+04  0.11709594407E+04  0.00000000000E+00 0.  1.
         21    1    1    2  503  502  0.10556486260E+03 -0.47127748168E+02 -0.59573056913E+02  0.13005350427E+03  0.00000000000E+00 0.  1.
         21    1    1    2  504  501 -0.44229361383E+02  0.32851436352E+02 -0.19609739204E+03  0.20369005976E+03  0.00000000000E+00 0. -1.
         21    1    1    2  505  503  0.96212843852E+01 -0.74525290402E+02 -0.20282747499E+03  0.21629972870E+03  0.00000000000E+00 0. -1.
          1    1    1    2  501    0 -0.70956785598E+02  0.88801602217E+02 -0.66184377222E+03  0.67153389252E+03  0.00000000000E+00 0.  1.
<scales pt_clust_3="119.63681" pt_clust_4="30.23966" pt_clust_5="75.14378" pt_clust_6="30.23966"></scales>
<clustering>
<clus scale="   30.240">  4  6 -1 -1</clus>
<clus scale="   75.144">  2  5  1 -1</clus>
<clus scale="  119.637">  1  3  2 -1</clus>
<clus scale="  119.637">  1  3  2 -1</clus>
</clustering>
</event>
<event>
 6    0  0.4340992E+002  0.8262753E+02  0.7546771E-02  0.1321756E+00
         21   -1    0    0  503  502  0.00000000000E+00  0.00000000000E+00  0.12243313099E+03  0.12243313099E+03  0.00000000000E+00 0.  1.
         -1   -1    0    0    0  501 -0.00000000000E+00 -0.00000000000E+00 -0.54747665066E+03  0.54747665066E+03  0.00000000000E+00 0.  1.
         21    1    1    2  503  505  0.35822565233E+02  0.30856837619E+02  0.94968200964E+02  0.10608656749E+03  0.00000000000E+00 0.  1.
         21    1    1    2  504  501 -0.16796530203E+02 -0.28125499406E+02 -0.32177861576E+02  0.45919297896E+02  0.00000000000E+00 0.  1.
         21    1    1    2  505  504  0.74271494158E+02  0.20824333678E+02 -0.23755098136E+03  0.24976063834E+03  0.00000000000E+00 0.  1.
         -1    1    1    2    0  502 -0.93297529188E+02 -0.23555671891E+02 -0.25028287770E+03  0.26814327793E+03  0.00000000000E+00 0.  1.
<scales pt_clust_3="46.94031" pt_clust_4="32.75923" pt_clust_5="14000.00000" pt_clust_6="82.62753"></scales>
<clustering>
<clus scale="   32.759">  2  4  1 -1</clus>
<clus scale="   46.940">  1  3  2 -1</clus>
<clus scale="   82.628">  1  6  2 -1</clus>
<clus scale="   46.940">  1  3  2 -1</clus>
</clustering>
</event>
<event>
 6    0  0.4340992E+002  0.4911584E+03  0.7546771E-02  0.1016113E+00
         21   -1    0    0  501  502  0.00000000000E+00  0.00000000000E+00  0.23087962705E+03  0.23087962705E+03  0.00000000000E+00 0.  1.
          2   -1    0    0  503    0 -0.00000000000E+00 -0.00000000000E+00 -0.41536743113E+04  0.41536743113E+04  0.00000000000E+00 0.  1.
         21    1    1    2  503  504  0.51359016248E+02  0.19592189945E+02 -0.23498279411E+03  0.24132657538E+03  0.00000000000E+00 0.  1.
         21    1    1    2  504  505 -0.26327499788E+02  0.35448611681E+02  0.25924223742E+02  0.51203580850E+02  0.00000000000E+00 0.  1.
         21    1    1    2  505  502 -0.33871913391E+03  0.27490725191E+03 -0.97189354601E+02  0.44693446889E+03  0.00000000000E+00 0.  1.
          2    1    1    2  501    0  0.31368761745E+03 -0.32994805354E+03 -0.36165467593E+04  0.36450893133E+04  0.00000000000E+00 0.  1.
<scales pt_clust_3="54.96910" pt_clust_4="36.94239" pt_clust_5="36.94239" pt_clust_6="477.23536"></scales>
<clustering>
<clus scale="   36.942">  4  5 -1 -1</clus>
<clus scale="   54.969">  2  3  1 -1</clus>
<clus scale="  477.235">  2  6  1 -1</clus>
<clus scale="  491.158">  1  3  2 -1</clus>
</clustering>
</event>
<event>
 6    0  0.4340992E+002  0.1359847E+03  0.7546771E-02  0.1218836E+00
          1   -1    0    0  503    0 -0.00000000000E+00  0.00000000000E+00  0.38079274599E+03  0.38079274599E+03  0.00000000000E+00 0. -1.
         21   -1    0    0  501  502  0.00000000000E+00 -0.00000000000E+00 -0.15804558631E+03  0.15804558631E+03  0.00000000000E+00 0.  1.
         21    1    1    2  503  504 -0.73207405283E+02  0.32895140856E+02  0.90198294425E+02  0.12073585548E+03  0.00000000000E+00 0. -1.
         21    1    1    2  504  505  0.12533391366E+03  0.58574073897E+02  0.32530934481E+02  0.14211887188E+03  0.00000000000E+00 0. -1.
         21    1    1    2  505  502  0.44963083680E+02 -0.29641246397E+02 -0.58867796222E+02  0.79785335834E+02  0.00000000000E+00 0.  1.
          1    1    1    2  501    0 -0.97089592060E+02 -0.61827968356E+02  0.15888572700E+03  0.19619826911E+03  0.00000000000E+00 0. -1.
<scales pt_clust_3="71.12456" pt_clust_4="135.98473" pt_clust_5="53.85427" pt_clust_6="14000.00000"></scales>
<clustering>
<clus scale="   53.854">  2  5  1 -1</clus>
<clus scale="   71.125">  1  3  2 -1</clus>
<clus scale="  135.985">  2  4  1 -1</clus>
<clus scale="   53.854">  2  3  1 -1</clus>
</clustering>
</event>
<event>
 6    0  0.4340992E+002  0.2295368E+03  0.7546771E-02  0.1126966E+00
          2   -1    0    0  504    0 -0.00000000000E+00  0.00000000000E+00  0.19010616637E+04  0.19010616637E+04  0.00000000000E+00 0. -1.
         21   -1    0    0  505  502  0.00000000000E+00 -0.00000000000E+00 -0.15014689673E+03  0.15014689673E+03  0.00000000000E+00 0.  1.
         21    1    1    2  503  501  0.44155218474E+02  0.43196583074E+02  0.61932332832E+03  0.62239618662E+03  0.00000000000E+00 0. -1.
         21    1    1    2  504  502 -0.50800704158E+02 -0.11605061825E+03  0.29971355103E+02  0.13017964382E+03  0.00000000000E+00 0.  1.
         21    1    1    2  505  503 -0.16137602101E+03  0.84571631519E+02 -0.20293711142E+01  0.18220510246E+03  0.00000000000E+00 0.  1.
          2    1    1    2  501    0  0.16802150669E+03 -0.11717596346E+02  0.11036494546E+04  0.11164276275E+04  0.00000000000E+00 0. -1.
<scales pt_clust_3="57.01334" pt_clust_4="126.68251" pt_clust_5="209.34179" pt_clust_6="57.01334"></scales>
<clustering>
<clus scale="   57.013">  3  6 -1 -1</clus>
<clus scale="  126.683">  2  4  1 -1</clus>
<clus scale="  209.342">  2  5  1 -1</clus>
<clus scale="  126.683">  2  3  1 -1</clus>
</clustering>
</event>
<event>
 6    0  0.4340992E+002  0.1761223E+03  0.7546771E-02  0.1171610E+00
          1   -1    0    0  503    0 -0.00000000000E+00  0.00000000000E+00  0.18727472119E+04  0.18727472119E+04  0.00000000000E+00 0.  1.
         21   -1    0    0  504  502  0.00000000000E+00 -0.00000000000E+00 -0.47310114968E+02  0.47310114968E+02  0.00000000000E+00 0. -1.
         21    1    1    2  503  502 -0.67654101160E+02  0.72330298523E+02  0.11617415334E+03  0.15266035305E+03  0.00000000000E+00 0.  1.
         21    1    1    2  504  505 -0.10373361225E+03 -0.75886919004E+02  0.15256168934E+03  0.19948572841E+03  0.00000000000E+00 0. -1.
         21    1    1    2  505  501  0.40343091116E+02  0.31889679467E+02  0.34427705803E+03  0.34809655175E+03  0.00000000000E+00 0. -1.
          1    1    1    2  501    0  0.13104462230E+03 -0.28333058986E+02  0.12124241962E+04  0.12198146936E+04  0.00000000000E+00 0.  1.
<scales pt_clust_3="99.03913" pt_clust_4="159.30653" pt_clust_5="46.51303" pt_clust_6="46.51303"></scales>
<clustering>
<clus scale="   46.513">  5  6 -1 -1</clus>
<clus scale="   99.039">  2  3  1 -1</clus>
<clus scale="  159.307">  2  4  1 -1</clus>
<clus scale="   99.039">  2  3  1 -1</clus>
</clustering>
</event>
<event>
 6    0  0.4340992E+002  0.1644948E+03  0.7546771E-02  0.1183714E+00
          1   -1    0    0  505    0 -0.00000000000E+00  0.00000000000E+00  0.19042104433E+04  0.19042104433E+04  0.00000000000E+00 0. -1.
         21   -1    0    0  503  502  0.00000000000E+00 -0.00000000000E+00 -0.78198751531E+02  0.78198751531E+02  0.00000000000E+00 0. -1.
         21    1    1    2  503  504 -0.70007152545E+01  0.29833095868E+02 -0.10813958789E+02  0.32495620133E+02  0.00000000000E+00 0. -1.
         21    1    1    2  504  501 -0.95088343211E+02  0.22616630819E+02  0.94116275682E+03  0.94622441304E+03  0.00000000000E+00 0. -1.
         21    1    1    2  505  502  0.16481520852E+03 -0.35955491488E+02  0.82214994700E+02  0.18765968049E+03  0.00000000000E+00 0. -1.
          1    1    1    2  501    0 -0.62726150051E+02 -0.16494235199E+02  0.81344789903E+03  0.81602948116E+03  0.00000000000E+00 0. -1.
<scales pt_clust_3="30.64349" pt_clust_4="35.73728" pt_clust_5="158.49675" pt_clust_6="35.73728"></scales>
<clustering>
<clus scale="   30.643">  2  3  1 -1</clus>
<clus scale="   35.737">  4  6 -1 -1</clus>
<clus scale="  158.497">  2  5  1 -1</clus>
<clus scale="   30.643">  2  3  1 -1</clus>
</clustering>
</event>
<event>
 6    0  0.4340992E+002  0.1206651E+03  0.7546771E-02  0.1242004E+00
         -1   -1    0    0    0  501 -0.00000000000E+00  0.00000000000E+00  0.15229641461E+04  0.15229641461E+04  0.00000000000E+00 0.  1.
         21   -1    0    0  504  502  0.00000000000E+00 -0.00000000000E+00 -0.29371759460E+02  0.29371759460E+02  0.00000000000E+00 0.  1.
         21    1    1    2  503  502 -0.45820853855E+02 -0.12005827909E+02  0.42149168120E+02  0.63405385615E+02  0.00000000000E+00 0.  1.
         21    1    1    2  504  501  0.19449349748E+02 -0.10073085674E+03  0.15063809444E+03  0.18225481668E+03  0.00000000000E+00 0.  1.
         21    1    1    2  505  503 -0.55802531952E+01  0.55856916726E+02  0.47709960129E+03  0.48039063680E+03  0.00000000000E+00 0.  1.
         -1    1    1    2    0  505  0.31951757303E+02  0.56879767926E+02  0.82370552281E+03  0.82628506649E+03  0.00000000000E+00 0.  1.
<scales pt_clust_3="47.36761" pt_clust_4="112.50625" pt_clust_5="40.45873" pt_clust_6="40.45873"></scales>
<clustering>
<clus scale="   40.459">  5  6 -1 -1</clus>
<clus scale="   47.368">  2  3  1 -1</clus>
<clus scale="  112.506">  2  4  1 -1</clus>
<clus scale="   47.368">  2  3  1 -1</clus>
</clustering>
</event>
<event>
 6    0  0.4340992E+002  0.9870693E+02  0.7546771E-02  0.1283039E+00
         -1   -1    0    0    0  501 -0.00000000000E+00  0.00000000000E+00  0.55888468516E+02  0.55888468516E+02  0.00000000000E+00 0. -1.
         21   -1    0    0  503  502  0.00000000000E+00 -0.00000000000E+00 -0.57207436315E+03  0.57207436315E+03  0.00000000000E+00 0. -1.
         21    1    1    2  503  501  0.13186046979E+03 -0.59931464410E+02 -0.95644895045E+02  0.17357105135E+03  0.00000000000E+00 0. -1.
         21    1    1    2  504  505 -0.27241021063E+02  0.29233499392E+02 -0.19702831394E+03  0.20103936731E+03  0.00000000000E+00 0.  1.
         21    1    1    2  505  502 -0.48551462073E+02  0.62377907582E+01 -0.14962643655E+03  0.15743006390E+03  0.00000000000E+00 0. -1.
         -1    1    1    2    0  504 -0.56067986653E+02  0.24460174259E+02 -0.73886249091E+02  0.95922349100E+02  0.00000000000E+00 0. -1.
<scales pt_clust_3="91.73306" pt_clust_4="32.92617" pt_clust_5="32.92617" pt_clust_6="61.17123"></scales>
<clustering>
<clus scale="   32.926">  4  5 -1 -1</clus>
<clus scale="   61.171">  1  6  2 -1</clus>
<clus scale="   91.733">  1  3  2 -1</clus>
<clus scale="   98.707">  2  3  1 -1</clus>
</clustering>
</event>
<event>
 6    0  0.4340992E+002  0.1071833E+03  0.7546771E-02  0.1265877E+00
         21   -1    0    0  505  502  0.00000000000E+00  0.00000000000E+00  0.35310885908E+03  0.35310885908E+03  0.00000000000E+00 0.  1.
          4   -1    0    0  504    0 -0.00000000000E+00 -0.00000000000E+00 -0.27478657370E+04  0.27478657370E+04  0.00000000000E+00 0. -1.
         21    1    1    2  503  501  0.23765891368E+01 -0.12301267292E+03 -0.11847602169E+04  0.11911316205E+04  0.00000000000E+00 0. -1.
         21    1    1    2  504  502  0.40077750043E+02  0.33726561596E-01 -0.99145956216E+01  0.41285910337E+02  0.00000000000E+00 0. -1.
         21    1    1    2  505  503  0.33045722396E+02  0.43580012035E+02  0.33002808858E+03  0.33452918628E+03  0.00000000000E+00 0.  1.
          4    1    1    2  501    0 -0.75500061576E+02  0.79398934324E+02 -0.15301101540E+04  0.15340278789E+04  0.00000000000E+00 0. -1.
<scales pt_clust_3="14000.00000" pt_clust_4="40.07776" pt_clust_5="84.61776" pt_clust_6="107.18333"></scales>
<clustering>
<clus scale="   40.078">  1  4  2 -1</clus>
<clus scale="   84.618">  1  5  2 -1</clus>
<clus scale="  107.183">  2  6  1 -1</clus>
<clus scale="   40.078">  1  3  2 -1</clus>
</clustering>
</event>
<event>
 6    0  0.4340992E+002  0.2251442E+03  0.7546771E-02  0.1130105E+00
         21   -1    0    0  504  502  0.00000000000E+00  0.00000000000E+00  0.63987819613E+03  0.63987819613E+03  0.00000000000E+00 0. -1.
          2   -1    0    0  505    0 -0.00000000000E+00 -0.00000000000E+00 -0.75924429505E+03  0.75924429505E+03  0.00000000000E+00 0.  1.
         21    1    1    2  503  502 -0.28985559504E+01 -0.33070667270E+02  0.26159666529E+03  0.26369468321E+03  0.00000000000E+00 0. -1.
         21    1    1    2  504  501 -0.95718273978E+02  0.61670817645E+02 -0.25954900339E+03  0.28342717386E+03  0.00000000000E+00 0. -1.
         21    1    1    2  505  503  0.19321688256E+03 -0.62550293355E+02  0.33111983898E+03  0.38844002198E+03  0.00000000000E+00 0. -1.
          2    1    1    2  501    0 -0.94600052635E+02  0.33950142979E+02 -0.45253359981E+03  0.46356061214E+03  0.00000000000E+00 0.  1.
<scales pt_clust_3="33.19745" pt_clust_4="70.19217" pt_clust_5="212.42701" pt_clust_6="70.19217"></scales>
<clustering>
<clus scale="   33.197">  1  3  2 -1</clus>
<clus scale="   70.192">  4  6 -1 -1</clus>
<clus scale="  212.427">  1  5  2 -1</clus>
<clus scale="   33.197">  1  3  2 -1</clus>
</clustering>
</event>
<event>
 6    0  0.4340992E+002  0.1384355E+03  0.7546771E-02  0.1215450E+00
          2   -1    0    0  504    0 -0.00000000000E+00  0.00000000000E+00  0.39846214743E+04  0.39846214743E+04  0.00000000000E+00 0. -1.
         21   -1    0    0  505  502  0.00000000000E+00 -0.00000000000E+00 -0.18285067561E+02  0.18285067561E+02  0.00000000000E+00 0. -1.
         21    1    1    2  503  502  0.73833732523E+02 -0.13951133870E+02  0.38244788698E+03  0.38975946486E+03  0.00000000000E+00 0. -1.
         21    1    1    2  504  503  0.42660883090E+01  0.43833288199E+02  0.39477770236E+03  0.39722662416E+03  0.00000000000E+00 0. -1.
         21    1    1    2  505  501  0.34529470053E+02 -0.96820983839E+02  0.20880556117E+03  0.23273665287E+03  0.00000000000E+00 0. -1.
          2    1    1    2  501    0 -0.11262929089E+03  0.66938829510E+02  0.29803052562E+04  0.29831837999E+04  0.00000000000E+00 0. -1.
<scales pt_clust_3="74.86451" pt_clust_4="44.04040" pt_clust_5="14000.00000" pt_clust_6="138.43555"></scales>
<clustering>
<clus scale="   44.040">  1  4  2 -1</clus>
<clus scale="   74.865">  2  3  1 -1</clus>
<clus scale="  138.436">  1  6  2 -1</clus>
<clus scale="   74.865">  2  3  1 -1</clus>
</clustering>
</event>
<event>
 6    0  0.4340992E+002  0.8068065E+02  0.7546771E-02  0.1327131E+00
          2   -1    0    0  505    0 -0.00000000000E+00  0.00000000000E+00  0.23476582539E+04  0.23476582539E+04  0.00000000000E+00 0.  1.
         21   -1    0    0  504  502  0.00000000000E+00 -0.00000000000E+00 -0.48516327081E+02  0.48516327081E+02  0.00000000000E+00 0.  1.
         21    1    1    2  503  501 -0.35020340448E+02  0.11790516651E+03  0.11228938996E+03  0.16654416721E+03  0.00000000000E+00 0.  1.
         21    1    1    2  504  503  0.88344609298E+01 -0.41243238452E+02  0.18898601920E+01  0.42221132025E+02  0.00000000000E+00 0.  1.
         21    1    1    2  505  502  0.29342667739E+02 -0.30682578022E+02  0.49469497724E+03  0.49651337671E+03  0.00000000000E+00 0. -1.
          2    1    1    2  501    0 -0.31567882213E+01 -0.45979350031E+02  0.16902676994E+04  0.16908959050E+04  0.00000000000E+00 0.  1.
<scales pt_clust_3="80.68065" pt_clust_4="42.17881" pt_clust_5="43.61232" pt_clust_6="14000.00000"></scales>
<clustering>
<clus scale="   42.179">  2  4  1 -1</clus>
<clus scale="   43.612">  1  5  2 -1</clus>
<clus scale="   80.681">  2  3  1 -1</clus>
<clus scale="   42.179">  2  3  1 -1</clus>
</clustering>
</event>
<event>
 6    0  0.4340992E+002  0.1277840E+03  0.7546771E-02  0.1230781E+00
         21   -1    0    0  505  502  0.00000000000E+00  0.00000000000E+00  0.42866123506E+02  0.42866123506E+02  0.00000000000E+00 0.  1.
          2   -1    0    0  504    0 -0.00000000000E+00 -0.00000000000E+00 -0.14014854104E+04  0.14014854104E+04  0.00000000000E+00 0. -1.
         21    1    1    2  503  502  0.39317406485E+02 -0.92968147096E+01  0.41786739187E+01  0.40617121170E+02  0.00000000000E+00 0.  1.
         21    1    1    2  504  503  0.34620743134E+02 -0.92306416918E+02 -0.12672697073E+03  0.16055776396E+03  0.00000000000E+00 0.  1.
         21    1    1    2  505  501 -0.46157669009E+02  0.49883691496E+02 -0.47398065500E+03  0.47882833500E+03  0.00000000000E+00 0. -1.
          2    1    1    2  501    0 -0.27780480610E+02  0.51719540132E+02 -0.76209033503E+03  0.76434831372E+03  0.00000000000E+00 0. -1.
<scales pt_clust_3="40.40160" pt_clust_4="120.42478" pt_clust_5="39.72273" pt_clust_6="39.72273"></scales>
<clustering>
<clus scale="   39.723">  5  6 -1 -1</clus>
<clus scale="   40.402">  1  3  2 -1</clus>
<clus scale="  120.425">  1  4  2 -1</clus>
<clus scale="   40.402">  1  3  2 -1</clus>
</clustering>
</event>
<event>
 6    0  0.4340992E+002  0.9782167E+02  0.7546771E-02  0.1284945E+00
         -1   -1    0    0    0  501 -0.00000000000E+00  0.00000000000E+00  0.73368484868E+03  0.73368484868E+03  0.00000000000E+00 0. -1.
         21   -1    0    0  504  502  0.00000000000E+00 -0.00000000000E+00 -0.10348460631E+03  0.10348460631E+03  0.00000000000E+00 0.  1.
         21    1    1    2  503  505 -0.43901163272E+01 -0.51279083072E+02  0.79270446265E+02  0.94512544845E+02  0.00000000000E+00 0. -1.
         21    1    1    2  504  501 -0.64377805821E+02  0.61691902124E+02 -0.66662450476E+02  0.11132957816E+03  0.00000000000E+00 0.  1.
         21    1    1    2  505  502  0.69629476325E+01 -0.52380406489E+02  0.18787911867E+03  0.19516852424E+03  0.00000000000E+00 0. -1.
         -1    1    1    2    0  503  0.61804974516E+02  0.41967587437E+02  0.42971312792E+03  0.43615880775E+03  0.00000000000E+00 0. -1.
<scales pt_clust_3="41.80489" pt_clust_4="88.17458" pt_clust_5="41.80489" pt_clust_6="74.70698"></scales>
<clustering>
<clus scale="   41.805">  3  5 -1 -1</clus>
<clus scale="   74.707">  1  6  2 -1</clus>
<clus scale="   88.175">  2  4  1 -1</clus>
<clus scale="   88.175">  2  3  1 -1</clus>
</clustering>
</event>
<event>
 6    0  0.4340992E+002  0.1740290E+03  0.7546771E-02  0.1173710E+00
          1   -1    0    0  505    0 -0.00000000000E+00  0.00000000000E+00  0.26920857849E+04  0.26920857849E+04  0.00000000000E+00 0.  1.
         21   -1    0    0  504  502  0.00000000000E+00 -0.00000000000E+00 -0.72967707427E+02  0.72967707427E+02  0.00000000000E+00 0.  1.
         21    1    1    2  503  501  0.49832383494E+02 -0.40598938465E+02  0.13000666405E+04  0.13016546432E+04  0.00000000000E+00 0.  1.
         21    1    1    2  504  503 -0.65153633161E+01  0.12720313664E+03  0.15241979826E+02  0.12827862597E+03  0.00000000000E+00 0.  1.
         21    1    1    2  505  502 -0.11467150992E+03 -0.10551307562E+02  0.23984713380E+03  0.26605926572E+03  0.00000000000E+00 0.  1.
          1    1    1    2  501    0  0.71354489747E+02 -0.76052890617E+02  0.10639623233E+04  0.10690609575E+04  0.00000000000E+00 0.  1.
<scales pt_clust_3="45.54571" pt_clust_4="164.07461" pt_clust_5="115.15592" pt_clust_6="45.54571"></scales>
<clustering>
<clus scale="   45.546">  3  6 -1 -1</clus>
<clus scale="  115.156">  2  5  1 -1</clus>
<clus scale="  164.075">  2  4  1 -1</clus>
<clus scale="  115.156">  2  3  1 -1</clus>
</clustering>
</event>
<event>
 6    0  0.4340992E+002  0.2736015E+03  0.7546771E-02  0.1099236E+00
         -2   -1    0    0    0  501 -0.00000000000E+00  0.00000000000E+00  0.33186115643E+03  0.33186115643E+03  0.00000000000E+00 0.  1.
         21   -1    0    0  503  502  0.00000000000E+00 -0.00000000000E+00 -0.97438191696E+03  0.97438191696E+03  0.00000000000E+00 0. -1.
         21    1    1    2  503  501 -0.14379938130E+03 -0.23029236651E+03 -0.10258755412E+02  0.27169482549E+03  0.00000000000E+00 0.  1.
         21    1    1    2  504  502 -0.74174050256E+02  0.89833720492E+02 -0.73275985634E+03  0.74196286574E+03  0.00000000000E+00 0. -1.
         21    1    1    2  505  504  0.51373472663E+02  0.51840589325E+02 -0.10380301758E+02  0.73718593717E+02  0.00000000000E+00 0. -1.
         -2    1    1    2    0  505  0.16659995889E+03  0.88618056689E+02  0.11087815298E+03  0.21886678844E+03  0.00000000000E+00 0.  1.
<scales pt_clust_3="258.05516" pt_clust_4="116.49844" pt_clust_5="56.53996" pt_clust_6="56.53996"></scales>
<clustering>
<clus scale="   56.540">  5  6 -1 -1</clus>
<clus scale="  116.498">  2  4  1 -1</clus>
<clus scale="  258.055">  2  3  1 -1</clus>
<clus scale="  116.498">  2  3  1 -1</clus>
</clustering>
</event>
<event>
 6    0  0.4340992E+002  0.1384352E+03  0.7546771E-02  0.1215450E+00
         21   -1    0    0  503  502  0.00000000000E+00  0.00000000000E+00  0.11087321305E+03  0.11087321305E+03  0.00000000000E+00 0. -1.
          1   -1    0    0  505    0 -0.00000000000E+00 -0.00000000000E+00 -0.41355709845E+04  0.41355709845E+04  0.00000000000E+00 0. -1.
         21    1    1    2  503  501  0.83897300438E+02  0.31210131616E+02  0.60757580466E+02  0.10818647291E+03  0.00000000000E+00 0. -1.
         21    1    1    2  504  502  0.31148150265E+02  0.48853886695E+02 -0.92466865073E+01  0.58672060826E+02  0.00000000000E+00 0. -1.
         21    1    1    2  505  504 -0.26064563130E+01 -0.39686804228E+02 -0.59510696712E+03  0.59643452143E+03  0.00000000000E+00 0. -1.
          1    1    1    2  501    0 -0.11243899439E+03 -0.40377214083E+02 -0.34811016983E+04  0.34831511424E+04  0.00000000000E+00 0. -1.
<scales pt_clust_3="138.43516" pt_clust_4="57.60465" pt_clust_5="39.77230" pt_clust_6="14000.00000"></scales>
<clustering>
<clus scale="   39.772">  2  5  1 -1</clus>
<clus scale="   57.605">  1  4  2 -1</clus>
<clus scale="  138.435">  1  3  2 -1</clus>
<clus scale="   57.605">  1  3  2 -1</clus>
</clustering>
</event>
<event>
 6    0  0.4340992E+002  0.9739397E+02  0.7546771E-02  0.1285874E+00
          2   -1    0    0  504    0 -0.00000000000E+00  0.00000000000E+00  0.15045345074E+04  0.15045345074E+04  0.00000000000E+00 0. -1.
         21   -1    0    0  505  502  0.00000000000E+00 -0.00000000000E+00 -0.99241808766E+03  0.99241808766E+03  0.00000000000E+00 0. -1.
         21    1    1    2  503  502  0.21167534946E+02  0.41176714935E+02 -0.73171687839E+03  0.73318018011E+03  0.00000000000E+00 0. -1.
         21    1    1    2  504  503  0.47558974308E+02  0.11307655246E+02  0.67180216828E+03  0.67357840851E+03  0.00000000000E+00 0. -1.
         21    1    1    2  505  501 -0.68408290954E+02  0.44633651976E+02 -0.24971203258E+03  0.26273171939E+03  0.00000000000E+00 0.  1.
          2    1    1    2  501    0 -0.31821829964E+00 -0.97118022157E+02  0.82174316241E+03  0.82746228703E+03  0.00000000000E+00 0. -1.
<scales pt_clust_3="46.29888" pt_clust_4="48.98779" pt_clust_5="14000.00000" pt_clust_6="97.39397"></scales>
<clustering>
<clus scale="   46.299">  2  3  1 -1</clus>
<clus scale="   48.988">  1  4  2 -1</clus>
<clus scale="   97.394">  1  6  2 -1</clus>
<clus scale="   46.299">  2  3  1 -1</clus>
</clustering>
</event>
<event>
 6    0  0.4340992E+002  0.5902393E+02  0.7546771E-02  0.1401974E+00
          2   -1    0    0  503    0 -0.00000000000E+00  0.00000000000E+00  0.17464947912E+04  0.17464947912E+04  0.00000000000E+00 0. -1.
         21   -1    0    0  505  502  0.00000000000E+00 -0.00000000000E+00 -0.71089976328E+02  0.71089976328E+02  0.00000000000E+00 0.  1.
         21    1    1    2  503  502  0.43470460357E+02 -0.81942699016E+00  0.10647819397E+04  0.10656692411E+04  0.00000000000E+00 0. -1.
         21    1    1    2  504  501 -0.25244451526E+02 -0.66249394183E+02  0.47398633218E+02  0.85281269887E+02  0.00000000000E+00 0.  1.
         21    1    1    2  505  504  0.51640541949E+02  0.14776665751E+02 -0.33670326383E+02  0.63393897989E+02  0.00000000000E+00 0.  1.
          2    1    1    2  501    0 -0.69866550780E+02  0.52292155422E+02  0.59689456831E+03  0.60324035850E+03  0.00000000000E+00 0. -1.
<scales pt_clust_3="43.47818" pt_clust_4="14000.00000" pt_clust_5="54.62059" pt_clust_6="59.02393"></scales>
<clustering>
<clus scale="   43.478">  1  3  2 -1</clus>
<clus scale="   54.621">  2  5  1 -1</clus>
<clus scale="   59.024">  1  6  2 -1</clus>
<clus scale="   54.621">  2  3  1 -1</clus>
</clustering>
</event>
<event>
 6    0  0.4340992E+002  0.6555561E+02  0.7546771E-02  0.1375894E+00
         21   -1    0    0  505  502  0.00000000000E+00  0.00000000000E+00  0.26833933335E+02  0.26833933335E+02  0.00000000000E+00 0. -1.
          2   -1    0    0  504    0 -0.00000000000E+00 -0.00000000000E+00 -0.87060979975E+03  0.87060979975E+03  0.00000000000E+00 0. -1.
         21    1    1    2  503  501 -0.11387487838E+03 -0.45411185082E+01 -0.36492884785E+03  0.38231031072E+03  0.00000000000E+00 0. -1.
         21    1    1    2  504  502  0.34996548274E+02  0.44841435162E+02 -0.72666858395E+02  0.92282094729E+02  0.00000000000E+00 0. -1.
         21    1    1    2  505  503  0.25411522774E+02 -0.31219596604E+02 -0.58773707631E+02  0.71237331579E+02  0.00000000000E+00 0. -1.
          2    1    1    2  501    0  0.53466807335E+02 -0.90807200499E+01 -0.34740645253E+03  0.35161399606E+03  0.00000000000E+00 0. -1.
<scales pt_clust_3="65.55561" pt_clust_4="55.82632" pt_clust_5="40.25430" pt_clust_6="14000.00000"></scales>
<clustering>
<clus scale="   40.254">  1  5  2 -1</clus>
<clus scale="   55.826">  1  4  2 -1</clus>
<clus scale="   65.556">  1  3  2 -1</clus>
<clus scale="   40.254">  1  3  2 -1</clus>
</clustering>
</event>
<event>
 6    0  0.4340992E+002  0.1097349E+03  0.7546771E-02  0.1261062E+00
         21   -1    0    0  503  502  0.00000000000E+00  0.00000000000E+00  0.56784967710E+02  0.56784967710E+02  0.00000000000E+00 0.  1.
          1   -1    0    0  504    0 -0.00000000000E+00 -0.00000000000E+00 -0.54231636483E+03  0.54231636483E+03  0.00000000000E+00 0.  1.
         21    1    1    2  503  505  0.33954677056E+02 -0.22174986874E+02 -0.61719968225E+01  0.41021258899E+02  0.00000000000E+00 0. -1.
         21    1    1    2  504  502 -0.11804494110E+03  0.62411117878E+02 -0.10534920838E+03  0.17008295465E+03  0.00000000000E+00 0.  1.
         21    1    1    2  505  501  0.19430182988E+02 -0.27437423580E+02 -0.81697675451E+02  0.88345087004E+02  0.00000000000E+00 0. -1.
          1    1    1    2  501    0  0.64660081058E+02 -0.12798707423E+02 -0.29231251647E+03  0.29965203199E+03  0.00000000000E+00 0.  1.
<scales pt_clust_3="40.55429" pt_clust_4="100.36799" pt_clust_5="31.68304" pt_clust_6="31.68304"></scales>
<clustering>
<clus scale="   31.683">  5  6 -1 -1</clus>
<clus scale="   40.554">  1  3  2 -1</clus>
<clus scale="  100.368">  1  4  2 -1</clus>
<clus scale="   40.554">  1  3  2 -1</clus>
</clustering>
</event>
<event>
 6    0  0.4340992E+002  0.8761210E+02  0.7546771E-02  0.1308740E+00
         21   -1    0    0  505  502  0.00000000000E+00  0.00000000000E+00  0.91143032099E+02  0.91143032099E+02  0.00000000000E+00 0.  1.
          2   -1    0    0  503    0 -0.00000000000E+00 -0.00000000000E+00 -0.10235878859E+04  0.10235878859E+04  0.00000000000E+00 0. -1.
         21    1    1    2  503  502  0.44480980462E+01  0.65449696069E+02 -0.64976755273E+02  0.92333238964E+02  0.00000000000E+00 0. -1.
         21    1    1    2  504  501  0.18660365280E+02 -0.13170104940E+03 -0.33685622842E+02  0.13721551235E+03  0.00000000000E+00 0.  1.
         21    1    1    2  505  504 -0.59571873810E+02 -0.12188656004E+02 -0.16051711633E+02  0.62889020749E+02  0.00000000000E+00 0.  1.
          2    1    1    2  501    0  0.36463410484E+02  0.78440009331E+02 -0.81773076404E+03  0.82229314591E+03  0.00000000000E+00 0. -1.
<scales pt_clust_3="63.44284" pt_clust_4="14000.00000" pt_clust_5="60.80602" pt_clust_6="87.61210"></scales>
<clustering>
<clus scale="   60.806">  1  5  2 -1</clus>
<clus scale="   63.443">  1  3  2 -1</clus>
<clus scale="   87.612">  2  6  1 -1</clus>
<clus scale="   60.806">  1  3  2 -1</clus>
</clustering>
</event>
<event>
 6    0  0.4340992E+002  0.1220577E+03  0.7546771E-02  0.1239741E+00
         21   -1    0    0  503  502  0.00000000000E+00  0.00000000000E+00  0.26562027337E+03  0.26562027337E+03  0.00000000000E+00 0. -1.
          1   -1    0    0  505    0 -0.00000000000E+00 -0.00000000000E+00 -0.69022711067E+03  0.69022711067E+03  0.00000000000E+00 0. -1.
         21    1    1    2  503  501 -0.32449618285E+02 -0.96444337887E+02  0.14804820986E+03  0.17964620920E+03  0.00000000000E+00 0. -1.
         21    1    1    2  504  502  0.36995696819E+02  0.40698689864E+02  0.20058355928E+01  0.55037153962E+02  0.00000000000E+00 0. -1.
         21    1    1    2  505  504  0.10504936062E+02  0.86990358370E+02  0.46390461247E+02  0.99145100866E+02  0.00000000000E+00 0. -1.
          1    1    1    2  501    0 -0.15051014597E+02 -0.31244710348E+02 -0.62105134400E+03  0.62201892001E+03  0.00000000000E+00 0. -1.
<scales pt_clust_3="109.67640" pt_clust_4="40.20821" pt_clust_5="40.20821" pt_clust_6="34.68090"></scales>
<clustering>
<clus scale="   34.681">  2  6  1 -1</clus>
<clus scale="   40.208">  4  5 -1 -1</clus>
<clus scale="  109.676">  1  3  2 -1</clus>
<clus scale="  109.676">  1  3  2 -1</clus>
</clustering>
</event>
<event>
 6    0  0.4340992E+002  0.1438617E+03  0.7546771E-02  0.1208225E+00
          1   -1    0    0  503    0 -0.00000000000E+00  0.00000000000E+00  0.12807679213E+04  0.12807679213E+04  0.00000000000E+00 0.  1.
         21   -1    0    0  505  502  0.00000000000E+00 -0.00000000000E+00 -0.23644528227E+03  0.23644528227E+03  0.00000000000E+00 0. -1.
         21    1    1    2  503  504  0.49167166067E+02  0.71959373845E+01  0.19735764532E+03  0.20351715383E+03  0.00000000000E+00 0. -1.
         21    1    1    2  504  502 -0.36072828546E+02 -0.12592645592E+02 -0.56587217272E+02  0.68278377550E+02  0.00000000000E+00 0. -1.
         21    1    1    2  505  501 -0.81532509751E+02  0.98901924128E+02 -0.14324918706E+03  0.19222245014E+03  0.00000000000E+00 0. -1.
          1    1    1    2  501    0  0.68438172230E+02 -0.93505215921E+02  0.10468013980E+04  0.10531952220E+04  0.00000000000E+00 0.  1.
<scales pt_clust_3="49.02715" pt_clust_4="38.20764" pt_clust_5="143.86173" pt_clust_6="14000.00000"></scales>
<clustering>
<clus scale="   38.208">  2  4  1 -1</clus>
<clus scale="   49.027">  1  3  2 -1</clus>
<clus scale="  143.862">  2  5  1 -1</clus>
<clus scale="   38.208">  2  3  1 -1</clus>
</clustering>
</event>
<event>
 6    0  0.4340992E+002  0.1076298E+03  0.7546771E-02  0.1265023E+00
         21   -1    0    0  505  502  0.00000000000E+00  0.00000000000E+00  0.60765371783E+03  0.60765371783E+03  0.00000000000E+00 0.  1.
          2   -1    0    0  503    0 -0.00000000000E+00 -0.00000000000E+00 -0.96040695949E+02  0.96040695949E+02  0.00000000000E+00 0.  1.
         21    1    1    2  503  502  0.69703972042E+01 -0.16386703708E+03  0.35903537517E+03  0.39472445187E+03  0.00000000000E+00 0.  1.
         21    1    1    2  504  501  0.26351362586E+02  0.23636219338E+02 -0.23512760227E+02  0.42496059443E+02  0.00000000000E+00 0.  1.
         21    1    1    2  505  504 -0.33510714141E+02  0.76174257299E+02  0.18398676270E+03  0.20193220220E+03  0.00000000000E+00 0.  1.
          2    1    1    2  501    0  0.18895435080E+00  0.64056560441E+02 -0.78963557602E+01  0.64541700269E+02  0.00000000000E+00 0.  1.
<scales pt_clust_3="97.50913" pt_clust_4="33.87183" pt_clust_5="83.21950" pt_clust_6="33.87183"></scales>
<clustering>
<clus scale="   33.872">  4  6 -1 -1</clus>
<clus scale="   83.220">  1  5  2 -1</clus>
<clus scale="   97.509">  1  3  2 -1</clus>
<clus scale="   83.220">  1  3  2 -1</clus>
</clustering>
</event>
<event>
 6    0  0.4340992E+002  0.1596154E+03  0.7546771E-02  0.1189132E+00
          1   -1    0    0  503    0 -0.00000000000E+00  0.00000000000E+00  0.15729518812E+04  0.15729518812E+04  0.00000000000E+00 0.  1.
         21   -1    0    0  505  502  0.00000000000E+00 -0.00000000000E+00 -0.58619691233E+03  0.58619691233E+03  0.00000000000E+00 0. -1.
         21    1    1    2  503  502 -0.19539084591E+02 -0.25775472877E+02  0.11771412438E+04  0.11775855208E+04  0.00000000000E+00 0.  1.
         21    1    1    2  504  501  0.10602464021E+02 -0.94449489862E+02  0.45630891880E+02  0.10542910733E+03  0.00000000000E+00 0. -1.
         21    1    1    2  505  504  0.46381341749E+01  0.17098688248E+03 -0.54075726509E+03  0.56716527222E+03  0.00000000000E+00 0. -1.
          1    1    1    2  501    0  0.42984863948E+01 -0.50761919738E+02  0.30474009825E+03  0.30896889320E+03  0.00000000000E+00 0.  1.
<scales pt_clust_3="32.34425" pt_clust_4="14000.00000" pt_clust_5="159.61539" pt_clust_6="71.58397"></scales>
<clustering>
<clus scale="   32.344">  1  3  2 -1</clus>
<clus scale="   71.584">  1  6  2 -1</clus>
<clus scale="  159.615">  2  5  1 -1</clus>
<clus scale="  159.615">  2  3  1 -1</clus>
</clustering>
</event>
<event>
 6    0  0.4340992E+002  0.1067576E+03  0.7546771E-02  0.1266695E+00
         21   -1    0    0  501  502  0.00000000000E+00  0.00000000000E+00  0.39389541111E+03  0.39389541111E+03  0.00000000000E+00 0.  1.
          2   -1    0    0  505    0 -0.00000000000E+00 -0.00000000000E+00 -0.60732591353E+03  0.60732591353E+03  0.00000000000E+00 0. -1.
         21    1    1    2  503  504 -0.10777326545E+03 -0.69995143321E+02  0.18546555947E+03  0.22563658964E+03  0.00000000000E+00 0.  1.
         21    1    1    2  504  502  0.56971319695E+02 -0.22676076667E+02  0.16480018543E+03  0.17583809837E+03  0.00000000000E+00 0.  1.
         21    1    1    2  505  503  0.46886520264E+02 -0.37370731765E+02 -0.87311830555E+02  0.10591634968E+03  0.00000000000E+00 0. -1.
          2    1    1    2  501    0  0.39154254871E+01  0.13004195175E+03 -0.47638441677E+03  0.49383028695E+03  0.00000000000E+00 0. -1.
<scales pt_clust_3="106.75757" pt_clust_4="61.93870" pt_clust_5="59.95763" pt_clust_6="14000.00000"></scales>
<clustering>
<clus scale="   59.958">  2  5  1 -1</clus>
<clus scale="   61.939">  1  4  2 -1</clus>
<clus scale="  106.758">  1  3  2 -1</clus>
<clus scale="   61.939">  1  3  2 -1</clus>
</clustering>
</event>
<event>
 6    0  0.4340992E+002  0.2094890E+03  0.7546771E-02  0.1141971E+00
          2   -1    0    0  504    0 -0.00000000000E+00  0.00000000000E+00  0.35224936323E+03  0.35224936323E+03  0.00000000000E+00 0. -1.
         21   -1    0    0  505  502  0.00000000000E+00 -0.00000000000E+00 -0.41823999504E+03  0.41823999504E+03  0.00000000000E+00 0. -1.
         21    1    1    2  503  501 -0.39346207943E+02  0.27623302410E+02 -0.41150153978E+02  0.63281166929E+02  0.00000000000E+00 0. -1.
         21    1    1    2  504  502  0.31629043172E+02 -0.27964525064E+02  0.74935865770E+01  0.42878489640E+02  0.00000000000E+00 0. -1.
         21    1    1    2  505  503 -0.48541026709E+02  0.14904071019E+03 -0.30829111061E+03  0.34585079651E+03  0.00000000000E+00 0. -1.
          2    1    1    2  501    0  0.56258191480E+02 -0.14869948753E+03  0.27595704621E+03  0.31847890519E+03  0.00000000000E+00 0. -1.
<scales pt_clust_3="43.75121" pt_clust_4="42.21861" pt_clust_5="43.75121" pt_clust_6="193.75299"></scales>
<clustering>
<clus scale="   42.219">  1  4  2 -1</clus>
<clus scale="   43.751">  3  5 -1 -1</clus>
<clus scale="  193.753">  1  6  2 -1</clus>
<clus scale="  209.489">  2  3  1 -1</clus>
</clustering>
</event>
<event>
 6    0  0.4340992E+002  0.1061514E+03  0.7546771E-02  0.1267867E+00
         21   -1    0    0  505  502  0.00000000000E+00  0.00000000000E+00  0.82291254717E+03  0.82291254717E+03  0.00000000000E+00 0.  1.
          2   -1    0    0  503    0 -0.00000000000E+00 -0.00000000000E+00 -0.40573522393E+03  0.40573522393E+03  0.00000000000E+00 0. -1.
         21    1    1    2  503  504 -0.42705385858E+02 -0.42516042417E+01  0.50858273411E+01  0.43216799508E+02  0.00000000000E+00 0. -1.
         21    1    1    2  504  502 -0.82571740755E+02  0.41972266082E+02  0.41397054443E+03  0.42420675991E+03  0.00000000000E+00 0.  1.
         21    1    1    2  505  501  0.67510419647E+02  0.67259513209E+02  0.36397703362E+03  0.37624563769E+03  0.00000000000E+00 0.  1.
          2    1    1    2  501    0  0.57766706966E+02 -0.10498017505E+03 -0.36585608215E+03  0.38497857400E+03  0.00000000000E+00 0. -1.
<scales pt_clust_3="42.91650" pt_clust_4="93.10592" pt_clust_5="106.15144" pt_clust_6="14000.00000"></scales>
<clustering>
<clus scale="   42.917">  2  3  1 -1</clus>
<clus scale="   93.106">  1  4  2 -1</clus>
<clus scale="  106.151">  1  5  2 -1</clus>
<clus scale="   93.106">  1  3  2 -1</clus>
</clustering>
</event>
<event>
 6    0  0.4340992E+002  0.9380857E+02  0.7546771E-02  0.1293882E+00
          2   -1    0    0  504    0 -0.00000000000E+00  0.00000000000E+00  0.61398285540E+03  0.61398285540E+03  0.00000000000E+00 0.  1.
         21   -1    0    0  501  502  0.00000000000E+00 -0.00000000000E+00 -0.59994876198E+02  0.59994876198E+02  0.00000000000E+00 0.  1.
         21    1    1    2  503  502 -0.20693278236E+02 -0.49550047524E+02  0.13880185262E+02  0.55462406337E+02  0.00000000000E+00 0.  1.
         21    1    1    2  504  505 -0.10778636883E+02  0.57995475644E+02  0.14732751070E+03  0.15869798240E+03  0.00000000000E+00 0.  1.
         21    1    1    2  505  503  0.65185660171E+02 -0.56261193954E+02  0.28251878361E+02  0.90623732366E+02  0.00000000000E+00 0.  1.
          2    1    1    2  501    0 -0.33713745052E+02  0.47815765835E+02  0.36452840488E+03  0.36919361049E+03  0.00000000000E+00 0.  1.
<scales pt_clust_3="53.69748" pt_clust_4="52.64519" pt_clust_5="14000.00000" pt_clust_6="93.80857"></scales>
<clustering>
<clus scale="   53.697">  2  3  1 -1</clus>
<clus scale="   52.645">  1  4  2 -1</clus>
<clus scale="   93.809">  1  6  2 -1</clus>
<clus scale="   53.697">  2  3  1 -1</clus>
</clustering>
</event>
<event>
 6    0  0.4340992E+002  0.7503241E+02  0.7546771E-02  0.1343771E+00
         21   -1    0    0  505  502  0.00000000000E+00  0.00000000000E+00  0.15673863047E+03  0.15673863047E+03  0.00000000000E+00 0.  1.
         -2   -1    0    0    0  501 -0.00000000000E+00 -0.00000000000E+00 -0.13530029919E+04  0.13530029919E+04  0.00000000000E+00 0.  1.
         21    1    1    2  503  502  0.41577698403E+02 -0.36330258851E+01 -0.48226334261E+02  0.63778391307E+02  0.00000000000E+00 0.  1.
         21    1    1    2  504  503 -0.84919654584E+02 -0.78310759391E+02 -0.35927373919E+03  0.37738778788E+03  0.00000000000E+00 0. -1.
         21    1    1    2  505  501 -0.25059701145E+02  0.64305306303E+02  0.12995505941E+03  0.14714441378E+03  0.00000000000E+00 0.  1.
         -2    1    1    2    0  504  0.68401657326E+02  0.17638478973E+02 -0.91871934744E+03  0.92143102945E+03  0.00000000000E+00 0.  1.
<scales pt_clust_3="41.73612" pt_clust_4="14000.00000" pt_clust_5="62.42822" pt_clust_6="75.03241"></scales>
<clustering>
<clus scale="   41.736">  1  3  2 -1</clus>
<clus scale="   62.428">  1  5  2 -1</clus>
<clus scale="   75.032">  2  6  1 -1</clus>
<clus scale="   41.736">  1  3  2 -1</clus>
</clustering>
</event>
<event>
 6    0  0.4340992E+002  0.1057738E+03  0.7546771E-02  0.1268602E+00
          1   -1    0    0  504    0 -0.00000000000E+00  0.00000000000E+00  0.61275229415E+03  0.61275229415E+03  0.00000000000E+00 0.  1.
         21   -1    0    0  505  502  0.00000000000E+00 -0.00000000000E+00 -0.13770535166E+03  0.13770535166E+03  0.00000000000E+00 0.  1.
         21    1    1    2  503  502 -0.33824743531E+02 -0.40343312321E+02  0.82572267503E+01  0.53290504948E+02  0.00000000000E+00 0.  1.
         21    1    1    2  504  503  0.12609574962E+02  0.12448614024E+03  0.12329526658E+03  0.17566309588E+03  0.00000000000E+00 0.  1.
         21    1    1    2  505  501 -0.56360744086E+02 -0.57025472451E+01 -0.71999504701E+02  0.91613215183E+02  0.00000000000E+00 0.  1.
          1    1    1    2  501    0  0.77575912655E+02 -0.78440280671E+02  0.41549395386E+03  0.42989082980E+03  0.00000000000E+00 0.  1.
<scales pt_clust_3="52.64690" pt_clust_4="105.77381" pt_clust_5="87.41633" pt_clust_6="14000.00000"></scales>
<clustering>
<clus scale="   52.647">  2  3  1 -1</clus>
<clus scale="   87.416">  2  5  1 -1</clus>
<clus scale="  105.774">  2  4  1 -1</clus>
<clus scale="   52.647">  2  3  1 -1</clus>
</clustering>
</event>
<event>
 6    0  0.4340992E+002  0.2844229E+03  0.7546771E-02  0.1093297E+00
         21   -1    0    0  505  502  0.00000000000E+00  0.00000000000E+00  0.15991674614E+03  0.15991674614E+03  0.00000000000E+00 0. -1.
          2   -1    0    0  504    0 -0.00000000000E+00 -0.00000000000E+00 -0.18704988014E+04  0.18704988014E+04  0.00000000000E+00 0. -1.
         21    1    1    2  503  501  0.11116915764E+03 -0.34282520372E+02 -0.70584950187E+03  0.71537220529E+03  0.00000000000E+00 0. -1.
         21    1    1    2  504  502 -0.25343083612E+03  0.15444620605E+03 -0.15214010096E+02  0.29717383021E+03  0.00000000000E+00 0. -1.
         21    1    1    2  505  503  0.37359956562E+02  0.85912990860E+01 -0.46156859031E+02  0.60000270082E+02  0.00000000000E+00 0. -1.
          2    1    1    2  501    0  0.10490172192E+03 -0.12875498477E+03 -0.94336168422E+03  0.95786924192E+03  0.00000000000E+00 0. -1.
<scales pt_clust_3="67.98224" pt_clust_4="272.62577" pt_clust_5="38.33506" pt_clust_6="67.98224"></scales>
<clustering>
<clus scale="   38.335">  1  5  2 -1</clus>
<clus scale="   67.982">  3  6 -1 -1</clus>
<clus scale="  272.626">  1  4  2 -1</clus>
<clus scale="   38.335">  1  3  2 -1</clus>
</clustering>
</event>
<event>
 6    0  0.4340992E+002  0.1767407E+03  0.7546771E-02  0.1170995E+00
         -4   -1    0    0    0  501 -0.00000000000E+00  0.00000000000E+00  0.24460082275E+04  0.24460082275E+04  0.00000000000E+00 0. -1.
         21   -1    0    0  504  502  0.00000000000E+00 -0.00000000000E+00 -0.52716471523E+02  0.52716471523E+02  0.00000000000E+00 0. -1.
         21    1    1    2  503  505  0.13239066893E+03  0.33570462321E+02  0.12625395224E+03  0.18599549892E+03  0.00000000000E+00 0. -1.
         21    1    1    2  504  503  0.30373723810E+02  0.13407282744E+02 -0.38652463190E+01  0.33425416344E+02  0.00000000000E+00 0. -1.
         21    1    1    2  505  501 -0.59822273993E+02  0.26739322626E+02  0.98697055812E+03  0.98914335585E+03  0.00000000000E+00 0.  1.
         -4    1    1    2    0  502 -0.10294211875E+03 -0.73717067691E+02  0.12839324920E+04  0.12901604279E+04  0.00000000000E+00 0. -1.
<scales pt_clust_3="32.95406" pt_clust_4="32.95406" pt_clust_5="65.52630" pt_clust_6="163.61503"></scales>
<clustering>
<clus scale="   32.954">  3  4 -1 -1</clus>
<clus scale="   65.526">  1  5  2 -1</clus>
<clus scale="  163.615">  1  6  2 -1</clus>
<clus scale="  176.741">  2  3  1 -1</clus>
</clustering>
</event>
<event>
 6    0  0.4340992E+002  0.8121593E+02  0.7546771E-02  0.1325636E+00
          2   -1    0    0  505    0 -0.00000000000E+00  0.00000000000E+00  0.19552752393E+04  0.19552752393E+04  0.00000000000E+00 0. -1.
         21   -1    0    0  504  502  0.00000000000E+00 -0.00000000000E+00 -0.21508700516E+03  0.21508700516E+03  0.00000000000E+00 0. -1.
         21    1    1    2  503  502  0.65011926027E+01  0.40447087163E+02 -0.45674809749E+01  0.41220070933E+02  0.00000000000E+00 0. -1.
         21    1    1    2  504  501 -0.77259494862E+02 -0.80659403417E+02 -0.17221968448E+03  0.20526711531E+03  0.00000000000E+00 0. -1.
         21    1    1    2  505  503 -0.15211392230E+01  0.67473098078E+02  0.46793458309E+03  0.47277659299E+03  0.00000000000E+00 0. -1.
          2    1    1    2  501    0  0.72279441482E+02 -0.27260781825E+02  0.14490408165E+04  0.14510984653E+04  0.00000000000E+00 0. -1.
<scales pt_clust_3="40.96623" pt_clust_4="14000.00000" pt_clust_5="67.99783" pt_clust_6="81.21593"></scales>
<clustering>
<clus scale="   40.966">  2  3  1 -1</clus>
<clus scale="   67.998">  1  5  2 -1</clus>
<clus scale="   81.216">  1  6  2 -1</clus>
<clus scale="   40.966">  2  3  1 -1</clus>
</clustering>
</event>
<event>
 6    0  0.4340992E+002  0.1013579E+03  0.7546771E-02  0.1277466E+00
          1   -1    0    0  504    0 -0.00000000000E+00  0.00000000000E+00  0.81816090399E+02  0.81816090399E+02  0.00000000000E+00 0. -1.
         21   -1    0    0  501  502  0.00000000000E+00 -0.00000000000E+00 -0.46612514403E+03  0.46612514403E+03  0.00000000000E+00 0.  1.
         21    1    1    2  503  502 -0.84653558147E+01 -0.35628038956E+02 -0.40824009130E+02  0.54841764472E+02  0.00000000000E+00 0.  1.
         21    1    1    2  504  505  0.10208223310E+03  0.66430540075E+02 -0.14118035574E+03  0.18645560280E+03  0.00000000000E+00 0. -1.
         21    1    1    2  505  503 -0.37584869002E+02  0.48480499299E+02 -0.20035974219E+03  0.20953999017E+03  0.00000000000E+00 0.  1.
          1    1    1    2  501    0 -0.56032008280E+02 -0.79283000418E+02 -0.19449465620E+01  0.97103876979E+02  0.00000000000E+00 0. -1.
<scales pt_clust_3="36.61993" pt_clust_4="101.35791" pt_clust_5="52.00090" pt_clust_6="14000.00000"></scales>
<clustering>
<clus scale="   36.620">  2  3  1 -1</clus>
<clus scale="   52.001">  2  5  1 -1</clus>
<clus scale="  101.358">  2  4  1 -1</clus>
<clus scale="   36.620">  2  3  1 -1</clus>
</clustering>
</event>
<event>
 6    0  0.4340992E+002  0.1185333E+03  0.7546771E-02  0.1245536E+00
          1   -1    0    0  504    0 -0.00000000000E+00  0.00000000000E+00  0.18108874962E+03  0.18108874962E+03  0.00000000000E+00 0.  1.
         21   -1    0    0  503  502  0.00000000000E+00 -0.00000000000E+00 -0.96483676526E+03  0.96483676526E+03  0.00000000000E+00 0. -1.
         21    1    1    2  503  505  0.56145599248E+02  0.19435309441E+02 -0.11023821129E+03  0.12522987981E+03  0.00000000000E+00 0. -1.
         21    1    1    2  504  502  0.33884675276E+02 -0.87048421415E+02 -0.82365022001E+03  0.82893020442E+03  0.00000000000E+00 0. -1.
         21    1    1    2  505  501 -0.30367932076E+02  0.44283609394E+02  0.53333324051E+02  0.75681522275E+02  0.00000000000E+00 0.  1.
          1    1    1    2  501    0 -0.59662342448E+02  0.23329502580E+02  0.96807091607E+02  0.11608390837E+03  0.00000000000E+00 0.  1.
<scales pt_clust_3="59.41430" pt_clust_4="111.78239" pt_clust_5="36.10082" pt_clust_6="36.10082"></scales>
<clustering>
<clus scale="   36.101">  5  6 -1 -1</clus>
<clus scale="   59.414">  2  3  1 -1</clus>
<clus scale="  111.782">  2  4  1 -1</clus>
<clus scale="   59.414">  2  3  1 -1</clus>
</clustering>
</event>
<event>
 6    0  0.4340992E+002  0.1083750E+03  0.7546771E-02  0.1263609E+00
          1   -1    0    0  505    0 -0.00000000000E+00  0.00000000000E+00  0.18648456705E+04  0.18648456705E+04  0.00000000000E+00 0. -1.
         21   -1    0    0  501  502  0.00000000000E+00 -0.00000000000E+00 -0.92758989751E+02  0.92758989751E+02  0.00000000000E+00 0.  1.
         21    1    1    2  503  502  0.23334567660E+02  0.11082392110E+03 -0.13558609200E+02  0.11406261183E+03  0.00000000000E+00 0.  1.
         21    1    1    2  504  503 -0.91545927034E+02 -0.71013234052E+02  0.10648451772E+03  0.15736101385E+03  0.00000000000E+00 0. -1.
         21    1    1    2  505  504  0.35971686803E+02 -0.76465804850E-01  0.14836294109E+04  0.14840654288E+04  0.00000000000E+00 0. -1.
          1    1    1    2  501    0  0.32239672572E+02 -0.39734221238E+02  0.19553136126E+03  0.20211560569E+03  0.00000000000E+00 0. -1.
<scales pt_clust_3="14000.00000" pt_clust_4="108.37501" pt_clust_5="35.97177" pt_clust_6="64.68500"></scales>
<clustering>
<clus scale="   35.972">  1  5  2 -1</clus>
<clus scale="   64.685">  1  6  2 -1</clus>
<clus scale="  108.375">  1  4  2 -1</clus>
<clus scale="  108.375">  2  3  1 -1</clus>
</clustering>
</event>
<event>
 6    0  0.4340992E+002  0.1038213E+03  0.7546771E-02  0.1272459E+00
         21   -1    0    0  505  502  0.00000000000E+00  0.00000000000E+00  0.51784383920E+03  0.51784383920E+03  0.00000000000E+00 0. -1.
         -3   -1    0    0    0  501 -0.00000000000E+00 -0.00000000000E+00 -0.11770685406E+03  0.11770685406E+03  0.00000000000E+00 0.  1.
         21    1    1    2  503  502  0.37920115909E+02  0.10219574449E+02  0.14586301139E+02  0.41894332235E+02  0.00000000000E+00 0. -1.
         21    1    1    2  504  501 -0.63129360254E+02  0.86405016264E+02 -0.64250544980E+01  0.10720272518E+03  0.00000000000E+00 0.  1.
         21    1    1    2  505  504  0.61271362658E+02 -0.83380554118E+02  0.42399769865E+03  0.43644076934E+03  0.00000000000E+00 0. -1.
         -3    1    1    2    0  503 -0.36062118313E+02 -0.13244036595E+02 -0.32021960150E+02  0.50012866488E+02  0.00000000000E+00 0.  1.
<scales pt_clust_3="32.46573" pt_clust_4="14000.00000" pt_clust_5="103.82135" pt_clust_6="38.41720"></scales>
<clustering>
<clus scale="   38.417">  2  6  1 -1</clus>
<clus scale="   32.466">  2  3  1 -1</clus>
<clus scale="  103.821">  1  5  2 -1</clus>
<clus scale="  103.821">  1  3  2 -1</clus>
</clustering>
</event>
<event>
 6    0  0.4340992E+002  0.1233815E+03  0.7546771E-02  0.1237621E+00
         21   -1    0    0  505  502  0.00000000000E+00  0.00000000000E+00  0.85263915547E+03  0.85263915547E+03  0.00000000000E+00 0. -1.
          1   -1    0    0  503    0 -0.00000000000E+00 -0.00000000000E+00 -0.14334310129E+04  0.14334310129E+04  0.00000000000E+00 0. -1.
         21    1    1    2  503  504 -0.32770011713E+02  0.23090838912E+02 -0.42229148450E+03  0.42419000270E+03  0.00000000000E+00 0. -1.
         21    1    1    2  504  502  0.16596803530E+02 -0.94536945375E+02  0.72810401394E+03  0.73440325642E+03  0.00000000000E+00 0. -1.
         21    1    1    2  505  501 -0.34104139384E+02 -0.27958169140E+02  0.11319966157E+03  0.12148627463E+03  0.00000000000E+00 0. -1.
          1    1    1    2  501    0  0.50277347566E+02  0.99404275604E+02 -0.99980404847E+03  0.10059906347E+04  0.00000000000E+00 0. -1.
<scales pt_clust_3="40.08816" pt_clust_4="123.38149" pt_clust_5="44.14352" pt_clust_6="14000.00000"></scales>
<clustering>
<clus scale="   40.088">  2  3  1 -1</clus>
<clus scale="   44.144">  1  5  2 -1</clus>
<clus scale="  123.381">  1  4  2 -1</clus>
<clus scale="   44.144">  1  3  2 -1</clus>
</clustering>
</event>
<event>
 6    0  0.4340992E+002  0.7530616E+02  0.7546771E-02  0.1342926E+00
         21   -1    0    0  503  502  0.00000000000E+00  0.00000000000E+00  0.50125525147E+02  0.50125525147E+02  0.00000000000E+00 0.  1.
         -1   -1    0    0    0  501 -0.00000000000E+00 -0.00000000000E+00 -0.68279782614E+03  0.68279782614E+03  0.00000000000E+00 0. -1.
         21    1    1    2  503  501 -0.38726155168E+02 -0.33758946741E+02 -0.92358776498E+02  0.10568597435E+03  0.00000000000E+00 0.  1.
         21    1    1    2  504  502 -0.70244377458E+02  0.32096436231E+02 -0.62070921819E+01  0.77478911819E+02  0.00000000000E+00 0.  1.
         21    1    1    2  505  504  0.77826073966E+02  0.34310622957E+02 -0.34004813487E+03  0.35052368060E+03  0.00000000000E+00 0. -1.
         -1    1    1    2    0  505  0.31144458660E+02 -0.32648112447E+02 -0.19405829745E+03  0.19923478452E+03  0.00000000000E+00 0. -1.
<scales pt_clust_3="51.78324" pt_clust_4="14000.00000" pt_clust_5="75.30616" pt_clust_6="45.12069"></scales>
<clustering>
<clus scale="   45.121">  2  6  1 -1</clus>
<clus scale="   51.783">  2  3  1 -1</clus>
<clus scale="   75.306">  2  5  1 -1</clus>
<clus scale="   75.306">  1  3  2 -1</clus>
</clustering>
</event>
<event>
 6    0  0.4340992E+002  0.1467334E+03  0.7546771E-02  0.1204545E+00
          2   -1    0    0  503    0 -0.00000000000E+00  0.00000000000E+00  0.12087279848E+03  0.12087279848E+03  0.00000000000E+00 0. -1.
         21   -1    0    0  504  502  0.00000000000E+00 -0.00000000000E+00 -0.11032301065E+04  0.11032301065E+04  0.00000000000E+00 0. -1.
         21    1    1    2  503  505 -0.56408842471E+01  0.75659435246E+02 -0.63615048548E+02  0.99010323293E+02  0.00000000000E+00 0. -1.
         21    1    1    2  504  501  0.45741890060E+02 -0.13288244345E+03 -0.87652811800E+03  0.88772270779E+03  0.00000000000E+00 0. -1.
         21    1    1    2  505  502 -0.37792732717E+02 -0.23328846453E+02 -0.11841028406E+03  0.12646549369E+03  0.00000000000E+00 0.  1.
          2    1    1    2  501    0 -0.23082730952E+01  0.80551854655E+02  0.76196142566E+02  0.11090438023E+03  0.00000000000E+00 0. -1.
<scales pt_clust_3="74.24562" pt_clust_4="146.73343" pt_clust_5="44.41313" pt_clust_6="14000.00000"></scales>
<clustering>
<clus scale="   44.413">  2  5  1 -1</clus>
<clus scale="   74.246">  1  3  2 -1</clus>
<clus scale="  146.733">  2  4  1 -1</clus>
<clus scale="   44.413">  2  3  1 -1</clus>
</clustering>
</event>
<event>
 6    0  0.4340992E+002  0.1196975E+03  0.7546771E-02  0.1243597E+00
         21   -1    0    0  503  502  0.00000000000E+00  0.00000000000E+00  0.31413973779E+03  0.31413973779E+03  0.00000000000E+00 0. -1.
          2   -1    0    0  504    0 -0.00000000000E+00 -0.00000000000E+00 -0.28325156525E+04  0.28325156525E+04  0.00000000000E+00 0.  1.
         21    1    1    2  503  505 -0.38557951901E+02 -0.78314859166E+02  0.87927118943E+02  0.12389960075E+03  0.00000000000E+00 0. -1.
         21    1    1    2  504  502  0.13301106361E+03 -0.11420556104E+01  0.18437454307E+03  0.22734823392E+03  0.00000000000E+00 0. -1.
         21    1    1    2  505  501 -0.54570155550E+02  0.46102567292E+02 -0.61914532487E+03  0.62325298387E+03  0.00000000000E+00 0. -1.
          2    1    1    2  501    0 -0.39882956161E+02  0.33354347484E+02 -0.21715322518E+04  0.21721545717E+04  0.00000000000E+00 0.  1.
<scales pt_clust_3="86.96804" pt_clust_4="119.69754" pt_clust_5="14000.00000" pt_clust_6="51.99195"></scales>
<clustering>
<clus scale="   51.992">  2  6  1 -1</clus>
<clus scale="   86.968">  1  3  2 -1</clus>
<clus scale="  119.698">  1  4  2 -1</clus>
<clus scale="   86.968">  1  3  2 -1</clus>
</clustering>
</event>
<event>
 6    0  0.4340992E+002  0.5256749E+02  0.7546771E-02  0.1431965E+00
         21   -1    0    0  505  502  0.00000000000E+00  0.00000000000E+00  0.58862749773E+03  0.58862749773E+03  0.00000000000E+00 0.  1.
         -1   -1    0    0    0  501 -0.00000000000E+00 -0.00000000000E+00 -0.70430772967E+03  0.70430772967E+03  0.00000000000E+00 0. -1.
         21    1    1    2  503  502 -0.86934737010E+02  0.39367107991E+02  0.53444456830E+03  0.54289816197E+03  0.00000000000E+00 0.  1.
         21    1    1    2  504  501 -0.90862511793E+01  0.32235131227E+02 -0.48681706626E+02  0.59089527039E+02  0.00000000000E+00 0. -1.
         21    1    1    2  505  504  0.45890681573E+02 -0.84772991439E+01  0.29281410744E+02  0.55092833210E+02  0.00000000000E+00 0.  1.
         -1    1    1    2    0  503  0.50130306616E+02 -0.63124940074E+02 -0.63072450435E+03  0.63585470517E+03  0.00000000000E+00 0. -1.
<scales pt_clust_3="52.56749" pt_clust_4="33.49125" pt_clust_5="46.37746" pt_clust_6="14000.00000"></scales>
<clustering>
<clus scale="   33.491">  2  4  1 -1</clus>
<clus scale="   46.377">  1  5  2 -1</clus>
<clus scale="   52.567">  1  3  2 -1</clus>
<clus scale="   46.377">  1  3  2 -1</clus>
</clustering>
</event>
<event>
 6    0  0.4340992E+002  0.7463432E+02  0.7546771E-02  0.1345007E+00
         -1   -1    0    0    0  501 -0.00000000000E+00  0.00000000000E+00  0.25447112437E+03  0.25447112437E+03  0.00000000000E+00 0. -1.
         21   -1    0    0  504  502  0.00000000000E+00 -0.00000000000E+00 -0.17071317192E+03  0.17071317192E+03  0.00000000000E+00 0. -1.
         21    1    1    2  503  501 -0.79569586668E+01  0.49080903015E+02  0.77286803196E+02  0.91899391621E+02  0.00000000000E+00 0. -1.
         21    1    1    2  504  503 -0.38512231875E+02  0.64929099786E+02 -0.10119484989E+03  0.12625124811E+03  0.00000000000E+00 0. -1.
         21    1    1    2  505  502 -0.13983732564E+02 -0.86167922251E+02  0.86431770122E+01  0.87722061708E+02  0.00000000000E+00 0. -1.
         -1    1    1    2    0  505  0.60452923106E+02 -0.27842080551E+02  0.99022822144E+02  0.11931159486E+03  0.00000000000E+00 0. -1.
<scales pt_clust_3="49.72171" pt_clust_4="74.63432" pt_clust_5="14000.00000" pt_clust_6="55.46306"></scales>
<clustering>
<clus scale="   49.722">  1  3  2 -1</clus>
<clus scale="   55.463">  1  6  2 -1</clus>
<clus scale="   74.634">  2  4  1 -1</clus>
<clus scale="   74.634">  2  3  1 -1</clus>
</clustering>
</event>
<event>
 6    0  0.4340992E+002  0.8250283E+02  0.7546771E-02  0.1322095E+00
          2   -1    0    0  503    0 -0.00000000000E+00  0.00000000000E+00  0.23457969812E+04  0.23457969812E+04  0.00000000000E+00 0. -1.
         21   -1    0    0  504  502  0.00000000000E+00 -0.00000000000E+00 -0.31773287684E+02  0.31773287684E+02  0.00000000000E+00 0. -1.
         21    1    1    2  503  505  0.12591419567E+03 -0.72148397570E+02  0.49455899280E+03  0.51541087814E+03  0.00000000000E+00 0. -1.
         21    1    1    2  504  501  0.15390582605E+02  0.32081737273E+02  0.18845578538E+02  0.40264919344E+02  0.00000000000E+00 0. -1.
         21    1    1    2  505  502 -0.84149379872E+02 -0.11901957388E+02  0.17605348280E+03  0.19549323141E+03  0.00000000000E+00 0. -1.
          2    1    1    2  501    0 -0.57155398403E+02  0.51968617685E+02  0.16245656393E+04  0.16264012399E+04  0.00000000000E+00 0. -1.
<scales pt_clust_3="14000.00000" pt_clust_4="35.58241" pt_clust_5="77.10199" pt_clust_6="82.50283"></scales>
<clustering>
<clus scale="   35.582">  2  4  1 -1</clus>
<clus scale="   77.102">  2  5  1 -1</clus>
<clus scale="   82.503">  1  6  2 -1</clus>
<clus scale="   35.582">  2  3  1 -1</clus>
</clustering>
</event>
<event>
 6    0  0.4340992E+002  0.1552493E+03  0.7546771E-02  0.1194167E+00
         21   -1    0    0  504  502  0.00000000000E+00  0.00000000000E+00  0.30072990424E+03  0.30072990424E+03  0.00000000000E+00 0. -1.
          2   -1    0    0  503    0 -0.00000000000E+00 -0.00000000000E+00 -0.26013438183E+03  0.26013438183E+03  0.00000000000E+00 0. -1.
         21    1    1    2  503  505 -0.10820665928E+03  0.44952334535E+01 -0.14195686864E+02  0.10922639682E+03  0.00000000000E+00 0. -1.
         21    1    1    2  504  501  0.10295497358E+03  0.39136986767E+01 -0.10968017497E+03  0.15048184078E+03  0.00000000000E+00 0. -1.
         21    1    1    2  505  502 -0.47986484242E+02  0.41303884255E+02  0.20723469131E+03  0.21669086461E+03  0.00000000000E+00 0. -1.
          2    1    1    2  501    0  0.53238169939E+02 -0.49712816386E+02 -0.42763307068E+02  0.84465183850E+02  0.00000000000E+00 0. -1.
<scales pt_clust_3="136.51046" pt_clust_4="62.17106" pt_clust_5="63.31440" pt_clust_6="62.17106"></scales>
<clustering>
<clus scale="   62.171">  4  6 -1 -1</clus>
<clus scale="   63.314">  1  5  2 -1</clus>
<clus scale="  136.510">  1  3  2 -1</clus>
<clus scale="   63.314">  1  3  2 -1</clus>
</clustering>
</event>
<event>
 6    0  0.4340992E+002  0.1209739E+03  0.7546771E-02  0.1241499E+00
          2   -1    0    0  505    0 -0.00000000000E+00  0.00000000000E+00  0.39850226389E+03  0.39850226389E+03  0.00000000000E+00 0. -1.
         21   -1    0    0  504  502  0.00000000000E+00 -0.00000000000E+00 -0.89378252996E+03  0.89378252996E+03  0.00000000000E+00 0.  1.
         21    1    1    2  503  502 -0.18775671255E+03 -0.47795429966E+02 -0.63470197523E+03  0.66361403210E+03  0.00000000000E+00 0.  1.
         21    1    1    2  504  501  0.71772835281E+02  0.10941764239E+02 -0.22684868443E+03  0.23818351689E+03  0.00000000000E+00 0. -1.
         21    1    1    2  505  503  0.29963192177E+02  0.10096607357E+02  0.18914005879E+03  0.19176468967E+03  0.00000000000E+00 0. -1.
          2    1    1    2  501    0  0.86020685092E+02  0.26757058370E+02  0.17713033480E+03  0.19872255520E+03  0.00000000000E+00 0. -1.
<scales pt_clust_3="120.97385" pt_clust_4="73.45058" pt_clust_5="31.61858" pt_clust_6="14000.00000"></scales>
<clustering>
<clus scale="   31.619">  1  5  2 -1</clus>
<clus scale="   73.451">  2  4  1 -1</clus>
<clus scale="  120.974">  2  3  1 -1</clus>
<clus scale="   73.451">  2  3  1 -1</clus>
</clustering>
</event>
<event>
 6    0  0.4340992E+002  0.6084376E+02  0.7546771E-02  0.1394325E+00
         21   -1    0    0  505  502  0.00000000000E+00  0.00000000000E+00  0.16708180383E+04  0.16708180383E+04  0.00000000000E+00 0. -1.
          1   -1    0    0  503    0 -0.00000000000E+00 -0.00000000000E+00 -0.17776259139E+03  0.17776259139E+03  0.00000000000E+00 0. -1.
         21    1    1    2  503  504 -0.12330847491E+02 -0.30287416316E+02 -0.34350184494E+02  0.47426918113E+02  0.00000000000E+00 0.  1.
         21    1    1    2  504  502 -0.22596854730E+02 -0.73715144740E+02  0.63988875101E+03  0.64451699285E+03  0.00000000000E+00 0. -1.
         21    1    1    2  505  501  0.55391620798E+02  0.26220762337E+02  0.10090451198E+04  0.10109044534E+04  0.00000000000E+00 0. -1.
          1    1    1    2  501    0 -0.20463918578E+02  0.77781798719E+02 -0.12152823944E+03  0.14573226533E+03  0.00000000000E+00 0. -1.
<scales pt_clust_3="32.70134" pt_clust_4="14000.00000" pt_clust_5="60.84376" pt_clust_6="58.14489"></scales>
<clustering>
<clus scale="   32.701">  2  3  1 -1</clus>
<clus scale="   58.145">  2  6  1 -1</clus>
<clus scale="   60.844">  1  5  2 -1</clus>
<clus scale="   60.844">  1  3  2 -1</clus>
</clustering>
</event>
<event>
 6    0  0.4340992E+002  0.1244252E+03  0.7546771E-02  0.1235970E+00
          1   -1    0    0  503    0 -0.00000000000E+00  0.00000000000E+00  0.14042509244E+03  0.14042509244E+03  0.00000000000E+00 0.  1.
         21   -1    0    0  505  502  0.00000000000E+00 -0.00000000000E+00 -0.70314947721E+03  0.70314947721E+03  0.00000000000E+00 0. -1.
         21    1    1    2  503  504 -0.47661975910E+02  0.64567471447E+02  0.43845390660E+02  0.91449661556E+02  0.00000000000E+00 0.  1.
         21    1    1    2  504  502 -0.14020201595E+03 -0.80838371049E+02 -0.10042494797E+03  0.19046421628E+03  0.00000000000E+00 0.  1.
         21    1    1    2  505  501  0.95729504867E+02 -0.18140484145E+02 -0.41924717763E+03  0.43042004045E+03  0.00000000000E+00 0. -1.
          1    1    1    2  501    0  0.92134486988E+02  0.34411383747E+02 -0.86897649830E+02  0.13124065136E+03  0.00000000000E+00 0.  1.
<scales pt_clust_3="80.25349" pt_clust_4="124.42525" pt_clust_5="93.01014" pt_clust_6="14000.00000"></scales>
<clustering>
<clus scale="   80.253">  1  3  2 -1</clus>
<clus scale="   93.010">  2  5  1 -1</clus>
<clus scale="  124.425">  2  4  1 -1</clus>
<clus scale="   93.010">  2  3  1 -1</clus>
</clustering>
</event>
<event>
 6    0  0.4340992E+002  0.1804736E+03  0.7546771E-02  0.1167345E+00
         21   -1    0    0  503  502  0.00000000000E+00  0.00000000000E+00  0.89063824393E+02  0.89063824393E+02  0.00000000000E+00 0.  1.
          2   -1    0    0  505    0 -0.00000000000E+00 -0.00000000000E+00 -0.28821294354E+04  0.28821294354E+04  0.00000000000E+00 0.  1.
         21    1    1    2  503  501 -0.49387650425E+02  0.15831502267E+02 -0.20697924029E+02  0.55840671000E+02  0.00000000000E+00 0.  1.
         21    1    1    2  504  502 -0.70996860145E+02 -0.16086615344E+03 -0.55683643080E+02  0.18444278674E+03  0.00000000000E+00 0.  1.
         21    1    1    2  505  504  0.11938315660E+03 -0.13167950436E+02 -0.12024629327E+04  0.12084464562E+04  0.00000000000E+00 0.  1.
          2    1    1    2  501    0  0.10013539702E+01  0.15820260161E+03 -0.15142211112E+04  0.15224633459E+04  0.00000000000E+00 0.  1.
<scales pt_clust_3="51.86306" pt_clust_4="180.47363" pt_clust_5="117.98105" pt_clust_6="14000.00000"></scales>
<clustering>
<clus scale="   51.863">  1  3  2 -1</clus>
<clus scale="  117.981">  2  5  1 -1</clus>
<clus scale="  180.474">  1  4  2 -1</clus>
<clus scale="   51.863">  1  3  2 -1</clus>
</clustering>
</event>
<event>
 6    0  0.4340992E+002  0.1148490E+03  0.7546771E-02  0.1251845E+00
         21   -1    0    0  504  502  0.00000000000E+00  0.00000000000E+00  0.17468236331E+03  0.17468236331E+03  0.00000000000E+00 0.  1.
         -1   -1    0    0    0  501 -0.00000000000E+00 -0.00000000000E+00 -0.59863265033E+03  0.59863265033E+03  0.00000000000E+00 0. -1.
         21    1    1    2  503  501  0.49003477470E+02  0.71287203326E+01 -0.42571658584E+02  0.65303181947E+02  0.00000000000E+00 0. -1.
         21    1    1    2  504  503 -0.12562648452E+03 -0.54437944054E+02 -0.14989116838E+03  0.20300952126E+03  0.00000000000E+00 0. -1.
         21    1    1    2  505  502 -0.60635847465E+01  0.53997659488E+02  0.12642204353E+03  0.13760467790E+03  0.00000000000E+00 0.  1.
         -1    1    1    2    0  505  0.82686591801E+02 -0.66884357668E+01 -0.35790950358E+03  0.36739763254E+03  0.00000000000E+00 0. -1.
<scales pt_clust_3="49.51928" pt_clust_4="114.84898" pt_clust_5="54.35600" pt_clust_6="14000.00000"></scales>
<clustering>
<clus scale="   49.519">  2  3  1 -1</clus>
<clus scale="   54.356">  1  5  2 -1</clus>
<clus scale="  114.849">  1  4  2 -1</clus>
<clus scale="   54.356">  1  3  2 -1</clus>
</clustering>
</event>
<event>
 6    0  0.4340992E+002  0.1065204E+03  0.7546771E-02  0.1267153E+00
          4   -1    0    0  505    0 -0.00000000000E+00  0.00000000000E+00  0.12142553262E+03  0.12142553262E+03  0.00000000000E+00 0.  1.
         21   -1    0    0  504  502  0.00000000000E+00 -0.00000000000E+00 -0.12362922136E+04  0.12362922136E+04  0.00000000000E+00 0.  1.
         21    1    1    2  503  502 -0.30723086361E+02 -0.14175675045E+03 -0.46498172860E+03  0.48707996496E+03  0.00000000000E+00 0.  1.
         21    1    1    2  504  501  0.18180771695E+02  0.44539785443E+02 -0.66542944721E+03  0.66716615784E+03  0.00000000000E+00 0.  1.
         21    1    1    2  505  503 -0.46061951324E+02 -0.96600644534E+01 -0.46964238723E+02  0.66488043465E+02  0.00000000000E+00 0.  1.
          4    1    1    2  501    0  0.58604265990E+02  0.10687702946E+03  0.62508733536E+02  0.13698357999E+03  0.00000000000E+00 0.  1.
<scales pt_clust_3="106.52044" pt_clust_4="47.90355" pt_clust_5="47.06400" pt_clust_6="14000.00000"></scales>
<clustering>
<clus scale="   47.064">  1  5  2 -1</clus>
<clus scale="   47.904">  2  4  1 -1</clus>
<clus scale="  106.520">  2  3  1 -1</clus>
<clus scale="   47.904">  2  3  1 -1</clus>
</clustering>
</event>
<event>
 6    0  0.4340992E+002  0.1106625E+03  0.7546771E-02  0.1259348E+00
         21   -1    0    0  504  502  0.00000000000E+00  0.00000000000E+00  0.92111508248E+02  0.92111508248E+02  0.00000000000E+00 0.  1.
          2   -1    0    0  505    0 -0.00000000000E+00 -0.00000000000E+00 -0.44852562371E+04  0.44852562371E+04  0.00000000000E+00 0. -1.
         21    1    1    2  503  502 -0.70733216722E+02 -0.10848497512E+02  0.55664965972E+02  0.90661272232E+02  0.00000000000E+00 0.  1.
         21    1    1    2  504  501 -0.44378790313E+02  0.15490321426E+02 -0.33641366498E+02  0.57802842728E+02  0.00000000000E+00 0.  1.
         21    1    1    2  505  503  0.10719760271E+03  0.85482127462E+02 -0.73833653262E+03  0.75095895729E+03  0.00000000000E+00 0. -1.
          2    1    1    2  501    0  0.79144043246E+01 -0.90123951377E+02 -0.36768317957E+04  0.36779446731E+04  0.00000000000E+00 0. -1.
<scales pt_clust_3="14000.00000" pt_clust_4="47.00454" pt_clust_5="110.66248" pt_clust_6="90.33700"></scales>
<clustering>
<clus scale="   47.005">  1  4  2 -1</clus>
<clus scale="   90.337">  2  6  1 -1</clus>
<clus scale="  110.662">  2  5  1 -1</clus>
<clus scale="   47.005">  1  3  2 -1</clus>
</clustering>
</event>
<event>
 6    0  0.4340992E+002  0.8533424E+02  0.7546771E-02  0.1314561E+00
         21   -1    0    0  501  502  0.00000000000E+00  0.00000000000E+00  0.46153463354E+03  0.46153463354E+03  0.00000000000E+00 0. -1.
          2   -1    0    0  505    0 -0.00000000000E+00 -0.00000000000E+00 -0.34646028218E+03  0.34646028218E+03  0.00000000000E+00 0.  1.
         21    1    1    2  503  504 -0.37915123261E+02  0.96706277084E+02  0.79925013259E+02  0.13106360419E+03  0.00000000000E+00 0. -1.
         21    1    1    2  504  502  0.57830670530E+02 -0.59500247444E+02  0.33716842717E+03  0.34722789948E+03  0.00000000000E+00 0. -1.
         21    1    1    2  505  503  0.14299484103E+02 -0.31219082535E+02 -0.10195290948E+02  0.35819691755E+02  0.00000000000E+00 0.  1.
          2    1    1    2  501    0 -0.34215031372E+02 -0.59869471053E+01 -0.29182379811E+03  0.29388372029E+03  0.00000000000E+00 0.  1.
<scales pt_clust_3="85.33424" pt_clust_4="14000.00000" pt_clust_5="34.33812" pt_clust_6="40.31855"></scales>
<clustering>
<clus scale="   34.338">  2  5  1 -1</clus>
<clus scale="   40.319">  2  6  1 -1</clus>
<clus scale="   85.334">  2  3  1 -1</clus>
<clus scale="   85.334">  1  3  2 -1</clus>
</clustering>
</event>
<event>
 6    0  0.4340992E+002  0.1306806E+03  0.7546771E-02  0.1226449E+00
          1   -1    0    0  503    0 -0.00000000000E+00  0.00000000000E+00  0.98631818676E+03  0.98631818676E+03  0.00000000000E+00 0. -1.
         21   -1    0    0  504  502  0.00000000000E+00 -0.00000000000E+00 -0.11037490092E+03  0.11037490092E+03  0.00000000000E+00 0. -1.
         21    1    1    2  503  505 -0.40536031418E+02  0.16197137327E+02  0.75087491760E+02  0.86854179632E+02  0.00000000000E+00 0. -1.
         21    1    1    2  504  501  0.14718713821E+02 -0.87938717509E+02 -0.58813367777E+02  0.10681231578E+03  0.00000000000E+00 0. -1.
         21    1    1    2  505  502 -0.16775362352E+02 -0.99011312318E+02  0.30451595988E+03  0.32064719330E+03  0.00000000000E+00 0. -1.
          1    1    1    2  501    0  0.42592679949E+02  0.17075289250E+03  0.55515320197E+03  0.58237939897E+03  0.00000000000E+00 0. -1.
<scales pt_clust_3="43.65223" pt_clust_4="88.56664" pt_clust_5="14000.00000" pt_clust_6="130.68061"></scales>
<clustering>
<clus scale="   43.652">  1  3  2 -1</clus>
<clus scale="   88.567">  2  4  1 -1</clus>
<clus scale="  130.681">  2  6  1 -1</clus>
<clus scale="   88.567">  2  3  1 -1</clus>
</clustering>
</event>
<event>
 6    0  0.4340992E+002  0.8313471E+02  0.7546771E-02  0.1320384E+00
         21   -1    0    0  504  502  0.00000000000E+00  0.00000000000E+00  0.47800331298E+02  0.47800331298E+02  0.00000000000E+00 0. -1.
         -3   -1    0    0    0  501 -0.00000000000E+00 -0.00000000000E+00 -0.10556020346E+04  0.10556020346E+04  0.00000000000E+00 0. -1.
         21    1    1    2  503  502 -0.64615501050E+02 -0.49991472883E+02 -0.32723322777E+02  0.88006398577E+02  0.00000000000E+00 0. -1.
         21    1    1    2  504  501 -0.45991145039E+02  0.31901110883E+02 -0.28867497651E+03  0.29405120023E+03  0.00000000000E+00 0. -1.
         21    1    1    2  505  503  0.10678164151E+03 -0.40743149102E+02 -0.19202677401E+03  0.22346499748E+03  0.00000000000E+00 0. -1.
         -3    1    1    2    0  505  0.38250045829E+01  0.58833511102E+02 -0.49437663005E+03  0.49787976965E+03  0.00000000000E+00 0. -1.
<scales pt_clust_3="83.13471" pt_clust_4="55.97201" pt_clust_5="80.19460" pt_clust_6="14000.00000"></scales>
<clustering>
<clus scale="   55.972">  2  4  1 -1</clus>
<clus scale="   83.135">  1  3  2 -1</clus>
<clus scale="   80.195">  1  5  2 -1</clus>
<clus scale="   83.135">  1  3  2 -1</clus>
</clustering>
</event>
<event>
 6    0  0.4340992E+002  0.1340342E+03  0.7546771E-02  0.1221590E+00
          2   -1    0    0  505    0 -0.00000000000E+00  0.00000000000E+00  0.50869601592E+04  0.50869601592E+04  0.00000000000E+00 0.  1.
         21   -1    0    0  503  502  0.00000000000E+00 -0.00000000000E+00 -0.16632450680E+02  0.16632450680E+02  0.00000000000E+00 0.  1.
         21    1    1    2  503  504 -0.29011976802E+02  0.13296257299E+02  0.10165980960E+02  0.33493766957E+02  0.00000000000E+00 0.  1.
         21    1    1    2  504  501 -0.22476195616E+02  0.53217629538E+02  0.10763375210E+04  0.10778867077E+04  0.00000000000E+00 0.  1.
         21    1    1    2  505  502  0.93106479219E+02 -0.10874921193E+03  0.13222550436E+04  0.13299825592E+04  0.00000000000E+00 0.  1.
          2    1    1    2  501    0 -0.41618306801E+02  0.42235325092E+02  0.26615691630E+04  0.26622295760E+04  0.00000000000E+00 0.  1.
<scales pt_clust_3="31.91372" pt_clust_4="57.36505" pt_clust_5="121.08304" pt_clust_6="57.36505"></scales>
<clustering>
<clus scale="   31.914">  2  3  1 -1</clus>
<clus scale="   57.365">  4  6 -1 -1</clus>
<clus scale="  121.083">  2  5  1 -1</clus>
<clus scale="   31.914">  2  3  1 -1</clus>
</clustering>
</event>
<event>
 6    0  0.4340992E+002  0.1086687E+03  0.7546771E-02  0.1263055E+00
          1   -1    0    0  504    0 -0.00000000000E+00  0.00000000000E+00  0.14851116733E+04  0.14851116733E+04  0.00000000000E+00 0.  1.
         21   -1    0    0  505  502  0.00000000000E+00 -0.00000000000E+00 -0.47283841412E+02  0.47283841412E+02  0.00000000000E+00 0. -1.
         21    1    1    2  503  501 -0.12834447065E+02 -0.75545530485E+02  0.50452083540E+03  0.51030689155E+03  0.00000000000E+00 0.  1.
         21    1    1    2  504  502  0.40873449694E+02 -0.21587118794E+02 -0.82472915835E+00  0.46231188238E+02  0.00000000000E+00 0. -1.
         21    1    1    2  505  503  0.22885908704E+02  0.12675391120E+03  0.19086890579E+03  0.23026345351E+03  0.00000000000E+00 0. -1.
          1    1    1    2  501    0 -0.50924911333E+02 -0.29621261924E+02  0.74326281983E+03  0.74559398140E+03  0.00000000000E+00 0.  1.
<scales pt_clust_3="108.66870" pt_clust_4="46.22383" pt_clust_5="14000.00000" pt_clust_6="57.74428"></scales>
<clustering>
<clus scale="   46.224">  2  4  1 -1</clus>
<clus scale="   57.744">  1  6  2 -1</clus>
<clus scale="  108.669">  1  3  2 -1</clus>
<clus scale="   46.224">  2  3  1 -1</clus>
</clustering>
</event>
<event>
 6    0  0.4340992E+002  0.1597684E+03  0.7546771E-02  0.1188958E+00
         21   -1    0    0  503  502  0.00000000000E+00  0.00000000000E+00  0.12970070970E+03  0.12970070970E+03  0.00000000000E+00 0.  1.
          2   -1    0    0  504    0 -0.00000000000E+00 -0.00000000000E+00 -0.23350867942E+04  0.23350867942E+04  0.00000000000E+00 0.  1.
         21    1    1    2  503  501  0.16563590585E+03  0.23077476597E+02  0.61373428340E+02  0.17814185622E+03  0.00000000000E+00 0.  1.
         21    1    1    2  504  505  0.40275983530E+01  0.45453587156E+02 -0.46606282903E+03  0.46829137375E+03  0.00000000000E+00 0.  1.
         21    1    1    2  505  502 -0.64016424527E+01 -0.30891933967E+02 -0.46603776341E+02  0.56277922665E+02  0.00000000000E+00 0.  1.
          2    1    1    2  501    0 -0.16326186175E+03 -0.37639129786E+02 -0.17540929075E+04  0.17620763513E+04  0.00000000000E+00 0.  1.
<scales pt_clust_3="14000.00000" pt_clust_4="45.35205" pt_clust_5="31.54826" pt_clust_6="159.76840"></scales>
<clustering>
<clus scale="   31.548">  1  5  2 -1</clus>
<clus scale="   45.352">  2  4  1 -1</clus>
<clus scale="  159.768">  2  6  1 -1</clus>
<clus scale="   31.548">  1  3  2 -1</clus>
</clustering>
</event>
<event>
 6    0  0.4340992E+002  0.8605018E+02  0.7546771E-02  0.1312709E+00
          3   -1    0    0  504    0 -0.00000000000E+00  0.00000000000E+00  0.80858516439E+03  0.80858516439E+03  0.00000000000E+00 0.  1.
         21   -1    0    0  503  502  0.00000000000E+00 -0.00000000000E+00 -0.39307460764E+02  0.39307460764E+02  0.00000000000E+00 0.  1.
         21    1    1    2  503  505 -0.71228422183E+02 -0.48115235439E+02  0.67262193738E+02  0.10914562160E+03  0.00000000000E+00 0.  1.
         21    1    1    2  504  502  0.29755819796E+02 -0.54527677488E+01  0.21773946856E+03  0.21983088422E+03  0.00000000000E+00 0.  1.
         21    1    1    2  505  501  0.91204920349E+02  0.12497213670E+02  0.13289886469E+03  0.16166825935E+03  0.00000000000E+00 0.  1.
          3    1    1    2  501    0 -0.49732317962E+02  0.41070789517E+02  0.35137717664E+03  0.35724785998E+03  0.00000000000E+00 0.  1.
<scales pt_clust_3="86.05018" pt_clust_4="30.25131" pt_clust_5="14000.00000" pt_clust_6="49.43016"></scales>
<clustering>
<clus scale="   30.251">  1  4  2 -1</clus>
<clus scale="   49.430">  1  6  2 -1</clus>
<clus scale="   86.050">  2  3  1 -1</clus>
<clus scale="   86.050">  2  3  1 -1</clus>
</clustering>
</event>
<event>
 6    0  0.4340992E+002  0.8577152E+02  0.7546771E-02  0.1313427E+00
         21   -1    0    0  503  502  0.00000000000E+00  0.00000000000E+00  0.76860180518E+03  0.76860180518E+03  0.00000000000E+00 0. -1.
         -1   -1    0    0    0  501 -0.00000000000E+00 -0.00000000000E+00 -0.26817246041E+03  0.26817246041E+03  0.00000000000E+00 0. -1.
         21    1    1    2  503  501  0.16975300507E+02  0.32867423112E+02  0.61821677830E+01  0.37505299996E+02  0.00000000000E+00 0.  1.
         21    1    1    2  504  505 -0.49584172132E+02 -0.12582350657E+03  0.25024175510E+03  0.28444873163E+03  0.00000000000E+00 0.  1.
         21    1    1    2  505  502 -0.12536150613E+02  0.68505764990E+02  0.47403870117E+03  0.47912721183E+03  0.00000000000E+00 0. -1.
         -1    1    1    2    0  504  0.45145022238E+02  0.24450318471E+02 -0.23003327928E+03  0.23569302214E+03  0.00000000000E+00 0. -1.
<scales pt_clust_3="36.99227" pt_clust_4="85.77152" pt_clust_5="69.93868" pt_clust_6="14000.00000"></scales>
<clustering>
<clus scale="   36.992">  2  3  1 -1</clus>
<clus scale="   69.939">  1  5  2 -1</clus>
<clus scale="   85.772">  1  4  2 -1</clus>
<clus scale="   69.939">  1  3  2 -1</clus>
</clustering>
</event>
<event>
 6    0  0.4340992E+002  0.1072891E+03  0.7546771E-02  0.1265674E+00
          1   -1    0    0  505    0 -0.00000000000E+00  0.00000000000E+00  0.88572647608E+03  0.88572647608E+03  0.00000000000E+00 0.  1.
         21   -1    0    0  501  502  0.00000000000E+00 -0.00000000000E+00 -0.82384129594E+02  0.82384129594E+02  0.00000000000E+00 0. -1.
         21    1    1    2  503  502  0.15274088255E+02 -0.50938739289E+02 -0.24744361885E+02  0.58654380718E+02  0.00000000000E+00 0. -1.
         21    1    1    2  504  503 -0.77069237920E+02  0.12979742544E+03  0.13790978201E+03  0.20446551557E+03  0.00000000000E+00 0. -1.
         21    1    1    2  505  504  0.32869279919E+02  0.12181652658E+02  0.79465611826E+02  0.86853702781E+02  0.00000000000E+00 0. -1.
          1    1    1    2  501    0  0.28925869746E+02 -0.91040338809E+02  0.61071131453E+03  0.61813700660E+03  0.00000000000E+00 0.  1.
<scales pt_clust_3="53.13752" pt_clust_4="14000.00000" pt_clust_5="35.05399" pt_clust_6="107.28915"></scales>
<clustering>
<clus scale="   35.054">  1  5  2 -1</clus>
<clus scale="   53.138">  2  3  1 -1</clus>
<clus scale="  107.289">  1  6  2 -1</clus>
<clus scale="   53.138">  2  3  1 -1</clus>
</clustering>
</event>
<event>
 6    0  0.4340992E+002  0.1088602E+03  0.7546771E-02  0.1262695E+00
         -3   -1    0    0    0  501 -0.00000000000E+00  0.00000000000E+00  0.32852202876E+03  0.32852202876E+03  0.00000000000E+00 0. -1.
         21   -1    0    0  504  502  0.00000000000E+00 -0.00000000000E+00 -0.25392307161E+03  0.25392307161E+03  0.00000000000E+00 0.  1.
         21    1    1    2  503  501  0.12399553370E+03  0.38187918593E+02  0.12833916645E+03  0.18249424963E+03  0.00000000000E+00 0. -1.
         21    1    1    2  504  503  0.13396926245E+02  0.47230055117E+02  0.25229609820E+01  0.49158123146E+02  0.00000000000E+00 0. -1.
         21    1    1    2  505  502 -0.85522555744E+02 -0.11550844030E+03 -0.16975936760E+03  0.22242875311E+03  0.00000000000E+00 0.  1.
         -3    1    1    2    0  505 -0.51869904200E+02  0.30090466594E+02  0.11349619731E+03  0.12836397449E+03  0.00000000000E+00 0. -1.
<scales pt_clust_3="14000.00000" pt_clust_4="49.09334" pt_clust_5="108.86021" pt_clust_6="60.37593"></scales>
<clustering>
<clus scale="   49.093">  2  4  1 -1</clus>
<clus scale="   60.376">  1  6  2 -1</clus>
<clus scale="  108.860">  2  5  1 -1</clus>
<clus scale="   49.093">  2  3  1 -1</clus>
</clustering>
</event>
<event>
 6    0  0.4340992E+002  0.9561650E+02  0.7546771E-02  0.1289794E+00
         21   -1    0    0  505  502  0.00000000000E+00  0.00000000000E+00  0.79808847939E+03  0.79808847939E+03  0.00000000000E+00 0.  1.
          2   -1    0    0  503    0 -0.00000000000E+00 -0.00000000000E+00 -0.18808612087E+03  0.18808612087E+03  0.00000000000E+00 0.  1.
         21    1    1    2  503  504 -0.29705197696E+02  0.11803299023E+02 -0.20707253820E+02  0.38085522167E+02  0.00000000000E+00 0. -1.
         21    1    1    2  504  502 -0.77114973627E+00  0.95326956725E+02  0.72504250370E+03  0.73128274663E+03  0.00000000000E+00 0.  1.
         21    1    1    2  505  501  0.65367668878E+02 -0.99672047063E+02 -0.35324037849E+01  0.11924733530E+03  0.00000000000E+00 0.  1.
          2    1    1    2  501    0 -0.34891321446E+02 -0.74582086849E+01 -0.90800487573E+02  0.97558996164E+02  0.00000000000E+00 0.  1.
<scales pt_clust_3="31.96430" pt_clust_4="14000.00000" pt_clust_5="95.61650" pt_clust_6="52.52282"></scales>
<clustering>
<clus scale="   31.964">  2  3  1 -1</clus>
<clus scale="   52.523">  2  6  1 -1</clus>
<clus scale="   95.616">  2  5  1 -1</clus>
<clus scale="   95.616">  1  3  2 -1</clus>
</clustering>
</event>
<event>
 6    0  0.4340992E+002  0.3294333E+03  0.7546771E-02  0.1071388E+00
         21   -1    0    0  504  502  0.00000000000E+00  0.00000000000E+00  0.15471659226E+03  0.15471659226E+03  0.00000000000E+00 0.  1.
          1   -1    0    0  502    0 -0.00000000000E+00 -0.00000000000E+00 -0.31429946877E+04  0.31429946877E+04  0.00000000000E+00 0. -1.
         21    1    1    2  503  505  0.84482796873E+01  0.58632840140E+02 -0.51828227712E+01  0.59464653572E+02  0.00000000000E+00 0.  1.
         21    1    1    2  504  503 -0.12879746490E+03  0.23747259903E+03 -0.35080180419E+02  0.27241997231E+03  0.00000000000E+00 0.  1.
         21    1    1    2  505  501  0.33304148879E+02 -0.69257144260E+02 -0.51383089286E+03  0.51954586402E+03  0.00000000000E+00 0. -1.
          1    1    1    2  501    0  0.87045036332E+02 -0.22684829491E+03 -0.24341841993E+04  0.24462807900E+04  0.00000000000E+00 0. -1.
<scales pt_clust_3="37.35601" pt_clust_4="37.35601" pt_clust_5="31.67606" pt_clust_6="324.55317"></scales>
<clustering>
<clus scale="   31.676">  5  6 -1 -1</clus>
<clus scale="   37.356">  3  4 -1 -1</clus>
<clus scale="  324.553">  2  5  1 -1</clus>
<clus scale="  329.433">  1  3  2 -1</clus>
</clustering>
</event>
<event>
 6    0  0.4340992E+002  0.1292931E+03  0.7546771E-02  0.1228508E+00
          2   -1    0    0  505    0 -0.00000000000E+00  0.00000000000E+00  0.32804835502E+04  0.32804835502E+04  0.00000000000E+00 0.  1.
         21   -1    0    0  503  502  0.00000000000E+00 -0.00000000000E+00 -0.49945703368E+03  0.49945703368E+03  0.00000000000E+00 0. -1.
         21    1    1    2  503  501  0.41202625304E+02 -0.14396663186E+02  0.63858492634E+03  0.64007470532E+03  0.00000000000E+00 0.  1.
         21    1    1    2  504  502 -0.27585657522E+02  0.25419953792E+02 -0.48411247868E+03  0.48556362567E+03  0.00000000000E+00 0. -1.
         21    1    1    2  505  504 -0.92602015293E+02  0.58246173197E+01  0.14963777908E+03  0.17606965761E+03  0.00000000000E+00 0. -1.
          2    1    1    2  501    0  0.78985047511E+02 -0.16847907925E+02  0.24769162898E+04  0.24782325953E+04  0.00000000000E+00 0.  1.
<scales pt_clust_3="33.45697" pt_clust_4="37.51190" pt_clust_5="121.01824" pt_clust_6="33.45697"></scales>
<clustering>
<clus scale="   33.457">  3  6 -1 -1</clus>
<clus scale="   37.512">  2  4  1 -1</clus>
<clus scale="  121.018">  2  5  1 -1</clus>
<clus scale="   37.512">  2  3  1 -1</clus>
</clustering>
</event>
<event>
 6    0  0.4340992E+002  0.3395607E+03  0.7546771E-02  0.1066983E+00
          1   -1    0    0  505    0 -0.00000000000E+00  0.00000000000E+00  0.27986331883E+04  0.27986331883E+04  0.00000000000E+00 0.  1.
         21   -1    0    0  504  502  0.00000000000E+00 -0.00000000000E+00 -0.29619194209E+03  0.29619194209E+03  0.00000000000E+00 0.  1.
         21    1    1    2  503  501 -0.36845856903E+02 -0.88543730672E+02  0.94339105863E+03  0.94825328837E+03  0.00000000000E+00 0.  1.
         21    1    1    2  504  503 -0.42640093775E+02 -0.19288588425E+03  0.50194734746E+03  0.53942031994E+03  0.00000000000E+00 0.  1.
         21    1    1    2  505  502  0.12819972791E+03  0.35239873965E+03 -0.14494081565E+03  0.40202970286E+03  0.00000000000E+00 0.  1.
          1    1    1    2  501    0 -0.48713777230E+02 -0.70969124727E+02  0.12020436558E+04  0.12051218193E+04  0.00000000000E+00 0.  1.
<scales pt_clust_3="35.05919" pt_clust_4="339.56067" pt_clust_5="14000.00000" pt_clust_6="184.75454"></scales>
<clustering>
<clus scale="   35.059">  3  6 -1 -1</clus>
<clus scale="  184.755">  1  3  2 -1</clus>
<clus scale="  339.561">  1  4  2 -1</clus>
<clus scale="  339.561">  2  3  1 -1</clus>
</clustering>
</event>
<event>
 6    0  0.4340992E+002  0.1524354E+03  0.7546771E-02  0.1197512E+00
         21   -1    0    0  503  502  0.00000000000E+00  0.00000000000E+00  0.10092017677E+03  0.10092017677E+03  0.00000000000E+00 0.  1.
          2   -1    0    0  504    0 -0.00000000000E+00 -0.00000000000E+00 -0.16286626710E+04  0.16286626710E+04  0.00000000000E+00 0. -1.
         21    1    1    2  503  505  0.14338966376E+03 -0.83735352600E+02  0.12185973530E+02  0.16649535399E+03  0.00000000000E+00 0.  1.
         21    1    1    2  504  502 -0.99509848930E+01  0.41993245946E+02 -0.52528676568E+02  0.67983208717E+02  0.00000000000E+00 0. -1.
         21    1    1    2  505  501 -0.79017244138E+02  0.50576990253E+02 -0.10643848658E+04  0.10685115345E+04  0.00000000000E+00 0. -1.
          2    1    1    2  501    0 -0.54421434729E+02 -0.88348835992E+01 -0.42301492537E+03  0.42659275054E+03  0.00000000000E+00 0. -1.
<scales pt_clust_3="140.73436" pt_clust_4="43.15617" pt_clust_5="44.76188" pt_clust_6="44.76188"></scales>
<clustering>
<clus scale="   43.156">  1  4  2 -1</clus>
<clus scale="   44.762">  5  6 -1 -1</clus>
<clus scale="  140.734">  1  3  2 -1</clus>
<clus scale="   43.156">  1  3  2 -1</clus>
</clustering>
</event>
<event>
 6    0  0.4340992E+002  0.1091645E+03  0.7546771E-02  0.1262125E+00
         21   -1    0    0  505  502  0.00000000000E+00  0.00000000000E+00  0.63861381493E+02  0.63861381493E+02  0.00000000000E+00 0.  1.
          1   -1    0    0  503    0 -0.00000000000E+00 -0.00000000000E+00 -0.10239866578E+04  0.10239866578E+04  0.00000000000E+00 0.  1.
         21    1    1    2  503  504  0.33968579967E+02  0.65364648841E+01 -0.97317978547E+02  0.10328300318E+03  0.00000000000E+00 0. -1.
         21    1    1    2  504  502 -0.53931639902E+02 -0.68653920373E+02  0.76718944844E+01  0.87640404666E+02  0.00000000000E+00 0.  1.
         21    1    1    2  505  501  0.41636746686E+02 -0.46661392672E+02 -0.96194003100E+02  0.11473530613E+03  0.00000000000E+00 0.  1.
          1    1    1    2  501    0 -0.21673686752E+02  0.10877884816E+03 -0.77428518911E+03  0.78218932528E+03  0.00000000000E+00 0.  1.
<scales pt_clust_3="34.59176" pt_clust_4="109.16449" pt_clust_5="64.65159" pt_clust_6="14000.00000"></scales>
<clustering>
<clus scale="   34.592">  2  3  1 -1</clus>
<clus scale="   64.652">  1  5  2 -1</clus>
<clus scale="  109.164">  1  4  2 -1</clus>
<clus scale="   64.652">  1  3  2 -1</clus>
</clustering>
</event>
<event>
 6    0  0.4340992E+002  0.1449521E+03  0.7546771E-02  0.1206817E+00
          1   -1    0    0  505    0 -0.00000000000E+00  0.00000000000E+00  0.45648062397E+03  0.45648062397E+03  0.00000000000E+00 0.  1.
         21   -1    0    0  504  502  0.00000000000E+00 -0.00000000000E+00 -0.28951802508E+03  0.28951802508E+03  0.00000000000E+00 0. -1.
         21    1    1    2  503  502  0.54927406128E+02 -0.41903082860E+02 -0.66980661613E+01  0.69410030885E+02  0.00000000000E+00 0. -1.
         21    1    1    2  504  501 -0.10021370200E+02  0.11794712088E+03  0.10955351429E+03  0.16128832468E+03  0.00000000000E+00 0. -1.
         21    1    1    2  505  503  0.31250294965E+02 -0.10598493257E+03 -0.20562250899E+03  0.23343093855E+03  0.00000000000E+00 0. -1.
          1    1    1    2  501    0 -0.76156330893E+02  0.29940894550E+02  0.26972965975E+03  0.28186935493E+03  0.00000000000E+00 0.  1.
<scales pt_clust_3="69.08609" pt_clust_4="14000.00000" pt_clust_5="144.95211" pt_clust_6="80.22789"></scales>
<clustering>
<clus scale="   69.086">  2  3  1 -1</clus>
<clus scale="   80.228">  1  6  2 -1</clus>
<clus scale="  144.952">  2  5  1 -1</clus>
<clus scale="   69.086">  2  3  1 -1</clus>
</clustering>
</event>
<event>
 6    0  0.4340992E+002  0.1191392E+03  0.7546771E-02  0.1244524E+00
         21   -1    0    0  503  502  0.00000000000E+00  0.00000000000E+00  0.49943605396E+03  0.49943605396E+03  0.00000000000E+00 0. -1.
          1   -1    0    0  505    0 -0.00000000000E+00 -0.00000000000E+00 -0.63159437716E+03  0.63159437716E+03  0.00000000000E+00 0. -1.
         21    1    1    2  503  504  0.12554064204E+03 -0.24900705509E+02  0.45747597445E+03  0.47504185620E+03  0.00000000000E+00 0. -1.
         21    1    1    2  504  501 -0.37764208656E+02  0.35919288909E+02 -0.16513619037E+03  0.17316550506E+03  0.00000000000E+00 0.  1.
         21    1    1    2  505  502 -0.69432484088E+02 -0.40554166547E+02 -0.28512434030E+02  0.85313944729E+02  0.00000000000E+00 0. -1.
          1    1    1    2  501    0 -0.18343949300E+02  0.29535583148E+02 -0.39598567325E+03  0.39750912513E+03  0.00000000000E+00 0. -1.
<scales pt_clust_3="119.13921" pt_clust_4="76.61336" pt_clust_5="14000.00000" pt_clust_6="34.76854"></scales>
<clustering>
<clus scale="   34.769">  2  6  1 -1</clus>
<clus scale="   76.613">  2  4  1 -1</clus>
<clus scale="  119.139">  1  3  2 -1</clus>
<clus scale="  119.139">  1  3  2 -1</clus>
</clustering>
</event>
<event>
 6    0  0.4340992E+002  0.1479977E+03  0.7546771E-02  0.1202955E+00
          2   -1    0    0  504    0 -0.00000000000E+00  0.00000000000E+00  0.12736787691E+04  0.12736787691E+04  0.00000000000E+00 0. -1.
         21   -1    0    0  501  502  0.00000000000E+00 -0.00000000000E+00 -0.18036933690E+03  0.18036933690E+03  0.00000000000E+00 0. -1.
         21    1    1    2  503  505 -0.14897600676E+03 -0.38240334036E+02 -0.93306781107E+02  0.17989532828E+03  0.00000000000E+00 0. -1.
         21    1    1    2  504  503  0.52934405080E+02  0.40051000202E+01  0.10163252765E+03  0.11466151378E+03  0.00000000000E+00 0. -1.
         21    1    1    2  505  502 -0.10940683956E+01  0.31546105469E+02 -0.28047819200E+02  0.42225986286E+02  0.00000000000E+00 0.  1.
          2    1    1    2  501    0  0.97135670074E+02  0.26891285468E+01  0.11130315048E+04  0.11172652776E+04  0.00000000000E+00 0. -1.
<scales pt_clust_3="147.99770" pt_clust_4="53.16235" pt_clust_5="31.56507" pt_clust_6="14000.00000"></scales>
<clustering>
<clus scale="   31.565">  2  5  1 -1</clus>
<clus scale="   53.162">  1  4  2 -1</clus>
<clus scale="  147.998">  2  3  1 -1</clus>
<clus scale="   31.565">  2  3  1 -1</clus>
</clustering>
</event>
<event>
 6    0  0.4340992E+002  0.1960809E+03  0.7546771E-02  0.1153088E+00
          1   -1    0    0  504    0 -0.00000000000E+00  0.00000000000E+00  0.81145170731E+03  0.81145170731E+03  0.00000000000E+00 0.  1.
         21   -1    0    0  503  502  0.00000000000E+00 -0.00000000000E+00 -0.91463520986E+03  0.91463520986E+03  0.00000000000E+00 0.  1.
         21    1    1    2  503  505  0.66774196963E+01 -0.58410602958E+02 -0.56801151116E+03  0.57104593798E+03  0.00000000000E+00 0.  1.
         21    1    1    2  504  502 -0.79303337395E+02 -0.19535844565E+02 -0.19738546272E+02  0.84025464912E+02  0.00000000000E+00 0.  1.
         21    1    1    2  505  501 -0.57069237507E+02 -0.75395155408E+02 -0.27214591208E+03  0.28810540569E+03  0.00000000000E+00 0.  1.
          1    1    1    2  501    0  0.12969515521E+03  0.15334160293E+03  0.75671246696E+03  0.78291010859E+03  0.00000000000E+00 0.  1.
<scales pt_clust_3="58.79104" pt_clust_4="83.26263" pt_clust_5="196.08089" pt_clust_6="14000.00000"></scales>
<clustering>
<clus scale="   58.791">  2  3  1 -1</clus>
<clus scale="   83.263">  2  4  1 -1</clus>
<clus scale="  196.081">  2  5  1 -1</clus>
<clus scale="   58.791">  2  3  1 -1</clus>
</clustering>
</event>
<event>
 6    0  0.4340992E+002  0.1730123E+03  0.7546771E-02  0.1174742E+00
         21   -1    0    0  504  502  0.00000000000E+00  0.00000000000E+00  0.31463440810E+03  0.31463440810E+03  0.00000000000E+00 0. -1.
          2   -1    0    0  505    0 -0.00000000000E+00 -0.00000000000E+00 -0.88537954078E+03  0.88537954078E+03  0.00000000000E+00 0.  1.
         21    1    1    2  503  502  0.19210497945E+03 -0.18626452570E+03  0.97151253440E+02  0.28467027015E+03  0.00000000000E+00 0. -1.
         21    1    1    2  504  501 -0.72116975742E+02  0.57264475667E+02  0.81157666012E+02  0.12274626314E+03  0.00000000000E+00 0. -1.
         21    1    1    2  505  503  0.83980034214E+01  0.13001614134E+03 -0.39968398730E+03  0.42038317423E+03  0.00000000000E+00 0.  1.
          2    1    1    2  501    0 -0.12838600713E+03 -0.10160913070E+01 -0.34937006483E+03  0.37221424135E+03  0.00000000000E+00 0.  1.
<scales pt_clust_3="14000.00000" pt_clust_4="92.08734" pt_clust_5="173.01233" pt_clust_6="132.27507"></scales>
<clustering>
<clus scale="   92.087">  1  4  2 -1</clus>
<clus scale="  132.275">  2  6  1 -1</clus>
<clus scale="  173.012">  2  5  1 -1</clus>
<clus scale="   92.087">  1  3  2 -1</clus>
</clustering>
</event>
<event>
 6    0  0.4340992E+002  0.3116400E+03  0.7546771E-02  0.1079562E+00
          1   -1    0    0  503    0 -0.00000000000E+00  0.00000000000E+00  0.16143976537E+04  0.16143976537E+04  0.00000000000E+00 0. -1.
         21   -1    0    0  505  502  0.00000000000E+00 -0.00000000000E+00 -0.16143900440E+03  0.16143900440E+03  0.00000000000E+00 0. -1.
         21    1    1    2  503  504 -0.34474311792E+02  0.20798509474E+02  0.18945166393E+03  0.19368270222E+03  0.00000000000E+00 0. -1.
         21    1    1    2  504  502 -0.27206374609E+03  0.12894912162E+03  0.30118417458E+03  0.42586202569E+03  0.00000000000E+00 0. -1.
         21    1    1    2  505  501  0.26881399646E+03 -0.17462420949E+03  0.17030362884E+03  0.36298471762E+03  0.00000000000E+00 0. -1.
          1    1    1    2  501    0  0.37724061427E+02  0.24876578391E+02  0.79201918197E+03  0.79330721260E+03  0.00000000000E+00 0. -1.
<scales pt_clust_3="40.26234" pt_clust_4="14000.00000" pt_clust_5="311.63998" pt_clust_6="40.89638"></scales>
<clustering>
<clus scale="   40.262">  1  3  2 -1</clus>
<clus scale="   40.896">  1  6  2 -1</clus>
<clus scale="  311.640">  2  5  1 -1</clus>
<clus scale="  311.640">  2  3  1 -1</clus>
</clustering>
</event>
<event>
 6    0  0.4340992E+002  0.1727870E+03  0.7546771E-02  0.1174972E+00
         21   -1    0    0  503  502  0.00000000000E+00  0.00000000000E+00  0.18527501233E+03  0.18527501233E+03  0.00000000000E+00 0. -1.
          2   -1    0    0  505    0 -0.00000000000E+00 -0.00000000000E+00 -0.37448710332E+04  0.37448710332E+04  0.00000000000E+00 0.  1.
         21    1    1    2  503  501  0.13397589589E+03  0.14327385389E+02 -0.24439813700E+03  0.27907931493E+03  0.00000000000E+00 0.  1.
         21    1    1    2  504  502 -0.15279010962E+03 -0.99838262870E+02  0.11706529496E+03  0.21683352973E+03  0.00000000000E+00 0. -1.
         21    1    1    2  505  504  0.28588062085E+00  0.37662400619E+02 -0.46384662748E+03  0.46537321793E+03  0.00000000000E+00 0.  1.
          2    1    1    2  501    0  0.18528333114E+02  0.47848476862E+02 -0.29684165514E+04  0.29688599830E+04  0.00000000000E+00 0.  1.
<scales pt_clust_3="14000.00000" pt_clust_4="172.78700" pt_clust_5="37.66349" pt_clust_6="84.05930"></scales>
<clustering>
<clus scale="   37.663">  2  5  1 -1</clus>
<clus scale="   84.059">  2  6  1 -1</clus>
<clus scale="  172.787">  1  4  2 -1</clus>
<clus scale="  172.787">  1  3  2 -1</clus>
</clustering>
</event>
<event>
 6    0  0.4340992E+002  0.1055181E+03  0.7546771E-02  0.1269102E+00
          2   -1    0    0  505    0 -0.00000000000E+00  0.00000000000E+00  0.40797024303E+03  0.40797024303E+03  0.00000000000E+00 0. -1.
         21   -1    0    0  504  502  0.00000000000E+00 -0.00000000000E+00 -0.15764565527E+04  0.15764565527E+04  0.00000000000E+00 0.  1.
         21    1    1    2  503  502 -0.10458984289E+03  0.12443367076E+02 -0.14897156519E+04  0.14934344967E+04  0.00000000000E+00 0.  1.
         21    1    1    2  504  501  0.11428660719E+03  0.29762920143E+02 -0.27949593121E+02  0.12136078343E+03  0.00000000000E+00 0.  1.
         21    1    1    2  505  503  0.86633743912E+01  0.37876851990E+02  0.10163276607E+03  0.10880684313E+03  0.00000000000E+00 0. -1.
          2    1    1    2  501    0 -0.18360138690E+02 -0.80083139210E+02  0.24754616921E+03  0.26082467247E+03  0.00000000000E+00 0. -1.
<scales pt_clust_3="105.51809" pt_clust_4="14000.00000" pt_clust_5="38.85499" pt_clust_6="49.53870"></scales>
<clustering>
<clus scale="   38.855">  1  5  2 -1</clus>
<clus scale="   49.539">  1  6  2 -1</clus>
<clus scale="  105.518">  2  3  1 -1</clus>
<clus scale="  105.518">  2  3  1 -1</clus>
</clustering>
</event>
<event>
 6    0  0.4340992E+002  0.1038831E+03  0.7546771E-02  0.1272336E+00
         21   -1    0    0  505  502  0.00000000000E+00  0.00000000000E+00  0.44604563198E+02  0.44604563198E+02  0.00000000000E+00 0. -1.
          1   -1    0    0  504    0 -0.00000000000E+00 -0.00000000000E+00 -0.31457580518E+04  0.31457580518E+04  0.00000000000E+00 0.  1.
         21    1    1    2  503  502  0.39152184830E+02  0.26553945155E+02 -0.12109860166E+03  0.13001106455E+03  0.00000000000E+00 0.  1.
         21    1    1    2  504  503 -0.33918137923E+02  0.21136658622E+02 -0.24424847915E+04  0.24428117314E+04  0.00000000000E+00 0.  1.
         21    1    1    2  505  501 -0.86488247940E+02 -0.65263314816E+02 -0.43876719124E+02  0.11689603831E+03  0.00000000000E+00 0. -1.
          1    1    1    2  501    0  0.81254201032E+02  0.17572711039E+02 -0.49369337635E+03  0.50064378076E+03  0.00000000000E+00 0.  1.
<scales pt_clust_3="44.89001" pt_clust_4="39.96496" pt_clust_5="14000.00000" pt_clust_6="103.88306"></scales>
<clustering>
<clus scale="   39.965">  2  4  1 -1</clus>
<clus scale="   44.890">  2  3  1 -1</clus>
<clus scale="  103.883">  2  6  1 -1</clus>
<clus scale="  103.883">  1  3  2 -1</clus>
</clustering>
</event>
<event>
 6    0  0.4340992E+002  0.1073692E+03  0.7546771E-02  0.1265521E+00
         21   -1    0    0  504  502  0.00000000000E+00  0.00000000000E+00  0.37213146847E+02  0.37213146847E+02  0.00000000000E+00 0. -1.
          2   -1    0    0  505    0 -0.00000000000E+00 -0.00000000000E+00 -0.26952731561E+04  0.26952731561E+04  0.00000000000E+00 0. -1.
         21    1    1    2  503  501 -0.23827227598E+02  0.76965095807E+02 -0.26345986410E+03  0.27550401583E+03  0.00000000000E+00 0. -1.
         21    1    1    2  504  503  0.72415514656E+02 -0.97582298214E+02 -0.96469525180E+02  0.15515373336E+03  0.00000000000E+00 0. -1.
         21    1    1    2  505  502  0.26070744565E+02  0.17337844109E+02 -0.20619483330E+03  0.20855837035E+03  0.00000000000E+00 0. -1.
          2    1    1    2  501    0 -0.74659031623E+02  0.32793582983E+01 -0.20919357867E+04  0.20932701834E+04  0.00000000000E+00 0. -1.
<scales pt_clust_3="14000.00000" pt_clust_4="107.36918" pt_clust_5="31.30950" pt_clust_6="55.67388"></scales>
<clustering>
<clus scale="   31.309">  2  5  1 -1</clus>
<clus scale="   55.674">  2  6  1 -1</clus>
<clus scale="  107.369">  1  4  2 -1</clus>
<clus scale="  107.369">  1  3  2 -1</clus>
</clustering>
</event>
<event>
 6    0  0.4340992E+002  0.1038854E+03  0.7546771E-02  0.1272331E+00
          2   -1    0    0  505    0 -0.00000000000E+00  0.00000000000E+00  0.26733708713E+04  0.26733708713E+04  0.00000000000E+00 0.  1.
         21   -1    0    0  503  502  0.00000000000E+00 -0.00000000000E+00 -0.13124840194E+02  0.13124840194E+02  0.00000000000E+00 0. -1.
         21    1    1    2  503  504  0.29319899613E+02 -0.61391666027E+02  0.25163854826E+03  0.26067326703E+03  0.00000000000E+00 0.  1.
         21    1    1    2  504  501 -0.53145915832E+02  0.78000898166E+01  0.72602811819E+03  0.72801247117E+03  0.00000000000E+00 0. -1.
         21    1    1    2  505  502  0.69425193323E+02  0.43430407180E+02  0.22428179624E+03  0.23876428096E+03  0.00000000000E+00 0. -1.
          2    1    1    2  501    0 -0.45599177103E+02  0.10161169031E+02  0.14582975684E+04  0.14590456924E+04  0.00000000000E+00 0.  1.
<scales pt_clust_3="68.03376" pt_clust_4="40.34474" pt_clust_5="94.44933" pt_clust_6="40.34474"></scales>
<clustering>
<clus scale="   40.345">  4  6 -1 -1</clus>
<clus scale="   68.034">  2  3  1 -1</clus>
<clus scale="   94.449">  2  5  1 -1</clus>
<clus scale="   68.034">  2  3  1 -1</clus>
</clustering>
</event>
<event>
 6    0  0.4340992E+002  0.1117234E+03  0.7546771E-02  0.1257411E+00
          2   -1    0    0  505    0 -0.00000000000E+00  0.00000000000E+00  0.20905490852E+03  0.20905490852E+03  0.00000000000E+00 0. -1.
         21   -1    0    0  501  502  0.00000000000E+00 -0.00000000000E+00 -0.13278476142E+04  0.13278476142E+04  0.00000000000E+00 0.  1.
         21    1    1    2  503  502 -0.71274236574E+02 -0.86939200864E+02 -0.12212218641E+04  0.12263854544E+04  0.00000000000E+00 0.  1.
         21    1    1    2  504  503 -0.23147304282E+02  0.41610187876E+02 -0.45395024478E+02  0.65786880744E+02  0.00000000000E+00 0.  1.
         21    1    1    2  505  504  0.38204263739E+02  0.12259712928E+02 -0.33349964073E+02  0.52173618167E+02  0.00000000000E+00 0.  1.
          2    1    1    2  501    0  0.56217277117E+02  0.33069300060E+02  0.18117414701E+03  0.19255656935E+03  0.00000000000E+00 0. -1.
<scales pt_clust_3="14000.00000" pt_clust_4="47.25657" pt_clust_5="40.12314" pt_clust_6="111.72341"></scales>
<clustering>
<clus scale="   40.123">  1  5  2 -1</clus>
<clus scale="   47.257">  1  4  2 -1</clus>
<clus scale="  111.723">  1  6  2 -1</clus>
<clus scale="  111.723">  2  3  1 -1</clus>
</clustering>
</event>
<event>
 6    0  0.4340992E+002  0.8238852E+02  0.7546771E-02  0.1322407E+00
         21   -1    0    0  504  502  0.00000000000E+00  0.00000000000E+00  0.13689543198E+03  0.13689543198E+03  0.00000000000E+00 0.  1.
          2   -1    0    0  503    0 -0.00000000000E+00 -0.00000000000E+00 -0.47461077364E+03  0.47461077364E+03  0.00000000000E+00 0. -1.
         21    1    1    2  503  505  0.17137438463E+02 -0.53343715489E+02 -0.11962896047E+03  0.13209970463E+03  0.00000000000E+00 0. -1.
         21    1    1    2  504  501  0.60018854820E+00  0.12793235157E+03 -0.33748229735E+02  0.13231020299E+03  0.00000000000E+00 0.  1.
         21    1    1    2  505  502  0.35382051431E+02 -0.49491024156E+02  0.66113797023E+02  0.89845896914E+02  0.00000000000E+00 0.  1.
          2    1    1    2  501    0 -0.53119678442E+02 -0.25097611925E+02 -0.25045194848E+03  0.25725040108E+03  0.00000000000E+00 0. -1.
<scales pt_clust_3="56.02895" pt_clust_4="82.38852" pt_clust_5="62.65622" pt_clust_6="14000.00000"></scales>
<clustering>
<clus scale="   56.029">  2  3  1 -1</clus>
<clus scale="   62.656">  1  5  2 -1</clus>
<clus scale="   82.389">  1  4  2 -1</clus>
<clus scale="   62.656">  1  3  2 -1</clus>
</clustering>
</event>
<event>
 6    0  0.4340992E+002  0.7359483E+02  0.7546771E-02  0.1348278E+00
          4   -1    0    0  503    0 -0.00000000000E+00  0.00000000000E+00  0.54841063749E+02  0.54841063749E+02  0.00000000000E+00 0. -1.
         21   -1    0    0  504  502  0.00000000000E+00 -0.00000000000E+00 -0.23334016250E+04  0.23334016250E+04  0.00000000000E+00 0. -1.
         21    1    1    2  503  505  0.40525127956E+02 -0.31547160999E+02 -0.41207378219E+02  0.65844949561E+02  0.00000000000E+00 0.  1.
         21    1    1    2  504  501 -0.28679437640E+01  0.39530400878E+02 -0.23428279403E+03  0.23761166906E+03  0.00000000000E+00 0. -1.
         21    1    1    2  505  502 -0.28306040797E+02 -0.10344475580E+03 -0.19841164652E+04  0.19870128830E+04  0.00000000000E+00 0. -1.
          4    1    1    2  501    0 -0.93511433949E+01  0.95461515921E+02 -0.18953923784E+02  0.97773187181E+02  0.00000000000E+00 0. -1.
<scales pt_clust_3="50.68482" pt_clust_4="39.63430" pt_clust_5="73.59483" pt_clust_6="14000.00000"></scales>
<clustering>
<clus scale="   39.634">  2  4  1 -1</clus>
<clus scale="   50.685">  1  3  2 -1</clus>
<clus scale="   73.595">  2  5  1 -1</clus>
<clus scale="   39.634">  2  3  1 -1</clus>
</clustering>
</event>
<event>
 6    0  0.4340992E+002  0.7485916E+02  0.7546771E-02  0.1344308E+00
         -2   -1    0    0    0  501 -0.00000000000E+00  0.00000000000E+00  0.44213925289E+02  0.44213925289E+02  0.00000000000E+00 0.  1.
         21   -1    0    0  503  502  0.00000000000E+00 -0.00000000000E+00 -0.13992516054E+04  0.13992516054E+04  0.00000000000E+00 0.  1.
         21    1    1    2  503  504 -0.57616500190E+02  0.90710615946E+01 -0.47765613036E+03  0.48120403586E+03  0.00000000000E+00 0.  1.
         21    1    1    2  504  501 -0.50188323933E+02  0.90804443172E+01 -0.12983599832E+02  0.52629803275E+02  0.00000000000E+00 0.  1.
         21    1    1    2  505  502  0.97936454537E+02 -0.52493284798E+02 -0.86673034406E+03  0.87382411468E+03  0.00000000000E+00 0.  1.
         -2    1    1    2    0  505  0.98683695865E+01  0.34341778886E+02  0.23323941980E+01  0.35807576825E+02  0.00000000000E+00 0.  1.
<scales pt_clust_3="14000.00000" pt_clust_4="55.72829" pt_clust_5="74.85916" pt_clust_6="35.73153"></scales>
<clustering>
<clus scale="   35.732">  1  6  2 -1</clus>
<clus scale="   55.728">  1  4  2 -1</clus>
<clus scale="   74.859">  1  5  2 -1</clus>
<clus scale="   74.859">  2  3  1 -1</clus>
</clustering>
</event>
<event>
 6    0  0.4340992E+002  0.1518499E+03  0.7546771E-02  0.1198218E+00
         21   -1    0    0  505  502  0.00000000000E+00  0.00000000000E+00  0.58707308137E+03  0.58707308137E+03  0.00000000000E+00 0. -1.
          2   -1    0    0  504    0 -0.00000000000E+00 -0.00000000000E+00 -0.77247234948E+03  0.77247234948E+03  0.00000000000E+00 0. -1.
         21    1    1    2  503  501 -0.86962183007E+01  0.22504524474E+03  0.48005444226E+03  0.53025772406E+03  0.00000000000E+00 0. -1.
         21    1    1    2  504  502 -0.50036521259E+02  0.37920182258E+02 -0.70194840036E+02  0.94174886514E+02  0.00000000000E+00 0. -1.
         21    1    1    2  505  503  0.40153335854E+02 -0.81926454384E+02  0.20084284700E+02  0.93421693413E+02  0.00000000000E+00 0. -1.
          2    1    1    2  501    0  0.18579403705E+02 -0.18103897261E+03 -0.61534315503E+03  0.64169112686E+03  0.00000000000E+00 0. -1.
<scales pt_clust_3="14000.00000" pt_clust_4="62.78211" pt_clust_5="88.27143" pt_clust_6="151.84992"></scales>
<clustering>
<clus scale="   62.782">  2  4  1 -1</clus>
<clus scale="   88.271">  1  5  2 -1</clus>
<clus scale="  151.850">  2  6  1 -1</clus>
<clus scale="   88.271">  1  3  2 -1</clus>
</clustering>
</event>
<event>
 6    0  0.4340992E+002  0.1280936E+03  0.7546771E-02  0.1230312E+00
          2   -1    0    0  503    0 -0.00000000000E+00  0.00000000000E+00  0.61071936048E+03  0.61071936048E+03  0.00000000000E+00 0.  1.
         21   -1    0    0  505  502  0.00000000000E+00 -0.00000000000E+00 -0.69668088447E+03  0.69668088447E+03  0.00000000000E+00 0.  1.
         21    1    1    2  503  504  0.63246236567E+02  0.89196383076E+02  0.34818361859E+02  0.11475364707E+03  0.00000000000E+00 0.  1.
         21    1    1    2  504  502  0.49139864039E+02 -0.11291587066E+03 -0.64399993422E+03  0.65566808323E+03  0.00000000000E+00 0.  1.
         21    1    1    2  505  501 -0.53395497450E+02  0.33747803342E+00  0.17288798251E+03  0.18094597961E+03  0.00000000000E+00 0. -1.
          2    1    1    2  501    0 -0.58990603157E+02  0.23382009546E+02  0.35033206586E+03  0.35603253504E+03  0.00000000000E+00 0.  1.
<scales pt_clust_3="109.34387" pt_clust_4="122.53377" pt_clust_5="34.24274" pt_clust_6="34.24274"></scales>
<clustering>
<clus scale="   34.243">  5  6 -1 -1</clus>
<clus scale="  109.344">  1  3  2 -1</clus>
<clus scale="  122.534">  2  4  1 -1</clus>
<clus scale="  122.534">  2  3  1 -1</clus>
</clustering>
</event>
<event>
 6    0  0.4340992E+002  0.1977869E+03  0.7546771E-02  0.1151620E+00
         21   -1    0    0  504  502  0.00000000000E+00  0.00000000000E+00  0.77283996259E+03  0.77283996259E+03  0.00000000000E+00 0.  1.
          2   -1    0    0  503    0 -0.00000000000E+00 -0.00000000000E+00 -0.54963557595E+03  0.54963557595E+03  0.00000000000E+00 0. -1.
         21    1    1    2  503  502  0.18489306293E+03  0.11959998334E+03  0.26636598580E+03  0.34560156123E+03  0.00000000000E+00 0.  1.
         21    1    1    2  504  505 -0.10571760566E+03  0.47869503524E+02  0.43991335004E+03  0.45496313813E+03  0.00000000000E+00 0.  1.
         21    1    1    2  505  501 -0.74661855409E+00 -0.61516864453E+02 -0.10731081211E+03  0.12369515935E+03  0.00000000000E+00 0.  1.
          2    1    1    2  501    0 -0.78428838718E+02 -0.10595262242E+03 -0.37576413709E+03  0.39821567983E+03  0.00000000000E+00 0. -1.
<scales pt_clust_3="185.48568" pt_clust_4="116.05043" pt_clust_5="46.90809" pt_clust_6="46.90809"></scales>
<clustering>
<clus scale="   46.908">  5  6 -1 -1</clus>
<clus scale="  116.050">  1  4  2 -1</clus>
<clus scale="  185.486">  1  3  2 -1</clus>
<clus scale="  116.050">  1  3  2 -1</clus>
</clustering>
</event>
<event>
 6    0  0.4340992E+002  0.1801915E+03  0.7546771E-02  0.1167618E+00
          2   -1    0    0  503    0 -0.00000000000E+00  0.00000000000E+00  0.50537363318E+03  0.50537363318E+03  0.00000000000E+00 0. -1.
         21   -1    0    0  501  502  0.00000000000E+00 -0.00000000000E+00 -0.20056431619E+03  0.20056431619E+03  0.00000000000E+00 0. -1.
         21    1    1    2  503  504  0.64171112162E+02 -0.28449433427E+02  0.18689281543E+03  0.19964024233E+03  0.00000000000E+00 0.  1.
         21    1    1    2  504  505  0.14209454793E+02 -0.14557094707E+03  0.24705108742E+02  0.14833459352E+03  0.00000000000E+00 0. -1.
         21    1    1    2  505  502  0.73070350804E+02 -0.14931018013E+02 -0.36742181237E+02  0.83139637644E+02  0.00000000000E+00 0. -1.
          2    1    1    2  501    0 -0.15145091776E+03  0.18895139851E+03  0.12995357406E+03  0.27482347589E+03  0.00000000000E+00 0. -1.
<scales pt_clust_3="70.19474" pt_clust_4="180.19154" pt_clust_5="79.68465" pt_clust_6="14000.00000"></scales>
<clustering>
<clus scale="   70.195">  1  3  2 -1</clus>
<clus scale="   79.685">  2  5  1 -1</clus>
<clus scale="  180.192">  2  4  1 -1</clus>
<clus scale="   79.685">  2  3  1 -1</clus>
</clustering>
</event>
<event>
 6    0  0.4340992E+002  0.1471599E+03  0.7546771E-02  0.1204007E+00
          2   -1    0    0  504    0 -0.00000000000E+00  0.00000000000E+00  0.72187283807E+03  0.72187283807E+03  0.00000000000E+00 0.  1.
         21   -1    0    0  505  502  0.00000000000E+00 -0.00000000000E+00 -0.65671332408E+02  0.65671332408E+02  0.00000000000E+00 0.  1.
         21    1    1    2  503  501  0.12013526741E+02 -0.42786226770E+02  0.11847461815E+03  0.12653545421E+03  0.00000000000E+00 0.  1.
         21    1    1    2  504  502  0.80596518318E+02  0.77239107585E+02  0.10050614277E+03  0.15021039658E+03  0.00000000000E+00 0.  1.
         21    1    1    2  505  503 -0.28704998269E+02  0.58001027524E+02  0.57960515447E+01  0.64974536035E+02  0.00000000000E+00 0.  1.
          2    1    1    2  501    0 -0.63905046790E+02 -0.92453908339E+02  0.43142469321E+03  0.44582378367E+03  0.00000000000E+00 0.  1.
<scales pt_clust_3="40.86471" pt_clust_4="132.03343" pt_clust_5="64.71550" pt_clust_6="40.86471"></scales>
<clustering>
<clus scale="   40.865">  3  6 -1 -1</clus>
<clus scale="   64.716">  2  5  1 -1</clus>
<clus scale="  132.033">  2  4  1 -1</clus>
<clus scale="   64.716">  2  3  1 -1</clus>
</clustering>
</event>
<event>
 6    0  0.4340992E+002  0.1016762E+03  0.7546771E-02  0.1276810E+00
          1   -1    0    0  504    0 -0.00000000000E+00  0.00000000000E+00  0.61264534832E+03  0.61264534832E+03  0.00000000000E+00 0.  1.
         21   -1    0    0  501  502  0.00000000000E+00 -0.00000000000E+00 -0.17868880044E+03  0.17868880044E+03  0.00000000000E+00 0. -1.
         21    1    1    2  503  505  0.69093662422E+02  0.65193558759E+02 -0.43294296148E+02  0.10439602660E+03  0.00000000000E+00 0. -1.
         21    1    1    2  504  503 -0.86007930961E+02 -0.66107842906E+02  0.17082568284E+03  0.20235865437E+03  0.00000000000E+00 0.  1.
         21    1    1    2  505  502 -0.61364675949E+02  0.51617595877E+02 -0.63998296064E+02  0.10259523165E+03  0.00000000000E+00 0. -1.
          1    1    1    2  501    0  0.78278944487E+02 -0.50703311731E+02  0.37042345726E+03  0.38198423614E+03  0.00000000000E+00 0.  1.
<scales pt_clust_3="14000.00000" pt_clust_4="101.67618" pt_clust_5="80.18728" pt_clust_6="88.44598"></scales>
<clustering>
<clus scale="   80.187">  2  5  1 -1</clus>
<clus scale="   88.446">  1  6  2 -1</clus>
<clus scale="  101.676">  1  4  2 -1</clus>
<clus scale="   80.187">  2  3  1 -1</clus>
</clustering>
</event>
<event>
 6    0  0.4340992E+002  0.8416405E+02  0.7546771E-02  0.1317633E+00
         -1   -1    0    0    0  501 -0.00000000000E+00  0.00000000000E+00  0.66209240614E+03  0.66209240614E+03  0.00000000000E+00 0. -1.
         21   -1    0    0  505  502  0.00000000000E+00 -0.00000000000E+00 -0.90944294397E+03  0.90944294397E+03  0.00000000000E+00 0. -1.
         21    1    1    2  503  502  0.84439693372E+02  0.72260023935E+02 -0.74661535775E+03  0.75484174852E+03  0.00000000000E+00 0. -1.
         21    1    1    2  504  501 -0.13020757326E+02  0.33045599056E+02  0.10700403474E+03  0.11274491203E+03  0.00000000000E+00 0. -1.
         21    1    1    2  505  504 -0.49729038933E+01 -0.44999879170E+02 -0.14878070031E+03  0.15551660903E+03  0.00000000000E+00 0. -1.
         -1    1    1    2    0  503 -0.66446032153E+02 -0.60305743820E+02  0.54104148550E+03  0.54843208053E+03  0.00000000000E+00 0. -1.
<scales pt_clust_3="14000.00000" pt_clust_4="35.51833" pt_clust_5="45.08233" pt_clust_6="84.16405"></scales>
<clustering>
<clus scale="   35.518">  1  4  2 -1</clus>
<clus scale="   45.082">  2  5  1 -1</clus>
<clus scale="   84.164">  1  6  2 -1</clus>
<clus scale="   45.082">  2  3  1 -1</clus>
</clustering>
</event>
<event>
 6    0  0.4340992E+002  0.1256286E+03  0.7546771E-02  0.1234090E+00
          1   -1    0    0  504    0 -0.00000000000E+00  0.00000000000E+00  0.78085039110E+03  0.78085039110E+03  0.00000000000E+00 0.  1.
         21   -1    0    0  505  502  0.00000000000E+00 -0.00000000000E+00 -0.27408438858E+03  0.27408438858E+03  0.00000000000E+00 0.  1.
         21    1    1    2  503  501  0.43435388130E+02 -0.21537773834E+02 -0.29880350470E+02  0.56950364248E+02  0.00000000000E+00 0.  1.
         21    1    1    2  504  502  0.32205244395E+02 -0.10308474289E+03  0.71544097802E+02  0.12954613045E+03  0.00000000000E+00 0.  1.
         21    1    1    2  505  503 -0.34163606237E+02  0.19836174978E+01 -0.19387104174E+03  0.19686814764E+03  0.00000000000E+00 0.  1.
          1    1    1    2  501    0 -0.41477026288E+02  0.12263889923E+03  0.65897329693E+03  0.67157013735E+03  0.00000000000E+00 0.  1.
<scales pt_clust_3="31.98014" pt_clust_4="125.62858" pt_clust_5="34.22114" pt_clust_6="14000.00000"></scales>
<clustering>
<clus scale="   34.221">  2  5  1 -1</clus>
<clus scale="   31.980">  2  3  1 -1</clus>
<clus scale="  125.629">  2  4  1 -1</clus>
<clus scale="   34.221">  2  3  1 -1</clus>
</clustering>
</event>
<event>
 6    0  0.4340992E+002  0.8643112E+02  0.7546771E-02  0.1311732E+00
          2   -1    0    0  504    0 -0.00000000000E+00  0.00000000000E+00  0.36873769439E+04  0.36873769439E+04  0.00000000000E+00 0.  1.
         21   -1    0    0  503  502  0.00000000000E+00 -0.00000000000E+00 -0.24206697382E+03  0.24206697382E+03  0.00000000000E+00 0.  1.
         21    1    1    2  503  501  0.13210240630E+03 -0.42000301092E+02 -0.16934716080E+03  0.21884590906E+03  0.00000000000E+00 0.  1.
         21    1    1    2  504  505 -0.76294175144E+02 -0.61141420284E+02  0.75204168771E+03  0.75837047311E+03  0.00000000000E+00 0. -1.
         21    1    1    2  505  502 -0.51717792500E+02  0.11772600549E+02 -0.28128018191E+02  0.60037568173E+02  0.00000000000E+00 0.  1.
          2    1    1    2  501    0 -0.40904386609E+01  0.91369120826E+02  0.28907434614E+04  0.28921899674E+04  0.00000000000E+00 0.  1.
<scales pt_clust_3="86.91218" pt_clust_4="86.43112" pt_clust_5="53.04078" pt_clust_6="14000.00000"></scales>
<clustering>
<clus scale="   53.041">  2  5  1 -1</clus>
<clus scale="   86.912">  2  3  1 -1</clus>
<clus scale="   86.431">  2  4  1 -1</clus>
<clus scale="   53.041">  2  3  1 -1</clus>
</clustering>
</event>
<event>
 6    0  0.4340992E+002  0.1098250E+03  0.7546771E-02  0.1260894E+00
          1   -1    0    0  503    0 -0.00000000000E+00  0.00000000000E+00  0.95631484704E+02  0.95631484704E+02  0.00000000000E+00 0.  1.
         21   -1    0    0  505  502  0.00000000000E+00 -0.00000000000E+00 -0.63678096044E+03  0.63678096044E+03  0.00000000000E+00 0. -1.
         21    1    1    2  503  502 -0.42527223558E+02  0.12315152662E+02 -0.28851026237E+02  0.52845145884E+02  0.00000000000E+00 0. -1.
         21    1    1    2  504  501 -0.15709321731E+02 -0.89065463490E+02 -0.14726824635E+03  0.17282180406E+03  0.00000000000E+00 0. -1.
         21    1    1    2  505  504  0.11102212559E+02  0.12340980927E+03 -0.40887657513E+03  0.42723915298E+03  0.00000000000E+00 0. -1.
          1    1    1    2  501    0  0.47134332729E+02 -0.46659498444E+02  0.43846371982E+02  0.79506342218E+02  0.00000000000E+00 0.  1.
<scales pt_clust_3="44.27446" pt_clust_4="14000.00000" pt_clust_5="109.82500" pt_clust_6="40.75358"></scales>
<clustering>
<clus scale="   44.274">  1  3  2 -1</clus>
<clus scale="   40.754">  1  6  2 -1</clus>
<clus scale="  109.825">  2  5  1 -1</clus>
<clus scale="  109.825">  2  3  1 -1</clus>
</clustering>
</event>
<event>
 6    0  0.4340992E+002  0.2033062E+03  0.7546771E-02  0.1146979E+00
         21   -1    0    0  504  502  0.00000000000E+00  0.00000000000E+00  0.23756654225E+03  0.23756654225E+03  0.00000000000E+00 0. -1.
          2   -1    0    0  503    0 -0.00000000000E+00 -0.00000000000E+00 -0.72396831967E+03  0.72396831967E+03  0.00000000000E+00 0.  1.
         21    1    1    2  503  502 -0.27739488448E+02 -0.15057962664E+02 -0.51263411934E+02  0.60200987219E+02  0.00000000000E+00 0. -1.
         21    1    1    2  504  505 -0.77263905993E+02  0.96938453373E+02  0.81186199272E+02  0.14818223194E+03  0.00000000000E+00 0. -1.
         21    1    1    2  505  501 -0.29056225438E+02  0.70131695320E+02  0.87722007374E+02  0.11600805792E+03  0.00000000000E+00 0. -1.
          2    1    1    2  501    0  0.13405961988E+03 -0.15201218603E+03 -0.60404657214E+03  0.63714358483E+03  0.00000000000E+00 0.  1.
<scales pt_clust_3="31.56298" pt_clust_4="35.37603" pt_clust_5="35.37603" pt_clust_6="198.20011"></scales>
<clustering>
<clus scale="   31.563">  2  3  1 -1</clus>
<clus scale="   35.376">  4  5 -1 -1</clus>
<clus scale="  198.200">  2  6  1 -1</clus>
<clus scale="  203.306">  1  3  2 -1</clus>
</clustering>
</event>
<event>
 6    0  0.4340992E+002  0.9499866E+02  0.7546771E-02  0.1291179E+00
         21   -1    0    0  503  502  0.00000000000E+00  0.00000000000E+00  0.57563941645E+03  0.57563941645E+03  0.00000000000E+00 0. -1.
          3   -1    0    0  504    0 -0.00000000000E+00 -0.00000000000E+00 -0.25954720265E+03  0.25954720265E+03  0.00000000000E+00 0.  1.
         21    1    1    2  503  501  0.51559134327E+02  0.27962170990E+02  0.45913452148E+03  0.46286578633E+03  0.00000000000E+00 0. -1.
         21    1    1    2  504  505  0.54362994423E+02 -0.38389479011E+02 -0.95718422722E+01  0.67236206213E+02  0.00000000000E+00 0.  1.
         21    1    1    2  505  502  0.43159146029E+02 -0.96758579794E+01  0.50702915115E+02  0.67283874106E+02  0.00000000000E+00 0.  1.
          3    1    1    2  501    0 -0.14908127478E+03  0.20103166000E+02 -0.18417338052E+03  0.23780075245E+03  0.00000000000E+00 0.  1.
<scales pt_clust_3="94.99866" pt_clust_4="68.83685" pt_clust_5="44.23047" pt_clust_6="14000.00000"></scales>
<clustering>
<clus scale="   44.230">  1  5  2 -1</clus>
<clus scale="   68.837">  2  4  1 -1</clus>
<clus scale="   94.999">  1  3  2 -1</clus>
<clus scale="   44.230">  1  3  2 -1</clus>
</clustering>
</event>
<event>
 6    0  0.4340992E+002  0.1104069E+03  0.7546771E-02  0.1259818E+00
         -2   -1    0    0    0  501 -0.00000000000E+00  0.00000000000E+00  0.17970125800E+04  0.17970125800E+04  0.00000000000E+00 0.  1.
         21   -1    0    0  504  502  0.00000000000E+00 -0.00000000000E+00 -0.49841704039E+02  0.49841704039E+02  0.00000000000E+00 0.  1.
         21    1    1    2  503  502 -0.19749888737E+02  0.23496443166E+02  0.48444873954E+02  0.57350211500E+02  0.00000000000E+00 0. -1.
         21    1    1    2  504  501  0.55139439512E+02 -0.51106087778E+02  0.15408204657E+03  0.17144523053E+03  0.00000000000E+00 0. -1.
         21    1    1    2  505  503  0.42771221103E+02 -0.63464384984E+02  0.82393940980E+01  0.76973976974E+02  0.00000000000E+00 0.  1.
         -2    1    1    2    0  505 -0.78160771877E+02  0.91074029596E+02  0.15364045614E+04  0.15410848651E+04  0.00000000000E+00 0.  1.
<scales pt_clust_3="30.69431" pt_clust_4="14000.00000" pt_clust_5="53.47773" pt_clust_6="110.40691"></scales>
<clustering>
<clus scale="   30.694">  2  3  1 -1</clus>
<clus scale="   53.478">  2  5  1 -1</clus>
<clus scale="  110.407">  1  6  2 -1</clus>
<clus scale="   30.694">  2  3  1 -1</clus>
</clustering>
</event>
<event>
 6    0  0.4340992E+002  0.9211728E+02  0.7546771E-02  0.1297804E+00
          1   -1    0    0  504    0 -0.00000000000E+00  0.00000000000E+00  0.22765742554E+03  0.22765742554E+03  0.00000000000E+00 0. -1.
         21   -1    0    0  505  502  0.00000000000E+00 -0.00000000000E+00 -0.80944343804E+03  0.80944343804E+03  0.00000000000E+00 0. -1.
         21    1    1    2  503  502  0.88181559539E+02 -0.90450061732E+02 -0.70868052962E+02  0.14484295648E+03  0.00000000000E+00 0. -1.
         21    1    1    2  504  503 -0.24132519181E+02  0.43497865349E+02  0.66383603607E+01  0.50184764623E+02  0.00000000000E+00 0.  1.
         21    1    1    2  505  501 -0.16725239744E+01  0.54826038798E+02 -0.67256569575E+03  0.67479871589E+03  0.00000000000E+00 0. -1.
          1    1    1    2  501    0 -0.62376516383E+02 -0.78738424151E+01  0.15500937585E+03  0.16727442659E+03  0.00000000000E+00 0. -1.
<scales pt_clust_3="14000.00000" pt_clust_4="49.74377" pt_clust_5="55.09945" pt_clust_6="92.11728"></scales>
<clustering>
<clus scale="   49.744">  1  4  2 -1</clus>
<clus scale="   55.099">  2  5  1 -1</clus>
<clus scale="   92.117">  1  6  2 -1</clus>
<clus scale="   55.099">  2  3  1 -1</clus>
</clustering>
</event>
<event>
 6    0  0.4340992E+002  0.1373893E+03  0.7546771E-02  0.1216886E+00
         21   -1    0    0  503  502  0.00000000000E+00  0.00000000000E+00  0.56730213502E+02  0.56730213502E+02  0.00000000000E+00 0.  1.
          1   -1    0    0  505    0 -0.00000000000E+00 -0.00000000000E+00 -0.18785097985E+04  0.18785097985E+04  0.00000000000E+00 0.  1.
         21    1    1    2  503  501 -0.55359058941E+02 -0.18541063678E+02 -0.92819619398E+02  0.10965344588E+03  0.00000000000E+00 0.  1.
         21    1    1    2  504  502  0.11022788116E+03  0.12768107860E+03 -0.14080214152E+03  0.21972229445E+03  0.00000000000E+00 0.  1.
         21    1    1    2  505  504 -0.56143733928E+01  0.51830823412E+02 -0.69696214749E+03  0.69890928630E+03  0.00000000000E+00 0. -1.
          1    1    1    2  501    0 -0.49254448826E+02 -0.16097083834E+03 -0.89119567662E+03  0.90695498541E+03  0.00000000000E+00 0.  1.
<scales pt_clust_3="57.59229" pt_clust_4="14000.00000" pt_clust_5="52.13401" pt_clust_6="137.38935"></scales>
<clustering>
<clus scale="   52.134">  2  5  1 -1</clus>
<clus scale="   57.592">  1  3  2 -1</clus>
<clus scale="  137.389">  2  6  1 -1</clus>
<clus scale="   57.592">  1  3  2 -1</clus>
</clustering>
</event>
<event>
 6    0  0.4340992E+002  0.1081251E+03  0.7546771E-02  0.1264082E+00
         -1   -1    0    0    0  501 -0.00000000000E+00  0.00000000000E+00  0.26941702178E+03  0.26941702178E+03  0.00000000000E+00 0. -1.
         21   -1    0    0  503  502  0.00000000000E+00 -0.00000000000E+00 -0.43993614211E+03  0.43993614211E+03  0.00000000000E+00 0.  1.
         21    1    1    2  503  505 -0.57652487329E+02  0.59959261389E+02 -0.35541271782E+03  0.36501660553E+03  0.00000000000E+00 0.  1.
         21    1    1    2  504  502  0.94632094792E+02  0.60861290565E+02  0.75830665426E+01  0.11276893611E+03  0.00000000000E+00 0. -1.
         21    1    1    2  505  501 -0.30261802803E+01 -0.29856405523E+02  0.68882026216E+00  0.30017281543E+02  0.00000000000E+00 0. -1.
         -1    1    1    2    0  504 -0.33953427184E+02 -0.90964146431E+02  0.17662171068E+03  0.20155034071E+03  0.00000000000E+00 0. -1.
<scales pt_clust_3="82.81406" pt_clust_4="108.12510" pt_clust_5="30.00938" pt_clust_6="14000.00000"></scales>
<clustering>
<clus scale="   30.009">  1  5  2 -1</clus>
<clus scale="   82.814">  2  3  1 -1</clus>
<clus scale="  108.125">  2  4  1 -1</clus>
<clus scale="   82.814">  2  3  1 -1</clus>
</clustering>
</event>
<event>
 6    0  0.4340992E+002  0.1170841E+03  0.7546771E-02  0.1247986E+00
         21   -1    0    0  501  502  0.00000000000E+00  0.00000000000E+00  0.67739912856E+03  0.67739912856E+03  0.00000000000E+00 0.  1.
          1   -1    0    0  505    0 -0.00000000000E+00 -0.00000000000E+00 -0.55695513031E+03  0.55695513031E+03  0.00000000000E+00 0.  1.
         21    1    1    2  503  502 -0.15727435167E+02 -0.26826477616E+02  0.45666823880E+03  0.45772578302E+03  0.00000000000E+00 0.  1.
         21    1    1    2  504  503  0.15026664701E+02 -0.34457900719E+02  0.17686454547E+03  0.18081541698E+03  0.00000000000E+00 0. -1.
         21    1    1    2  505  504  0.82718393045E+02 -0.33974669792E+02 -0.26526138319E+02  0.93275113238E+02  0.00000000000E+00 0. -1.
          1    1    1    2  501    0 -0.82017622578E+02  0.95259048128E+02 -0.48656264770E+03  0.50253794563E+03  0.00000000000E+00 0.  1.
<scales pt_clust_3="31.09682" pt_clust_4="56.29049" pt_clust_5="117.08412" pt_clust_6="14000.00000"></scales>
<clustering>
<clus scale="   31.097">  1  3  2 -1</clus>
<clus scale="   56.290">  1  4  2 -1</clus>
<clus scale="  117.084">  1  5  2 -1</clus>
<clus scale="   31.097">  1  3  2 -1</clus>
</clustering>
</event>
<event>
 6    0  0.4340992E+002  0.1474921E+03  0.7546771E-02  0.1203589E+00
         21   -1    0    0  505  502  0.00000000000E+00  0.00000000000E+00  0.31696594253E+02  0.31696594253E+02  0.00000000000E+00 0.  1.
          1   -1    0    0  504    0 -0.00000000000E+00 -0.00000000000E+00 -0.32881761603E+04  0.32881761603E+04  0.00000000000E+00 0.  1.
         21    1    1    2  503  502 -0.57385089687E+02  0.22505447450E+01 -0.10045375285E+03  0.11571114869E+03  0.00000000000E+00 0.  1.
         21    1    1    2  504  503 -0.40503026301E+02 -0.97732419302E+02 -0.10369765422E+03  0.14813954372E+03  0.00000000000E+00 0.  1.
         21    1    1    2  505  501  0.44585549848E+02  0.78603081269E+01 -0.70297920222E+03  0.70443552896E+03  0.00000000000E+00 0.  1.
          1    1    1    2  501    0  0.53302566139E+02  0.87621566430E+02 -0.23493489568E+04  0.23515865332E+04  0.00000000000E+00 0.  1.
<scales pt_clust_3="57.42920" pt_clust_4="133.75028" pt_clust_5="41.30401" pt_clust_6="41.30401"></scales>
<clustering>
<clus scale="   41.304">  5  6 -1 -1</clus>
<clus scale="   57.429">  1  3  2 -1</clus>
<clus scale="  133.750">  1  4  2 -1</clus>
<clus scale="   57.429">  1  3  2 -1</clus>
</clustering>
</event>
<event>
 6    0  0.4340992E+002  0.8151051E+02  0.7546771E-02  0.1324819E+00
         21   -1    0    0  504  502  0.00000000000E+00  0.00000000000E+00  0.23893691660E+03  0.23893691660E+03  0.00000000000E+00 0.  1.
          1   -1    0    0  505    0 -0.00000000000E+00 -0.00000000000E+00 -0.49459921027E+03  0.49459921027E+03  0.00000000000E+00 0.  1.
         21    1    1    2  503  501 -0.58360752708E+02  0.43727258328E+02 -0.91246961539E+02  0.11680778470E+03  0.00000000000E+00 0.  1.
         21    1    1    2  504  503 -0.17449613203E+02 -0.66286543052E+02  0.47871054907E+02  0.83606415356E+02  0.00000000000E+00 0.  1.
         21    1    1    2  505  502 -0.12585789853E+02  0.29270078758E+02  0.15348695342E+03  0.15675900130E+03  0.00000000000E+00 0.  1.
          1    1    1    2  501    0  0.88396155764E+02 -0.67107940329E+01 -0.36577334046E+03  0.37636292552E+03  0.00000000000E+00 0.  1.
<scales pt_clust_3="14000.00000" pt_clust_4="51.22335" pt_clust_5="31.86126" pt_clust_6="81.51051"></scales>
<clustering>
<clus scale="   31.861">  1  5  2 -1</clus>
<clus scale="   51.223">  1  4  2 -1</clus>
<clus scale="   81.511">  2  6  1 -1</clus>
<clus scale="   31.861">  1  3  2 -1</clus>
</clustering>
</event>
<event>
 6    0  0.4340992E+002  0.7350486E+02  0.7546771E-02  0.1348565E+00
         -4   -1    0    0    0  501 -0.00000000000E+00  0.00000000000E+00  0.68242875765E+03  0.68242875765E+03  0.00000000000E+00 0.  1.
         21   -1    0    0  505  502  0.00000000000E+00 -0.00000000000E+00 -0.86642177542E+02  0.86642177542E+02  0.00000000000E+00 0. -1.
         21    1    1    2  503  502  0.18107855301E+02 -0.54680202194E+02  0.70545757737E+02  0.91074271176E+02  0.00000000000E+00 0. -1.
         21    1    1    2  504  501 -0.22051139681E+02  0.46495588904E+02  0.65735249095E+02  0.83481827498E+02  0.00000000000E+00 0. -1.
         21    1    1    2  505  504 -0.39512088919E+02  0.67810007819E+02 -0.41037441563E+02  0.88563389395E+02  0.00000000000E+00 0. -1.
         -4    1    1    2    0  503  0.43455373299E+02 -0.59625394529E+02  0.50054301484E+03  0.50595144713E+03  0.00000000000E+00 0.  1.
<scales pt_clust_3="14000.00000" pt_clust_4="51.45962" pt_clust_5="73.50486" pt_clust_6="32.88440"></scales>
<clustering>
<clus scale="   51.460">  1  4  2 -1</clus>
<clus scale="   32.884">  1  6  2 -1</clus>
<clus scale="   73.505">  2  5  1 -1</clus>
<clus scale="   73.505">  2  3  1 -1</clus>
</clustering>
</event>
<event>
 6    0  0.4340992E+002  0.1032831E+03  0.7546771E-02  0.1273540E+00
         21   -1    0    0  501  502  0.00000000000E+00  0.00000000000E+00  0.21002430802E+03  0.21002430802E+03  0.00000000000E+00 0.  1.
          2   -1    0    0  504    0 -0.00000000000E+00 -0.00000000000E+00 -0.63092526995E+03  0.63092526995E+03  0.00000000000E+00 0. -1.
         21    1    1    2  503  505 -0.34231871144E+02  0.47751391633E+02 -0.18524004723E+03  0.19433448356E+03  0.00000000000E+00 0.  1.
         21    1    1    2  504  503  0.38873107594E+02 -0.19189154190E+02 -0.29224772335E+02  0.52282209695E+02  0.00000000000E+00 0.  1.
         21    1    1    2  505  502 -0.84436871344E+02 -0.60734048771E+02  0.17485710125E+03  0.20345322750E+03  0.00000000000E+00 0.  1.
          2    1    1    2  501    0  0.79795634894E+02  0.32171811328E+02 -0.38129324362E+03  0.39087965721E+03  0.00000000000E+00 0. -1.
<scales pt_clust_3="46.91675" pt_clust_4="43.35138" pt_clust_5="14000.00000" pt_clust_6="103.28307"></scales>
<clustering>
<clus scale="   43.351">  2  4  1 -1</clus>
<clus scale="   46.917">  2  3  1 -1</clus>
<clus scale="  103.283">  2  6  1 -1</clus>
<clus scale="  103.283">  1  3  2 -1</clus>
</clustering>
</event>
<event>
 6    0  0.4340992E+002  0.7972400E+02  0.7546771E-02  0.1329837E+00
         21   -1    0    0  503  502  0.00000000000E+00  0.00000000000E+00  0.11484533196E+03  0.11484533196E+03  0.00000000000E+00 0. -1.
          2   -1    0    0  505    0 -0.00000000000E+00 -0.00000000000E+00 -0.14864148270E+04  0.14864148270E+04  0.00000000000E+00 0. -1.
         21    1    1    2  503  504  0.59057101322E+01  0.39070180098E+02  0.82049503967E+02  0.91068531812E+02  0.00000000000E+00 0. -1.
         21    1    1    2  504  501  0.54490664435E+02 -0.28676484010E+02 -0.60388495938E+02  0.86245832869E+02  0.00000000000E+00 0. -1.
         21    1    1    2  505  502 -0.42641468118E+02  0.69184459678E+02 -0.10328091157E+03  0.13142195767E+03  0.00000000000E+00 0. -1.
          2    1    1    2  501    0 -0.17754906449E+02 -0.79578155766E+02 -0.12899495915E+04  0.12925238366E+04  0.00000000000E+00 0. -1.
<scales pt_clust_3="39.51400" pt_clust_4="58.20429" pt_clust_5="14000.00000" pt_clust_6="79.72400"></scales>
<clustering>
<clus scale="   39.514">  1  3  2 -1</clus>
<clus scale="   58.204">  1  4  2 -1</clus>
<clus scale="   79.724">  2  6  1 -1</clus>
<clus scale="   39.514">  1  3  2 -1</clus>
</clustering>
</event>
<event>
 6    0  0.4340992E+002  0.1044770E+03  0.7546771E-02  0.1271153E+00
         21   -1    0    0  505  502  0.00000000000E+00  0.00000000000E+00  0.19573430714E+03  0.19573430714E+03  0.00000000000E+00 0.  1.
          2   -1    0    0  504    0 -0.00000000000E+00 -0.00000000000E+00 -0.15139419442E+04  0.15139419442E+04  0.00000000000E+00 0. -1.
         21    1    1    2  503  502  0.20398786884E+02 -0.29290786144E+02  0.16174408748E+02  0.39187653127E+02  0.00000000000E+00 0.  1.
         21    1    1    2  504  503 -0.11712818796E+03 -0.44768339851E+02 -0.18594203296E+03  0.22427138982E+03  0.00000000000E+00 0.  1.
         21    1    1    2  505  501  0.52081414108E+02 -0.21732668835E+02  0.14130078232E+03  0.15215352009E+03  0.00000000000E+00 0.  1.
          2    1    1    2  501    0  0.44647986970E+02  0.95791794830E+02 -0.12897407951E+04  0.12940636883E+04  0.00000000000E+00 0. -1.
<scales pt_clust_3="35.69399" pt_clust_4="14000.00000" pt_clust_5="84.39627" pt_clust_6="104.47701"></scales>
<clustering>
<clus scale="   35.694">  1  3  2 -1</clus>
<clus scale="   84.396">  1  5  2 -1</clus>
<clus scale="  104.477">  2  6  1 -1</clus>
<clus scale="   35.694">  1  3  2 -1</clus>
</clustering>
</event>
<event>
 6    0  0.4340992E+002  0.1547581E+03  0.7546771E-02  0.1194745E+00
         21   -1    0    0  504  502  0.00000000000E+00  0.00000000000E+00  0.14715393511E+03  0.14715393511E+03  0.00000000000E+00 0.  1.
          3   -1    0    0  505    0 -0.00000000000E+00 -0.00000000000E+00 -0.14531205571E+04  0.14531205571E+04  0.00000000000E+00 0.  1.
         21    1    1    2  503  501  0.78464080773E+02  0.11614463490E+01 -0.12915684665E+03  0.15112727076E+03  0.00000000000E+00 0.  1.
         21    1    1    2  504  503 -0.35262658296E+02  0.13759951611E+02  0.11996493964E+03  0.12579498433E+03  0.00000000000E+00 0.  1.
         21    1    1    2  505  502 -0.13261206223E+03  0.30009208620E+02 -0.10204324679E+04  0.10294507920E+04  0.00000000000E+00 0.  1.
          3    1    1    2  501    0  0.89410639750E+02 -0.44930606580E+02 -0.27634224706E+03  0.29390144508E+03  0.00000000000E+00 0.  1.
<scales pt_clust_3="50.65006" pt_clust_4="37.85223" pt_clust_5="142.92200" pt_clust_6="50.65006"></scales>
<clustering>
<clus scale="   37.852">  1  4  2 -1</clus>
<clus scale="   50.650">  3  6 -1 -1</clus>
<clus scale="  142.922">  2  5  1 -1</clus>
<clus scale="   37.852">  1  3  2 -1</clus>
</clustering>
</event>
<event>
 6    0  0.4340992E+002  0.1978279E+03  0.7546771E-02  0.1151585E+00
         21   -1    0    0  504  502  0.00000000000E+00  0.00000000000E+00  0.16036302492E+03  0.16036302492E+03  0.00000000000E+00 0. -1.
          2   -1    0    0  505    0 -0.00000000000E+00 -0.00000000000E+00 -0.25065450537E+04  0.25065450537E+04  0.00000000000E+00 0.  1.
         21    1    1    2  503  502 -0.19386371540E+03  0.77134912626E+02  0.55519133756E+02  0.21590578757E+03  0.00000000000E+00 0. -1.
         21    1    1    2  504  501  0.20906296198E+02  0.22267698759E+02  0.68079453313E+01  0.31293317951E+02  0.00000000000E+00 0. -1.
         21    1    1    2  505  503  0.59475243237E+02  0.62332173042E+01 -0.32621100322E+03  0.33164706568E+03  0.00000000000E+00 0.  1.
          2    1    1    2  501    0  0.11348217596E+03 -0.10563582869E+03 -0.20822981046E+04  0.20880619074E+04  0.00000000000E+00 0.  1.
<scales pt_clust_3="197.82790" pt_clust_4="30.54380" pt_clust_5="60.24678" pt_clust_6="14000.00000"></scales>
<clustering>
<clus scale="   30.544">  1  4  2 -1</clus>
<clus scale="   60.247">  2  5  1 -1</clus>
<clus scale="  197.828">  1  3  2 -1</clus>
<clus scale="   30.544">  1  3  2 -1</clus>
</clustering>
</event>
<event>
 6    0  0.4340992E+002  0.9941996E+02  0.7546771E-02  0.1281520E+00
         21   -1    0    0  503  502  0.00000000000E+00  0.00000000000E+00  0.19793897870E+04  0.19793897870E+04  0.00000000000E+00 0.  1.
         -2   -1    0    0    0  501 -0.00000000000E+00 -0.00000000000E+00 -0.93419816928E+02  0.93419816928E+02  0.00000000000E+00 0.  1.
         21    1    1    2  503  504 -0.44365518978E+02  0.39011690587E+02  0.18638853148E+04  0.18648213528E+04  0.00000000000E+00 0.  1.
         21    1    1    2  504  501 -0.22228787680E+02  0.67227544714E+02 -0.31256490624E+01  0.70876169846E+02  0.00000000000E+00 0.  1.
         21    1    1    2  505  502  0.31044259934E+02 -0.85882447894E+02  0.29389053268E+02  0.95933609247E+02  0.00000000000E+00 0.  1.
         -2    1    1    2    0  505  0.35550046724E+02 -0.20356787407E+02 -0.41787489095E+01  0.41178472022E+02  0.00000000000E+00 0.  1.
<scales pt_clust_3="59.07801" pt_clust_4="86.26554" pt_clust_5="33.10173" pt_clust_6="33.10173"></scales>
<clustering>
<clus scale="   33.102">  5  6 -1 -1</clus>
<clus scale="   59.078">  1  3  2 -1</clus>
<clus scale="   86.266">  2  4  1 -1</clus>
<clus scale="   59.078">  1  3  2 -1</clus>
</clustering>
</event>
<event>
 6    0  0.4340992E+002  0.1983326E+03  0.7546771E-02  0.1151153E+00
          1   -1    0    0  503    0 -0.00000000000E+00  0.00000000000E+00  0.16646256241E+04  0.16646256241E+04  0.00000000000E+00 0.  1.
         21   -1    0    0  504  502  0.00000000000E+00 -0.00000000000E+00 -0.31169211283E+03  0.31169211283E+03  0.00000000000E+00 0.  1.
         21    1    1    2  503  505 -0.99699904926E+02 -0.90867064460E+02  0.11663345300E+04  0.11741095052E+04  0.00000000000E+00 0.  1.
         21    1    1    2  504  501 -0.13200623716E+03  0.16382045079E+03 -0.22056056997E+03  0.30481100993E+03  0.00000000000E+00 0.  1.
         21    1    1    2  505  502  0.53707748542E+02  0.24690745781E+02  0.24046750872E+02  0.63815369686E+02  0.00000000000E+00 0.  1.
          1    1    1    2  501    0  0.17799839354E+03 -0.97644132107E+02  0.38311280036E+03  0.43358185207E+03  0.00000000000E+00 0.  1.
<scales pt_clust_3="134.14569" pt_clust_4="198.33258" pt_clust_5="59.11138" pt_clust_6="14000.00000"></scales>
<clustering>
<clus scale="   59.111">  2  5  1 -1</clus>
<clus scale="  134.146">  1  3  2 -1</clus>
<clus scale="  198.333">  2  4  1 -1</clus>
<clus scale="   59.111">  2  3  1 -1</clus>
</clustering>
</event>
<event>
 6    0  0.4340992E+002  0.1089067E+03  0.7546771E-02  0.1262608E+00
          2   -1    0    0  504    0 -0.00000000000E+00  0.00000000000E+00  0.52118837942E+03  0.52118837942E+03  0.00000000000E+00 0. -1.
         21   -1    0    0  505  502  0.00000000000E+00 -0.00000000000E+00 -0.18741175738E+03  0.18741175738E+03  0.00000000000E+00 0. -1.
         21    1    1    2  503  502  0.26856410275E+02  0.74273863841E+02 -0.13994549950E+03  0.16069417057E+03  0.00000000000E+00 0. -1.
         21    1    1    2  504  503 -0.53388028737E+02 -0.58123824884E+02  0.16681133837E+03  0.18453911033E+03  0.00000000000E+00 0. -1.
         21    1    1    2  505  501  0.18714989472E+02  0.37111321533E+02 -0.93129886082E+01  0.42593811448E+02  0.00000000000E+00 0. -1.
          2    1    1    2  501    0  0.78166289900E+01 -0.53261360489E+02  0.31622377179E+03  0.32077304446E+03  0.00000000000E+00 0. -1.
<scales pt_clust_3="14000.00000" pt_clust_4="108.90670" pt_clust_5="41.56322" pt_clust_6="53.35395"></scales>
<clustering>
<clus scale="   41.563">  2  5  1 -1</clus>
<clus scale="   53.354">  1  6  2 -1</clus>
<clus scale="  108.907">  1  4  2 -1</clus>
<clus scale="   41.563">  2  3  1 -1</clus>
</clustering>
</event>
<event>
 6    0  0.4340992E+002  0.1207985E+03  0.7546771E-02  0.1241786E+00
         21   -1    0    0  503  502  0.00000000000E+00  0.00000000000E+00  0.52082005071E+03  0.52082005071E+03  0.00000000000E+00 0. -1.
          1   -1    0    0  505    0 -0.00000000000E+00 -0.00000000000E+00 -0.18441173694E+04  0.18441173694E+04  0.00000000000E+00 0. -1.
         21    1    1    2  503  501  0.73363040503E+02  0.99626799338E+02  0.42622492947E+03  0.44381902321E+03  0.00000000000E+00 0. -1.
         21    1    1    2  504  502 -0.28270488008E+02  0.12619889756E+02  0.73688250272E+02  0.79927719458E+02  0.00000000000E+00 0. -1.
         21    1    1    2  505  504  0.17483945781E+02 -0.30719713884E+02 -0.34045490575E+02  0.49076314141E+02  0.00000000000E+00 0.  1.
          1    1    1    2  501    0 -0.62576498277E+02 -0.81526975209E+02 -0.17891650079E+04  0.17921143633E+04  0.00000000000E+00 0. -1.
<scales pt_clust_3="14000.00000" pt_clust_4="30.95936" pt_clust_5="34.92574" pt_clust_6="120.79850"></scales>
<clustering>
<clus scale="   30.959">  1  4  2 -1</clus>
<clus scale="   34.926">  2  5  1 -1</clus>
<clus scale="  120.798">  2  6  1 -1</clus>
<clus scale="   30.959">  1  3  2 -1</clus>
</clustering>
</event>
<event>
 6    0  0.4340992E+002  0.1634777E+03  0.7546771E-02  0.1184825E+00
         21   -1    0    0  503  502  0.00000000000E+00  0.00000000000E+00  0.14299920373E+04  0.14299920373E+04  0.00000000000E+00 0.  1.
          1   -1    0    0  505    0 -0.00000000000E+00 -0.00000000000E+00 -0.13371329669E+04  0.13371329669E+04  0.00000000000E+00 0. -1.
         21    1    1    2  503  504  0.13021277379E+03 -0.99176007455E+02  0.14066384635E+04  0.14161295894E+04  0.00000000000E+00 0.  1.
         21    1    1    2  504  501 -0.16166095846E+03  0.23515866392E+02 -0.46464700718E+03  0.49252827608E+03  0.00000000000E+00 0.  1.
         21    1    1    2  505  502  0.20087839899E+02  0.27775315376E+02 -0.71636357726E+02  0.79415094310E+02  0.00000000000E+00 0. -1.
          1    1    1    2  501    0  0.11360344771E+02  0.47884825687E+02 -0.77749602828E+03  0.77905204444E+03  0.00000000000E+00 0. -1.
<scales pt_clust_3="14000.00000" pt_clust_4="163.47770" pt_clust_5="34.27812" pt_clust_6="69.22186"></scales>
<clustering>
<clus scale="   34.278">  2  5  1 -1</clus>
<clus scale="   69.222">  2  6  1 -1</clus>
<clus scale="  163.478">  2  4  1 -1</clus>
<clus scale="  163.478">  1  3  2 -1</clus>
</clustering>
</event>
<event>
 6    0  0.4340992E+002  0.1296054E+03  0.7546771E-02  0.1228042E+00
          1   -1    0    0  504    0 -0.00000000000E+00  0.00000000000E+00  0.22612730523E+04  0.22612730523E+04  0.00000000000E+00 0. -1.
         21   -1    0    0  501  502  0.00000000000E+00 -0.00000000000E+00 -0.21869818894E+03  0.21869818894E+03  0.00000000000E+00 0.  1.
         21    1    1    2  503  505 -0.12974888681E+03 -0.67288552465E+02  0.25521892733E+03  0.29410750379E+03  0.00000000000E+00 0.  1.
         21    1    1    2  504  503 -0.55678378648E+02 -0.44478928506E+02  0.49470508798E+03  0.49981154549E+03  0.00000000000E+00 0. -1.
         21    1    1    2  505  502  0.41706643794E+02 -0.24338163722E+01 -0.18875148298E+03  0.19331965737E+03  0.00000000000E+00 0.  1.
          1    1    1    2  501    0  0.14372062167E+03  0.11420129734E+03  0.14814023310E+04  0.14927325346E+04  0.00000000000E+00 0. -1.
<scales pt_clust_3="129.60540" pt_clust_4="68.44446" pt_clust_5="41.77760" pt_clust_6="14000.00000"></scales>
<clustering>
<clus scale="   41.778">  2  5  1 -1</clus>
<clus scale="   68.444">  1  4  2 -1</clus>
<clus scale="  129.605">  2  3  1 -1</clus>
<clus scale="   41.778">  2  3  1 -1</clus>
</clustering>
</event>
<event>
 6    0  0.4340992E+002  0.1869690E+03  0.7546771E-02  0.1161224E+00
          2   -1    0    0  504    0 -0.00000000000E+00  0.00000000000E+00  0.48718747215E+03  0.48718747215E+03  0.00000000000E+00 0.  1.
         21   -1    0    0  505  502  0.00000000000E+00 -0.00000000000E+00 -0.18348600069E+03  0.18348600069E+03  0.00000000000E+00 0. -1.
         21    1    1    2  503  501 -0.57389492266E+02  0.24809347294E+02  0.11841624274E+03  0.13390841677E+03  0.00000000000E+00 0.  1.
         21    1    1    2  504  502 -0.15586330484E+02 -0.77396070782E+02 -0.21821478321E+02  0.81910087209E+02  0.00000000000E+00 0. -1.
         21    1    1    2  505  503  0.11238004668E+03 -0.74697523718E+02 -0.66568327524E+02  0.15046706341E+03  0.00000000000E+00 0. -1.
          2    1    1    2  501    0 -0.39404223926E+02  0.12728424721E+03  0.27367503456E+03  0.30438790546E+03  0.00000000000E+00 0.  1.
<scales pt_clust_3="52.46719" pt_clust_4="78.94989" pt_clust_5="170.56021" pt_clust_6="52.46719"></scales>
<clustering>
<clus scale="   52.467">  3  6 -1 -1</clus>
<clus scale="   78.950">  2  4  1 -1</clus>
<clus scale="  170.560">  2  5  1 -1</clus>
<clus scale="   78.950">  2  3  1 -1</clus>
</clustering>
</event>
<event>
 6    0  0.4340992E+002  0.2238900E+03  0.7546771E-02  0.1131016E+00
          2   -1    0    0  505    0 -0.00000000000E+00  0.00000000000E+00  0.36173791217E+04  0.36173791217E+04  0.00000000000E+00 0.  1.
         21   -1    0    0  504  502  0.00000000000E+00 -0.00000000000E+00 -0.26122852461E+03  0.26122852461E+03  0.00000000000E+00 0.  1.
         21    1    1    2  503  501  0.37399608172E+02 -0.48386689046E+02  0.55512458611E+03  0.55848304224E+03  0.00000000000E+00 0.  1.
         21    1    1    2  504  503 -0.10068313247E+03  0.14719296367E+03 -0.19442452967E+03  0.26382524416E+03  0.00000000000E+00 0.  1.
         21    1    1    2  505  502 -0.80423646574E+02 -0.54343195657E+02  0.54132593936E+02  0.11113722855E+03  0.00000000000E+00 0. -1.
          2    1    1    2  501    0  0.14370717087E+03 -0.44463078963E+02  0.29413179467E+04  0.29451621314E+04  0.00000000000E+00 0.  1.
<scales pt_clust_3="60.48323" pt_clust_4="202.80133" pt_clust_5="97.06259" pt_clust_6="60.48323"></scales>
<clustering>
<clus scale="   60.483">  3  6 -1 -1</clus>
<clus scale="   97.063">  2  5  1 -1</clus>
<clus scale="  202.801">  2  4  1 -1</clus>
<clus scale="   97.063">  2  3  1 -1</clus>
</clustering>
</event>
<event>
 6    0  0.4340992E+002  0.2066474E+03  0.7546771E-02  0.1144249E+00
         21   -1    0    0  505  502  0.00000000000E+00  0.00000000000E+00  0.17097739691E+03  0.17097739691E+03  0.00000000000E+00 0.  1.
         -1   -1    0    0    0  501 -0.00000000000E+00 -0.00000000000E+00 -0.66822237689E+03  0.66822237689E+03  0.00000000000E+00 0. -1.
         21    1    1    2  503  504  0.19148554641E+02  0.88455338296E+02 -0.17005464880E+03  0.19263851535E+03  0.00000000000E+00 0. -1.
         21    1    1    2  504  502 -0.64095758847E+02 -0.16229821265E+03  0.96946200499E+01  0.17476544793E+03  0.00000000000E+00 0.  1.
         21    1    1    2  505  501  0.17324688155E+02 -0.36095531768E+02  0.52626345510E+02  0.66125369375E+02  0.00000000000E+00 0. -1.
         -1    1    1    2    0  503  0.27622516051E+02  0.10993840612E+03 -0.38951129673E+03  0.40567044114E+03  0.00000000000E+00 0. -1.
<scales pt_clust_3="51.01661" pt_clust_4="198.47213" pt_clust_5="40.03788" pt_clust_6="51.01661"></scales>
<clustering>
<clus scale="   40.038">  1  5  2 -1</clus>
<clus scale="   51.017">  3  6 -1 -1</clus>
<clus scale="  198.472">  1  4  2 -1</clus>
<clus scale="   40.038">  1  3  2 -1</clus>
</clustering>
</event>
<event>
 6    0  0.4340992E+002  0.1489296E+03  0.7546771E-02  0.1201794E+00
          2   -1    0    0  505    0 -0.00000000000E+00  0.00000000000E+00  0.27176315564E+04  0.27176315564E+04  0.00000000000E+00 0.  1.
         21   -1    0    0  504  502  0.00000000000E+00 -0.00000000000E+00 -0.11385522140E+03  0.11385522140E+03  0.00000000000E+00 0.  1.
         21    1    1    2  503  502 -0.28681098946E+02  0.10761728212E+02  0.43008673933E+02  0.52803089534E+02  0.00000000000E+00 0. -1.
         21    1    1    2  504  501 -0.37963002014E+02  0.10967577845E+02 -0.76101392741E+02  0.85749048174E+02  0.00000000000E+00 0.  1.
         21    1    1    2  505  503 -0.80394994333E+02 -0.12346469239E+03  0.23519337934E+04  0.23565439640E+04  0.00000000000E+00 0.  1.
          2    1    1    2  501    0  0.14703909529E+03  0.10173538634E+03  0.28493526037E+03  0.33639067612E+03  0.00000000000E+00 0.  1.
<scales pt_clust_3="30.63365" pt_clust_4="62.22413" pt_clust_5="14000.00000" pt_clust_6="148.92964"></scales>
<clustering>
<clus scale="   30.634">  2  3  1 -1</clus>
<clus scale="   62.224">  2  4  1 -1</clus>
<clus scale="  148.930">  2  6  1 -1</clus>
<clus scale="   30.634">  2  3  1 -1</clus>
</clustering>
</event>
<event>
 6    0  0.4340992E+002  0.1471756E+03  0.7546771E-02  0.1203987E+00
         -2   -1    0    0    0  501 -0.00000000000E+00  0.00000000000E+00  0.10938090811E+03  0.10938090811E+03  0.00000000000E+00 0.  1.
         21   -1    0    0  501  502  0.00000000000E+00 -0.00000000000E+00 -0.30459414573E+03  0.30459414573E+03  0.00000000000E+00 0.  1.
         21    1    1    2  503  504  0.81981225338E+02  0.90554277957E+02 -0.77280629592E+02  0.14454512885E+03  0.00000000000E+00 0.  1.
         21    1    1    2  504  502  0.58695301734E+02 -0.37300129576E+02 -0.71246261579E+02  0.99561377557E+02  0.00000000000E+00 0.  1.
         21    1    1    2  505  503 -0.35368736891E+02 -0.38086602595E+02 -0.35379734360E+02  0.62874974751E+02  0.00000000000E+00 0.  1.
         -2    1    1    2    0  505 -0.10530779018E+03 -0.15167545786E+02 -0.11306612085E+02  0.10699357268E+03  0.00000000000E+00 0.  1.
<scales pt_clust_3="132.70580" pt_clust_4="69.54450" pt_clust_5="44.47961" pt_clust_6="44.47961"></scales>
<clustering>
<clus scale="   44.480">  5  6 -1 -1</clus>
<clus scale="   69.545">  2  4  1 -1</clus>
<clus scale="  132.706">  2  3  1 -1</clus>
<clus scale="   69.545">  2  3  1 -1</clus>
</clustering>
</event>
<event>
 6    0  0.4340992E+002  0.9246389E+02  0.7546771E-02  0.1296992E+00
          1   -1    0    0  505    0 -0.00000000000E+00  0.00000000000E+00  0.24609288163E+04  0.24609288163E+04  0.00000000000E+00 0.  1.
         21   -1    0    0  504  502  0.00000000000E+00 -0.00000000000E+00 -0.25634003727E+02  0.25634003727E+02  0.00000000000E+00 0.  1.
         21    1    1    2  503  501  0.44645454623E+02  0.79435661841E+02  0.32680433095E+03  0.33927026354E+03  0.00000000000E+00 0.  1.
         21    1    1    2  504  503  0.40577025558E+02 -0.30493204630E+02  0.20552491652E+02  0.54760710777E+02  0.00000000000E+00 0.  1.
         21    1    1    2  505  502 -0.27658963580E+02  0.20676363602E+02  0.24982540196E+03  0.25220083613E+03  0.00000000000E+00 0.  1.
          1    1    1    2  501    0 -0.57563516600E+02 -0.69618820813E+02  0.18381125880E+04  0.18403310095E+04  0.00000000000E+00 0.  1.
<scales pt_clust_3="14000.00000" pt_clust_4="50.16913" pt_clust_5="34.53303" pt_clust_6="92.46389"></scales>
<clustering>
<clus scale="   34.533">  1  5  2 -1</clus>
<clus scale="   50.169">  2  4  1 -1</clus>
<clus scale="   92.464">  1  6  2 -1</clus>
<clus scale="   50.169">  2  3  1 -1</clus>
</clustering>
</event>
<event>
 6    0  0.4340992E+002  0.6593898E+02  0.7546771E-02  0.1374474E+00
         21   -1    0    0  505  502  0.00000000000E+00  0.00000000000E+00  0.13646263125E+03  0.13646263125E+03  0.00000000000E+00 0.  1.
          2   -1    0    0  504    0 -0.00000000000E+00 -0.00000000000E+00 -0.24384504182E+04  0.24384504182E+04  0.00000000000E+00 0.  1.
         21    1    1    2  503  502  0.22896071695E+01  0.37010751673E+02 -0.61677262938E+02  0.71966122613E+02  0.00000000000E+00 0.  1.
         21    1    1    2  504  503  0.52576137529E+02  0.47673601091E+02 -0.52138944229E+03  0.52619765584E+03  0.00000000000E+00 0.  1.
         21    1    1    2  505  501  0.14251124900E+02 -0.88896116761E+02  0.11246057216E+03  0.14405899634E+03  0.00000000000E+00 0.  1.
          2    1    1    2  501    0 -0.69116869598E+02  0.42117639964E+01 -0.18313816539E+04  0.18326902746E+04  0.00000000000E+00 0.  1.
<scales pt_clust_3="37.08151" pt_clust_4="14000.00000" pt_clust_5="55.26407" pt_clust_6="65.93898"></scales>
<clustering>
<clus scale="   37.082">  1  3  2 -1</clus>
<clus scale="   55.264">  1  5  2 -1</clus>
<clus scale="   65.939">  2  6  1 -1</clus>
<clus scale="   37.082">  1  3  2 -1</clus>
</clustering>
</event>
<event>
 6    0  0.4340992E+002  0.7995026E+02  0.7546771E-02  0.1329193E+00
         -3   -1    0    0    0  501 -0.00000000000E+00  0.00000000000E+00  0.17943672737E+03  0.17943672737E+03  0.00000000000E+00 0. -1.
         21   -1    0    0  503  502  0.00000000000E+00 -0.00000000000E+00 -0.94421355334E+03  0.94421355334E+03  0.00000000000E+00 0. -1.
         21    1    1    2  503  505 -0.63996754472E+02  0.81364478103E+02 -0.11910807875E+03  0.15780525119E+03  0.00000000000E+00 0.  1.
         21    1    1    2  504  502  0.56162414915E+02 -0.53660455687E+02 -0.77474411187E+03  0.77862834538E+03  0.00000000000E+00 0. -1.
         21    1    1    2  505  501  0.41921813394E+02 -0.15262236442E+02 -0.80825157261E+01  0.45339842963E+02  0.00000000000E+00 0. -1.
         -3    1    1    2    0  504 -0.34087473838E+02 -0.12441785975E+02  0.13715788038E+03  0.14187684118E+03  0.00000000000E+00 0. -1.
<scales pt_clust_3="14000.00000" pt_clust_4="79.95026" pt_clust_5="33.47588" pt_clust_6="36.28710"></scales>
<clustering>
<clus scale="   36.287">  1  6  2 -1</clus>
<clus scale="   33.476">  1  5  2 -1</clus>
<clus scale="   79.950">  2  4  1 -1</clus>
<clus scale="   79.950">  2  3  1 -1</clus>
</clustering>
</event>
<event>
 6    0  0.4340992E+002  0.8705717E+02  0.7546771E-02  0.1310139E+00
         -2   -1    0    0    0  501 -0.00000000000E+00  0.00000000000E+00  0.19922854925E+04  0.19922854925E+04  0.00000000000E+00 0. -1.
         21   -1    0    0  505  502  0.00000000000E+00 -0.00000000000E+00 -0.48872034574E+02  0.48872034574E+02  0.00000000000E+00 0.  1.
         21    1    1    2  503  502  0.17125916762E+02  0.11685868282E+03  0.11146436914E+03  0.16239936688E+03  0.00000000000E+00 0.  1.
         21    1    1    2  504  501 -0.48540116441E+02  0.21190184619E+01  0.37371521324E+03  0.37686031065E+03  0.00000000000E+00 0. -1.
         21    1    1    2  505  504  0.11714159406E+02 -0.37010885580E+02 -0.23421349200E+01  0.38891037244E+02  0.00000000000E+00 0.  1.
         -2    1    1    2    0  503  0.19700040273E+02 -0.81966815701E+02  0.14605760105E+04  0.14630068123E+04  0.00000000000E+00 0. -1.
<scales pt_clust_3="14000.00000" pt_clust_4="47.88820" pt_clust_5="38.82045" pt_clust_6="87.05717"></scales>
<clustering>
<clus scale="   38.820">  2  5  1 -1</clus>
<clus scale="   47.888">  1  4  2 -1</clus>
<clus scale="   87.057">  1  6  2 -1</clus>
<clus scale="   38.820">  2  3  1 -1</clus>
</clustering>
</event>
<event>
 6    0  0.4340992E+002  0.8416324E+02  0.7546771E-02  0.1317635E+00
          2   -1    0    0  503    0 -0.00000000000E+00  0.00000000000E+00  0.10402158808E+04  0.10402158808E+04  0.00000000000E+00 0. -1.
         21   -1    0    0  505  502  0.00000000000E+00 -0.00000000000E+00 -0.32504197039E+02  0.32504197039E+02  0.00000000000E+00 0. -1.
         21    1    1    2  503  504 -0.10586068345E+02  0.73326537715E+02  0.25673198584E+03  0.26720808096E+03  0.00000000000E+00 0. -1.
         21    1    1    2  504  502  0.15937033704E+01 -0.91337395004E+02  0.11368654488E+03  0.14584131823E+03  0.00000000000E+00 0. -1.
         21    1    1    2  505  501  0.84122488203E+02 -0.77692063830E+01  0.23787334393E+03  0.25242955719E+03  0.00000000000E+00 0. -1.
          2    1    1    2  501    0 -0.75130123228E+02  0.25780063671E+02  0.39941980913E+03  0.40724112148E+03  0.00000000000E+00 0. -1.
<scales pt_clust_3="74.08675" pt_clust_4="79.11119" pt_clust_5="84.16324" pt_clust_6="14000.00000"></scales>
<clustering>
<clus scale="   74.087">  1  3  2 -1</clus>
<clus scale="   79.111">  2  4  1 -1</clus>
<clus scale="   84.163">  2  5  1 -1</clus>
<clus scale="   79.111">  2  3  1 -1</clus>
</clustering>
</event>
<event>
 6    0  0.4340992E+002  0.1334581E+03  0.7546771E-02  0.1222413E+00
         21   -1    0    0  504  502  0.00000000000E+00  0.00000000000E+00  0.69600701846E+03  0.69600701846E+03  0.00000000000E+00 0.  1.
         -2   -1    0    0    0  501 -0.00000000000E+00 -0.00000000000E+00 -0.16746587535E+03  0.16746587535E+03  0.00000000000E+00 0. -1.
         21    1    1    2  503  501  0.84886895100E+01  0.90973908981E+02 -0.12360118179E+02  0.92201314992E+02  0.00000000000E+00 0. -1.
         21    1    1    2  504  503  0.58862725510E+01 -0.64147778449E+02  0.31866593338E+03  0.32511161589E+03  0.00000000000E+00 0.  1.
         21    1    1    2  505  502  0.93504799845E+02 -0.50880896086E+02  0.29514099166E+03  0.31375184165E+03  0.00000000000E+00 0.  1.
         -2    1    1    2    0  505 -0.10787976191E+03  0.24054765554E+02 -0.72905663757E+02  0.13240812129E+03  0.00000000000E+00 0. -1.
<scales pt_clust_3="84.62150" pt_clust_4="64.41728" pt_clust_5="133.45809" pt_clust_6="14000.00000"></scales>
<clustering>
<clus scale="   64.417">  1  4  2 -1</clus>
<clus scale="   84.622">  2  3  1 -1</clus>
<clus scale="  133.458">  1  5  2 -1</clus>
<clus scale="   64.417">  1  3  2 -1</clus>
</clustering>
</event>
<event>
 6    0  0.4340992E+002  0.1167514E+03  0.7546771E-02  0.1248555E+00
          2   -1    0    0  504    0 -0.00000000000E+00  0.00000000000E+00  0.13105332082E+04  0.13105332082E+04  0.00000000000E+00 0. -1.
         21   -1    0    0  505  502  0.00000000000E+00 -0.00000000000E+00 -0.40751390015E+02  0.40751390015E+02  0.00000000000E+00 0. -1.
         21    1    1    2  503  502 -0.15176297625E+02 -0.39273750941E+02  0.48668493935E+02  0.64353475621E+02  0.00000000000E+00 0. -1.
         21    1    1    2  504  503 -0.13174197838E+03 -0.20898977624E+02  0.84797552969E+03  0.85840271149E+03  0.00000000000E+00 0. -1.
         21    1    1    2  505  501  0.11470025105E+03  0.79140640278E+02  0.16017915634E+03  0.21231286032E+03  0.00000000000E+00 0. -1.
          2    1    1    2  501    0  0.32218024961E+02 -0.18967911713E+02  0.21295863819E+03  0.21621555075E+03  0.00000000000E+00 0. -1.
<scales pt_clust_3="42.46014" pt_clust_4="116.75137" pt_clust_5="14000.00000" pt_clust_6="37.38693"></scales>
<clustering>
<clus scale="   37.387">  1  6  2 -1</clus>
<clus scale="   42.460">  2  3  1 -1</clus>
<clus scale="  116.751">  1  4  2 -1</clus>
<clus scale="   42.460">  2  3  1 -1</clus>
</clustering>
</event>
<event>
 6    0  0.4340992E+002  0.1195962E+03  0.7546771E-02  0.1243765E+00
          2   -1    0    0  505    0 -0.00000000000E+00  0.00000000000E+00  0.40538915049E+03  0.40538915049E+03  0.00000000000E+00 0.  1.
         21   -1    0    0  503  502  0.00000000000E+00 -0.00000000000E+00 -0.14609120861E+03  0.14609120861E+03  0.00000000000E+00 0. -1.
         21    1    1    2  503  501 -0.87725817861E+02  0.91224695371E+02 -0.71738635184E+02  0.14547919419E+03  0.00000000000E+00 0. -1.
         21    1    1    2  504  502 -0.27064404073E+01 -0.77867895986E+02  0.51529656671E+02  0.93413272941E+02  0.00000000000E+00 0.  1.
         21    1    1    2  505  504  0.32737034011E+02  0.45484239416E+02  0.91251299583E+02  0.10708561578E+03  0.00000000000E+00 0.  1.
          2    1    1    2  501    0  0.57695224258E+02 -0.58841038801E+02  0.18825562082E+03  0.20550227619E+03  0.00000000000E+00 0.  1.
<scales pt_clust_3="119.59620" pt_clust_4="67.29251" pt_clust_5="56.04043" pt_clust_6="14000.00000"></scales>
<clustering>
<clus scale="   56.040">  1  5  2 -1</clus>
<clus scale="   67.293">  1  4  2 -1</clus>
<clus scale="  119.596">  2  3  1 -1</clus>
<clus scale="  119.596">  2  3  1 -1</clus>
</clustering>
</event>
<event>
 6    0  0.4340992E+002  0.1713479E+03  0.7546771E-02  0.1176449E+00
          2   -1    0    0  505    0 -0.00000000000E+00  0.00000000000E+00  0.14801446673E+04  0.14801446673E+04  0.00000000000E+00 0.  1.
         21   -1    0    0  504  502  0.00000000000E+00 -0.00000000000E+00 -0.10377683695E+03  0.10377683695E+03  0.00000000000E+00 0. -1.
         21    1    1    2  503  502 -0.15012573882E+02 -0.29567063975E+02  0.33426043610E+01  0.33328091013E+02  0.00000000000E+00 0. -1.
         21    1    1    2  504  501  0.16837125211E+03 -0.63239435680E+02  0.18947319164E+02  0.18085105935E+03  0.00000000000E+00 0. -1.
         21    1    1    2  505  503 -0.38296967086E+02  0.75206647047E+02  0.41634348068E+03  0.42481124203E+03  0.00000000000E+00 0.  1.
          2    1    1    2  501    0 -0.11506171115E+03  0.17599852608E+02  0.93773442612E+03  0.94493111183E+03  0.00000000000E+00 0.  1.
<scales pt_clust_3="33.16005" pt_clust_4="171.34794" pt_clust_5="83.47427" pt_clust_6="14000.00000"></scales>
<clustering>
<clus scale="   33.160">  2  3  1 -1</clus>
<clus scale="   83.474">  1  5  2 -1</clus>
<clus scale="  171.348">  2  4  1 -1</clus>
<clus scale="   33.160">  2  3  1 -1</clus>
</clustering>
</event>
<event>
 6    0  0.4340992E+002  0.1263696E+03  0.7546771E-02  0.1232944E+00
          2   -1    0    0  505    0 -0.00000000000E+00  0.00000000000E+00  0.96891194901E+03  0.96891194901E+03  0.00000000000E+00 0.  1.
         21   -1    0    0  504  502  0.00000000000E+00 -0.00000000000E+00 -0.16868718709E+03  0.16868718709E+03  0.00000000000E+00 0.  1.
         21    1    1    2  503  501  0.14873047112E+03  0.12404380043E+03  0.42216719498E+03  0.46447040593E+03  0.00000000000E+00 0. -1.
         21    1    1    2  504  503 -0.21474274295E+02 -0.32881935584E+02  0.32821806605E+02  0.51182390850E+02  0.00000000000E+00 0. -1.
         21    1    1    2  505  502 -0.66366579354E+02 -0.52568494615E+02 -0.12237718354E+03  0.14880908753E+03  0.00000000000E+00 0.  1.
          2    1    1    2  501    0 -0.60889617472E+02 -0.38593370233E+02  0.46761294388E+03  0.47313725179E+03  0.00000000000E+00 0.  1.
<scales pt_clust_3="126.36959" pt_clust_4="39.27297" pt_clust_5="14000.00000" pt_clust_6="72.70965"></scales>
<clustering>
<clus scale="   39.273">  2  4  1 -1</clus>
<clus scale="   72.710">  1  6  2 -1</clus>
<clus scale="  126.370">  1  3  2 -1</clus>
<clus scale="   39.273">  2  3  1 -1</clus>
</clustering>
</event>
<event>
 6    0  0.4340992E+002  0.8443679E+02  0.7546771E-02  0.1316912E+00
          2   -1    0    0  503    0 -0.00000000000E+00  0.00000000000E+00  0.25825497247E+04  0.25825497247E+04  0.00000000000E+00 0. -1.
         21   -1    0    0  504  502  0.00000000000E+00 -0.00000000000E+00 -0.48073117855E+02  0.48073117855E+02  0.00000000000E+00 0.  1.
         21    1    1    2  503  505 -0.67681971254E+02 -0.13781503457E+02  0.50873610787E+03  0.51340355133E+03  0.00000000000E+00 0. -1.
         21    1    1    2  504  501  0.90253624899E+02  0.59199052571E+02  0.29756320193E+03  0.31653452225E+03  0.00000000000E+00 0. -1.
         21    1    1    2  505  502 -0.65729400413E+02 -0.47272991856E+02  0.95614713425E+01  0.81526140420E+02  0.00000000000E+00 0.  1.
          2    1    1    2  501    0  0.43157746768E+02  0.18554427416E+01  0.17186158257E+04  0.17191586285E+04  0.00000000000E+00 0. -1.
<scales pt_clust_3="44.01076" pt_clust_4="84.43679" pt_clust_5="14000.00000" pt_clust_6="43.19761"></scales>
<clustering>
<clus scale="   43.198">  1  6  2 -1</clus>
<clus scale="   44.011">  1  3  2 -1</clus>
<clus scale="   84.437">  1  4  2 -1</clus>
<clus scale="   84.437">  2  3  1 -1</clus>
</clustering>
</event>
<event>
 6    0  0.4340992E+002  0.7277276E+02  0.7546771E-02  0.1350910E+00
          2   -1    0    0  503    0 -0.00000000000E+00  0.00000000000E+00  0.16073531560E+04  0.16073531560E+04  0.00000000000E+00 0.  1.
         21   -1    0    0  505  502  0.00000000000E+00 -0.00000000000E+00 -0.38480718956E+02  0.38480718956E+02  0.00000000000E+00 0.  1.
         21    1    1    2  503  504  0.23140864652E+02 -0.33612654013E+02  0.46272786001E+03  0.46452382346E+03  0.00000000000E+00 0. -1.
         21    1    1    2  504  502  0.54111119695E+01 -0.45208398254E+02  0.11851057766E+03  0.12695604130E+03  0.00000000000E+00 0. -1.
         21    1    1    2  505  501 -0.12457214253E+02  0.12138383160E+03  0.80731427617E+02  0.14631056068E+03  0.00000000000E+00 0.  1.
          2    1    1    2  501    0 -0.16094762369E+02 -0.42562779334E+02  0.90690257179E+03  0.90804344956E+03  0.00000000000E+00 0.  1.
<scales pt_clust_3="40.80821" pt_clust_4="49.44958" pt_clust_5="72.77276" pt_clust_6="14000.00000"></scales>
<clustering>
<clus scale="   40.808">  1  3  2 -1</clus>
<clus scale="   49.450">  2  4  1 -1</clus>
<clus scale="   72.773">  2  5  1 -1</clus>
<clus scale="   49.450">  2  3  1 -1</clus>
</clustering>
</event>
<event>
 6    0  0.4340992E+002  0.1294494E+03  0.7546771E-02  0.1228275E+00
         -2   -1    0    0    0  501 -0.00000000000E+00  0.00000000000E+00  0.13008527984E+03  0.13008527984E+03  0.00000000000E+00 0.  1.
         21   -1    0    0  504  502  0.00000000000E+00 -0.00000000000E+00 -0.53639691405E+03  0.53639691405E+03  0.00000000000E+00 0.  1.
         21    1    1    2  503  505 -0.26784335844E+02 -0.19438940686E+02  0.11958963843E+01  0.33116509927E+02  0.00000000000E+00 0. -1.
         21    1    1    2  504  501  0.54810874912E+02  0.13018394373E+03 -0.41503304559E+03  0.43841135951E+03  0.00000000000E+00 0.  1.
         21    1    1    2  505  502  0.86678590392E+01 -0.31168098702E+02 -0.70533966690E+02  0.77599114776E+02  0.00000000000E+00 0.  1.
         -2    1    1    2    0  503 -0.36694398107E+02 -0.79576904346E+02  0.78059481685E+02  0.11735520968E+03  0.00000000000E+00 0.  1.
<scales pt_clust_3="30.89060" pt_clust_4="119.29175" pt_clust_5="32.35092" pt_clust_6="30.89060"></scales>
<clustering>
<clus scale="   30.891">  3  6 -1 -1</clus>
<clus scale="   32.351">  2  5  1 -1</clus>
<clus scale="  119.292">  2  4  1 -1</clus>
<clus scale="   32.351">  2  3  1 -1</clus>
</clustering>
</event>
<event>
 6    0  0.4340992E+002  0.1513582E+03  0.7546771E-02  0.1198814E+00
         21   -1    0    0  504  502  0.00000000000E+00  0.00000000000E+00  0.17077841423E+03  0.17077841423E+03  0.00000000000E+00 0.  1.
          1   -1    0    0  502    0 -0.00000000000E+00 -0.00000000000E+00 -0.19136045907E+04  0.19136045907E+04  0.00000000000E+00 0.  1.
         21    1    1    2  503  501 -0.57367877269E+02  0.82341182153E+02 -0.21974276885E+03  0.24157406335E+03  0.00000000000E+00 0.  1.
         21    1    1    2  504  505 -0.20214295231E+02  0.25321286487E+02  0.11645385902E+03  0.12087715484E+03  0.00000000000E+00 0.  1.
         21    1    1    2  505  503 -0.33349095906E+02  0.24126002230E+02  0.25228527230E+02  0.48277373246E+02  0.00000000000E+00 0.  1.
          1    1    1    2  501    0  0.11093126841E+03 -0.13178847087E+03 -0.16647657938E+04  0.16736544135E+04  0.00000000000E+00 0.  1.
<scales pt_clust_3="151.35817" pt_clust_4="32.40039" pt_clust_5="63.47382" pt_clust_6="14000.00000"></scales>
<clustering>
<clus scale="   32.400">  1  4  2 -1</clus>
<clus scale="   63.474">  1  5  2 -1</clus>
<clus scale="  151.358">  1  3  2 -1</clus>
<clus scale="   32.400">  1  3  2 -1</clus>
</clustering>
</event>
<event>
 6    0  0.4340992E+002  0.1112110E+03  0.7546771E-02  0.1258344E+00
          2   -1    0    0  503    0 -0.00000000000E+00  0.00000000000E+00  0.54461794929E+03  0.54461794929E+03  0.00000000000E+00 0.  1.
         21   -1    0    0  501  502  0.00000000000E+00 -0.00000000000E+00 -0.12856070666E+03  0.12856070666E+03  0.00000000000E+00 0. -1.
         21    1    1    2  503  505  0.26026220643E+02 -0.38840156765E+02  0.28143162458E+03  0.28528876819E+03  0.00000000000E+00 0.  1.
         21    1    1    2  504  502 -0.18421603863E+02  0.31231137232E+02 -0.64738914347E+02  0.74201525945E+02  0.00000000000E+00 0. -1.
         21    1    1    2  505  504 -0.29063539791E+02  0.92100803135E+02  0.52519158891E+00  0.96579102861E+02  0.00000000000E+00 0. -1.
          2    1    1    2  501    0  0.21458923011E+02 -0.84491783601E+02  0.19883934081E+03  0.21710925896E+03  0.00000000000E+00 0.  1.
<scales pt_clust_3="45.57243" pt_clust_4="36.25934" pt_clust_5="111.21096" pt_clust_6="14000.00000"></scales>
<clustering>
<clus scale="   36.259">  2  4  1 -1</clus>
<clus scale="   45.572">  1  3  2 -1</clus>
<clus scale="  111.211">  2  5  1 -1</clus>
<clus scale="   36.259">  2  3  1 -1</clus>
</clustering>
</event>
<event>
 6    0  0.4340992E+002  0.1507077E+03  0.7546771E-02  0.1199606E+00
         21   -1    0    0  505  502  0.00000000000E+00  0.00000000000E+00  0.14775523136E+03  0.14775523136E+03  0.00000000000E+00 0. -1.
          1   -1    0    0  503    0 -0.00000000000E+00 -0.00000000000E+00 -0.18712989273E+04  0.18712989273E+04  0.00000000000E+00 0. -1.
         21    1    1    2  503  502 -0.25939414153E+02  0.21816408352E+02 -0.13409571176E+03  0.13831293791E+03  0.00000000000E+00 0.  1.
         21    1    1    2  504  501 -0.83085130017E+02 -0.19502738346E+03 -0.52065707025E+02  0.21828801382E+03  0.00000000000E+00 0. -1.
         21    1    1    2  505  504  0.17825735584E+02  0.12261880711E+03 -0.23989203186E+01  0.12393096274E+03  0.00000000000E+00 0.  1.
          1    1    1    2  501    0  0.91198808587E+02  0.50592167992E+02 -0.15349833568E+04  0.15385222442E+04  0.00000000000E+00 0. -1.
<scales pt_clust_3="33.89408" pt_clust_4="14000.00000" pt_clust_5="150.70774" pt_clust_6="97.68653"></scales>
<clustering>
<clus scale="   33.894">  2  3  1 -1</clus>
<clus scale="   97.687">  2  6  1 -1</clus>
<clus scale="  150.708">  1  5  2 -1</clus>
<clus scale="  150.708">  1  3  2 -1</clus>
</clustering>
</event>
<event>
 6    0  0.1113303E+003  0.1049154E+03  0.7546771E-02  0.1270286E+00
         21   -1    0    0  505  502  0.00000000000E+00  0.00000000000E+00  0.12507045802E+04  0.12507045802E+04  0.00000000000E+00 0. -1.
          2   -1    0    0  504    0 -0.00000000000E+00 -0.00000000000E+00 -0.11119978728E+04  0.11119978728E+04  0.00000000000E+00 0.  1.
         21    1    1    2  503  501  0.71300937651E+01 -0.35906117868E+02  0.77373493277E+02  0.85596407631E+02  0.00000000000E+00 0. -1.
         21    1    1    2  504  502 -0.10012585218E+03 -0.53380576759E+02  0.11371174905E+04  0.11427645687E+04  0.00000000000E+00 0. -1.
         21    1    1    2  505  503  0.31689671034E+01  0.35115617286E+02  0.15150224771E+02  0.38375490102E+02  0.00000000000E+00 0.  1.
          2    1    1    2  501    0  0.89826791311E+02  0.54171077341E+02 -0.10909345011E+04  0.10959659866E+04  0.00000000000E+00 0.  1.
<scales pt_clust_3="34.36160" pt_clust_4="104.91542" pt_clust_5="35.25832" pt_clust_6="14000.00000"></scales>
<clustering>
<clus scale="   35.258">  1  5  2 -1</clus>
<clus scale="   34.362">  1  3  2 -1</clus>
<clus scale="  104.915">  1  4  2 -1</clus>
<clus scale="   35.258">  1  3  2 -1</clus>
</clustering>
</event>
<event>
 6    0  0.4340992E+002  0.8743257E+02  0.7546771E-02  0.1309191E+00
         21   -1    0    0  505  502  0.00000000000E+00  0.00000000000E+00  0.29123094504E+03  0.29123094504E+03  0.00000000000E+00 0.  1.
          4   -1    0    0  504    0 -0.00000000000E+00 -0.00000000000E+00 -0.17633169205E+03  0.17633169205E+03  0.00000000000E+00 0.  1.
         21    1    1    2  503  502 -0.15841169856E+02 -0.44282909935E+02  0.42025028690E+02  0.63071561033E+02  0.00000000000E+00 0. -1.
         21    1    1    2  504  503  0.13773697251E+02  0.79828592699E+02 -0.84787161135E+01  0.81450645026E+02  0.00000000000E+00 0.  1.
         21    1    1    2  505  501  0.77540638027E+02  0.28704542932E+02  0.17065292062E+03  0.18962837511E+03  0.00000000000E+00 0.  1.
          4    1    1    2  501    0 -0.75473165422E+02 -0.64250225695E+02 -0.89299980204E+02  0.13341205592E+03  0.00000000000E+00 0.  1.
<scales pt_clust_3="47.03104" pt_clust_4="14000.00000" pt_clust_5="65.75426" pt_clust_6="87.43257"></scales>
<clustering>
<clus scale="   47.031">  1  3  2 -1</clus>
<clus scale="   65.754">  1  5  2 -1</clus>
<clus scale="   87.433">  2  6  1 -1</clus>
<clus scale="   47.031">  1  3  2 -1</clus>
</clustering>
</event>
<event>
 6    0  0.4340992E+002  0.7249555E+02  0.7546771E-02  0.1351807E+00
         21   -1    0    0  501  502  0.00000000000E+00  0.00000000000E+00  0.85321492721E+02  0.85321492721E+02  0.00000000000E+00 0.  1.
          2   -1    0    0  505    0 -0.00000000000E+00 -0.00000000000E+00 -0.12404998429E+04  0.12404998429E+04  0.00000000000E+00 0. -1.
         21    1    1    2  503  504 -0.77713044891E+02 -0.69691656834E+02 -0.16695848994E+03  0.19690449904E+03  0.00000000000E+00 0.  1.
         21    1    1    2  504  502  0.65063849925E+02 -0.17045332645E+02  0.45323645426E+02  0.81105368298E+02  0.00000000000E+00 0.  1.
         21    1    1    2  505  503  0.21935518308E+02  0.42644865327E+02 -0.96243170226E+03  0.96362572248E+03  0.00000000000E+00 0. -1.
          2    1    1    2  501    0 -0.92863233413E+01  0.44092124152E+02 -0.71111803388E+02  0.84185745792E+02  0.00000000000E+00 0. -1.
<scales pt_clust_3="72.49555" pt_clust_4="14000.00000" pt_clust_5="48.22114" pt_clust_6="45.05942"></scales>
<clustering>
<clus scale="   45.059">  1  6  2 -1</clus>
<clus scale="   48.221">  2  5  1 -1</clus>
<clus scale="   72.496">  2  3  1 -1</clus>
<clus scale="   45.059">  1  3  2 -1</clus>
</clustering>
</event>
<event>
 6    0  0.4340992E+002  0.7452154E+02  0.7546771E-02  0.1345359E+00
          2   -1    0    0  503    0 -0.00000000000E+00  0.00000000000E+00  0.20648257948E+04  0.20648257948E+04  0.00000000000E+00 0. -1.
         21   -1    0    0  504  502  0.00000000000E+00 -0.00000000000E+00 -0.18194832096E+03  0.18194832096E+03  0.00000000000E+00 0.  1.
         21    1    1    2  503  505  0.56313786682E+02  0.37327152194E+02  0.23845175502E+03  0.24783825034E+03  0.00000000000E+00 0.  1.
         21    1    1    2  504  501  0.56112579189E+02 -0.22517761296E+02 -0.69345331903E+02  0.92002424825E+02  0.00000000000E+00 0.  1.
         21    1    1    2  505  502 -0.11694710271E+03  0.44020981680E+02 -0.55464529622E+02  0.13671424836E+03  0.00000000000E+00 0.  1.
          2    1    1    2  501    0  0.45207368355E+01 -0.58830372578E+02  0.17692355803E+04  0.17702191922E+04  0.00000000000E+00 0. -1.
<scales pt_clust_3="61.06445" pt_clust_4="14000.00000" pt_clust_5="74.52154" pt_clust_6="59.00381"></scales>
<clustering>
<clus scale="   59.004">  1  6  2 -1</clus>
<clus scale="   61.064">  1  3  2 -1</clus>
<clus scale="   74.522">  1  5  2 -1</clus>
<clus scale="   74.522">  2  3  1 -1</clus>
</clustering>
</event>
<event>
 6    0  0.4340992E+002  0.1128025E+03  0.7546771E-02  0.1255466E+00
         21   -1    0    0  503  502  0.00000000000E+00  0.00000000000E+00  0.40859120805E+03  0.40859120805E+03  0.00000000000E+00 0. -1.
          2   -1    0    0  504    0 -0.00000000000E+00 -0.00000000000E+00 -0.27773551998E+03  0.27773551998E+03  0.00000000000E+00 0. -1.
         21    1    1    2  503  501  0.12535693371E+02  0.75437814088E+02 -0.12680762914E+03  0.14808167412E+03  0.00000000000E+00 0.  1.
         21    1    1    2  504  505 -0.15806483544E+02  0.48036719875E+02  0.49178134829E+01  0.50809017583E+02  0.00000000000E+00 0.  1.
         21    1    1    2  505  502  0.35564346940E+02 -0.11015863481E+03  0.35815098220E+03  0.37639324336E+03  0.00000000000E+00 0. -1.
          2    1    1    2  501    0 -0.32293556767E+02 -0.13315899150E+02 -0.10540547847E+03  0.11104279297E+03  0.00000000000E+00 0. -1.
<scales pt_clust_3="14000.00000" pt_clust_4="50.44552" pt_clust_5="112.80252" pt_clust_6="34.93117"></scales>
<clustering>
<clus scale="   34.931">  2  6  1 -1</clus>
<clus scale="   50.446">  2  4  1 -1</clus>
<clus scale="  112.803">  1  5  2 -1</clus>
<clus scale="  112.803">  1  3  2 -1</clus>
</clustering>
</event>
<event>
 6    0  0.4340992E+002  0.8131111E+02  0.7546771E-02  0.1325371E+00
         21   -1    0    0  504  502  0.00000000000E+00  0.00000000000E+00  0.23632544050E+03  0.23632544050E+03  0.00000000000E+00 0.  1.
          1   -1    0    0  505    0 -0.00000000000E+00 -0.00000000000E+00 -0.11966031083E+04  0.11966031083E+04  0.00000000000E+00 0.  1.
         21    1    1    2  503  502  0.13012830535E+02  0.10080274967E+03  0.19572210289E+03  0.22053949683E+03  0.00000000000E+00 0.  1.
         21    1    1    2  504  501 -0.23565266441E+02 -0.21560423208E+02  0.57146629060E+01  0.32447357419E+02  0.00000000000E+00 0.  1.
         21    1    1    2  505  503 -0.37831711329E+02  0.26274951410E+02 -0.82376970090E+02  0.94379958968E+02  0.00000000000E+00 0.  1.
          1    1    1    2  501    0  0.48384147234E+02 -0.10551727787E+03 -0.10793374635E+04  0.10855617356E+04  0.00000000000E+00 0.  1.
<scales pt_clust_3="14000.00000" pt_clust_4="31.94016" pt_clust_5="46.26389" pt_clust_6="81.31111"></scales>
<clustering>
<clus scale="   31.940">  1  4  2 -1</clus>
<clus scale="   46.264">  2  5  1 -1</clus>
<clus scale="   81.311">  2  6  1 -1</clus>
<clus scale="   31.940">  1  3  2 -1</clus>
</clustering>
</event>
<event>
 6    0  0.4340992E+002  0.1164813E+03  0.7546771E-02  0.1249017E+00
          2   -1    0    0  504    0 -0.00000000000E+00  0.00000000000E+00  0.13328721215E+04  0.13328721215E+04  0.00000000000E+00 0.  1.
         21   -1    0    0  501  502  0.00000000000E+00 -0.00000000000E+00 -0.20088667119E+03  0.20088667119E+03  0.00000000000E+00 0. -1.
         21    1    1    2  503  505 -0.29156460102E+02 -0.62167969102E+02  0.27954398939E+02  0.74137736464E+02  0.00000000000E+00 0. -1.
         21    1    1    2  504  503  0.20375310939E+02 -0.71215856771E+02  0.15891541686E+03  0.17533100486E+03  0.00000000000E+00 0. -1.
         21    1    1    2  505  502  0.35516912316E+02 -0.30501899660E+01 -0.16332216291E+03  0.16716723249E+03  0.00000000000E+00 0. -1.
          2    1    1    2  501    0 -0.26735763153E+02  0.13643401584E+03  0.11084377974E+04  0.11171228189E+04  0.00000000000E+00 0.  1.
<scales pt_clust_3="64.43787" pt_clust_4="14000.00000" pt_clust_5="35.64765" pt_clust_6="116.48126"></scales>
<clustering>
<clus scale="   35.648">  2  5  1 -1</clus>
<clus scale="   64.438">  2  3  1 -1</clus>
<clus scale="  116.481">  1  6  2 -1</clus>
<clus scale="   35.648">  2  3  1 -1</clus>
</clustering>
</event>
<event>
 6    0  0.4340992E+002  0.1361794E+03  0.7546771E-02  0.1218564E+00
         21   -1    0    0  504  502  0.00000000000E+00  0.00000000000E+00  0.25062899994E+03  0.25062899994E+03  0.00000000000E+00 0.  1.
          2   -1    0    0  505    0 -0.00000000000E+00 -0.00000000000E+00 -0.29442499763E+04  0.29442499763E+04  0.00000000000E+00 0. -1.
         21    1    1    2  503  502 -0.82307271556E+02  0.19438804174E+03  0.15019656501E+03  0.25907567594E+03  0.00000000000E+00 0.  1.
         21    1    1    2  504  501  0.78958479334E+01 -0.81389803413E+02 -0.10290201598E+01  0.81778379763E+02  0.00000000000E+00 0.  1.
         21    1    1    2  505  503  0.33489297601E+02 -0.12378605857E+03 -0.75539256653E+03  0.76620000712E+03  0.00000000000E+00 0.  1.
          2    1    1    2  501    0  0.40922126022E+02  0.10787820248E+02 -0.20873959547E+04  0.20878249134E+04  0.00000000000E+00 0. -1.
<scales pt_clust_3="14000.00000" pt_clust_4="81.46894" pt_clust_5="136.17943" pt_clust_6="42.32018"></scales>
<clustering>
<clus scale="   42.320">  2  6  1 -1</clus>
<clus scale="   81.469">  1  4  2 -1</clus>
<clus scale="  136.179">  2  5  1 -1</clus>
<clus scale="   81.469">  1  3  2 -1</clus>
</clustering>
</event>
<event>
 6    0  0.4340992E+002  0.1884907E+03  0.7546771E-02  0.1159830E+00
          4   -1    0    0  504    0 -0.00000000000E+00  0.00000000000E+00  0.23306913292E+03  0.23306913292E+03  0.00000000000E+00 0.  1.
         21   -1    0    0  505  502  0.00000000000E+00 -0.00000000000E+00 -0.50258602980E+03  0.50258602980E+03  0.00000000000E+00 0.  1.
         21    1    1    2  503  501  0.40978311244E+02  0.19512868049E+02  0.81736357926E+01  0.46117050360E+02  0.00000000000E+00 0.  1.
         21    1    1    2  504  502 -0.16759736423E+02 -0.20500701060E+03 -0.18922528505E+03  0.27949055738E+03  0.00000000000E+00 0.  1.
         21    1    1    2  505  503 -0.76297369859E+02  0.62053472979E+02 -0.20826685700E+03  0.23031935629E+03  0.00000000000E+00 0.  1.
          4    1    1    2  501    0  0.52078795039E+02  0.12344066958E+03  0.11980160938E+03  0.17972819870E+03  0.00000000000E+00 0.  1.
<scales pt_clust_3="43.29460" pt_clust_4="173.19259" pt_clust_5="98.34593" pt_clust_6="43.29460"></scales>
<clustering>
<clus scale="   43.295">  3  6 -1 -1</clus>
<clus scale="   98.346">  2  5  1 -1</clus>
<clus scale="  173.193">  2  4  1 -1</clus>
<clus scale="   98.346">  2  3  1 -1</clus>
</clustering>
</event>
<event>
 6    0  0.4340992E+002  0.3019068E+03  0.7546771E-02  0.1084291E+00
          2   -1    0    0  503    0 -0.00000000000E+00  0.00000000000E+00  0.18076108345E+04  0.18076108345E+04  0.00000000000E+00 0.  1.
         21   -1    0    0  505  502  0.00000000000E+00 -0.00000000000E+00 -0.10024581229E+04  0.10024581229E+04  0.00000000000E+00 0. -1.
         21    1    1    2  503  504 -0.12609821915E+03  0.27602810500E+01  0.12775264558E+03  0.17952470158E+03  0.00000000000E+00 0.  1.
         21    1    1    2  504  502  0.15987598133E+03 -0.23748636811E+03 -0.43725847830E+03  0.52264240288E+03  0.00000000000E+00 0. -1.
         21    1    1    2  505  501  0.46644888814E+02  0.11679745149E+02 -0.48670798075E+03  0.48907752005E+03  0.00000000000E+00 0. -1.
          2    1    1    2  501    0 -0.80422650988E+02  0.22304634192E+03  0.16013665251E+04  0.16188243330E+04  0.00000000000E+00 0.  1.
<scales pt_clust_3="123.79695" pt_clust_4="301.90680" pt_clust_5="48.08495" pt_clust_6="14000.00000"></scales>
<clustering>
<clus scale="   48.085">  2  5  1 -1</clus>
<clus scale="  123.797">  1  3  2 -1</clus>
<clus scale="  301.907">  2  4  1 -1</clus>
<clus scale="   48.085">  2  3  1 -1</clus>
</clustering>
</event>
<event>
 6    0  0.4340992E+002  0.7718384E+02  0.7546771E-02  0.1337239E+00
          1   -1    0    0  505    0 -0.00000000000E+00  0.00000000000E+00  0.57432143165E+03  0.57432143165E+03  0.00000000000E+00 0.  1.
         21   -1    0    0  501  502  0.00000000000E+00 -0.00000000000E+00 -0.14981665778E+03  0.14981665778E+03  0.00000000000E+00 0.  1.
         21    1    1    2  503  504  0.90717663402E+02  0.36658598495E+02  0.73113185706E+02  0.12214370725E+03  0.00000000000E+00 0. -1.
         21    1    1    2  504  502 -0.71862968664E+02  0.29436511999E+02 -0.10511349174E+03  0.13068909920E+03  0.00000000000E+00 0.  1.
         21    1    1    2  505  503  0.25387148785E+02 -0.32291207798E+02  0.72859555887E+02  0.83640566166E+02  0.00000000000E+00 0. -1.
          1    1    1    2  501    0 -0.44241843523E+02 -0.33803902696E+02  0.38364552402E+03  0.38766471681E+03  0.00000000000E+00 0.  1.
<scales pt_clust_3="77.18384" pt_clust_4="14000.00000" pt_clust_5="41.07590" pt_clust_6="63.80149"></scales>
<clustering>
<clus scale="   41.076">  1  5  2 -1</clus>
<clus scale="   63.801">  1  6  2 -1</clus>
<clus scale="   77.184">  1  3  2 -1</clus>
<clus scale="   77.184">  2  3  1 -1</clus>
</clustering>
</event>
<event>
 6    0  0.4340992E+002  0.1083208E+03  0.7546771E-02  0.1263711E+00
         21   -1    0    0  505  502  0.00000000000E+00  0.00000000000E+00  0.45827863533E+02  0.45827863533E+02  0.00000000000E+00 0.  1.
          2   -1    0    0  504    0 -0.00000000000E+00 -0.00000000000E+00 -0.10378591504E+04  0.10378591504E+04  0.00000000000E+00 0.  1.
         21    1    1    2  503  501  0.84209535649E+02 -0.12075402940E+02 -0.29169404189E+03  0.30384613759E+03  0.00000000000E+00 0.  1.
         21    1    1    2  504  502 -0.65092699946E+02  0.28915376645E+02 -0.32476792603E+03  0.33248663788E+03  0.00000000000E+00 0.  1.
         21    1    1    2  505  503 -0.66471106978E+02  0.20075739278E+02 -0.24974771244E+01  0.69481513818E+02  0.00000000000E+00 0.  1.
          2    1    1    2  501    0  0.47354271276E+02 -0.36915712983E+02 -0.37307184184E+03  0.37787272467E+03  0.00000000000E+00 0.  1.
<scales pt_clust_3="46.90976" pt_clust_4="92.82044" pt_clust_5="69.43661" pt_clust_6="46.90976"></scales>
<clustering>
<clus scale="   46.910">  3  6 -1 -1</clus>
<clus scale="   69.437">  1  5  2 -1</clus>
<clus scale="   92.820">  2  4  1 -1</clus>
<clus scale="   69.437">  1  3  2 -1</clus>
</clustering>
</event>
<event>
 6    0  0.4340992E+002  0.2554205E+03  0.7546771E-02  0.1109926E+00
          2   -1    0    0  504    0 -0.00000000000E+00  0.00000000000E+00  0.19322837067E+04  0.19322837067E+04  0.00000000000E+00 0. -1.
         21   -1    0    0  505  502  0.00000000000E+00 -0.00000000000E+00 -0.55460968984E+02  0.55460968984E+02  0.00000000000E+00 0. -1.
         21    1    1    2  503  502  0.16539164261E+03 -0.18188438062E+03  0.43432387410E+03  0.49907269107E+03  0.00000000000E+00 0. -1.
         21    1    1    2  504  503 -0.62935921558E+01 -0.49385135893E+02  0.28410616652E+03  0.28843511368E+03  0.00000000000E+00 0. -1.
         21    1    1    2  505  501 -0.18043933337E+03  0.20765515642E+03  0.93637936820E+03  0.97595355331E+03  0.00000000000E+00 0. -1.
          2    1    1    2  501    0  0.21341282925E+02  0.23614360098E+02  0.22201332894E+03  0.22428331768E+03  0.00000000000E+00 0. -1.
<scales pt_clust_3="14000.00000" pt_clust_4="45.51116" pt_clust_5="255.42047" pt_clust_6="31.82905"></scales>
<clustering>
<clus scale="   31.829">  1  6  2 -1</clus>
<clus scale="   45.511">  1  4  2 -1</clus>
<clus scale="  255.420">  1  5  2 -1</clus>
<clus scale="  255.420">  2  3  1 -1</clus>
</clustering>
</event>
<event>
 6    0  0.4340992E+002  0.1312809E+03  0.7546771E-02  0.1225567E+00
         21   -1    0    0  503  502  0.00000000000E+00  0.00000000000E+00  0.61266079979E+03  0.61266079979E+03  0.00000000000E+00 0. -1.
          2   -1    0    0  502    0 -0.00000000000E+00 -0.00000000000E+00 -0.96582090440E+02  0.96582090440E+02  0.00000000000E+00 0. -1.
         21    1    1    2  503  504 -0.58666098847E+02 -0.83813508625E+02  0.30676724272E+03  0.32337680280E+03  0.00000000000E+00 0. -1.
         21    1    1    2  504  505  0.38524354434E+02  0.13094673893E+03  0.21614270945E+03  0.25563420188E+03  0.00000000000E+00 0. -1.
         21    1    1    2  505  501  0.11839006855E+02  0.37085082754E+02  0.16752526658E+02  0.42380568609E+02  0.00000000000E+00 0.  1.
          2    1    1    2  501    0  0.83027375583E+01 -0.84218313061E+02 -0.23583769479E+02  0.87851316944E+02  0.00000000000E+00 0. -1.
<scales pt_clust_3="115.90182" pt_clust_4="32.92692" pt_clust_5="32.92692" pt_clust_6="84.62659"></scales>
<clustering>
<clus scale="   32.927">  4  5 -1 -1</clus>
<clus scale="   84.627">  2  6  1 -1</clus>
<clus scale="  115.902">  1  3  2 -1</clus>
<clus scale="  115.902">  1  3  2 -1</clus>
</clustering>
</event>
<event>
 6    0  0.4340992E+002  0.8001552E+02  0.7546771E-02  0.1329007E+00
         21   -1    0    0  501  502  0.00000000000E+00  0.00000000000E+00  0.39760473054E+02  0.39760473054E+02  0.00000000000E+00 0. -1.
          2   -1    0    0  503    0 -0.00000000000E+00 -0.00000000000E+00 -0.19698710406E+04  0.19698710406E+04  0.00000000000E+00 0. -1.
         21    1    1    2  503  504 -0.28427116424E+02  0.99292450612E+01 -0.15437422064E+03  0.15728347292E+03  0.00000000000E+00 0. -1.
         21    1    1    2  504  505  0.11308676635E+03 -0.76363357209E+02 -0.96864540609E+03  0.97820953879E+03  0.00000000000E+00 0. -1.
         21    1    1    2  505  502 -0.68536895807E+02  0.36028126079E+02 -0.12060130002E+02  0.78363120735E+02  0.00000000000E+00 0. -1.
          2    1    1    2  501    0 -0.16122754114E+02  0.30405986069E+02 -0.79503081080E+03  0.79577538120E+03  0.00000000000E+00 0. -1.
<scales pt_clust_3="30.11131" pt_clust_4="80.01552" pt_clust_5="14000.00000" pt_clust_6="45.00513"></scales>
<clustering>
<clus scale="   30.111">  2  3  1 -1</clus>
<clus scale="   45.005">  2  6  1 -1</clus>
<clus scale="   80.016">  2  4  1 -1</clus>
<clus scale="   80.016">  1  3  2 -1</clus>
</clustering>
</event>
<event>
 6    0  0.4340992E+002  0.8722588E+02  0.7546771E-02  0.1309712E+00
         21   -1    0    0  505  502  0.00000000000E+00  0.00000000000E+00  0.24971160890E+03  0.24971160890E+03  0.00000000000E+00 0.  1.
          2   -1    0    0  504    0 -0.00000000000E+00 -0.00000000000E+00 -0.21126552741E+04  0.21126552741E+04  0.00000000000E+00 0.  1.
         21    1    1    2  503  502 -0.24923910389E+02 -0.49024779897E+02  0.19442041535E+03  0.20204932135E+03  0.00000000000E+00 0.  1.
         21    1    1    2  504  503 -0.33634073172E+02  0.56412058095E+02 -0.42567151376E+03  0.43070849632E+03  0.00000000000E+00 0.  1.
         21    1    1    2  505  501  0.11169816219E+03  0.42614450854E+02 -0.26109686037E+02  0.12236905885E+03  0.00000000000E+00 0.  1.
          2    1    1    2  501    0 -0.53140178632E+02 -0.50001729051E+02 -0.16055828808E+04  0.16072400065E+04  0.00000000000E+00 0.  1.
<scales pt_clust_3="54.99664" pt_clust_4="64.28239" pt_clust_5="14000.00000" pt_clust_6="87.22588"></scales>
<clustering>
<clus scale="   54.997">  1  3  2 -1</clus>
<clus scale="   64.282">  2  4  1 -1</clus>
<clus scale="   87.226">  2  6  1 -1</clus>
<clus scale="   54.997">  1  3  2 -1</clus>
</clustering>
</event>
<event>
 6    0  0.4340992E+002  0.8498219E+02  0.7546771E-02  0.1315479E+00
          2   -1    0    0  504    0 -0.00000000000E+00  0.00000000000E+00  0.34408528763E+03  0.34408528763E+03  0.00000000000E+00 0. -1.
         21   -1    0    0  501  502  0.00000000000E+00 -0.00000000000E+00 -0.20021718523E+03  0.20021718523E+03  0.00000000000E+00 0.  1.
         21    1    1    2  503  505  0.34811762302E+02  0.40165990999E+02  0.99149778000E+02  0.11249819601E+03  0.00000000000E+00 0.  1.
         21    1    1    2  504  503  0.40739370772E+02 -0.14688841003E+02  0.36712090026E+02  0.56773549607E+02  0.00000000000E+00 0. -1.
         21    1    1    2  505  502 -0.66273233374E+02  0.56706819356E+02 -0.16311485327E+03  0.18497097118E+03  0.00000000000E+00 0.  1.
          2    1    1    2  501    0 -0.92778997015E+01 -0.82183969352E+02  0.17112108764E+03  0.19005975607E+03  0.00000000000E+00 0. -1.
<scales pt_clust_3="60.43379" pt_clust_4="43.30656" pt_clust_5="14000.00000" pt_clust_6="84.98219"></scales>
<clustering>
<clus scale="   43.307">  1  4  2 -1</clus>
<clus scale="   60.434">  1  3  2 -1</clus>
<clus scale="   84.982">  1  6  2 -1</clus>
<clus scale="   84.982">  2  3  1 -1</clus>
</clustering>
</event>
<event>
 6    0  0.4340992E+002  0.1129375E+03  0.7546771E-02  0.1255225E+00
          2   -1    0    0  503    0 -0.00000000000E+00  0.00000000000E+00  0.44269772551E+03  0.44269772551E+03  0.00000000000E+00 0.  1.
         21   -1    0    0  501  502  0.00000000000E+00 -0.00000000000E+00 -0.81251989013E+02  0.81251989013E+02  0.00000000000E+00 0.  1.
         21    1    1    2  503  504 -0.39807711705E+02 -0.17289871493E+02  0.52608586973E+02  0.68200124565E+02  0.00000000000E+00 0.  1.
         21    1    1    2  504  505 -0.28378923752E+02 -0.10235117320E+03  0.22787861485E+02  0.10862970404E+03  0.00000000000E+00 0.  1.
         21    1    1    2  505  502  0.35578598024E+02 -0.87506526233E+01  0.57397587907E+01  0.37085784199E+02  0.00000000000E+00 0.  1.
          2    1    1    2  501    0  0.32608037432E+02  0.12839169731E+03  0.28030952925E+03  0.31003410173E+03  0.00000000000E+00 0.  1.
<scales pt_clust_3="40.02257" pt_clust_4="14000.00000" pt_clust_5="36.63892" pt_clust_6="112.93745"></scales>
<clustering>
<clus scale="   36.639">  2  5  1 -1</clus>
<clus scale="   40.023">  1  3  2 -1</clus>
<clus scale="  112.937">  1  6  2 -1</clus>
<clus scale="   36.639">  2  3  1 -1</clus>
</clustering>
</event>
<event>
 6    0  0.4340992E+002  0.1740677E+03  0.7546771E-02  0.1173671E+00
         -3   -1    0    0    0  501 -0.00000000000E+00  0.00000000000E+00  0.50582937762E+03  0.50582937762E+03  0.00000000000E+00 0. -1.
         21   -1    0    0  503  502  0.00000000000E+00 -0.00000000000E+00 -0.99667564349E+03  0.99667564349E+03  0.00000000000E+00 0.  1.
         21    1    1    2  503  505 -0.19769385509E+02  0.15146158869E+03 -0.92282251680E+03  0.93537844692E+03  0.00000000000E+00 0.  1.
         21    1    1    2  504  501  0.10196443859E+03 -0.33549977458E+02  0.75357857746E+02  0.13115317171E+03  0.00000000000E+00 0.  1.
         21    1    1    2  505  504  0.28629187168E+02 -0.73961211602E+02  0.24348679893E+02  0.82962337191E+02  0.00000000000E+00 0. -1.
         -3    1    1    2    0  502 -0.11082424025E+03 -0.43950399626E+02  0.33226971328E+03  0.35301106529E+03  0.00000000000E+00 0. -1.
<scales pt_clust_3="151.68675" pt_clust_4="73.39397" pt_clust_5="73.39397" pt_clust_6="119.22101"></scales>
<clustering>
<clus scale="   73.394">  4  5 -1 -1</clus>
<clus scale="  119.221">  1  6  2 -1</clus>
<clus scale="  151.687">  2  3  1 -1</clus>
<clus scale="  151.687">  2  3  1 -1</clus>
</clustering>
</event>
<event>
 6    0  0.4340992E+002  0.1238424E+03  0.7546771E-02  0.1236890E+00
          2   -1    0    0  504    0 -0.00000000000E+00  0.00000000000E+00  0.13769089054E+04  0.13769089054E+04  0.00000000000E+00 0. -1.
         21   -1    0    0  503  502  0.00000000000E+00 -0.00000000000E+00 -0.40399889184E+03  0.40399889184E+03  0.00000000000E+00 0. -1.
         21    1    1    2  503  505  0.42774635113E+01 -0.49133079590E+02 -0.38625256499E+03  0.38938849516E+03  0.00000000000E+00 0. -1.
         21    1    1    2  504  502  0.37644877639E+02 -0.62094632235E+02  0.91012364957E+02  0.11643079807E+03  0.00000000000E+00 0.  1.
         21    1    1    2  505  501 -0.34233503011E+02  0.18047785930E+02  0.31678493402E+03  0.31914001587E+03  0.00000000000E+00 0.  1.
          2    1    1    2  501    0 -0.76888381395E+01  0.93179925894E+02  0.95136527956E+03  0.95594848814E+03  0.00000000000E+00 0. -1.
<scales pt_clust_3="49.31892" pt_clust_4="108.72124" pt_clust_5="38.15216" pt_clust_6="38.15216"></scales>
<clustering>
<clus scale="   38.152">  5  6 -1 -1</clus>
<clus scale="   49.319">  2  3  1 -1</clus>
<clus scale="  108.721">  2  4  1 -1</clus>
<clus scale="   49.319">  2  3  1 -1</clus>
</clustering>
</event>
<event>
 6    0  0.4340992E+002  0.1506983E+03  0.7546771E-02  0.1199618E+00
         21   -1    0    0  503  502  0.00000000000E+00  0.00000000000E+00  0.27301233583E+03  0.27301233583E+03  0.00000000000E+00 0. -1.
          2   -1    0    0  505    0 -0.00000000000E+00 -0.00000000000E+00 -0.34087048170E+04  0.34087048170E+04  0.00000000000E+00 0.  1.
         21    1    1    2  503  501 -0.18667751477E+03  0.95933194639E+02 -0.23532393855E+03  0.31532368831E+03  0.00000000000E+00 0. -1.
         21    1    1    2  504  502  0.63112590357E+02 -0.22120035686E+02  0.22424489062E+03  0.23400484185E+03  0.00000000000E+00 0. -1.
         21    1    1    2  505  504  0.15825046551E+03 -0.53921671873E+02 -0.28476946046E+04  0.28525979944E+04  0.00000000000E+00 0.  1.
          2    1    1    2  501    0 -0.34685541101E+02 -0.19891487080E+02 -0.27691882869E+03  0.27979062833E+03  0.00000000000E+00 0.  1.
<scales pt_clust_3="14000.00000" pt_clust_4="66.83596" pt_clust_5="150.69829" pt_clust_6="39.98447"></scales>
<clustering>
<clus scale="   39.984">  2  6  1 -1</clus>
<clus scale="   66.836">  1  4  2 -1</clus>
<clus scale="  150.698">  2  5  1 -1</clus>
<clus scale="   66.836">  1  3  2 -1</clus>
</clustering>
</event>
<event>
 6    0  0.4340992E+002  0.2167374E+03  0.7546771E-02  0.1136339E+00
         -2   -1    0    0    0  501 -0.00000000000E+00  0.00000000000E+00  0.13230721466E+03  0.13230721466E+03  0.00000000000E+00 0.  1.
         21   -1    0    0  504  502  0.00000000000E+00 -0.00000000000E+00 -0.61176171748E+03  0.61176171748E+03  0.00000000000E+00 0.  1.
         21    1    1    2  503  502 -0.12182367211E+03  0.18902917553E+03 -0.24996475764E+03  0.33623714303E+03  0.00000000000E+00 0.  1.
         21    1    1    2  504  501  0.41077605358E+02 -0.15292220175E+02 -0.19149917474E+03  0.19645140770E+03  0.00000000000E+00 0. -1.
         21    1    1    2  505  503  0.43858870539E+02 -0.23777256616E+02 -0.26583034264E+02  0.56529781247E+02  0.00000000000E+00 0.  1.
         -2    1    1    2    0  505  0.36887196217E+02 -0.14995969874E+03 -0.11407536175E+02  0.15485060017E+03  0.00000000000E+00 0.  1.
<scales pt_clust_3="201.09993" pt_clust_4="43.83174" pt_clust_5="47.12442" pt_clust_6="47.12442"></scales>
<clustering>
<clus scale="   43.832">  2  4  1 -1</clus>
<clus scale="   47.124">  5  6 -1 -1</clus>
<clus scale="  201.100">  2  3  1 -1</clus>
<clus scale="   43.832">  2  3  1 -1</clus>
</clustering>
</event>
<event>
 6    0  0.4340992E+002  0.3497453E+03  0.7546771E-02  0.1062720E+00
          1   -1    0    0  503    0 -0.00000000000E+00  0.00000000000E+00  0.10531999972E+04  0.10531999972E+04  0.00000000000E+00 0.  1.
         21   -1    0    0  505  502  0.00000000000E+00 -0.00000000000E+00 -0.30912611828E+03  0.30912611828E+03  0.00000000000E+00 0.  1.
         21    1    1    2  503  504  0.28946947702E+02 -0.81648847898E+02  0.12876547751E+03  0.15519345457E+03  0.00000000000E+00 0. -1.
         21    1    1    2  504  502  0.94988339560E+02 -0.18259911921E+03  0.50812697715E+02  0.21200743676E+03  0.00000000000E+00 0. -1.
         21    1    1    2  505  501 -0.17005204291E+03  0.29454653916E+03 -0.79084094391E+02  0.34918427086E+03  0.00000000000E+00 0.  1.
          1    1    1    2  501    0  0.46116755651E+02 -0.30298572048E+02  0.64357979808E+03  0.64594095327E+03  0.00000000000E+00 0.  1.
<scales pt_clust_3="89.76715" pt_clust_4="89.76715" pt_clust_5="323.91439" pt_clust_6="55.17933"></scales>
<clustering>
<clus scale="   55.179">  1  6  2 -1</clus>
<clus scale="   89.767">  3  4 -1 -1</clus>
<clus scale="  323.914">  2  5  1 -1</clus>
<clus scale="  323.914">  2  3  1 -1</clus>
</clustering>
</event>
<event>
 6    0  0.4340992E+002  0.8677198E+02  0.7546771E-02  0.1310863E+00
         21   -1    0    0  503  502  0.00000000000E+00  0.00000000000E+00  0.55866471615E+03  0.55866471615E+03  0.00000000000E+00 0. -1.
          2   -1    0    0  505    0 -0.00000000000E+00 -0.00000000000E+00 -0.49440988312E+03  0.49440988312E+03  0.00000000000E+00 0.  1.
         21    1    1    2  503  501 -0.72520136590E+01 -0.50092362209E+02 -0.43678238438E+02  0.66855253846E+02  0.00000000000E+00 0. -1.
         21    1    1    2  504  502 -0.45277084122E+01  0.34429288880E+02  0.46495482139E+03  0.46624978500E+03  0.00000000000E+00 0. -1.
         21    1    1    2  505  504 -0.17248796742E+02  0.96789947996E+02  0.45497023575E+02  0.10833187055E+03  0.00000000000E+00 0. -1.
          2    1    1    2  501    0  0.29028518813E+02 -0.81126874668E+02 -0.40251877350E+03  0.41163768987E+03  0.00000000000E+00 0.  1.
<scales pt_clust_3="46.46712" pt_clust_4="34.72573" pt_clust_5="14000.00000" pt_clust_6="86.77198"></scales>
<clustering>
<clus scale="   34.726">  1  4  2 -1</clus>
<clus scale="   46.467">  1  3  2 -1</clus>
<clus scale="   86.772">  2  6  1 -1</clus>
<clus scale="   34.726">  1  3  2 -1</clus>
</clustering>
</event>
<event>
 6    0  0.4340992E+002  0.1420798E+03  0.7546771E-02  0.1210558E+00
         21   -1    0    0  503  502  0.00000000000E+00  0.00000000000E+00  0.13305207210E+04  0.13305207210E+04  0.00000000000E+00 0.  1.
         -2   -1    0    0    0  501 -0.00000000000E+00 -0.00000000000E+00 -0.38805712578E+02  0.38805712578E+02  0.00000000000E+00 0.  1.
         21    1    1    2  503  501 -0.50218546653E+02  0.15223058611E+03  0.89574662546E+03  0.90997696169E+03  0.00000000000E+00 0.  1.
         21    1    1    2  504  505  0.32490720255E+02 -0.37992336581E+02  0.96550397812E+02  0.10872462398E+03  0.00000000000E+00 0. -1.
         21    1    1    2  505  502 -0.31574157961E+02 -0.53869180687E+02  0.25148907937E+03  0.25912462855E+03  0.00000000000E+00 0.  1.
         -2    1    1    2    0  504  0.49301984360E+02 -0.60369068846E+02  0.47928905788E+02  0.91500219372E+02  0.00000000000E+00 0.  1.
<scales pt_clust_3="131.66607" pt_clust_4="42.75944" pt_clust_5="62.44050" pt_clust_6="42.75944"></scales>
<clustering>
<clus scale="   42.759">  4  6 -1 -1</clus>
<clus scale="   62.441">  1  5  2 -1</clus>
<clus scale="  131.666">  1  3  2 -1</clus>
<clus scale="   62.441">  1  3  2 -1</clus>
</clustering>
</event>
<event>
 6    0  0.4340992E+002  0.1689351E+03  0.7546771E-02  0.1178963E+00
          1   -1    0    0  502    0 -0.00000000000E+00  0.00000000000E+00  0.82458950511E+03  0.82458950511E+03  0.00000000000E+00 0.  1.
         21   -1    0    0  503  502  0.00000000000E+00 -0.00000000000E+00 -0.28249516592E+03  0.28249516592E+03  0.00000000000E+00 0.  1.
         21    1    1    2  503  504  0.58023764169E+02 -0.35393087797E+02 -0.13835950572E+03  0.15415181055E+03  0.00000000000E+00 0.  1.
         21    1    1    2  504  505  0.92843121949E+02 -0.13454825789E+02 -0.11003271075E+03  0.14459624845E+03  0.00000000000E+00 0. -1.
         21    1    1    2  505  501 -0.58243117653E+02  0.24557427994E+02  0.18935596544E+03  0.19962717669E+03  0.00000000000E+00 0.  1.
          1    1    1    2  501    0 -0.92623768465E+02  0.24290485592E+02  0.60113059023E+03  0.60870943535E+03  0.00000000000E+00 0.  1.
<scales pt_clust_3="41.74002" pt_clust_4="165.98708" pt_clust_5="47.31978" pt_clust_6="47.31978"></scales>
<clustering>
<clus scale="   41.740">  3  4 -1 -1</clus>
<clus scale="   47.320">  5  6 -1 -1</clus>
<clus scale="  165.987">  2  3  1 -1</clus>
<clus scale="  165.987">  2  3  1 -1</clus>
</clustering>
</event>
<event>
 6    0  0.4340992E+002  0.1935653E+03  0.7546771E-02  0.1155284E+00
          1   -1    0    0  504    0 -0.00000000000E+00  0.00000000000E+00  0.21976145039E+04  0.21976145039E+04  0.00000000000E+00 0.  1.
         21   -1    0    0  501  502  0.00000000000E+00 -0.00000000000E+00 -0.20804498768E+03  0.20804498768E+03  0.00000000000E+00 0.  1.
         21    1    1    2  503  505  0.17724004113E+03  0.45606729030E+02 -0.11984038705E+03  0.21875951243E+03  0.00000000000E+00 0.  1.
         21    1    1    2  504  503 -0.96424467806E+02  0.49124883628E+02  0.24131679344E+03  0.26447065428E+03  0.00000000000E+00 0.  1.
         21    1    1    2  505  502  0.19818960624E+02 -0.26783882465E+02 -0.14203484591E+02  0.36220250339E+02  0.00000000000E+00 0. -1.
          1    1    1    2  501    0 -0.10063453395E+03 -0.67947730193E+02  0.18822965944E+04  0.18862090745E+04  0.00000000000E+00 0.  1.
<scales pt_clust_3="193.56528" pt_clust_4="106.33318" pt_clust_5="33.31918" pt_clust_6="14000.00000"></scales>
<clustering>
<clus scale="   33.319">  2  5  1 -1</clus>
<clus scale="  106.333">  1  4  2 -1</clus>
<clus scale="  193.565">  2  3  1 -1</clus>
<clus scale="   33.319">  2  3  1 -1</clus>
</clustering>
</event>
<event>
 6    0  0.4340992E+002  0.2140772E+03  0.7546771E-02  0.1138377E+00
          1   -1    0    0  503    0 -0.00000000000E+00  0.00000000000E+00  0.88268704832E+03  0.88268704832E+03  0.00000000000E+00 0. -1.
         21   -1    0    0  501  502  0.00000000000E+00 -0.00000000000E+00 -0.21997505309E+03  0.21997505309E+03  0.00000000000E+00 0. -1.
         21    1    1    2  503  504 -0.17760611497E+02  0.36087210393E+02  0.48702355890E+02  0.63163640997E+02  0.00000000000E+00 0. -1.
         21    1    1    2  504  505  0.75466305670E+02  0.16162375491E+03  0.24705672588E+01  0.17839143798E+03  0.00000000000E+00 0. -1.
         21    1    1    2  505  502  0.47485986962E+02  0.21472719671E+02 -0.98041860348E+02  0.11103244133E+03  0.00000000000E+00 0. -1.
          1    1    1    2  501    0 -0.10519168114E+03 -0.21918368497E+03  0.70958093243E+03  0.75007458110E+03  0.00000000000E+00 0. -1.
<scales pt_clust_3="40.22097" pt_clust_4="214.07716" pt_clust_5="52.10586" pt_clust_6="14000.00000"></scales>
<clustering>
<clus scale="   40.221">  1  3  2 -1</clus>
<clus scale="   52.106">  2  5  1 -1</clus>
<clus scale="  214.077">  2  4  1 -1</clus>
<clus scale="   52.106">  2  3  1 -1</clus>
</clustering>
</event>
<event>
 6    0  0.4340992E+002  0.6116776E+02  0.7546771E-02  0.1392996E+00
         -2   -1    0    0    0  501 -0.00000000000E+00  0.00000000000E+00  0.15642463646E+04  0.15642463646E+04  0.00000000000E+00 0.  1.
         21   -1    0    0  505  502  0.00000000000E+00 -0.00000000000E+00 -0.65030221686E+02  0.65030221686E+02  0.00000000000E+00 0.  1.
         21    1    1    2  503  501 -0.24928999210E+02 -0.35234233997E+02  0.20732068990E+03  0.21176584878E+03  0.00000000000E+00 0.  1.
         21    1    1    2  504  503  0.10807771346E+03  0.21574985160E+02  0.30042388309E+03  0.32000122134E+03  0.00000000000E+00 0.  1.
         21    1    1    2  505  504 -0.56243410719E+02 -0.16480583870E+02 -0.36303210534E+02  0.68940945664E+02  0.00000000000E+00 0.  1.
         -2    1    1    2    0  502 -0.26905303533E+02  0.30139832707E+02  0.10277747804E+04  0.10285685705E+04  0.00000000000E+00 0.  1.
<scales pt_clust_3="42.50241" pt_clust_4="61.16776" pt_clust_5="14000.00000" pt_clust_6="40.40179"></scales>
<clustering>
<clus scale="   40.402">  1  6  2 -1</clus>
<clus scale="   42.502">  1  3  2 -1</clus>
<clus scale="   61.168">  1  4  2 -1</clus>
<clus scale="   61.168">  2  3  1 -1</clus>
</clustering>
</event>
<event>
 6    0  0.4340992E+002  0.9179494E+02  0.7546771E-02  0.1298562E+00
          1   -1    0    0  505    0 -0.00000000000E+00  0.00000000000E+00  0.21493278386E+04  0.21493278386E+04  0.00000000000E+00 0.  1.
         21   -1    0    0  503  502  0.00000000000E+00 -0.00000000000E+00 -0.14231963358E+03  0.14231963358E+03  0.00000000000E+00 0.  1.
         21    1    1    2  503  504 -0.24233104193E+02 -0.58267191173E+02  0.68712813705E+02  0.93293942319E+02  0.00000000000E+00 0.  1.
         21    1    1    2  504  501 -0.76836607279E+02  0.39807926626E+02  0.38861803991E+03  0.39813630353E+03  0.00000000000E+00 0. -1.
         21    1    1    2  505  502  0.59844144258E+02 -0.35076356052E+02 -0.11492909355E+03  0.13423996760E+03  0.00000000000E+00 0.  1.
          1    1    1    2  501    0  0.41225567214E+02  0.53535620599E+02  0.16646064450E+04  0.16659772588E+04  0.00000000000E+00 0.  1.
<scales pt_clust_3="63.10554" pt_clust_4="14000.00000" pt_clust_5="91.79494" pt_clust_6="67.24807"></scales>
<clustering>
<clus scale="   63.106">  2  3  1 -1</clus>
<clus scale="   67.248">  1  6  2 -1</clus>
<clus scale="   91.795">  2  5  1 -1</clus>
<clus scale="   63.106">  2  3  1 -1</clus>
</clustering>
</event>
<event>
 6    0  0.4340992E+002  0.1081128E+03  0.7546771E-02  0.1264105E+00
         21   -1    0    0  503  502  0.00000000000E+00  0.00000000000E+00  0.85463854238E+03  0.85463854238E+03  0.00000000000E+00 0.  1.
          1   -1    0    0  504    0 -0.00000000000E+00 -0.00000000000E+00 -0.85571971598E+03  0.85571971598E+03  0.00000000000E+00 0. -1.
         21    1    1    2  503  501  0.80400040581E+02 -0.83672612300E+02  0.78043070383E+03  0.78901036499E+03  0.00000000000E+00 0.  1.
         21    1    1    2  504  505 -0.55168580287E+02  0.10232261008E+02 -0.63895702736E+03  0.64141589801E+03  0.00000000000E+00 0. -1.
         21    1    1    2  505  502 -0.51120613751E+02  0.51034818167E+02  0.47737710562E+02  0.86583825426E+02  0.00000000000E+00 0.  1.
          1    1    1    2  501    0  0.25889153456E+02  0.22405533125E+02 -0.19029256064E+03  0.19334816993E+03  0.00000000000E+00 0. -1.
<scales pt_clust_3="108.11282" pt_clust_4="43.88527" pt_clust_5="14000.00000" pt_clust_6="34.23823"></scales>
<clustering>
<clus scale="   34.238">  2  6  1 -1</clus>
<clus scale="   43.885">  2  4  1 -1</clus>
<clus scale="  108.113">  1  3  2 -1</clus>
<clus scale="  108.113">  1  3  2 -1</clus>
</clustering>
</event>
<event>
 6    0  0.4340992E+002  0.1772861E+03  0.7546771E-02  0.1170456E+00
         -3   -1    0    0    0  501 -0.00000000000E+00  0.00000000000E+00  0.34990792810E+03  0.34990792810E+03  0.00000000000E+00 0. -1.
         21   -1    0    0  504  502  0.00000000000E+00 -0.00000000000E+00 -0.18678135299E+04  0.18678135299E+04  0.00000000000E+00 0.  1.
         21    1    1    2  503  502  0.14716016344E+03  0.16395581257E+03 -0.16668227512E+04  0.16813196324E+04  0.00000000000E+00 0.  1.
         21    1    1    2  504  501 -0.17576279689E+02 -0.58386866976E+02 -0.16516378375E+03  0.17605972653E+03  0.00000000000E+00 0.  1.
         21    1    1    2  505  503 -0.23089529661E+02 -0.30188180826E+02  0.32520485072E+02  0.50020341771E+02  0.00000000000E+00 0.  1.
         -3    1    1    2    0  505 -0.10649435409E+03 -0.75380764763E+02  0.28156044810E+03  0.31032175735E+03  0.00000000000E+00 0. -1.
<scales pt_clust_3="167.83196" pt_clust_4="60.97501" pt_clust_5="30.82910" pt_clust_6="30.82910"></scales>
<clustering>
<clus scale="   30.829">  5  6 -1 -1</clus>
<clus scale="   60.975">  2  4  1 -1</clus>
<clus scale="  167.832">  2  3  1 -1</clus>
<clus scale="   60.975">  2  3  1 -1</clus>
</clustering>
</event>
<event>
 6    0  0.4340992E+002  0.1827229E+03  0.7546771E-02  0.1165194E+00
          2   -1    0    0  505    0 -0.00000000000E+00  0.00000000000E+00  0.49839386012E+04  0.49839386012E+04  0.00000000000E+00 0. -1.
         21   -1    0    0  504  502  0.00000000000E+00 -0.00000000000E+00 -0.11569321016E+03  0.11569321016E+03  0.00000000000E+00 0.  1.
         21    1    1    2  503  502 -0.40043992425E+02  0.16283818336E+01 -0.38934016963E+02  0.55875134305E+02  0.00000000000E+00 0.  1.
         21    1    1    2  504  501  0.90090077517E+02  0.17451507192E+03  0.86783981449E+02  0.21471653833E+03  0.00000000000E+00 0.  1.
         21    1    1    2  505  503 -0.47047449316E+02 -0.19867925615E+02  0.21459712555E+03  0.22059039701E+03  0.00000000000E+00 0. -1.
          2    1    1    2  501    0 -0.29986357755E+01 -0.15627552814E+03  0.46057983010E+04  0.46084497417E+04  0.00000000000E+00 0. -1.
<scales pt_clust_3="40.07709" pt_clust_4="14000.00000" pt_clust_5="52.66683" pt_clust_6="182.72287"></scales>
<clustering>
<clus scale="   40.077">  2  3  1 -1</clus>
<clus scale="   52.667">  1  5  2 -1</clus>
<clus scale="  182.723">  1  6  2 -1</clus>
<clus scale="   40.077">  2  3  1 -1</clus>
</clustering>
</event>
<event>
 6    0  0.4340992E+002  0.1384820E+03  0.7546771E-02  0.1215386E+00
         21   -1    0    0  505  502  0.00000000000E+00  0.00000000000E+00  0.39427847375E+02  0.39427847375E+02  0.00000000000E+00 0. -1.
         -1   -1    0    0    0  501 -0.00000000000E+00 -0.00000000000E+00 -0.97770267984E+03  0.97770267984E+03  0.00000000000E+00 0. -1.
         21    1    1    2  503  502 -0.52405863412E+02  0.46124561589E+02 -0.11458402606E+03  0.13417655805E+03  0.00000000000E+00 0. -1.
         21    1    1    2  504  501  0.59291058900E+02 -0.12562875333E+03 -0.70281783292E+03  0.71641532619E+03  0.00000000000E+00 0. -1.
         21    1    1    2  505  504 -0.12311943623E+01  0.30915955918E+02  0.51399846222E+01  0.31364496040E+02  0.00000000000E+00 0. -1.
         -1    1    1    2    0  503 -0.56540011261E+01  0.48588235824E+02 -0.12601295811E+03  0.13517414694E+03  0.00000000000E+00 0. -1.
<scales pt_clust_3="40.07399" pt_clust_4="129.83001" pt_clust_5="30.94046" pt_clust_6="40.07399"></scales>
<clustering>
<clus scale="   30.940">  1  5  2 -1</clus>
<clus scale="   40.074">  3  6 -1 -1</clus>
<clus scale="  129.830">  2  4  1 -1</clus>
<clus scale="   30.940">  1  3  2 -1</clus>
</clustering>
</event>
<event>
 6    0  0.4340992E+002  0.1989833E+03  0.7546771E-02  0.1150600E+00
          2   -1    0    0  503    0 -0.00000000000E+00  0.00000000000E+00  0.22292485499E+04  0.22292485499E+04  0.00000000000E+00 0. -1.
         21   -1    0    0  505  502  0.00000000000E+00 -0.00000000000E+00 -0.33619588991E+03  0.33619588991E+03  0.00000000000E+00 0. -1.
         21    1    1    2  503  504  0.36457138050E+01  0.97475395043E+02  0.17008855911E+03  0.19607361324E+03  0.00000000000E+00 0.  1.
         21    1    1    2  504  502 -0.25462121026E+02  0.34100004873E+02 -0.14104937299E+03  0.14732975111E+03  0.00000000000E+00 0. -1.
         21    1    1    2  505  501 -0.15835217371E+03 -0.11570281969E+03 -0.11992226106E+03  0.22987801570E+03  0.00000000000E+00 0. -1.
          2    1    1    2  501    0  0.18016858093E+03 -0.15872580227E+02  0.19839357349E+04  0.19921630598E+04  0.00000000000E+00 0. -1.
<scales pt_clust_3="99.80137" pt_clust_4="42.55737" pt_clust_5="14000.00000" pt_clust_6="198.98334"></scales>
<clustering>
<clus scale="   42.557">  2  4  1 -1</clus>
<clus scale="   99.801">  1  3  2 -1</clus>
<clus scale="  198.983">  1  6  2 -1</clus>
<clus scale="   42.557">  2  3  1 -1</clus>
</clustering>
</event>
<event>
 6    0  0.4340992E+002  0.1338403E+03  0.7546771E-02  0.1221866E+00
         21   -1    0    0  504  502  0.00000000000E+00  0.00000000000E+00  0.20492498918E+03  0.20492498918E+03  0.00000000000E+00 0. -1.
          2   -1    0    0  503    0 -0.00000000000E+00 -0.00000000000E+00 -0.23469959699E+04  0.23469959699E+04  0.00000000000E+00 0. -1.
         21    1    1    2  503  505 -0.59325287575E+01  0.31718228475E+02 -0.33025025528E+03  0.33182295283E+03  0.00000000000E+00 0.  1.
         21    1    1    2  504  501  0.11899012091E+03 -0.59704519818E+02  0.15951292573E+03  0.20776826523E+03  0.00000000000E+00 0. -1.
         21    1    1    2  505  502  0.13930924728E+02  0.41011380512E+02 -0.70266234036E+01  0.43879122960E+02  0.00000000000E+00 0. -1.
          2    1    1    2  501    0 -0.12698851688E+03 -0.13025089170E+02 -0.19643070278E+04  0.19684506181E+04  0.00000000000E+00 0. -1.
<scales pt_clust_3="32.26826" pt_clust_4="14000.00000" pt_clust_5="43.66841" pt_clust_6="133.84035"></scales>
<clustering>
<clus scale="   32.268">  2  3  1 -1</clus>
<clus scale="   43.668">  1  5  2 -1</clus>
<clus scale="  133.840">  2  6  1 -1</clus>
<clus scale="   43.668">  1  3  2 -1</clus>
</clustering>
</event>
<event>
 6    0  0.4340992E+002  0.1244469E+03  0.7546771E-02  0.1235936E+00
          3   -1    0    0  505    0 -0.00000000000E+00  0.00000000000E+00  0.46828283371E+02  0.46828283371E+02  0.00000000000E+00 0.  1.
         21   -1    0    0  504  502  0.00000000000E+00 -0.00000000000E+00 -0.12066165665E+04  0.12066165665E+04  0.00000000000E+00 0.  1.
         21    1    1    2  503  502 -0.42565550377E+01 -0.42171632079E+02 -0.79954809576E+02  0.90494952275E+02  0.00000000000E+00 0. -1.
         21    1    1    2  504  501  0.65501970961E+02  0.11067735278E+03 -0.97929450562E+03  0.98770325167E+03  0.00000000000E+00 0.  1.
         21    1    1    2  505  503  0.30133174205E+02 -0.15711484483E+02 -0.43769402777E+02  0.55413171284E+02  0.00000000000E+00 0. -1.
          3    1    1    2  501    0 -0.91378590128E+02 -0.52794236218E+02 -0.56769565112E+02  0.11983347460E+03  0.00000000000E+00 0.  1.
<scales pt_clust_3="44.19251" pt_clust_4="14000.00000" pt_clust_5="33.98322" pt_clust_6="124.44694"></scales>
<clustering>
<clus scale="   33.983">  1  5  2 -1</clus>
<clus scale="   44.193">  1  3  2 -1</clus>
<clus scale="  124.447">  1  6  2 -1</clus>
<clus scale="  124.447">  2  3  1 -1</clus>
</clustering>
</event>
<event>
 6    0  0.4340992E+002  0.1337013E+03  0.7546771E-02  0.1222065E+00
         21   -1    0    0  501  502  0.00000000000E+00  0.00000000000E+00  0.56591315667E+02  0.56591315667E+02  0.00000000000E+00 0. -1.
          1   -1    0    0  503    0 -0.00000000000E+00 -0.00000000000E+00 -0.10061743855E+04  0.10061743855E+04  0.00000000000E+00 0. -1.
         21    1    1    2  503  505 -0.25265405120E+02 -0.28892679589E+02 -0.30274001680E+03  0.30516330940E+03  0.00000000000E+00 0. -1.
         21    1    1    2  504  502  0.77899500896E+02  0.11818997075E+03 -0.13860960546E+03  0.19811568376E+03  0.00000000000E+00 0. -1.
         21    1    1    2  505  504 -0.96645307718E+02 -0.84334658538E+02 -0.14511679224E+03  0.19367894445E+03  0.00000000000E+00 0. -1.
          1    1    1    2  501    0  0.44011211941E+02 -0.49626326221E+01 -0.36311665533E+03  0.36580776355E+03  0.00000000000E+00 0. -1.
<scales pt_clust_3="38.38134" pt_clust_4="133.70126" pt_clust_5="14000.00000" pt_clust_6="36.78355"></scales>
<clustering>
<clus scale="   38.381">  2  3  1 -1</clus>
<clus scale="   36.784">  2  6  1 -1</clus>
<clus scale="  133.701">  1  4  2 -1</clus>
<clus scale="  133.701">  1  3  2 -1</clus>
</clustering>
</event>
<event>
 6    0  0.4340992E+002  0.1185610E+03  0.7546771E-02  0.1245490E+00
         21   -1    0    0  505  502  0.00000000000E+00  0.00000000000E+00  0.57325079223E+02  0.57325079223E+02  0.00000000000E+00 0.  1.
          2   -1    0    0  503    0 -0.00000000000E+00 -0.00000000000E+00 -0.10938545138E+04  0.10938545138E+04  0.00000000000E+00 0.  1.
         21    1    1    2  503  504  0.44245884192E+01 -0.92708559191E+02 -0.32661981951E+03  0.33955111608E+03  0.00000000000E+00 0. -1.
         21    1    1    2  504  502 -0.57372559815E+02 -0.35454523150E+02 -0.49497758238E+02  0.83658005607E+02  0.00000000000E+00 0. -1.
         21    1    1    2  505  501  0.20304695288E+02 -0.25015727903E+02  0.14350374454E+02  0.35270391836E+02  0.00000000000E+00 0.  1.
          2    1    1    2  501    0  0.32643276107E+02  0.15317881024E+03 -0.67476223126E+03  0.69270007949E+03  0.00000000000E+00 0.  1.
<scales pt_clust_3="14000.00000" pt_clust_4="67.40179" pt_clust_5="32.21905" pt_clust_6="118.56103"></scales>
<clustering>
<clus scale="   32.219">  1  5  2 -1</clus>
<clus scale="   67.402">  1  4  2 -1</clus>
<clus scale="  118.561">  1  6  2 -1</clus>
<clus scale="   32.219">  1  3  2 -1</clus>
</clustering>
</event>
<event>
 6    0  0.4340992E+002  0.2078251E+03  0.7546771E-02  0.1143300E+00
          1   -1    0    0  503    0 -0.00000000000E+00  0.00000000000E+00  0.34392704203E+04  0.34392704203E+04  0.00000000000E+00 0.  1.
         21   -1    0    0  504  502  0.00000000000E+00 -0.00000000000E+00 -0.83077788283E+02  0.83077788283E+02  0.00000000000E+00 0.  1.
         21    1    1    2  503  505 -0.34417242914E+02 -0.79976953409E+02  0.15225944564E+04  0.15250818793E+04  0.00000000000E+00 0. -1.
         21    1    1    2  504  501  0.13248150864E+03 -0.81535586585E+02  0.28289878999E+03  0.32284845886E+03  0.00000000000E+00 0. -1.
         21    1    1    2  505  502 -0.17938612004E+03  0.18578026432E+03  0.21502397367E+03  0.33604909749E+03  0.00000000000E+00 0.  1.
          1    1    1    2  501    0  0.81321854313E+02 -0.24267724327E+02  0.13356754119E+04  0.13383687730E+04  0.00000000000E+00 0.  1.
<scales pt_clust_3="100.60400" pt_clust_4="207.82513" pt_clust_5="14000.00000" pt_clust_6="84.86558"></scales>
<clustering>
<clus scale="   84.866">  1  6  2 -1</clus>
<clus scale="  100.604">  1  3  2 -1</clus>
<clus scale="  207.825">  1  4  2 -1</clus>
<clus scale="  207.825">  2  3  1 -1</clus>
</clustering>
</event>
<event>
 6    0  0.4340992E+002  0.1081723E+03  0.7546771E-02  0.1263992E+00
          1   -1    0    0  503    0 -0.00000000000E+00  0.00000000000E+00  0.11631726966E+03  0.11631726966E+03  0.00000000000E+00 0.  1.
         21   -1    0    0  504  502  0.00000000000E+00 -0.00000000000E+00 -0.72883615692E+03  0.72883615692E+03  0.00000000000E+00 0. -1.
         21    1    1    2  503  505 -0.44161646057E+02 -0.20445266058E+02 -0.34077088512E+02  0.59409661236E+02  0.00000000000E+00 0.  1.
         21    1    1    2  504  501 -0.19244762343E+02  0.43214875456E+02 -0.24214197345E+03  0.24671972285E+03  0.00000000000E+00 0. -1.
         21    1    1    2  505  502  0.10696068942E+03  0.30008834030E+02 -0.41796677102E+03  0.43247813919E+03  0.00000000000E+00 0. -1.
          1    1    1    2  501    0 -0.43554281025E+02 -0.52778443428E+02  0.81666945722E+02  0.10654590330E+03  0.00000000000E+00 0.  1.
<scales pt_clust_3="48.81191" pt_clust_4="47.30630" pt_clust_5="14000.00000" pt_clust_6="108.17227"></scales>
<clustering>
<clus scale="   47.306">  2  4  1 -1</clus>
<clus scale="   48.812">  1  3  2 -1</clus>
<clus scale="  108.172">  1  6  2 -1</clus>
<clus scale="   47.306">  2  3  1 -1</clus>
</clustering>
</event>
<event>
 6    0  0.4340992E+002  0.9901622E+02  0.7546771E-02  0.1282378E+00
          2   -1    0    0  505    0 -0.00000000000E+00  0.00000000000E+00  0.10653962054E+04  0.10653962054E+04  0.00000000000E+00 0. -1.
         21   -1    0    0  503  502  0.00000000000E+00 -0.00000000000E+00 -0.12130781843E+03  0.12130781843E+03  0.00000000000E+00 0.  1.
         21    1    1    2  503  504 -0.28497749454E+02  0.31006441089E+02  0.31210595740E+02  0.52417767975E+02  0.00000000000E+00 0.  1.
         21    1    1    2  504  501 -0.91583907650E+02 -0.37405148298E+02 -0.16780170585E+02  0.10034107526E+03  0.00000000000E+00 0.  1.
         21    1    1    2  505  502  0.73463679453E+02  0.70987246909E+02  0.12891255756E+01  0.10216537215E+03  0.00000000000E+00 0.  1.
          2    1    1    2  501    0  0.46617977651E+02 -0.64588539700E+02  0.92836883629E+03  0.93177980848E+03  0.00000000000E+00 0. -1.
<scales pt_clust_3="42.11319" pt_clust_4="99.01622" pt_clust_5="14000.00000" pt_clust_6="79.01074"></scales>
<clustering>
<clus scale="   42.113">  2  3  1 -1</clus>
<clus scale="   79.011">  1  6  2 -1</clus>
<clus scale="   99.016">  2  4  1 -1</clus>
<clus scale="   42.113">  2  3  1 -1</clus>
</clustering>
</event>
<event>
 6    0  0.4340992E+002  0.1017089E+03  0.7546771E-02  0.1276743E+00
         21   -1    0    0  503  502  0.00000000000E+00  0.00000000000E+00  0.11104330585E+04  0.11104330585E+04  0.00000000000E+00 0. -1.
         -2   -1    0    0    0  501 -0.00000000000E+00 -0.00000000000E+00 -0.89436276412E+02  0.89436276412E+02  0.00000000000E+00 0.  1.
         21    1    1    2  503  504  0.18611567346E+02  0.32585324105E+02  0.79142901564E+03  0.79231816878E+03  0.00000000000E+00 0. -1.
         21    1    1    2  504  501 -0.53332610200E+02 -0.23417534319E+02  0.29945523184E+02  0.65494141593E+02  0.00000000000E+00 0. -1.
         21    1    1    2  505  502  0.95231018830E+02 -0.33692401241E+02  0.24334497044E+03  0.26347846114E+03  0.00000000000E+00 0. -1.
         -2    1    1    2    0  505 -0.60509975976E+02  0.24524611456E+02 -0.43722727149E+02  0.78578563419E+02  0.00000000000E+00 0.  1.
<scales pt_clust_3="37.52591" pt_clust_4="53.83635" pt_clust_5="14000.00000" pt_clust_6="101.70894"></scales>
<clustering>
<clus scale="   37.526">  1  3  2 -1</clus>
<clus scale="   53.836">  2  4  1 -1</clus>
<clus scale="  101.709">  2  6  1 -1</clus>
<clus scale="   37.526">  1  3  2 -1</clus>
</clustering>
</event>
<event>
 6    0  0.4340992E+002  0.6832486E+02  0.7546771E-02  0.1365884E+00
          2   -1    0    0  502    0 -0.00000000000E+00  0.00000000000E+00  0.27659496262E+03  0.27659496262E+03  0.00000000000E+00 0.  1.
         21   -1    0    0  503  502  0.00000000000E+00 -0.00000000000E+00 -0.73808243773E+03  0.73808243773E+03  0.00000000000E+00 0.  1.
         21    1    1    2  503  505 -0.22612077950E+00  0.63839478914E+02 -0.54198639780E+03  0.54573325499E+03  0.00000000000E+00 0.  1.
         21    1    1    2  504  501  0.35474557437E+02  0.33658125297E+02  0.75052530407E+01  0.49473654070E+02  0.00000000000E+00 0.  1.
         21    1    1    2  505  504 -0.55479169025E+01 -0.11231657297E+03 -0.15365226364E+03  0.19040695908E+03  0.00000000000E+00 0.  1.
          2    1    1    2  501    0 -0.29700519755E+02  0.14818968757E+02  0.22664593330E+03  0.22906353221E+03  0.00000000000E+00 0.  1.
<scales pt_clust_3="14000.00000" pt_clust_4="46.03377" pt_clust_5="68.32486" pt_clust_6="33.19221"></scales>
<clustering>
<clus scale="   33.192">  1  6  2 -1</clus>
<clus scale="   46.034">  1  4  2 -1</clus>
<clus scale="   68.325">  1  5  2 -1</clus>
<clus scale="   68.325">  2  3  1 -1</clus>
</clustering>
</event>
<event>
 6    0  0.4340992E+002  0.1707840E+03  0.7546771E-02  0.1177033E+00
         -1   -1    0    0    0  501 -0.00000000000E+00  0.00000000000E+00  0.27858277829E+03  0.27858277829E+03  0.00000000000E+00 0.  1.
         21   -1    0    0  504  502  0.00000000000E+00 -0.00000000000E+00 -0.19638149463E+03  0.19638149463E+03  0.00000000000E+00 0.  1.
         21    1    1    2  503  502  0.14041460729E+03  0.11093317507E+03 -0.32428343934E+02  0.18186266457E+03  0.00000000000E+00 0.  1.
         21    1    1    2  504  501 -0.10020369599E+02 -0.30483901618E+02 -0.50307764179E+02  0.59670320943E+02  0.00000000000E+00 0.  1.
         21    1    1    2  505  503 -0.86536091009E+02 -0.31304399225E+02  0.61090373714E+02  0.11045584737E+03  0.00000000000E+00 0.  1.
         -1    1    1    2    0  505 -0.43858146687E+02 -0.49144874227E+02  0.10384701806E+03  0.12297544005E+03  0.00000000000E+00 0.  1.
<scales pt_clust_3="159.23600" pt_clust_4="32.08857" pt_clust_5="52.01868" pt_clust_6="52.01868"></scales>
<clustering>
<clus scale="   32.089">  2  4  1 -1</clus>
<clus scale="   52.019">  5  6 -1 -1</clus>
<clus scale="  159.236">  2  3  1 -1</clus>
<clus scale="   32.089">  2  3  1 -1</clus>
</clustering>
</event>
<event>
 6    0  0.4340992E+002  0.8971193E+02  0.7546771E-02  0.1303551E+00
         21   -1    0    0  504  502  0.00000000000E+00  0.00000000000E+00  0.32221971116E+03  0.32221971116E+03  0.00000000000E+00 0. -1.
          4   -1    0    0  505    0 -0.00000000000E+00 -0.00000000000E+00 -0.16566348912E+04  0.16566348912E+04  0.00000000000E+00 0.  1.
         21    1    1    2  503  501  0.80971636604E+02  0.64379562365E+02  0.24350595401E+02  0.10627363493E+03  0.00000000000E+00 0.  1.
         21    1    1    2  504  503  0.16282301338E+02 -0.74865219328E+02  0.24848882900E+03  0.26003194523E+03  0.00000000000E+00 0. -1.
         21    1    1    2  505  502 -0.51357483105E+02 -0.12691601490E+02 -0.32611415758E+03  0.33037722620E+03  0.00000000000E+00 0. -1.
          4    1    1    2  501    0 -0.45896454836E+02  0.23177258452E+02 -0.12811404469E+04  0.12821717960E+04  0.00000000000E+00 0.  1.
<scales pt_clust_3="14000.00000" pt_clust_4="76.11913" pt_clust_5="89.71193" pt_clust_6="51.41663"></scales>
<clustering>
<clus scale="   51.417">  2  6  1 -1</clus>
<clus scale="   76.119">  1  4  2 -1</clus>
<clus scale="   89.712">  2  5  1 -1</clus>
<clus scale="   76.119">  1  3  2 -1</clus>
</clustering>
</event>
<event>
 6    0  0.4340992E+002  0.8542705E+02  0.7546771E-02  0.1314320E+00
         21   -1    0    0  501  502  0.00000000000E+00  0.00000000000E+00  0.22816054613E+03  0.22816054613E+03  0.00000000000E+00 0. -1.
          2   -1    0    0  505    0 -0.00000000000E+00 -0.00000000000E+00 -0.22970274027E+04  0.22970274027E+04  0.00000000000E+00 0. -1.
         21    1    1    2  503  502  0.82135238898E+02 -0.22799570192E+02  0.21151341874E+03  0.22804373304E+03  0.00000000000E+00 0. -1.
         21    1    1    2  504  503  0.48475314477E+02 -0.20292807986E+01 -0.13025239096E+03  0.13899517777E+03  0.00000000000E+00 0.  1.
         21    1    1    2  505  504  0.65158400222E+01  0.30876370100E+02 -0.14826523965E+03  0.15158623846E+03  0.00000000000E+00 0.  1.
          2    1    1    2  501    0 -0.13712639340E+03 -0.60475191097E+01 -0.20018626447E+04  0.20065627996E+04  0.00000000000E+00 0. -1.
<scales pt_clust_3="85.42705" pt_clust_4="48.88395" pt_clust_5="31.55640" pt_clust_6="14000.00000"></scales>
<clustering>
<clus scale="   31.556">  2  5  1 -1</clus>
<clus scale="   48.884">  2  4  1 -1</clus>
<clus scale="   85.427">  1  3  2 -1</clus>
<clus scale="   85.427">  1  3  2 -1</clus>
</clustering>
</event>
<event>
 6    0  0.4340992E+002  0.2011206E+03  0.7546771E-02  0.1148797E+00
         21   -1    0    0  505  502  0.00000000000E+00  0.00000000000E+00  0.19737751333E+03  0.19737751333E+03  0.00000000000E+00 0. -1.
         -1   -1    0    0    0  501 -0.00000000000E+00 -0.00000000000E+00 -0.89172481327E+03  0.89172481327E+03  0.00000000000E+00 0.  1.
         21    1    1    2  503  502 -0.18219338035E+03  0.10123143611E+03  0.10373730400E+03  0.23281679437E+03  0.00000000000E+00 0. -1.
         21    1    1    2  504  501  0.27711665840E+02 -0.36464614326E+02 -0.67740944802E+02  0.81770655643E+02  0.00000000000E+00 0.  1.
         21    1    1    2  505  504  0.24587095519E+02 -0.49732542477E+02 -0.32023378795E+02  0.64057379253E+02  0.00000000000E+00 0.  1.
         -1    1    1    2    0  503  0.12989461899E+03 -0.15034279307E+02 -0.69832028033E+03  0.71045749734E+03  0.00000000000E+00 0.  1.
<scales pt_clust_3="14000.00000" pt_clust_4="30.78218" pt_clust_5="106.36210" pt_clust_6="201.12061"></scales>
<clustering>
<clus scale="   30.782">  4  5 -1 -1</clus>
<clus scale="  106.362">  2  4  1 -1</clus>
<clus scale="  201.121">  2  6  1 -1</clus>
<clus scale="  201.121">  1  3  2 -1</clus>
</clustering>
</event>
<event>
 6    0  0.4340992E+002  0.1063980E+03  0.7546771E-02  0.1267389E+00
         21   -1    0    0  505  502  0.00000000000E+00  0.00000000000E+00  0.72169481183E+02  0.72169481183E+02  0.00000000000E+00 0.  1.
          2   -1    0    0  504    0 -0.00000000000E+00 -0.00000000000E+00 -0.22485011794E+04  0.22485011794E+04  0.00000000000E+00 0. -1.
         21    1    1    2  503  502  0.35871424648E+02 -0.28006197207E+02 -0.39800157676E+02  0.60457908824E+02  0.00000000000E+00 0.  1.
         21    1    1    2  504  503 -0.74589010857E+02 -0.27782444268E+02 -0.10195405969E+04  0.10226428573E+04  0.00000000000E+00 0. -1.
         21    1    1    2  505  501 -0.10980970984E+02  0.13393331788E+03 -0.19045473149E+02  0.13572562547E+03  0.00000000000E+00 0.  1.
          2    1    1    2  501    0  0.49698557193E+02 -0.78144676408E+02 -0.10979454705E+04  0.11018442690E+04  0.00000000000E+00 0. -1.
<scales pt_clust_3="45.50941" pt_clust_4="79.00315" pt_clust_5="106.39802" pt_clust_6="14000.00000"></scales>
<clustering>
<clus scale="   45.509">  1  3  2 -1</clus>
<clus scale="   79.003">  2  4  1 -1</clus>
<clus scale="  106.398">  1  5  2 -1</clus>
<clus scale="   45.509">  1  3  2 -1</clus>
</clustering>
</event>
<event>
 6    0  0.4340992E+002  0.9601930E+02  0.7546771E-02  0.1288897E+00
         21   -1    0    0  501  502  0.00000000000E+00  0.00000000000E+00  0.53954534967E+02  0.53954534967E+02  0.00000000000E+00 0. -1.
          2   -1    0    0  505    0 -0.00000000000E+00 -0.00000000000E+00 -0.90300344906E+03  0.90300344906E+03  0.00000000000E+00 0. -1.
         21    1    1    2  503  502  0.86222389845E+02  0.37974811258E+02 -0.14750882553E+02  0.95362337098E+02  0.00000000000E+00 0. -1.
         21    1    1    2  504  503 -0.10574656352E+03 -0.42484725946E+02 -0.53975175714E+03  0.55165138174E+03  0.00000000000E+00 0. -1.
         21    1    1    2  505  504  0.52678616167E+02 -0.18178047607E+02 -0.18757059361E+03  0.19567372232E+03  0.00000000000E+00 0.  1.
          2    1    1    2  501    0 -0.33154442492E+02  0.22687962295E+02 -0.10697568079E+03  0.11427054288E+03  0.00000000000E+00 0. -1.
<scales pt_clust_3="14000.00000" pt_clust_4="96.01930" pt_clust_5="46.42911" pt_clust_6="40.17413"></scales>
<clustering>
<clus scale="   40.174">  2  6  1 -1</clus>
<clus scale="   46.429">  2  5  1 -1</clus>
<clus scale="   96.019">  2  4  1 -1</clus>
<clus scale="   96.019">  1  3  2 -1</clus>
</clustering>
</event>
<event>
 6    0  0.4340992E+002  0.1152986E+03  0.7546771E-02  0.1251061E+00
          2   -1    0    0  505    0 -0.00000000000E+00  0.00000000000E+00  0.14328982891E+04  0.14328982891E+04  0.00000000000E+00 0. -1.
         21   -1    0    0  501  502  0.00000000000E+00 -0.00000000000E+00 -0.12912343062E+03  0.12912343062E+03  0.00000000000E+00 0. -1.
         21    1    1    2  503  504  0.20309700848E+01 -0.46620181305E+02  0.47220921819E+01  0.46902710998E+02  0.00000000000E+00 0. -1.
         21    1    1    2  504  502  0.43538196046E+02  0.86831312067E+01 -0.90124992283E+02  0.10046634022E+03  0.00000000000E+00 0. -1.
         21    1    1    2  505  503  0.42607681759E+02  0.11450440192E+03  0.39039513011E+03  0.40906604628E+03  0.00000000000E+00 0. -1.
          2    1    1    2  501    0 -0.88176847890E+02 -0.76567351821E+02  0.99878262847E+03  0.10055866222E+04  0.00000000000E+00 0. -1.
<scales pt_clust_3="50.48945" pt_clust_4="44.39562" pt_clust_5="115.29858" pt_clust_6="14000.00000"></scales>
<clustering>
<clus scale="   44.396">  2  4  1 -1</clus>
<clus scale="   50.489">  2  3  1 -1</clus>
<clus scale="  115.299">  2  5  1 -1</clus>
<clus scale="   44.396">  2  3  1 -1</clus>
</clustering>
</event>
<event>
 6    0  0.4340992E+002  0.1045883E+03  0.7546771E-02  0.1270933E+00
          1   -1    0    0  503    0 -0.00000000000E+00  0.00000000000E+00  0.20999340055E+03  0.20999340055E+03  0.00000000000E+00 0.  1.
         21   -1    0    0  505  502  0.00000000000E+00 -0.00000000000E+00 -0.12465290927E+04  0.12465290927E+04  0.00000000000E+00 0.  1.
         21    1    1    2  503  502 -0.46610497933E+02 -0.97145448580E+02 -0.66086000392E+02  0.12640069678E+03  0.00000000000E+00 0.  1.
         21    1    1    2  504  501 -0.71583633417E+02  0.38786314562E+02 -0.80963316687E+03  0.81371644918E+03  0.00000000000E+00 0.  1.
         21    1    1    2  505  504  0.56115719129E+01  0.49595491190E+02 -0.31853915933E+03  0.32242580312E+03  0.00000000000E+00 0.  1.
          1    1    1    2  501    0  0.11258255944E+03  0.87636428274E+01  0.15772263447E+03  0.19397954415E+03  0.00000000000E+00 0.  1.
<scales pt_clust_3="102.86331" pt_clust_4="104.58827" pt_clust_5="49.91195" pt_clust_6="14000.00000"></scales>
<clustering>
<clus scale="   49.912">  2  5  1 -1</clus>
<clus scale="  102.863">  1  3  2 -1</clus>
<clus scale="  104.588">  2  4  1 -1</clus>
<clus scale="   49.912">  2  3  1 -1</clus>
</clustering>
</event>
<event>
 6    0  0.4340992E+002  0.1827226E+03  0.7546771E-02  0.1165194E+00
         21   -1    0    0  504  502  0.00000000000E+00  0.00000000000E+00  0.19807884639E+04  0.19807884639E+04  0.00000000000E+00 0.  1.
          2   -1    0    0  505    0 -0.00000000000E+00 -0.00000000000E+00 -0.68502113174E+03  0.68502113174E+03  0.00000000000E+00 0.  1.
         21    1    1    2  503  501 -0.58819365581E+02  0.10469167953E+03 -0.66633608124E+02  0.13733209116E+03  0.00000000000E+00 0. -1.
         21    1    1    2  504  503  0.39278647043E+02 -0.38765184732E+02  0.14859108002E+04  0.14869352568E+04  0.00000000000E+00 0.  1.
         21    1    1    2  505  502  0.40522870168E+02 -0.14786733856E+03  0.44298519352E+03  0.46876724981E+03  0.00000000000E+00 0. -1.
          2    1    1    2  501    0 -0.20982151630E+02  0.81940843763E+02 -0.56649505347E+03  0.57277499786E+03  0.00000000000E+00 0.  1.
<scales pt_clust_3="14000.00000" pt_clust_4="55.18652" pt_clust_5="182.72259" pt_clust_6="84.28437"></scales>
<clustering>
<clus scale="   55.187">  1  4  2 -1</clus>
<clus scale="   84.284">  2  6  1 -1</clus>
<clus scale="  182.723">  1  5  2 -1</clus>
<clus scale="   55.187">  1  3  2 -1</clus>
</clustering>
</event>
<event>
 6    0  0.4340992E+002  0.2453643E+03  0.7546771E-02  0.1116270E+00
          4   -1    0    0  504    0 -0.00000000000E+00  0.00000000000E+00  0.16186107841E+04  0.16186107841E+04  0.00000000000E+00 0.  1.
         21   -1    0    0  505  502  0.00000000000E+00 -0.00000000000E+00 -0.84296125962E+02  0.84296125962E+02  0.00000000000E+00 0. -1.
         21    1    1    2  503  501 -0.94484708619E+02 -0.93050260914E+01  0.47243402867E+03  0.48187950269E+03  0.00000000000E+00 0.  1.
         21    1    1    2  504  502  0.21932338193E+03  0.10489517502E+03  0.16562127644E+03  0.29417027521E+03  0.00000000000E+00 0. -1.
         21    1    1    2  505  503 -0.44477797473E+02  0.28011233464E+02  0.69945574174E+02  0.87494497054E+02  0.00000000000E+00 0. -1.
          4    1    1    2  501    0 -0.80360875836E+02 -0.12360138239E+03  0.82631377883E+03  0.83936263509E+03  0.00000000000E+00 0.  1.
<scales pt_clust_3="84.10691" pt_clust_4="222.49456" pt_clust_5="52.56333" pt_clust_6="84.10691"></scales>
<clustering>
<clus scale="   52.563">  2  5  1 -1</clus>
<clus scale="   84.107">  3  6 -1 -1</clus>
<clus scale="  222.495">  2  4  1 -1</clus>
<clus scale="   52.563">  2  3  1 -1</clus>
</clustering>
</event>
<event>
 6    0  0.4340992E+002  0.9683687E+02  0.7546771E-02  0.1287092E+00
          1   -1    0    0  503    0 -0.00000000000E+00  0.00000000000E+00  0.47125812203E+03  0.47125812203E+03  0.00000000000E+00 0.  1.
         21   -1    0    0  504  502  0.00000000000E+00 -0.00000000000E+00 -0.39851310754E+03  0.39851310754E+03  0.00000000000E+00 0. -1.
         21    1    1    2  503  502  0.10531951024E+03 -0.43964932339E+02  0.15014034868E+03  0.18859278569E+03  0.00000000000E+00 0.  1.
         21    1    1    2  504  505  0.68656986657E+02 -0.20393292922E+02 -0.34151033780E+03  0.34893979285E+03  0.00000000000E+00 0. -1.
         21    1    1    2  505  501 -0.10322537292E+03  0.11424259439E+02  0.91900308929E+02  0.13867825388E+03  0.00000000000E+00 0.  1.
          1    1    1    2  501    0 -0.70751123974E+02  0.52933965822E+02  0.17221469468E+03  0.19356039715E+03  0.00000000000E+00 0.  1.
<scales pt_clust_3="96.83687" pt_clust_4="71.62170" pt_clust_5="73.13256" pt_clust_6="14000.00000"></scales>
<clustering>
<clus scale="   71.622">  2  4  1 -1</clus>
<clus scale="   73.133">  2  5  1 -1</clus>
<clus scale="   96.837">  2  3  1 -1</clus>
<clus scale="   71.622">  2  3  1 -1</clus>
</clustering>
</event>
<event>
 6    0  0.4340992E+002  0.4347096E+03  0.7546771E-02  0.1032382E+00
         21   -1    0    0  504  502  0.00000000000E+00  0.00000000000E+00  0.17142221233E+03  0.17142221233E+03  0.00000000000E+00 0.  1.
          2   -1    0    0  505    0 -0.00000000000E+00 -0.00000000000E+00 -0.35562732741E+04  0.35562732741E+04  0.00000000000E+00 0.  1.
         21    1    1    2  503  502 -0.25748564955E+03 -0.20472130427E+03 -0.31556467876E+03  0.45584069435E+03  0.00000000000E+00 0.  1.
         21    1    1    2  504  501 -0.20240414699E+02  0.48436576013E+02 -0.25558789348E+01  0.52557671183E+02  0.00000000000E+00 0.  1.
         21    1    1    2  505  503 -0.19894441296E+03  0.30574168766E+03 -0.59753220386E+03  0.70007256315E+03  0.00000000000E+00 0.  1.
          2    1    1    2  501    0  0.47667047721E+03 -0.14945695940E+03 -0.24691983002E+04  0.25192245577E+04  0.00000000000E+00 0.  1.
<scales pt_clust_3="323.00938" pt_clust_4="52.49549" pt_clust_5="434.70960" pt_clust_6="14000.00000"></scales>
<clustering>
<clus scale="   52.495">  1  4  2 -1</clus>
<clus scale="  323.009">  1  3  2 -1</clus>
<clus scale="  434.710">  1  5  2 -1</clus>
<clus scale="   52.495">  1  3  2 -1</clus>
</clustering>
</event>
<event>
 6    0  0.4340992E+002  0.1530358E+03  0.7546771E-02  0.1196792E+00
         21   -1    0    0  503  502  0.00000000000E+00  0.00000000000E+00  0.78649947700E+03  0.78649947700E+03  0.00000000000E+00 0.  1.
          2   -1    0    0  505    0 -0.00000000000E+00 -0.00000000000E+00 -0.10508748564E+04  0.10508748564E+04  0.00000000000E+00 0. -1.
         21    1    1    2  503  504 -0.50368889439E+02  0.18319833468E+03  0.86358769144E+02  0.20870192108E+03  0.00000000000E+00 0. -1.
         21    1    1    2  504  501 -0.57272302426E+02 -0.96374592258E+02 -0.26417124476E+03  0.28697495573E+03  0.00000000000E+00 0. -1.
         21    1    1    2  505  502  0.68576863398E+02 -0.22670704265E+02  0.62350174946E+03  0.62767123449E+03  0.00000000000E+00 0.  1.
          2    1    1    2  501    0  0.39064328468E+02 -0.64153038159E+02 -0.71006465325E+03  0.71402622211E+03  0.00000000000E+00 0. -1.
<scales pt_clust_3="153.03577" pt_clust_4="14000.00000" pt_clust_5="72.22705" pt_clust_6="75.79039"></scales>
<clustering>
<clus scale="   72.227">  1  5  2 -1</clus>
<clus scale="   75.790">  2  6  1 -1</clus>
<clus scale="  153.036">  1  3  2 -1</clus>
<clus scale="   72.227">  1  3  2 -1</clus>
</clustering>
</event>
<event>
 6    0  0.4340992E+002  0.9584953E+02  0.7546771E-02  0.1289274E+00
          1   -1    0    0  505    0 -0.00000000000E+00  0.00000000000E+00  0.78231185523E+03  0.78231185523E+03  0.00000000000E+00 0. -1.
         21   -1    0    0  504  502  0.00000000000E+00 -0.00000000000E+00 -0.37419982090E+03  0.37419982090E+03  0.00000000000E+00 0. -1.
         21    1    1    2  503  501 -0.66337605998E+02  0.15643429823E+01  0.48820758091E+01  0.66535402627E+02  0.00000000000E+00 0. -1.
         21    1    1    2  504  503 -0.22772098339E+02  0.47033679800E+02 -0.31323814658E+03  0.31756711412E+03  0.00000000000E+00 0. -1.
         21    1    1    2  505  502  0.13525883913E+03 -0.51075548510E+02  0.16654224731E+03  0.22054474684E+03  0.00000000000E+00 0. -1.
          1    1    1    2  501    0 -0.46149134795E+02  0.24775257269E+01  0.54992585778E+03  0.55186441255E+03  0.00000000000E+00 0. -1.
<scales pt_clust_3="14000.00000" pt_clust_4="52.46676" pt_clust_5="95.84953" pt_clust_6="46.21559"></scales>
<clustering>
<clus scale="   46.216">  1  6  2 -1</clus>
<clus scale="   52.467">  2  4  1 -1</clus>
<clus scale="   95.850">  1  5  2 -1</clus>
<clus scale="   52.467">  2  3  1 -1</clus>
</clustering>
</event>
<event>
 6    0  0.4340992E+002  0.8412592E+02  0.7546771E-02  0.1317734E+00
          2   -1    0    0  503    0 -0.00000000000E+00  0.00000000000E+00  0.21629441569E+04  0.21629441569E+04  0.00000000000E+00 0.  1.
         21   -1    0    0  501  502  0.00000000000E+00 -0.00000000000E+00 -0.97739347843E+02  0.97739347843E+02  0.00000000000E+00 0.  1.
         21    1    1    2  503  504 -0.33246789004E+01 -0.30056857936E+02  0.95487787053E+02  0.10016179748E+03  0.00000000000E+00 0.  1.
         21    1    1    2  504  505  0.93068241327E+02 -0.46944406740E+02 -0.34885164762E+02  0.10992019645E+03  0.00000000000E+00 0.  1.
         21    1    1    2  505  502 -0.32762372794E+02 -0.10011042580E+02 -0.81092396010E+01  0.35204457268E+02  0.00000000000E+00 0. -1.
          2    1    1    2  501    0 -0.56981189633E+02  0.87012307256E+02  0.20127114263E+04  0.20153970535E+04  0.00000000000E+00 0.  1.
<scales pt_clust_3="30.24018" pt_clust_4="84.12592" pt_clust_5="34.33672" pt_clust_6="14000.00000"></scales>
<clustering>
<clus scale="   30.240">  1  3  2 -1</clus>
<clus scale="   34.337">  2  5  1 -1</clus>
<clus scale="   84.126">  2  4  1 -1</clus>
<clus scale="   34.337">  2  3  1 -1</clus>
</clustering>
</event>
<event>
 6    0  0.4340992E+002  0.1256058E+03  0.7546771E-02  0.1234126E+00
         21   -1    0    0  505  502  0.00000000000E+00  0.00000000000E+00  0.73094282373E+03  0.73094282373E+03  0.00000000000E+00 0. -1.
          1   -1    0    0  503    0 -0.00000000000E+00 -0.00000000000E+00 -0.49966604728E+03  0.49966604728E+03  0.00000000000E+00 0. -1.
         21    1    1    2  503  504 -0.25128220900E+02  0.19091165947E+02 -0.15009509388E+03  0.15337678217E+03  0.00000000000E+00 0. -1.
         21    1    1    2  504  502  0.12736050254E+03 -0.12938355098E+02  0.67012746061E+03  0.68224549255E+03  0.00000000000E+00 0. -1.
         21    1    1    2  505  501 -0.10498078072E+03 -0.41662316943E+02 -0.93629511164E+01  0.11333303944E+03  0.00000000000E+00 0. -1.
          1    1    1    2  501    0  0.27484990851E+01  0.35509506094E+02 -0.27939263917E+03  0.28165355686E+03  0.00000000000E+00 0. -1.
<scales pt_clust_3="31.55788" pt_clust_4="14000.00000" pt_clust_5="125.60583" pt_clust_6="53.82996"></scales>
<clustering>
<clus scale="   31.558">  2  3  1 -1</clus>
<clus scale="   53.830">  2  6  1 -1</clus>
<clus scale="  125.606">  2  5  1 -1</clus>
<clus scale="  125.606">  1  3  2 -1</clus>
</clustering>
</event>
<event>
 6    0  0.4340992E+002  0.2011953E+03  0.7546771E-02  0.1148734E+00
          1   -1    0    0  503    0 -0.00000000000E+00  0.00000000000E+00  0.16021705652E+04  0.16021705652E+04  0.00000000000E+00 0. -1.
         21   -1    0    0  504  502  0.00000000000E+00 -0.00000000000E+00 -0.38072406127E+03  0.38072406127E+03  0.00000000000E+00 0.  1.
         21    1    1    2  503  502 -0.13573314782E+03 -0.15431342104E+03  0.55928884886E+03  0.59585244464E+03  0.00000000000E+00 0.  1.
         21    1    1    2  504  505 -0.21868015603E+02  0.52770049683E+02 -0.27619467221E+03  0.28203968729E+03  0.00000000000E+00 0.  1.
         21    1    1    2  505  501 -0.52233825486E+02  0.15719200303E+03  0.26604317196E+02  0.16776617071E+03  0.00000000000E+00 0.  1.
          1    1    1    2  501    0  0.20983498891E+03 -0.55648631677E+02  0.91174801008E+03  0.93723632380E+03  0.00000000000E+00 0. -1.
<scales pt_clust_3="201.19528" pt_clust_4="57.12170" pt_clust_5="14000.00000" pt_clust_6="193.53949"></scales>
<clustering>
<clus scale="   57.122">  2  4  1 -1</clus>
<clus scale="  201.195">  1  3  2 -1</clus>
<clus scale="  193.539">  1  6  2 -1</clus>
<clus scale="   57.122">  2  3  1 -1</clus>
</clustering>
</event>
<event>
 6    0  0.4340992E+002  0.6570954E+02  0.7546771E-02  0.1375322E+00
         -3   -1    0    0    0  501 -0.00000000000E+00  0.00000000000E+00  0.46250888205E+03  0.46250888205E+03  0.00000000000E+00 0. -1.
         21   -1    0    0  503  502  0.00000000000E+00 -0.00000000000E+00 -0.70223058613E+02  0.70223058613E+02  0.00000000000E+00 0. -1.
         21    1    1    2  503  501 -0.50452172772E+02 -0.23360944550E+02  0.75525327228E+02  0.93782890340E+02  0.00000000000E+00 0. -1.
         21    1    1    2  504  505 -0.65513896199E+02  0.51226390721E+02  0.22681314098E+02  0.86201251213E+02  0.00000000000E+00 0. -1.
         21    1    1    2  505  502  0.18043636220E+02 -0.30079818306E+02 -0.73203922778E+01  0.35832337636E+02  0.00000000000E+00 0. -1.
         -3    1    1    2    0  504  0.97922432751E+02  0.22143721351E+01  0.30139957439E+03  0.31691546147E+03  0.00000000000E+00 0. -1.
<scales pt_clust_3="55.28607" pt_clust_4="14000.00000" pt_clust_5="35.07661" pt_clust_6="65.70954"></scales>
<clustering>
<clus scale="   35.077">  2  5  1 -1</clus>
<clus scale="   55.286">  1  3  2 -1</clus>
<clus scale="   65.710">  1  6  2 -1</clus>
<clus scale="   35.077">  2  3  1 -1</clus>
</clustering>
</event>
<event>
 6    0  0.4340992E+002  0.1324733E+03  0.7546771E-02  0.1223831E+00
         21   -1    0    0  504  502  0.00000000000E+00  0.00000000000E+00  0.17510622783E+04  0.17510622783E+04  0.00000000000E+00 0.  1.
          2   -1    0    0  502    0 -0.00000000000E+00 -0.00000000000E+00 -0.22961519034E+03  0.22961519034E+03  0.00000000000E+00 0.  1.
         21    1    1    2  503  505  0.47963605495E+01 -0.58984859077E+02  0.17660109663E+02  0.61758385246E+02  0.00000000000E+00 0. -1.
         21    1    1    2  504  503 -0.47763195463E+02  0.62779855210E+02  0.15279877508E+04  0.15300226141E+04  0.00000000000E+00 0.  1.
         21    1    1    2  505  501  0.90624769358E+01 -0.10902599973E+03  0.14813010748E+03  0.18415028060E+03  0.00000000000E+00 0.  1.
          2    1    1    2  501    0  0.33904357978E+02  0.10523100359E+03 -0.17233087996E+03  0.20474618872E+03  0.00000000000E+00 0.  1.
<scales pt_clust_3="49.69259" pt_clust_4="78.88367" pt_clust_5="49.69259" pt_clust_6="113.94828"></scales>
<clustering>
<clus scale="   49.693">  3  5 -1 -1</clus>
<clus scale="   78.884">  1  4  2 -1</clus>
<clus scale="  113.948">  2  6  1 -1</clus>
<clus scale="   78.884">  1  3  2 -1</clus>
</clustering>
</event>
<event>
 6    0  0.4340992E+002  0.1099134E+03  0.7546771E-02  0.1260730E+00
         21   -1    0    0  505  502  0.00000000000E+00  0.00000000000E+00  0.28332018391E+02  0.28332018391E+02  0.00000000000E+00 0.  1.
          2   -1    0    0  503    0 -0.00000000000E+00 -0.00000000000E+00 -0.32091800633E+04  0.32091800633E+04  0.00000000000E+00 0.  1.
         21    1    1    2  503  502  0.11457072590E+02 -0.39771212341E+02 -0.17757648036E+02  0.45037183606E+02  0.00000000000E+00 0.  1.
         21    1    1    2  504  501  0.35681541431E+02 -0.68370536537E+01 -0.12726202748E+04  0.12731387519E+04  0.00000000000E+00 0.  1.
         21    1    1    2  505  504 -0.10272764520E+03  0.79283756988E+00 -0.17925747945E+03  0.20660794181E+03  0.00000000000E+00 0.  1.
          2    1    1    2  501    0  0.55589031178E+02  0.45815428425E+02 -0.17112126425E+04  0.17127282043E+04  0.00000000000E+00 0.  1.
<scales pt_clust_3="41.38857" pt_clust_4="34.00642" pt_clust_5="98.93428" pt_clust_6="34.00642"></scales>
<clustering>
<clus scale="   34.006">  4  6 -1 -1</clus>
<clus scale="   41.389">  1  3  2 -1</clus>
<clus scale="   98.934">  1  5  2 -1</clus>
<clus scale="   41.389">  1  3  2 -1</clus>
</clustering>
</event>
<event>
 6    0  0.4340992E+002  0.1132176E+03  0.7546771E-02  0.1254725E+00
         21   -1    0    0  505  502  0.00000000000E+00  0.00000000000E+00  0.68009298442E+02  0.68009298442E+02  0.00000000000E+00 0.  1.
          2   -1    0    0  503    0 -0.00000000000E+00 -0.00000000000E+00 -0.54921480314E+03  0.54921480314E+03  0.00000000000E+00 0. -1.
         21    1    1    2  503  502  0.86194275763E+02  0.66241058466E+02 -0.40096651698E+03  0.41544130601E+03  0.00000000000E+00 0. -1.
         21    1    1    2  504  501 -0.42265421565E+02 -0.41939827568E+02 -0.13413021452E+02  0.61034614285E+02  0.00000000000E+00 0.  1.
         21    1    1    2  505  504 -0.12039727992E+02 -0.50266631611E+02  0.10889622235E+02  0.52823036415E+02  0.00000000000E+00 0.  1.
          2    1    1    2  501    0 -0.31889126206E+02  0.25965400713E+02 -0.77715588502E+02  0.87925144871E+02  0.00000000000E+00 0. -1.
<scales pt_clust_3="106.35839" pt_clust_4="36.15864" pt_clust_5="36.15864" pt_clust_6="41.12321"></scales>
<clustering>
<clus scale="   36.159">  4  5 -1 -1</clus>
<clus scale="   41.123">  2  6  1 -1</clus>
<clus scale="  106.358">  2  3  1 -1</clus>
<clus scale="  113.218">  1  3  2 -1</clus>
</clustering>
</event>
<event>
 6    0  0.4340992E+002  0.8025080E+02  0.7546771E-02  0.1328341E+00
         21   -1    0    0  504  502  0.00000000000E+00  0.00000000000E+00  0.35498529719E+03  0.35498529719E+03  0.00000000000E+00 0. -1.
          1   -1    0    0  505    0 -0.00000000000E+00 -0.00000000000E+00 -0.16938346889E+03  0.16938346889E+03  0.00000000000E+00 0. -1.
         21    1    1    2  503  502 -0.60652255918E+02  0.36459013625E+02  0.97823043592E+01  0.71439829934E+02  0.00000000000E+00 0. -1.
         21    1    1    2  504  501 -0.20134473739E+02 -0.78669321510E+02  0.28605538107E+03  0.29735826913E+03  0.00000000000E+00 0. -1.
         21    1    1    2  505  503  0.33910817974E+02 -0.10196644704E+02 -0.18391037172E+02  0.39901696545E+02  0.00000000000E+00 0.  1.
          1    1    1    2  501    0  0.46875911683E+02  0.52406952590E+02 -0.91844819962E+02  0.11566897047E+03  0.00000000000E+00 0. -1.
<scales pt_clust_3="63.25197" pt_clust_4="80.25080" pt_clust_5="35.41066" pt_clust_6="14000.00000"></scales>
<clustering>
<clus scale="   35.411">  2  5  1 -1</clus>
<clus scale="   63.252">  2  3  1 -1</clus>
<clus scale="   80.251">  1  4  2 -1</clus>
<clus scale="   80.251">  1  3  2 -1</clus>
</clustering>
</event>
<event>
 6    0  0.4340992E+002  0.1095518E+03  0.7546771E-02  0.1261402E+00
          2   -1    0    0  503    0 -0.00000000000E+00  0.00000000000E+00  0.42990347331E+04  0.42990347331E+04  0.00000000000E+00 0.  1.
         21   -1    0    0  504  502  0.00000000000E+00 -0.00000000000E+00 -0.40417130582E+02  0.40417130582E+02  0.00000000000E+00 0.  1.
         21    1    1    2  503  505 -0.12282370445E+03 -0.40469687163E+02  0.11904708463E+03  0.17577163114E+03  0.00000000000E+00 0.  1.
         21    1    1    2  504  501  0.32469316870E+02 -0.13572592971E+02  0.10227247376E+04  0.10233300351E+04  0.00000000000E+00 0.  1.
         21    1    1    2  505  502  0.24896892653E+02  0.24385851790E+02  0.15448740429E+02  0.38120711065E+02  0.00000000000E+00 0.  1.
          2    1    1    2  501    0  0.65457494925E+02  0.29656428344E+02  0.31013970398E+04  0.31022294864E+04  0.00000000000E+00 0.  1.
<scales pt_clust_3="99.94508" pt_clust_4="31.39407" pt_clust_5="34.85004" pt_clust_6="31.39407"></scales>
<clustering>
<clus scale="   31.394">  4  6 -1 -1</clus>
<clus scale="   34.850">  2  5  1 -1</clus>
<clus scale="   99.945">  2  3  1 -1</clus>
<clus scale="   34.850">  2  3  1 -1</clus>
</clustering>
</event>
<event>
 6    0  0.4340992E+002  0.7140129E+02  0.7546771E-02  0.1355392E+00
         21   -1    0    0  503  502  0.00000000000E+00  0.00000000000E+00  0.52459344900E+02  0.52459344900E+02  0.00000000000E+00 0.  1.
          1   -1    0    0  505    0 -0.00000000000E+00 -0.00000000000E+00 -0.24382999462E+04  0.24382999462E+04  0.00000000000E+00 0. -1.
         21    1    1    2  503  501  0.76185328723E+02 -0.14696129843E+02  0.19021871296E+01  0.77613135878E+02  0.00000000000E+00 0.  1.
         21    1    1    2  504  502 -0.44095444209E+02  0.88772993406E+01 -0.54983603544E+02  0.71038097541E+02  0.00000000000E+00 0.  1.
         21    1    1    2  505  504  0.31777162827E+02  0.44613682224E+02 -0.18229892993E+03  0.19034985835E+03  0.00000000000E+00 0. -1.
          1    1    1    2  501    0 -0.63867047340E+02 -0.38794851722E+02 -0.21504602549E+04  0.21517581993E+04  0.00000000000E+00 0. -1.
<scales pt_clust_3="37.34451" pt_clust_4="44.98016" pt_clust_5="14000.00000" pt_clust_6="71.40129"></scales>
<clustering>
<clus scale="   44.980">  1  4  2 -1</clus>
<clus scale="   37.345">  1  3  2 -1</clus>
<clus scale="   71.401">  2  6  1 -1</clus>
<clus scale="   44.980">  1  3  2 -1</clus>
</clustering>
</event>
<event>
 6    0  0.4340992E+002  0.9172114E+02  0.7546771E-02  0.1298736E+00
          2   -1    0    0  505    0 -0.00000000000E+00  0.00000000000E+00  0.71500886187E+03  0.71500886187E+03  0.00000000000E+00 0. -1.
         21   -1    0    0  503  502  0.00000000000E+00 -0.00000000000E+00 -0.20084545641E+03  0.20084545641E+03  0.00000000000E+00 0.  1.
         21    1    1    2  503  504 -0.86781101924E+02  0.38827275134E+02 -0.16832269495E+03  0.19331592429E+03  0.00000000000E+00 0.  1.
         21    1    1    2  504  501 -0.29807747851E+01 -0.52639660359E+02  0.49557069193E+02  0.72358288869E+02  0.00000000000E+00 0. -1.
         21    1    1    2  505  502  0.61997747130E+02  0.45951113674E+02  0.18790685311E+03  0.20313594203E+03  0.00000000000E+00 0. -1.
          2    1    1    2  501    0  0.27764129579E+02 -0.32138728449E+02  0.44502217811E+03  0.44704416311E+03  0.00000000000E+00 0. -1.
<scales pt_clust_3="14000.00000" pt_clust_4="60.01465" pt_clust_5="91.72114" pt_clust_6="42.47052"></scales>
<clustering>
<clus scale="   42.471">  1  6  2 -1</clus>
<clus scale="   60.015">  1  4  2 -1</clus>
<clus scale="   91.721">  1  5  2 -1</clus>
<clus scale="   91.721">  2  3  1 -1</clus>
</clustering>
</event>
<event>
 6    0  0.4340992E+002  0.1217649E+03  0.7546771E-02  0.1240214E+00
          2   -1    0    0  505    0 -0.00000000000E+00  0.00000000000E+00  0.35877406821E+04  0.35877406821E+04  0.00000000000E+00 0. -1.
         21   -1    0    0  501  502  0.00000000000E+00 -0.00000000000E+00 -0.26515036334E+03  0.26515036334E+03  0.00000000000E+00 0. -1.
         21    1    1    2  503  504  0.15665929931E+01 -0.37058101747E+02  0.47488890375E+02  0.60257379861E+02  0.00000000000E+00 0. -1.
         21    1    1    2  504  502  0.27353910077E+02 -0.19215982538E+02 -0.25317639071E+03  0.25537379504E+03  0.00000000000E+00 0. -1.
         21    1    1    2  505  503  0.42953046997E+02 -0.81059474034E+02  0.98488607215E+03  0.98914921912E+03  0.00000000000E+00 0. -1.
          2    1    1    2  501    0 -0.71873550067E+02  0.13733355832E+03  0.25433917469E+04  0.25481106514E+04  0.00000000000E+00 0. -1.
<scales pt_clust_3="51.45146" pt_clust_4="33.42889" pt_clust_5="121.76490" pt_clust_6="14000.00000"></scales>
<clustering>
<clus scale="   33.429">  2  4  1 -1</clus>
<clus scale="   51.451">  2  3  1 -1</clus>
<clus scale="  121.765">  1  5  2 -1</clus>
<clus scale="   33.429">  2  3  1 -1</clus>
</clustering>
</event>
<event>
 6    0  0.4340992E+002  0.1164678E+03  0.7546771E-02  0.1249040E+00
         -3   -1    0    0    0  501 -0.00000000000E+00  0.00000000000E+00  0.60433661263E+03  0.60433661263E+03  0.00000000000E+00 0.  1.
         21   -1    0    0  504  502  0.00000000000E+00 -0.00000000000E+00 -0.22813570618E+04  0.22813570618E+04  0.00000000000E+00 0. -1.
         21    1    1    2  503  501 -0.49792392044E+01 -0.57997211231E+02  0.23736112770E+03  0.24439471000E+03  0.00000000000E+00 0.  1.
         21    1    1    2  504  503  0.57301489911E+02  0.22398581983E+02 -0.37439809209E+03  0.37941940987E+03  0.00000000000E+00 0. -1.
         21    1    1    2  505  502  0.18839298158E+02  0.66842481979E+02 -0.18961049371E+04  0.18973762856E+04  0.00000000000E+00 0. -1.
         -3    1    1    2    0  505 -0.71161548864E+02 -0.31243852731E+02  0.35612145228E+03  0.36450326904E+03  0.00000000000E+00 0.  1.
<scales pt_clust_3="58.21056" pt_clust_4="61.34680" pt_clust_5="116.46782" pt_clust_6="14000.00000"></scales>
<clustering>
<clus scale="   58.211">  1  3  2 -1</clus>
<clus scale="   61.347">  2  4  1 -1</clus>
<clus scale="  116.468">  2  5  1 -1</clus>
<clus scale="   61.347">  2  3  1 -1</clus>
</clustering>
</event>
<event>
 6    0  0.4340992E+002  0.1146396E+03  0.7546771E-02  0.1252211E+00
         21   -1    0    0  505  502  0.00000000000E+00  0.00000000000E+00  0.10286712481E+02  0.10286712481E+02  0.00000000000E+00 0.  1.
          2   -1    0    0  503    0 -0.00000000000E+00 -0.00000000000E+00 -0.46905596741E+04  0.46905596741E+04  0.00000000000E+00 0.  1.
         21    1    1    2  503  504 -0.37845894415E+02  0.22308773865E+02 -0.82006159049E+03  0.82123748411E+03  0.00000000000E+00 0. -1.
         21    1    1    2  504  502  0.17428612789E+02 -0.49428707278E+02 -0.55122307334E+03  0.55370915672E+03  0.00000000000E+00 0. -1.
         21    1    1    2  505  501  0.24446151799E+02  0.11629709831E+03 -0.44723674746E+03  0.46275624003E+03  0.00000000000E+00 0.  1.
          2    1    1    2  501    0 -0.40288701722E+01 -0.89177164893E+02 -0.28617515503E+04  0.28631435057E+04  0.00000000000E+00 0.  1.
<scales pt_clust_3="43.93169" pt_clust_4="47.78199" pt_clust_5="14000.00000" pt_clust_6="114.63962"></scales>
<clustering>
<clus scale="   43.932">  2  3  1 -1</clus>
<clus scale="   47.782">  2  4  1 -1</clus>
<clus scale="  114.640">  2  6  1 -1</clus>
<clus scale="  114.640">  1  3  2 -1</clus>
</clustering>
</event>
<event>
 6    0  0.4340992E+002  0.1200231E+03  0.7546771E-02  0.1243059E+00
          4   -1    0    0  504    0 -0.00000000000E+00  0.00000000000E+00  0.19312681959E+03  0.19312681959E+03  0.00000000000E+00 0. -1.
         21   -1    0    0  505  502  0.00000000000E+00 -0.00000000000E+00 -0.35861188803E+03  0.35861188803E+03  0.00000000000E+00 0.  1.
         21    1    1    2  503  502  0.88612399091E+02 -0.63319822816E+02 -0.29837560502E+03  0.31763116803E+03  0.00000000000E+00 0.  1.
         21    1    1    2  504  503  0.34408955204E+02  0.14366560796E+02 -0.42450712263E+01  0.37528587730E+02  0.00000000000E+00 0. -1.
         21    1    1    2  505  501 -0.38061961339E+02  0.34944382967E+02  0.32386127330E+02  0.60981013811E+02  0.00000000000E+00 0.  1.
          4    1    1    2  501    0 -0.84959392956E+02  0.14008879053E+02  0.10474948047E+03  0.13559793805E+03  0.00000000000E+00 0. -1.
<scales pt_clust_3="109.99597" pt_clust_4="37.28772" pt_clust_5="37.20257" pt_clust_6="37.20257"></scales>
<clustering>
<clus scale="   37.203">  5  6 -1 -1</clus>
<clus scale="   37.288">  1  4  2 -1</clus>
<clus scale="  109.996">  2  3  1 -1</clus>
<clus scale="  109.996">  2  3  1 -1</clus>
</clustering>
</event>
<event>
 6    0  0.4340992E+002  0.1133626E+03  0.7546771E-02  0.1254467E+00
          2   -1    0    0  503    0 -0.00000000000E+00  0.00000000000E+00  0.10646225002E+04  0.10646225002E+04  0.00000000000E+00 0. -1.
         21   -1    0    0  501  502  0.00000000000E+00 -0.00000000000E+00 -0.47222198197E+02  0.47222198197E+02  0.00000000000E+00 0.  1.
         21    1    1    2  503  504  0.46805776180E+02 -0.48769118122E+02  0.34047066634E+03  0.34711594923E+03  0.00000000000E+00 0. -1.
         21    1    1    2  504  505  0.40068604775E+02  0.13322694097E+03  0.23173923449E+03  0.27029240406E+03  0.00000000000E+00 0.  1.
         21    1    1    2  505  502 -0.26421079200E+02 -0.14533190409E+02 -0.85766703581E+01  0.31350379966E+02  0.00000000000E+00 0.  1.
          2    1    1    2  501    0 -0.60453301755E+02 -0.69924632441E+02  0.45376707157E+03  0.46308596519E+03  0.00000000000E+00 0. -1.
<scales pt_clust_3="66.73849" pt_clust_4="113.36258" pt_clust_5="30.15439" pt_clust_6="14000.00000"></scales>
<clustering>
<clus scale="   30.154">  2  5  1 -1</clus>
<clus scale="   66.738">  1  3  2 -1</clus>
<clus scale="  113.363">  2  4  1 -1</clus>
<clus scale="   30.154">  2  3  1 -1</clus>
</clustering>
</event>
<event>
 6    0  0.4340992E+002  0.8930873E+02  0.7546771E-02  0.1304534E+00
         21   -1    0    0  505  502  0.00000000000E+00  0.00000000000E+00  0.23022846712E+03  0.23022846712E+03  0.00000000000E+00 0.  1.
          2   -1    0    0  503    0 -0.00000000000E+00 -0.00000000000E+00 -0.27505255137E+04  0.27505255137E+04  0.00000000000E+00 0.  1.
         21    1    1    2  503  504 -0.34414281113E+02  0.96848765972E+01 -0.30388860059E+03  0.30598434788E+03  0.00000000000E+00 0. -1.
         21    1    1    2  504  502 -0.63740581184E+02  0.31766330649E+02  0.19683172138E+03  0.20931958340E+03  0.00000000000E+00 0.  1.
         21    1    1    2  505  501  0.13336943107E+03 -0.84982760987E+02 -0.21708005314E+03  0.26857629136E+03  0.00000000000E+00 0. -1.
          2    1    1    2  501    0 -0.35214568771E+02  0.43531553741E+02 -0.21961601142E+04  0.21968737582E+04  0.00000000000E+00 0.  1.
<scales pt_clust_3="35.75108" pt_clust_4="71.30738" pt_clust_5="14000.00000" pt_clust_6="89.30873"></scales>
<clustering>
<clus scale="   35.751">  2  3  1 -1</clus>
<clus scale="   71.307">  1  4  2 -1</clus>
<clus scale="   89.309">  2  6  1 -1</clus>
<clus scale="   71.307">  1  3  2 -1</clus>
</clustering>
</event>
<event>
 6    0  0.4340992E+002  0.1332641E+03  0.7546771E-02  0.1222691E+00
         21   -1    0    0  503  502  0.00000000000E+00  0.00000000000E+00  0.19492801178E+02  0.19492801178E+02  0.00000000000E+00 0. -1.
          2   -1    0    0  504    0 -0.00000000000E+00 -0.00000000000E+00 -0.16213951385E+04  0.16213951385E+04  0.00000000000E+00 0. -1.
         21    1    1    2  503  505 -0.20595097213E+02 -0.26096172117E+02 -0.34899434549E+02  0.48198949783E+02  0.00000000000E+00 0.  1.
         21    1    1    2  504  502  0.67583707627E+02  0.13291889537E+03 -0.62179830585E+03  0.63942796580E+03  0.00000000000E+00 0. -1.
         21    1    1    2  505  501 -0.80404919903E+00 -0.51061658665E+02 -0.36447486099E+03  0.36803513932E+03  0.00000000000E+00 0. -1.
          2    1    1    2  501    0 -0.46184561216E+02 -0.55761064588E+02 -0.58072973590E+03  0.58522588475E+03  0.00000000000E+00 0. -1.
<scales pt_clust_3="33.24407" pt_clust_4="126.82075" pt_clust_5="34.26463" pt_clust_6="34.26463"></scales>
<clustering>
<clus scale="   33.244">  1  3  2 -1</clus>
<clus scale="   34.265">  5  6 -1 -1</clus>
<clus scale="  126.821">  1  4  2 -1</clus>
<clus scale="   33.244">  1  3  2 -1</clus>
</clustering>
</event>
<event>
 6    0  0.4340992E+002  0.1152174E+03  0.7546771E-02  0.1251202E+00
          2   -1    0    0  505    0 -0.00000000000E+00  0.00000000000E+00  0.14445194459E+04  0.14445194459E+04  0.00000000000E+00 0.  1.
         21   -1    0    0  503  502  0.00000000000E+00 -0.00000000000E+00 -0.62767463497E+02  0.62767463497E+02  0.00000000000E+00 0. -1.
         21    1    1    2  503  501 -0.53584517883E+01  0.80862367195E+02 -0.52719577890E+01  0.81211015095E+02  0.00000000000E+00 0. -1.
         21    1    1    2  504  502 -0.27943532941E+02  0.19611231142E+02  0.39255089494E+02  0.52023105168E+02  0.00000000000E+00 0.  1.
         21    1    1    2  505  504 -0.10293543914E+03 -0.14949780446E+02  0.62540011531E+03  0.63399093431E+03  0.00000000000E+00 0.  1.
          2    1    1    2  501    0  0.13623742387E+03 -0.85523817891E+02  0.72236873541E+03  0.74006185484E+03  0.00000000000E+00 0.  1.
<scales pt_clust_3="99.57382" pt_clust_4="34.13856" pt_clust_5="14000.00000" pt_clust_6="115.21741"></scales>
<clustering>
<clus scale="   34.139">  2  4  1 -1</clus>
<clus scale="   99.574">  2  3  1 -1</clus>
<clus scale="  115.217">  2  6  1 -1</clus>
<clus scale="   34.139">  2  3  1 -1</clus>
</clustering>
</event>
<event>
 6    0  0.4340992E+002  0.1253811E+03  0.7546771E-02  0.1234475E+00
          2   -1    0    0  504    0 -0.00000000000E+00  0.00000000000E+00  0.16520069138E+04  0.16520069138E+04  0.00000000000E+00 0. -1.
         21   -1    0    0  503  502  0.00000000000E+00 -0.00000000000E+00 -0.49481878559E+02  0.49481878559E+02  0.00000000000E+00 0. -1.
         21    1    1    2  503  501  0.54492330439E+01 -0.89945093727E+02  0.70554955749E+03  0.71128052982E+03  0.00000000000E+00 0. -1.
         21    1    1    2  504  505 -0.32231750771E+02  0.67071122239E+02  0.23262948615E+02  0.77965286983E+02  0.00000000000E+00 0. -1.
         21    1    1    2  505  502  0.10955187024E+02  0.53279948677E+02  0.20172109312E+02  0.58014507219E+02  0.00000000000E+00 0. -1.
          2    1    1    2  501    0  0.15827330702E+02 -0.30405977189E+02  0.85354041981E+03  0.85422846833E+03  0.00000000000E+00 0. -1.
<scales pt_clust_3="118.54788" pt_clust_4="35.00341" pt_clust_5="35.00341" pt_clust_6="34.27868"></scales>
<clustering>
<clus scale="   34.279">  1  6  2 -1</clus>
<clus scale="   35.003">  4  5 -1 -1</clus>
<clus scale="  118.548">  1  3  2 -1</clus>
<clus scale="  125.381">  2  3  1 -1</clus>
</clustering>
</event>
<event>
 6    0  0.4340992E+002  0.2118428E+03  0.7546771E-02  0.1140115E+00
         21   -1    0    0  504  502  0.00000000000E+00  0.00000000000E+00  0.21902809083E+04  0.21902809083E+04  0.00000000000E+00 0. -1.
         -3   -1    0    0    0  501 -0.00000000000E+00 -0.00000000000E+00 -0.45112215458E+03  0.45112215458E+03  0.00000000000E+00 0.  1.
         21    1    1    2  503  502  0.11788239397E+02 -0.67714128208E+02  0.45547224902E+03  0.46062906484E+03  0.00000000000E+00 0.  1.
         21    1    1    2  504  505  0.19134698079E+03 -0.44579421768E+00  0.16579973749E+04  0.16690024449E+04  0.00000000000E+00 0. -1.
         21    1    1    2  505  501 -0.58324471639E+02 -0.15493683887E+02  0.34895833794E+02  0.69710239194E+02  0.00000000000E+00 0. -1.
         -3    1    1    2    0  503 -0.14481074855E+03  0.83653606313E+02 -0.40920670398E+03  0.44206131399E+03  0.00000000000E+00 0.  1.
<scales pt_clust_3="68.76477" pt_clust_4="211.84283" pt_clust_5="60.34731" pt_clust_6="14000.00000"></scales>
<clustering>
<clus scale="   60.347">  2  5  1 -1</clus>
<clus scale="   68.765">  1  3  2 -1</clus>
<clus scale="  211.843">  1  4  2 -1</clus>
<clus scale="   68.765">  1  3  2 -1</clus>
</clustering>
</event>
<event>
 6    0  0.4340992E+002  0.7713601E+02  0.7546771E-02  0.1337381E+00
          2   -1    0    0  504    0 -0.00000000000E+00  0.00000000000E+00  0.22671061710E+03  0.22671061710E+03  0.00000000000E+00 0.  1.
         21   -1    0    0  503  502  0.00000000000E+00 -0.00000000000E+00 -0.84770350391E+03  0.84770350391E+03  0.00000000000E+00 0. -1.
         21    1    1    2  503  501 -0.75410464755E+02 -0.61739788263E+02 -0.13885328141E+02  0.98444613804E+02  0.00000000000E+00 0.  1.
         21    1    1    2  504  505  0.24628798355E+02  0.23187301788E+02  0.63325280772E+02  0.71793592036E+02  0.00000000000E+00 0.  1.
         21    1    1    2  505  502  0.25660537356E+02  0.72414335017E+02 -0.78155596298E+03  0.78532287778E+03  0.00000000000E+00 0. -1.
          2    1    1    2  501    0  0.25121129045E+02 -0.33861848543E+02  0.11112312354E+03  0.11885303739E+03  0.00000000000E+00 0.  1.
<scales pt_clust_3="14000.00000" pt_clust_4="33.82645" pt_clust_5="77.13601" pt_clust_6="46.20027"></scales>
<clustering>
<clus scale="   33.826">  1  4  2 -1</clus>
<clus scale="   46.200">  1  6  2 -1</clus>
<clus scale="   77.136">  2  5  1 -1</clus>
<clus scale="   77.136">  2  3  1 -1</clus>
</clustering>
</event>
<event>
 6    0  0.4340992E+002  0.8187450E+02  0.7546771E-02  0.1323814E+00
         -1   -1    0    0    0  501 -0.00000000000E+00  0.00000000000E+00  0.16613257414E+03  0.16613257414E+03  0.00000000000E+00 0.  1.
         21   -1    0    0  504  502  0.00000000000E+00 -0.00000000000E+00 -0.28401085183E+03  0.28401085183E+03  0.00000000000E+00 0.  1.
         21    1    1    2  503  501 -0.49157631106E+02  0.44887874273E+02  0.83435146493E+02  0.10673714266E+03  0.00000000000E+00 0.  1.
         21    1    1    2  504  503 -0.62558251733E+02  0.43347560339E+02 -0.10468169848E+02  0.76825311110E+02  0.00000000000E+00 0.  1.
         21    1    1    2  505  502  0.38195110505E+02 -0.77080863626E+02 -0.16807479821E+03  0.18881065594E+03  0.00000000000E+00 0.  1.
         -1    1    1    2    0  505  0.73520772335E+02 -0.11154570986E+02 -0.22770456126E+02  0.77770316257E+02  0.00000000000E+00 0.  1.
<scales pt_clust_3="66.56872" pt_clust_4="14000.00000" pt_clust_5="81.87450" pt_clust_6="54.84719"></scales>
<clustering>
<clus scale="   66.569">  1  3  2 -1</clus>
<clus scale="   54.847">  1  6  2 -1</clus>
<clus scale="   81.874">  2  5  1 -1</clus>
<clus scale="   81.874">  2  3  1 -1</clus>
</clustering>
</event>
<event>
 6    0  0.4340992E+002  0.8707771E+02  0.7546771E-02  0.1310087E+00
         21   -1    0    0  504  502  0.00000000000E+00  0.00000000000E+00  0.26222653458E+03  0.26222653458E+03  0.00000000000E+00 0.  1.
          2   -1    0    0  503    0 -0.00000000000E+00 -0.00000000000E+00 -0.33417811852E+04  0.33417811852E+04  0.00000000000E+00 0.  1.
         21    1    1    2  503  505 -0.22471287793E+01  0.34340542199E+02 -0.11663215703E+03  0.12160338186E+03  0.00000000000E+00 0. -1.
         21    1    1    2  504  501  0.23075420733E+02 -0.40199160294E+02  0.23238401860E+03  0.23696155728E+03  0.00000000000E+00 0.  1.
         21    1    1    2  505  502 -0.14898862829E+02  0.12099956380E+03 -0.13094033891E+03  0.17890847634E+03  0.00000000000E+00 0. -1.
          2    1    1    2  501    0 -0.59294291243E+01 -0.11514094571E+03 -0.30643661733E+04  0.30665343043E+04  0.00000000000E+00 0.  1.
<scales pt_clust_3="34.41399" pt_clust_4="46.32940" pt_clust_5="14000.00000" pt_clust_6="87.07771"></scales>
<clustering>
<clus scale="   34.414">  2  3  1 -1</clus>
<clus scale="   46.329">  1  4  2 -1</clus>
<clus scale="   87.078">  2  6  1 -1</clus>
<clus scale="   46.329">  1  3  2 -1</clus>
</clustering>
</event>
<event>
 6    0  0.4340992E+002  0.2527713E+03  0.7546771E-02  0.1111566E+00
          2   -1    0    0  505    0 -0.00000000000E+00  0.00000000000E+00  0.79045424956E+03  0.79045424956E+03  0.00000000000E+00 0.  1.
         21   -1    0    0  504  502  0.00000000000E+00 -0.00000000000E+00 -0.19190109402E+03  0.19190109402E+03  0.00000000000E+00 0. -1.
         21    1    1    2  503  501 -0.10666913920E+03  0.13028988957E+03  0.32706802994E+03  0.36786853194E+03  0.00000000000E+00 0.  1.
         21    1    1    2  504  503  0.15742108838E+03 -0.91327596942E+02 -0.27435163431E+02  0.18405112665E+03  0.00000000000E+00 0. -1.
         21    1    1    2  505  502 -0.13376436506E+02 -0.13779498386E+03  0.30214924567E+02  0.14170154656E+03  0.00000000000E+00 0. -1.
          2    1    1    2  501    0 -0.37375512668E+02  0.98832691231E+02  0.26870536447E+03  0.28873413843E+03  0.00000000000E+00 0.  1.
<scales pt_clust_3="42.91633" pt_clust_4="246.89723" pt_clust_5="138.44272" pt_clust_6="42.91633"></scales>
<clustering>
<clus scale="   42.916">  3  6 -1 -1</clus>
<clus scale="  138.443">  2  5  1 -1</clus>
<clus scale="  246.897">  2  4  1 -1</clus>
<clus scale="  138.443">  2  3  1 -1</clus>
</clustering>
</event>
<event>
 6    0  0.4340992E+002  0.1078517E+03  0.7546771E-02  0.1264601E+00
          2   -1    0    0  505    0 -0.00000000000E+00  0.00000000000E+00  0.11525405871E+04  0.11525405871E+04  0.00000000000E+00 0. -1.
         21   -1    0    0  504  502  0.00000000000E+00 -0.00000000000E+00 -0.31182736359E+02  0.31182736359E+02  0.00000000000E+00 0. -1.
         21    1    1    2  503  502  0.64901844133E+02 -0.38861794042E+01  0.77895744103E+02  0.10146476586E+03  0.00000000000E+00 0. -1.
         21    1    1    2  504  501 -0.41256315777E+02 -0.11812489057E+03  0.28739403054E+03  0.31344999944E+03  0.00000000000E+00 0.  1.
         21    1    1    2  505  503  0.21149974301E+02  0.32792546240E+02  0.24383299514E+03  0.24693562323E+03  0.00000000000E+00 0. -1.
          2    1    1    2  501    0 -0.44795502656E+02  0.89218523731E+02  0.51223508095E+03  0.52187293491E+03  0.00000000000E+00 0. -1.
<scales pt_clust_3="66.99580" pt_clust_4="107.85169" pt_clust_5="39.02144" pt_clust_6="14000.00000"></scales>
<clustering>
<clus scale="   39.021">  1  5  2 -1</clus>
<clus scale="   66.996">  2  3  1 -1</clus>
<clus scale="  107.852">  2  4  1 -1</clus>
<clus scale="   66.996">  2  3  1 -1</clus>
</clustering>
</event>
<event>
 6    0  0.4340992E+002  0.8606940E+02  0.7546771E-02  0.1312659E+00
         21   -1    0    0  505  502  0.00000000000E+00  0.00000000000E+00  0.41980332204E+03  0.41980332204E+03  0.00000000000E+00 0.  1.
          1   -1    0    0  503    0 -0.00000000000E+00 -0.00000000000E+00 -0.97464530096E+03  0.97464530096E+03  0.00000000000E+00 0. -1.
         21    1    1    2  503  504  0.95734154667E+02  0.65891027183E+02 -0.34425031815E+03  0.36333859880E+03  0.00000000000E+00 0. -1.
         21    1    1    2  504  502 -0.10743860701E+03 -0.51994059078E+02  0.15947144539E+02  0.12041905113E+03  0.00000000000E+00 0. -1.
         21    1    1    2  505  501  0.35206564118E+02  0.65010454233E+02  0.33504445408E+03  0.34310442656E+03  0.00000000000E+00 0.  1.
          1    1    1    2  501    0 -0.23502111775E+02 -0.78907422339E+02 -0.56158325939E+03  0.56758654651E+03  0.00000000000E+00 0. -1.
<scales pt_clust_3="86.06940" pt_clust_4="77.75796" pt_clust_5="73.93146" pt_clust_6="14000.00000"></scales>
<clustering>
<clus scale="   73.931">  1  5  2 -1</clus>
<clus scale="   77.758">  1  4  2 -1</clus>
<clus scale="   86.069">  1  3  2 -1</clus>
<clus scale="   73.931">  1  3  2 -1</clus>
</clustering>
</event>
<event>
 6    0  0.4340992E+002  0.2031742E+03  0.7546771E-02  0.1147088E+00
         21   -1    0    0  505  502  0.00000000000E+00  0.00000000000E+00  0.15510548158E+03  0.15510548158E+03  0.00000000000E+00 0. -1.
          2   -1    0    0  502    0 -0.00000000000E+00 -0.00000000000E+00 -0.43126963097E+03  0.43126963097E+03  0.00000000000E+00 0. -1.
         21    1    1    2  503  501  0.46887897016E+02  0.11584927679E+03 -0.69439377439E+02  0.14297327358E+03  0.00000000000E+00 0. -1.
         21    1    1    2  504  503 -0.62867795154E+01  0.53224716389E+02 -0.54167950512E+01  0.53867761231E+02  0.00000000000E+00 0. -1.
         21    1    1    2  505  504  0.10538437871E+02  0.34151442131E+02  0.50540509710E+02  0.61900911093E+02  0.00000000000E+00 0. -1.
          2    1    1    2  501    0 -0.51139555372E+02 -0.20322543531E+03 -0.25184848661E+03  0.32763316665E+03  0.00000000000E+00 0. -1.
<scales pt_clust_3="35.31645" pt_clust_4="35.31645" pt_clust_5="35.74045" pt_clust_6="195.88583"></scales>
<clustering>
<clus scale="   35.316">  3  4 -1 -1</clus>
<clus scale="   35.740">  1  5  2 -1</clus>
<clus scale="  195.886">  2  6  1 -1</clus>
<clus scale="   35.740">  1  3  2 -1</clus>
</clustering>
</event>
<event>
 6    0  0.4340992E+002  0.2017961E+03  0.7546771E-02  0.1148232E+00
         21   -1    0    0  505  502  0.00000000000E+00  0.00000000000E+00  0.12066073346E+03  0.12066073346E+03  0.00000000000E+00 0.  1.
          1   -1    0    0  503    0 -0.00000000000E+00 -0.00000000000E+00 -0.17958240230E+04  0.17958240230E+04  0.00000000000E+00 0. -1.
         21    1    1    2  503  502 -0.21532029124E+03  0.27654352157E+02 -0.71053364797E+02  0.22842104032E+03  0.00000000000E+00 0.  1.
         21    1    1    2  504  501 -0.32636700093E+01  0.89541677203E+02 -0.22435652470E+03  0.24158686569E+03  0.00000000000E+00 0.  1.
         21    1    1    2  505  504  0.17053203927E+03 -0.51173025150E+02 -0.21626170032E+03  0.28012314782E+03  0.00000000000E+00 0. -1.
          1    1    1    2  501    0  0.48051921975E+02 -0.66023004209E+02 -0.11634916998E+04  0.11663537027E+04  0.00000000000E+00 0. -1.
<scales pt_clust_3="201.79609" pt_clust_4="66.75104" pt_clust_5="14000.00000" pt_clust_6="81.65797"></scales>
<clustering>
<clus scale="   81.658">  2  6  1 -1</clus>
<clus scale="   66.751">  2  4  1 -1</clus>
<clus scale="  201.796">  1  3  2 -1</clus>
<clus scale="  201.796">  1  3  2 -1</clus>
</clustering>
</event>
<event>
 6    0  0.4340992E+002  0.8441669E+02  0.7546771E-02  0.1316965E+00
         21   -1    0    0  504  502  0.00000000000E+00  0.00000000000E+00  0.60140681638E+03  0.60140681638E+03  0.00000000000E+00 0.  1.
          1   -1    0    0  503    0 -0.00000000000E+00 -0.00000000000E+00 -0.48426113798E+02  0.48426113798E+02  0.00000000000E+00 0.  1.
         21    1    1    2  503  505  0.80698054010E+02  0.70948611626E+01  0.62191891957E+02  0.10212905757E+03  0.00000000000E+00 0.  1.
         21    1    1    2  504  501 -0.15796257475E+01 -0.51502246657E+02  0.37238014791E+03  0.37592811971E+03  0.00000000000E+00 0.  1.
         21    1    1    2  505  502 -0.87153812636E+02  0.14472520336E+02  0.10697300629E+03  0.13873883730E+03  0.00000000000E+00 0.  1.
          1    1    1    2  501    0  0.80353843734E+01  0.29934865158E+02  0.11435656426E+02  0.33036915594E+02  0.00000000000E+00 0.  1.
<scales pt_clust_3="14000.00000" pt_clust_4="50.10525" pt_clust_5="84.41669" pt_clust_6="30.99457"></scales>
<clustering>
<clus scale="   30.995">  2  6  1 -1</clus>
<clus scale="   50.105">  1  4  2 -1</clus>
<clus scale="   84.417">  1  5  2 -1</clus>
<clus scale="   50.105">  1  3  2 -1</clus>
</clustering>
</event>
<event>
 6    0  0.4340992E+002  0.1116994E+03  0.7546771E-02  0.1257455E+00
         21   -1    0    0  505  502  0.00000000000E+00  0.00000000000E+00  0.39132326507E+03  0.39132326507E+03  0.00000000000E+00 0.  1.
         -1   -1    0    0    0  501 -0.00000000000E+00 -0.00000000000E+00 -0.25053234263E+03  0.25053234263E+03  0.00000000000E+00 0.  1.
         21    1    1    2  503  502  0.68221289595E+02  0.27270858236E+02  0.95793044698E+02  0.12072345040E+03  0.00000000000E+00 0.  1.
         21    1    1    2  504  501  0.13337508874E+02 -0.44686260179E+02 -0.21371450775E+02  0.51298049670E+02  0.00000000000E+00 0.  1.
         21    1    1    2  505  504 -0.15212354924E+03  0.50390712007E+02  0.23479506023E+03  0.28427015039E+03  0.00000000000E+00 0.  1.
         -1    1    1    2    0  503  0.70564750776E+02 -0.32975310064E+02 -0.16842573171E+03  0.18556395725E+03  0.00000000000E+00 0.  1.
<scales pt_clust_3="73.27534" pt_clust_4="46.63423" pt_clust_5="14000.00000" pt_clust_6="111.69937"></scales>
<clustering>
<clus scale="   46.634">  2  4  1 -1</clus>
<clus scale="   73.275">  1  3  2 -1</clus>
<clus scale="  111.699">  2  6  1 -1</clus>
<clus scale="   73.275">  1  3  2 -1</clus>
</clustering>
</event>
<event>
 6    0  0.4340992E+002  0.1183221E+03  0.7546771E-02  0.1245891E+00
          4   -1    0    0  504    0 -0.00000000000E+00  0.00000000000E+00  0.23292924880E+04  0.23292924880E+04  0.00000000000E+00 0. -1.
         21   -1    0    0  505  502  0.00000000000E+00 -0.00000000000E+00 -0.24754957895E+02  0.24754957895E+02  0.00000000000E+00 0.  1.
         21    1    1    2  503  501  0.45096269632E+02  0.26798602837E+01  0.72322896520E+03  0.72463852456E+03  0.00000000000E+00 0. -1.
         21    1    1    2  504  502  0.32111194361E+02 -0.25008536727E+02  0.80893818963E+01  0.41496913282E+02  0.00000000000E+00 0.  1.
         21    1    1    2  505  503 -0.12699285372E+03 -0.24294939463E+02  0.68624840323E+03  0.69832248991E+03  0.00000000000E+00 0.  1.
          4    1    1    2  501    0  0.49785389726E+02  0.46623615907E+02  0.88697077981E+03  0.88958951816E+03  0.00000000000E+00 0. -1.
<scales pt_clust_3="32.09837" pt_clust_4="40.70081" pt_clust_5="111.55502" pt_clust_6="32.09837"></scales>
<clustering>
<clus scale="   32.098">  3  6 -1 -1</clus>
<clus scale="   40.701">  2  4  1 -1</clus>
<clus scale="  111.555">  2  5  1 -1</clus>
<clus scale="   40.701">  2  3  1 -1</clus>
</clustering>
</event>
<event>
 6    0  0.4340992E+002  0.1269755E+03  0.7546771E-02  0.1232014E+00
         21   -1    0    0  504  502  0.00000000000E+00  0.00000000000E+00  0.58734316826E+03  0.58734316826E+03  0.00000000000E+00 0.  1.
          3   -1    0    0  505    0 -0.00000000000E+00 -0.00000000000E+00 -0.16152319310E+03  0.16152319310E+03  0.00000000000E+00 0.  1.
         21    1    1    2  503  501  0.69537416689E+02  0.23539267785E+02 -0.63934233576E+02  0.97350581254E+02  0.00000000000E+00 0.  1.
         21    1    1    2  504  503 -0.11826681855E+03 -0.49743977573E+02  0.25085648135E+03  0.28176315925E+03  0.00000000000E+00 0.  1.
         21    1    1    2  505  502  0.80135627984E+01  0.60426702666E+02  0.28979457981E+03  0.29613595200E+03  0.00000000000E+00 0.  1.
          3    1    1    2  501    0  0.40715839062E+02 -0.34221992877E+02 -0.50896852416E+02  0.73616668852E+02  0.00000000000E+00 0.  1.
<scales pt_clust_3="52.28801" pt_clust_4="111.12635" pt_clust_5="60.95575" pt_clust_6="52.28801"></scales>
<clustering>
<clus scale="   52.288">  3  6 -1 -1</clus>
<clus scale="   60.956">  1  5  2 -1</clus>
<clus scale="  111.126">  1  4  2 -1</clus>
<clus scale="   60.956">  1  3  2 -1</clus>
</clustering>
</event>
<event>
 6    0  0.4340992E+002  0.1315631E+03  0.7546771E-02  0.1225155E+00
          2   -1    0    0  505    0 -0.00000000000E+00  0.00000000000E+00  0.27631468438E+03  0.27631468438E+03  0.00000000000E+00 0.  1.
         21   -1    0    0  501  502  0.00000000000E+00 -0.00000000000E+00 -0.68999263498E+03  0.68999263498E+03  0.00000000000E+00 0.  1.
         21    1    1    2  503  502 -0.23221875448E+02  0.59728677623E+02 -0.53913289357E+03  0.54292821566E+03  0.00000000000E+00 0.  1.
         21    1    1    2  504  503 -0.69177951315E+02  0.54983705842E+02 -0.10665171173E+03  0.13850409551E+03  0.00000000000E+00 0.  1.
         21    1    1    2  505  504  0.33462437371E+01 -0.39525830670E+02  0.24022217736E+02  0.46374083088E+02  0.00000000000E+00 0. -1.
          2    1    1    2  501    0  0.89053583026E+02 -0.75186552796E+02  0.20808443697E+03  0.23850092511E+03  0.00000000000E+00 0.  1.
<scales pt_clust_3="63.78467" pt_clust_4="14000.00000" pt_clust_5="39.66722" pt_clust_6="131.56308"></scales>
<clustering>
<clus scale="   39.667">  1  5  2 -1</clus>
<clus scale="   63.785">  2  3  1 -1</clus>
<clus scale="  131.563">  1  6  2 -1</clus>
<clus scale="   63.785">  2  3  1 -1</clus>
</clustering>
</event>
<event>
 6    0  0.4340992E+002  0.1194611E+03  0.7546771E-02  0.1243989E+00
         21   -1    0    0  505  502  0.00000000000E+00  0.00000000000E+00  0.58637250302E+03  0.58637250302E+03  0.00000000000E+00 0. -1.
          2   -1    0    0  504    0 -0.00000000000E+00 -0.00000000000E+00 -0.23353657850E+04  0.23353657850E+04  0.00000000000E+00 0. -1.
         21    1    1    2  503  501 -0.39607494987E+02 -0.71792727739E+02  0.24563279877E+03  0.25895640801E+03  0.00000000000E+00 0. -1.
         21    1    1    2  504  502  0.30794404684E+02  0.89380717194E+01 -0.74293199367E+02  0.80917636879E+02  0.00000000000E+00 0.  1.
         21    1    1    2  505  503 -0.15704637102E+02 -0.35019014185E+02  0.32851739754E+03  0.33075164016E+03  0.00000000000E+00 0. -1.
          2    1    1    2  501    0  0.24517727405E+02  0.97873670205E+02 -0.22488502789E+04  0.22511126030E+04  0.00000000000E+00 0. -1.
<scales pt_clust_3="14000.00000" pt_clust_4="32.06532" pt_clust_5="38.36898" pt_clust_6="119.46114"></scales>
<clustering>
<clus scale="   32.065">  2  4  1 -1</clus>
<clus scale="   38.369">  1  5  2 -1</clus>
<clus scale="  119.461">  2  6  1 -1</clus>
<clus scale="   38.369">  1  3  2 -1</clus>
</clustering>
</event>
<event>
 6    0  0.4340992E+002  0.1280757E+03  0.7546771E-02  0.1230339E+00
          1   -1    0    0  503    0 -0.00000000000E+00  0.00000000000E+00  0.13747123834E+04  0.13747123834E+04  0.00000000000E+00 0. -1.
         21   -1    0    0  504  502  0.00000000000E+00 -0.00000000000E+00 -0.63330048772E+03  0.63330048772E+03  0.00000000000E+00 0. -1.
         21    1    1    2  503  505 -0.27599526796E+02  0.94371420592E+02  0.73771924044E+03  0.74424282101E+03  0.00000000000E+00 0. -1.
         21    1    1    2  504  501 -0.38426230521E+02 -0.18640043398E+02 -0.20272730637E+03  0.20717718783E+03  0.00000000000E+00 0. -1.
         21    1    1    2  505  502  0.97045395133E+02 -0.95845027422E+02 -0.41358027906E+03  0.43549136068E+03  0.00000000000E+00 0. -1.
          1    1    1    2  501    0 -0.31019637817E+02  0.20113650228E+02  0.62000024065E+03  0.62110150158E+03  0.00000000000E+00 0. -1.
<scales pt_clust_3="128.07567" pt_clust_4="42.76516" pt_clust_5="14000.00000" pt_clust_6="36.96995"></scales>
<clustering>
<clus scale="   36.970">  1  6  2 -1</clus>
<clus scale="   42.765">  2  4  1 -1</clus>
<clus scale="  128.076">  1  3  2 -1</clus>
<clus scale="   42.765">  2  3  1 -1</clus>
</clustering>
</event>
<event>
 6    0  0.4340992E+002  0.2347126E+03  0.7546771E-02  0.1123366E+00
         21   -1    0    0  503  502  0.00000000000E+00  0.00000000000E+00  0.10123688110E+03  0.10123688110E+03  0.00000000000E+00 0.  1.
          1   -1    0    0  504    0 -0.00000000000E+00 -0.00000000000E+00 -0.16533370222E+04  0.16533370222E+04  0.00000000000E+00 0. -1.
         21    1    1    2  503  501 -0.47994881211E+02 -0.62580459722E+02 -0.49690778579E+02  0.93214784435E+02  0.00000000000E+00 0. -1.
         21    1    1    2  504  505 -0.20139802167E+03 -0.10293692646E+03 -0.10451272592E+04  0.10693213557E+04  0.00000000000E+00 0. -1.
         21    1    1    2  505  502  0.26684353305E+03  0.80048841149E+02 -0.28285504599E+03  0.39701418758E+03  0.00000000000E+00 0.  1.
          1    1    1    2  501    0 -0.17450630176E+02  0.85468545036E+02 -0.17442705738E+03  0.19502357557E+03  0.00000000000E+00 0. -1.
<scales pt_clust_3="78.86585" pt_clust_4="234.71259" pt_clust_5="14000.00000" pt_clust_6="80.89957"></scales>
<clustering>
<clus scale="   78.866">  1  3  2 -1</clus>
<clus scale="   80.900">  1  6  2 -1</clus>
<clus scale="  234.713">  2  4  1 -1</clus>
<clus scale="   78.866">  1  3  2 -1</clus>
</clustering>
</event>
<event>
 6    0  0.4340992E+002  0.7715132E+02  0.7546771E-02  0.1337336E+00
         21   -1    0    0  501  502  0.00000000000E+00  0.00000000000E+00  0.23923455833E+02  0.23923455833E+02  0.00000000000E+00 0.  1.
          1   -1    0    0  505    0 -0.00000000000E+00 -0.00000000000E+00 -0.10072658098E+04  0.10072658098E+04  0.00000000000E+00 0.  1.
         21    1    1    2  503  504 -0.36465864208E+02  0.86367866421E+02 -0.40997303748E+03  0.42055565513E+03  0.00000000000E+00 0.  1.
         21    1    1    2  504  502 -0.69646897297E+02 -0.34296886532E+02 -0.21947168642E+03  0.23279774026E+03  0.00000000000E+00 0.  1.
         21    1    1    2  505  503  0.23111164102E+02 -0.34075124080E+02 -0.17533490814E+03  0.18010433088E+03  0.00000000000E+00 0.  1.
          1    1    1    2  501    0  0.83001597402E+02 -0.17995855809E+02 -0.17856272187E+03  0.19773153932E+03  0.00000000000E+00 0.  1.
<scales pt_clust_3="73.64600" pt_clust_4="14000.00000" pt_clust_5="41.17329" pt_clust_6="77.15132"></scales>
<clustering>
<clus scale="   41.173">  2  5  1 -1</clus>
<clus scale="   73.646">  2  3  1 -1</clus>
<clus scale="   77.151">  1  6  2 -1</clus>
<clus scale="   77.151">  1  3  2 -1</clus>
</clustering>
</event>
<event>
 6    0  0.4340992E+002  0.1526401E+03  0.7546771E-02  0.1197266E+00
          2   -1    0    0  503    0 -0.00000000000E+00  0.00000000000E+00  0.12185256501E+04  0.12185256501E+04  0.00000000000E+00 0. -1.
         21   -1    0    0  505  502  0.00000000000E+00 -0.00000000000E+00 -0.56208200087E+02  0.56208200087E+02  0.00000000000E+00 0.  1.
         21    1    1    2  503  504  0.96593387083E+02 -0.13876429708E+02  0.18362066917E+03  0.20794082782E+03  0.00000000000E+00 0.  1.
         21    1    1    2  504  502  0.68970490563E+02  0.39866316104E+02  0.85508875605E+01  0.80120967333E+02  0.00000000000E+00 0.  1.
         21    1    1    2  505  501 -0.29738276850E+02 -0.11269226195E+02  0.79772004747E+02  0.85877431904E+02  0.00000000000E+00 0.  1.
          2    1    1    2  501    0 -0.13582560080E+03 -0.14720660201E+02  0.89037388851E+03  0.90079462310E+03  0.00000000000E+00 0. -1.
<scales pt_clust_3="138.01154" pt_clust_4="79.66337" pt_clust_5="31.45974" pt_clust_6="31.45974"></scales>
<clustering>
<clus scale="   31.460">  5  6 -1 -1</clus>
<clus scale="   79.663">  2  4  1 -1</clus>
<clus scale="  138.012">  2  3  1 -1</clus>
<clus scale="   79.663">  2  3  1 -1</clus>
</clustering>
</event>
<event>
 6    0  0.4340992E+002  0.1636824E+03  0.7546771E-02  0.1184601E+00
         21   -1    0    0  503  502  0.00000000000E+00  0.00000000000E+00  0.25046040717E+03  0.25046040717E+03  0.00000000000E+00 0.  1.
          2   -1    0    0  504    0 -0.00000000000E+00 -0.00000000000E+00 -0.15020827993E+04  0.15020827993E+04  0.00000000000E+00 0.  1.
         21    1    1    2  503  505 -0.31389976965E+01  0.45925822776E+02  0.22728278995E+03  0.23189760911E+03  0.00000000000E+00 0.  1.
         21    1    1    2  504  502 -0.10183445120E+03  0.86292728629E+02 -0.29337568011E+03  0.32231348118E+03  0.00000000000E+00 0.  1.
         21    1    1    2  505  501  0.64922940729E+02 -0.71343011818E+02 -0.52431275629E+03  0.53311225832E+03  0.00000000000E+00 0.  1.
          2    1    1    2  501    0  0.40050508169E+02 -0.60875539587E+02 -0.66121674569E+03  0.66521985787E+03  0.00000000000E+00 0.  1.
<scales pt_clust_3="46.03297" pt_clust_4="157.39578" pt_clust_5="39.04878" pt_clust_6="39.04878"></scales>
<clustering>
<clus scale="   39.049">  5  6 -1 -1</clus>
<clus scale="   46.033">  1  3  2 -1</clus>
<clus scale="  157.396">  1  4  2 -1</clus>
<clus scale="   46.033">  1  3  2 -1</clus>
</clustering>
</event>
<event>
 6    0  0.4340992E+002  0.6868434E+02  0.7546771E-02  0.1364625E+00
         -4   -1    0    0    0  501 -0.00000000000E+00  0.00000000000E+00  0.43647176299E+02  0.43647176299E+02  0.00000000000E+00 0. -1.
         21   -1    0    0  504  502  0.00000000000E+00 -0.00000000000E+00 -0.60632054181E+03  0.60632054181E+03  0.00000000000E+00 0. -1.
         21    1    1    2  503  502 -0.44705697238E+02 -0.72954894060E+02 -0.27895978344E+03  0.29178686864E+03  0.00000000000E+00 0. -1.
         21    1    1    2  504  505  0.65326515314E+02 -0.23431784241E+01 -0.23065696388E+03  0.23974085816E+03  0.00000000000E+00 0. -1.
         21    1    1    2  505  501 -0.46217954585E+02  0.48391126181E+02 -0.23317602960E+02  0.70862620802E+02  0.00000000000E+00 0. -1.
         -4    1    1    2    0  503  0.25597136509E+02  0.26906946303E+02 -0.29739015228E+02  0.47577370498E+02  0.00000000000E+00 0. -1.
<scales pt_clust_3="14000.00000" pt_clust_4="68.68434" pt_clust_5="68.01558" pt_clust_6="37.13754"></scales>
<clustering>
<clus scale="   37.138">  1  6  2 -1</clus>
<clus scale="   68.684">  2  4  1 -1</clus>
<clus scale="   68.016">  1  5  2 -1</clus>
<clus scale="   68.684">  2  3  1 -1</clus>
</clustering>
</event>
<event>
 6    0  0.4340992E+002  0.1070517E+03  0.7546771E-02  0.1266129E+00
          2   -1    0    0  502    0 -0.00000000000E+00  0.00000000000E+00  0.22018611859E+04  0.22018611859E+04  0.00000000000E+00 0. -1.
         21   -1    0    0  505  502  0.00000000000E+00 -0.00000000000E+00 -0.29106059178E+02  0.29106059178E+02  0.00000000000E+00 0.  1.
         21    1    1    2  503  504  0.81899170226E+02  0.76796442672E+02  0.12863532910E+03  0.17074019908E+03  0.00000000000E+00 0.  1.
         21    1    1    2  504  501 -0.13576028619E+02 -0.66658704010E+02  0.66952254669E+03  0.67296963668E+03  0.00000000000E+00 0.  1.
         21    1    1    2  505  503 -0.16619893450E+02  0.28315900304E+02  0.42998940584E+02  0.54101016253E+02  0.00000000000E+00 0. -1.
          2    1    1    2  501    0 -0.51703248157E+02 -0.38453638966E+02  0.13315983104E+04  0.13331563931E+04  0.00000000000E+00 0. -1.
<scales pt_clust_3="14000.00000" pt_clust_4="107.05170" pt_clust_5="32.83308" pt_clust_6="64.32654"></scales>
<clustering>
<clus scale="   32.833">  2  5  1 -1</clus>
<clus scale="   64.327">  1  6  2 -1</clus>
<clus scale="  107.052">  1  4  2 -1</clus>
<clus scale="   32.833">  2  3  1 -1</clus>
</clustering>
</event>
<event>
 6    0  0.4340992E+002  0.9884761E+02  0.7546771E-02  0.1282738E+00
         21   -1    0    0  505  502  0.00000000000E+00  0.00000000000E+00  0.12044071260E+04  0.12044071260E+04  0.00000000000E+00 0. -1.
          2   -1    0    0  504    0 -0.00000000000E+00 -0.00000000000E+00 -0.57822572962E+03  0.57822572962E+03  0.00000000000E+00 0. -1.
         21    1    1    2  503  501  0.99017118214E+01  0.58866803941E+02 -0.25392122015E+03  0.26084349819E+03  0.00000000000E+00 0.  1.
         21    1    1    2  504  502 -0.38472991346E+02  0.19661863969E+02  0.14595608265E+03  0.15221674685E+03  0.00000000000E+00 0. -1.
         21    1    1    2  505  503  0.37521705693E+02 -0.10904371176E+03  0.10478927149E+04  0.10542189295E+04  0.00000000000E+00 0. -1.
          2    1    1    2  501    0 -0.89504261682E+01  0.30515043852E+02 -0.31374618103E+03  0.31535368103E+03  0.00000000000E+00 0. -1.
<scales pt_clust_3="30.68019" pt_clust_4="43.20602" pt_clust_5="89.46485" pt_clust_6="30.68019"></scales>
<clustering>
<clus scale="   30.680">  3  6 -1 -1</clus>
<clus scale="   43.206">  1  4  2 -1</clus>
<clus scale="   89.465">  1  5  2 -1</clus>
<clus scale="   43.206">  1  3  2 -1</clus>
</clustering>
</event>
<event>
 6    0  0.4340992E+002  0.8668546E+02  0.7546771E-02  0.1311083E+00
          1   -1    0    0  503    0 -0.00000000000E+00  0.00000000000E+00  0.17633047025E+04  0.17633047025E+04  0.00000000000E+00 0.  1.
         21   -1    0    0  501  502  0.00000000000E+00 -0.00000000000E+00 -0.11775512258E+03  0.11775512258E+03  0.00000000000E+00 0.  1.
         21    1    1    2  503  504  0.52154603892E+01 -0.38388443288E+02  0.14968637614E+03  0.15461851379E+03  0.00000000000E+00 0. -1.
         21    1    1    2  504  505 -0.47482985254E+02 -0.47742093730E+02  0.79724093449E+02  0.10435455179E+03  0.00000000000E+00 0.  1.
         21    1    1    2  505  502  0.87375696032E+02  0.30153081295E+02 -0.81193773700E+02  0.12302905940E+03  0.00000000000E+00 0.  1.
          1    1    1    2  501    0 -0.45108171167E+02  0.55977455723E+02  0.14973328841E+04  0.14990577001E+04  0.00000000000E+00 0.  1.
<scales pt_clust_3="38.74111" pt_clust_4="86.68546" pt_clust_5="14000.00000" pt_clust_6="45.07805"></scales>
<clustering>
<clus scale="   38.741">  1  3  2 -1</clus>
<clus scale="   45.078">  1  6  2 -1</clus>
<clus scale="   86.685">  1  4  2 -1</clus>
<clus scale="   86.685">  2  3  1 -1</clus>
</clustering>
</event>
<event>
 6    0  0.4340992E+002  0.1445125E+03  0.7546771E-02  0.1207383E+00
         21   -1    0    0  505  502  0.00000000000E+00  0.00000000000E+00  0.30697374595E+03  0.30697374595E+03  0.00000000000E+00 0. -1.
         -2   -1    0    0    0  501 -0.00000000000E+00 -0.00000000000E+00 -0.22390119046E+03  0.22390119046E+03  0.00000000000E+00 0. -1.
         21    1    1    2  503  504 -0.45935138661E+02 -0.26277175886E+02 -0.14893792629E+01  0.52940959445E+02  0.00000000000E+00 0. -1.
         21    1    1    2  504  501  0.25188051063E+02 -0.41803407877E+02 -0.41326129377E+01  0.48980009352E+02  0.00000000000E+00 0. -1.
         21    1    1    2  505  503  0.13504184474E+03  0.68311429060E+02  0.21222628155E+03  0.26065829308E+03  0.00000000000E+00 0. -1.
         -2    1    1    2    0  502 -0.11429475714E+03 -0.23084529767E+00 -0.12353173386E+03  0.16829567454E+03  0.00000000000E+00 0. -1.
<scales pt_clust_3="53.19475" pt_clust_4="48.80536" pt_clust_5="14000.00000" pt_clust_6="144.51245"></scales>
<clustering>
<clus scale="   48.805">  2  4  1 -1</clus>
<clus scale="   53.195">  2  3  1 -1</clus>
<clus scale="  144.512">  2  6  1 -1</clus>
<clus scale="  144.512">  1  3  2 -1</clus>
</clustering>
</event>
<event>
 6    0  0.4340992E+002  0.1047008E+03  0.7546771E-02  0.1270710E+00
         21   -1    0    0  505  502  0.00000000000E+00  0.00000000000E+00  0.25761201745E+02  0.25761201745E+02  0.00000000000E+00 0. -1.
         -1   -1    0    0    0  501 -0.00000000000E+00 -0.00000000000E+00 -0.17471094691E+04  0.17471094691E+04  0.00000000000E+00 0. -1.
         21    1    1    2  503  501  0.38550584199E+02 -0.30447131519E+02 -0.23547827766E+03  0.24054769716E+03  0.00000000000E+00 0. -1.
         21    1    1    2  504  502  0.13396456342E+02  0.28370100373E+02 -0.10692827969E+03  0.11143601140E+03  0.00000000000E+00 0. -1.
         21    1    1    2  505  503 -0.12228196748E+03 -0.27650961972E+02 -0.17910609834E+03  0.21862399166E+03  0.00000000000E+00 0. -1.
         -1    1    1    2    0  504  0.70334926937E+02  0.29727993118E+02 -0.11998356117E+04  0.12022629707E+04  0.00000000000E+00 0. -1.
<scales pt_clust_3="48.47384" pt_clust_4="31.37400" pt_clust_5="104.70075" pt_clust_6="14000.00000"></scales>
<clustering>
<clus scale="   31.374">  1  4  2 -1</clus>
<clus scale="   48.474">  2  3  1 -1</clus>
<clus scale="  104.701">  1  5  2 -1</clus>
<clus scale="   31.374">  1  3  2 -1</clus>
</clustering>
</event>
<event>
 6    0  0.4340992E+002  0.1000091E+03  0.7546771E-02  0.1280277E+00
          1   -1    0    0  504    0 -0.00000000000E+00  0.00000000000E+00  0.91316270166E+03  0.91316270166E+03  0.00000000000E+00 0.  1.
         21   -1    0    0  505  502  0.00000000000E+00 -0.00000000000E+00 -0.21429815873E+03  0.21429815873E+03  0.00000000000E+00 0. -1.
         21    1    1    2  503  501  0.11111597046E+03 -0.39303419429E+02  0.20355632570E+02  0.11960714630E+03  0.00000000000E+00 0. -1.
         21    1    1    2  504  502  0.10264881815E+00 -0.31321613982E+02  0.23489333620E+03  0.23697243179E+03  0.00000000000E+00 0.  1.
         21    1    1    2  505  503 -0.62184678508E+02  0.77305878792E+02 -0.14746478992E+03  0.17773293843E+03  0.00000000000E+00 0. -1.
          1    1    1    2  501    0 -0.49033940767E+02 -0.66808453805E+01  0.59108036408E+03  0.59314834388E+03  0.00000000000E+00 0.  1.
<scales pt_clust_3="100.00906" pt_clust_4="31.32178" pt_clust_5="14000.00000" pt_clust_6="59.63237"></scales>
<clustering>
<clus scale="   31.322">  1  4  2 -1</clus>
<clus scale="   59.632">  1  6  2 -1</clus>
<clus scale="  100.009">  1  3  2 -1</clus>
<clus scale="  100.009">  2  3  1 -1</clus>
</clustering>
</event>
<event>
 6    0  0.4340992E+002  0.9039225E+02  0.7546771E-02  0.1301905E+00
         21   -1    0    0  501  502  0.00000000000E+00  0.00000000000E+00  0.12235050057E+03  0.12235050057E+03  0.00000000000E+00 0.  1.
          2   -1    0    0  505    0 -0.00000000000E+00 -0.00000000000E+00 -0.12808749320E+04  0.12808749320E+04  0.00000000000E+00 0.  1.
         21    1    1    2  503  504  0.95197628250E+02 -0.15113778898E+01 -0.48012485999E+01  0.95330607234E+02  0.00000000000E+00 0.  1.
         21    1    1    2  504  502 -0.27244407108E+02  0.15359076871E+02  0.64966324537E+02  0.72102581679E+02  0.00000000000E+00 0.  1.
         21    1    1    2  505  503 -0.26497172098E+02  0.85770290786E+02 -0.71923472152E+03  0.72481530582E+03  0.00000000000E+00 0.  1.
          2    1    1    2  501    0 -0.41456049044E+02 -0.99617989767E+02 -0.49945478580E+03  0.51097693779E+03  0.00000000000E+00 0.  1.
<scales pt_clust_3="73.17692" pt_clust_4="31.27553" pt_clust_5="90.39225" pt_clust_6="14000.00000"></scales>
<clustering>
<clus scale="   31.276">  1  4  2 -1</clus>
<clus scale="   73.177">  1  3  2 -1</clus>
<clus scale="   90.392">  2  5  1 -1</clus>
<clus scale="   31.276">  1  3  2 -1</clus>
</clustering>
</event>
<event>
 6    0  0.4340992E+002  0.9380904E+02  0.7546771E-02  0.1293881E+00
          1   -1    0    0  504    0 -0.00000000000E+00  0.00000000000E+00  0.92389274755E+03  0.92389274755E+03  0.00000000000E+00 0. -1.
         21   -1    0    0  505  502  0.00000000000E+00 -0.00000000000E+00 -0.15803554719E+03  0.15803554719E+03  0.00000000000E+00 0. -1.
         21    1    1    2  503  501  0.34449110807E+02  0.12900435812E+03  0.75113840874E+02  0.15320233268E+03  0.00000000000E+00 0. -1.
         21    1    1    2  504  502 -0.30675939617E+02  0.80889789292E+01  0.26667430488E+02  0.41443898228E+02  0.00000000000E+00 0. -1.
         21    1    1    2  505  503  0.38612619180E+02 -0.85778733291E+02 -0.90051313860E+02  0.13022351774E+03  0.00000000000E+00 0. -1.
          1    1    1    2  501    0 -0.42385790371E+02 -0.51314603755E+02  0.75412724286E+03  0.75705854609E+03  0.00000000000E+00 0. -1.
<scales pt_clust_3="14000.00000" pt_clust_4="31.72451" pt_clust_5="93.80904" pt_clust_6="66.68630"></scales>
<clustering>
<clus scale="   31.725">  2  4  1 -1</clus>
<clus scale="   66.686">  1  6  2 -1</clus>
<clus scale="   93.809">  2  5  1 -1</clus>
<clus scale="   31.725">  2  3  1 -1</clus>
</clustering>
</event>
<event>
 6    0  0.4340992E+002  0.1280703E+03  0.7546771E-02  0.1230347E+00
          2   -1    0    0  504    0 -0.00000000000E+00  0.00000000000E+00  0.37453158919E+03  0.37453158919E+03  0.00000000000E+00 0.  1.
         21   -1    0    0  505  502  0.00000000000E+00 -0.00000000000E+00 -0.61483330577E+03  0.61483330577E+03  0.00000000000E+00 0.  1.
         21    1    1    2  503  502  0.41384352351E+02  0.12505735881E+03 -0.53441882669E+03  0.55041392600E+03  0.00000000000E+00 0.  1.
         21    1    1    2  504  503 -0.57093855658E+02  0.27401725271E+02  0.98552663794E+02  0.11714602188E+03  0.00000000000E+00 0.  1.
         21    1    1    2  505  501  0.41180812862E+02 -0.11582883836E+03  0.17734332440E+01  0.12294439479E+03  0.00000000000E+00 0.  1.
          2    1    1    2  501    0 -0.25471309556E+02 -0.36630245712E+02  0.19379101307E+03  0.19886055229E+03  0.00000000000E+00 0.  1.
<scales pt_clust_3="128.07031" pt_clust_4="72.69758" pt_clust_5="14000.00000" pt_clust_6="44.61572"></scales>
<clustering>
<clus scale="   44.616">  1  6  2 -1</clus>
<clus scale="   72.698">  1  4  2 -1</clus>
<clus scale="  128.070">  2  3  1 -1</clus>
<clus scale="  128.070">  2  3  1 -1</clus>
</clustering>
</event>
<event>
 6    0  0.4340992E+002  0.1060904E+03  0.7546771E-02  0.1267986E+00
         21   -1    0    0  503  502  0.00000000000E+00  0.00000000000E+00  0.11210025114E+04  0.11210025114E+04  0.00000000000E+00 0. -1.
          2   -1    0    0  505    0 -0.00000000000E+00 -0.00000000000E+00 -0.17145347289E+04  0.17145347289E+04  0.00000000000E+00 0. -1.
         21    1    1    2  503  501  0.40670311057E+02 -0.77196374366E+01  0.11143776687E+03  0.11887826921E+03  0.00000000000E+00 0. -1.
         21    1    1    2  504  502  0.42062958251E+02  0.78264157601E+02  0.95351777045E+03  0.95764853124E+03  0.00000000000E+00 0. -1.
         21    1    1    2  505  504 -0.11406663968E+03 -0.10844483554E+02 -0.16644741532E+02  0.11578362809E+03  0.00000000000E+00 0. -1.
          2    1    1    2  501    0  0.31333370376E+02 -0.59700036610E+02 -0.16418430134E+04  0.16432268118E+04  0.00000000000E+00 0. -1.
<scales pt_clust_3="41.39646" pt_clust_4="14000.00000" pt_clust_5="106.09039" pt_clust_6="67.44081"></scales>
<clustering>
<clus scale="   41.396">  1  3  2 -1</clus>
<clus scale="   67.441">  2  6  1 -1</clus>
<clus scale="  106.090">  2  5  1 -1</clus>
<clus scale="   41.396">  1  3  2 -1</clus>
</clustering>
</event>
<event>
 6    0  0.4340992E+002  0.1101654E+03  0.7546771E-02  0.1260264E+00
          2   -1    0    0  504    0 -0.00000000000E+00  0.00000000000E+00  0.27479173538E+04  0.27479173538E+04  0.00000000000E+00 0. -1.
         21   -1    0    0  505  502  0.00000000000E+00 -0.00000000000E+00 -0.21008779097E+03  0.21008779097E+03  0.00000000000E+00 0. -1.
         21    1    1    2  503  502  0.62933764107E+02  0.49646340164E+01 -0.11860578868E+02  0.64233788513E+02  0.00000000000E+00 0.  1.
         21    1    1    2  504  503 -0.37129093221E+02 -0.12672509445E+02  0.22662848914E+03  0.22999920467E+03  0.00000000000E+00 0.  1.
         21    1    1    2  505  501  0.38879826800E+02 -0.50424675510E+02 -0.16361865831E+03  0.17557150731E+03  0.00000000000E+00 0. -1.
          2    1    1    2  501    0 -0.64684497686E+02  0.58132550939E+02  0.24866803108E+04  0.24882006442E+04  0.00000000000E+00 0. -1.
<scales pt_clust_3="62.73431" pt_clust_4="39.23216" pt_clust_5="110.16545" pt_clust_6="14000.00000"></scales>
<clustering>
<clus scale="   39.232">  1  4  2 -1</clus>
<clus scale="   62.734">  2  3  1 -1</clus>
<clus scale="  110.165">  2  5  1 -1</clus>
<clus scale="   62.734">  2  3  1 -1</clus>
</clustering>
</event>
<event>
 6    0  0.4340992E+002  0.1656429E+03  0.7546771E-02  0.1182469E+00
         21   -1    0    0  503  502  0.00000000000E+00  0.00000000000E+00  0.21903641354E+03  0.21903641354E+03  0.00000000000E+00 0.  1.
          2   -1    0    0  504    0 -0.00000000000E+00 -0.00000000000E+00 -0.15876397587E+04  0.15876397587E+04  0.00000000000E+00 0. -1.
         21    1    1    2  503  505 -0.62915558519E+02  0.12616284340E+03  0.16035077936E+03  0.21351300428E+03  0.00000000000E+00 0.  1.
         21    1    1    2  504  502 -0.44024775481E+02 -0.79698557428E+01  0.95192307070E+01  0.45741832166E+02  0.00000000000E+00 0. -1.
         21    1    1    2  505  501  0.16268306728E+02 -0.50380250452E+02 -0.48579548588E+03  0.48867175235E+03  0.00000000000E+00 0.  1.
          2    1    1    2  501    0  0.90672027271E+02 -0.67812737203E+02 -0.10526778693E+04  0.10587495834E+04  0.00000000000E+00 0. -1.
<scales pt_clust_3="158.84223" pt_clust_4="44.74036" pt_clust_5="32.12179" pt_clust_6="32.12179"></scales>
<clustering>
<clus scale="   32.122">  5  6 -1 -1</clus>
<clus scale="   44.740">  1  4  2 -1</clus>
<clus scale="  158.842">  1  3  2 -1</clus>
<clus scale="   44.740">  1  3  2 -1</clus>
</clustering>
</event>
<event>
 6    0  0.4340992E+002  0.1234582E+03  0.7546771E-02  0.1237499E+00
         21   -1    0    0  504  502  0.00000000000E+00  0.00000000000E+00  0.29495538355E+03  0.29495538355E+03  0.00000000000E+00 0. -1.
         -2   -1    0    0    0  501 -0.00000000000E+00 -0.00000000000E+00 -0.61249280569E+03  0.61249280569E+03  0.00000000000E+00 0. -1.
         21    1    1    2  503  501 -0.30795488581E+02  0.34508705657E+02 -0.22143490363E+02  0.51279109280E+02  0.00000000000E+00 0.  1.
         21    1    1    2  504  505 -0.76703255502E+01 -0.66862103882E+02  0.51270475604E+02  0.84605180091E+02  0.00000000000E+00 0. -1.
         21    1    1    2  505  503 -0.11376577197E+03  0.43127510612E+02  0.18333340332E+03  0.22003129281E+03  0.00000000000E+00 0. -1.
         -2    1    1    2    0  502  0.15223158610E+03 -0.10774112387E+02 -0.52999781070E+03  0.55153260706E+03  0.00000000000E+00 0. -1.
<scales pt_clust_3="46.25163" pt_clust_4="66.41732" pt_clust_5="123.45819" pt_clust_6="14000.00000"></scales>
<clustering>
<clus scale="   46.252">  2  3  1 -1</clus>
<clus scale="   66.417">  1  4  2 -1</clus>
<clus scale="  123.458">  1  5  2 -1</clus>
<clus scale="   66.417">  1  3  2 -1</clus>
</clustering>
</event>
<event>
 6    0  0.4340992E+002  0.1098329E+03  0.7546771E-02  0.1260880E+00
          1   -1    0    0  503    0 -0.00000000000E+00  0.00000000000E+00  0.14430940946E+04  0.14430940946E+04  0.00000000000E+00 0.  1.
         21   -1    0    0  505  502  0.00000000000E+00 -0.00000000000E+00 -0.13184300964E+03  0.13184300964E+03  0.00000000000E+00 0. -1.
         21    1    1    2  503  502  0.44228151382E+01 -0.44650236809E+02  0.26274544344E+03  0.26654900673E+03  0.00000000000E+00 0. -1.
         21    1    1    2  504  501  0.90791147724E+02 -0.64460148072E+02  0.10150833376E+03  0.15067211094E+03  0.00000000000E+00 0. -1.
         21    1    1    2  505  504  0.12562657084E+02  0.33536445753E+02 -0.98063316943E+02  0.10439792947E+03  0.00000000000E+00 0. -1.
          1    1    1    2  501    0 -0.10777661995E+03  0.75573939128E+02  0.10450606248E+04  0.10533180571E+04  0.00000000000E+00 0.  1.
<scales pt_clust_3="42.88364" pt_clust_4="14000.00000" pt_clust_5="35.81220" pt_clust_6="109.83288"></scales>
<clustering>
<clus scale="   35.812">  2  5  1 -1</clus>
<clus scale="   42.884">  1  3  2 -1</clus>
<clus scale="  109.833">  1  6  2 -1</clus>
<clus scale="   35.812">  2  3  1 -1</clus>
</clustering>
</event>
<event>
 6    0  0.4340992E+002  0.2214618E+03  0.7546771E-02  0.1132798E+00
          2   -1    0    0  503    0 -0.00000000000E+00  0.00000000000E+00  0.73591758746E+03  0.73591758746E+03  0.00000000000E+00 0. -1.
         21   -1    0    0  505  502  0.00000000000E+00 -0.00000000000E+00 -0.46344631245E+03  0.46344631245E+03  0.00000000000E+00 0. -1.
         21    1    1    2  503  504 -0.89057392117E+02 -0.24524098023E+03 -0.32506048148E+02  0.26292774795E+03  0.00000000000E+00 0.  1.
         21    1    1    2  504  502  0.41940446990E+02  0.40817123194E+02 -0.29396324780E+03  0.29973226336E+03  0.00000000000E+00 0. -1.
         21    1    1    2  505  501  0.16935325883E+02  0.61681189944E+02  0.25891073409E+03  0.26669484937E+03  0.00000000000E+00 0. -1.
          2    1    1    2  501    0  0.30181619245E+02  0.14274266709E+03  0.34002983687E+03  0.37000903923E+03  0.00000000000E+00 0. -1.
<scales pt_clust_3="215.38895" pt_clust_4="58.52383" pt_clust_5="34.10385" pt_clust_6="34.10385"></scales>
<clustering>
<clus scale="   34.104">  5  6 -1 -1</clus>
<clus scale="   58.524">  2  4  1 -1</clus>
<clus scale="  215.389">  2  3  1 -1</clus>
<clus scale="   58.524">  2  3  1 -1</clus>
</clustering>
</event>
<event>
 6    0  0.4340992E+002  0.1182554E+03  0.7546771E-02  0.1246003E+00
          2   -1    0    0  504    0 -0.00000000000E+00  0.00000000000E+00  0.86576789361E+03  0.86576789361E+03  0.00000000000E+00 0.  1.
         21   -1    0    0  503  502  0.00000000000E+00 -0.00000000000E+00 -0.34798862592E+03  0.34798862592E+03  0.00000000000E+00 0.  1.
         21    1    1    2  503  501  0.81435223620E+02 -0.48594389291E+02 -0.60002967642E+02  0.11222061505E+03  0.00000000000E+00 0.  1.
         21    1    1    2  504  505 -0.13159535240E+02  0.46353200694E+02  0.94875839619E+02  0.10641060814E+03  0.00000000000E+00 0.  1.
         21    1    1    2  505  502  0.39447124680E+02  0.80741580818E+02 -0.24195864814E+03  0.25810708229E+03  0.00000000000E+00 0.  1.
          2    1    1    2  501    0 -0.10772281306E+03 -0.78500392222E+02  0.72486504386E+03  0.73701821405E+03  0.00000000000E+00 0.  1.
<scales pt_clust_3="14000.00000" pt_clust_4="48.18498" pt_clust_5="90.24174" pt_clust_6="118.25536"></scales>
<clustering>
<clus scale="   48.185">  1  4  2 -1</clus>
<clus scale="   90.242">  2  5  1 -1</clus>
<clus scale="  118.255">  1  6  2 -1</clus>
<clus scale="   90.242">  2  3  1 -1</clus>
</clustering>
</event>
<event>
 6    0  0.4340992E+002  0.2479560E+03  0.7546771E-02  0.1114603E+00
         -4   -1    0    0    0  501 -0.00000000000E+00  0.00000000000E+00  0.10946305149E+04  0.10946305149E+04  0.00000000000E+00 0.  1.
         21   -1    0    0  505  502  0.00000000000E+00 -0.00000000000E+00 -0.73783809522E+02  0.73783809522E+02  0.00000000000E+00 0. -1.
         21    1    1    2  503  501 -0.13833596733E+03  0.16699242840E+03  0.21359434866E+03  0.30437781913E+03  0.00000000000E+00 0. -1.
         21    1    1    2  504  502  0.59640160799E+02 -0.10393792041E+03  0.27896132335E+03  0.30361070469E+03  0.00000000000E+00 0. -1.
         21    1    1    2  505  503 -0.34337282452E+02 -0.81339784910E+01  0.29338573072E+02  0.45890766415E+02  0.00000000000E+00 0.  1.
         -4    1    1    2    0  504  0.11303308899E+03 -0.54920529494E+02  0.49895246029E+03  0.51453503418E+03  0.00000000000E+00 0.  1.
<scales pt_clust_3="228.73926" pt_clust_4="94.00307" pt_clust_5="35.28754" pt_clust_6="94.00307"></scales>
<clustering>
<clus scale="   35.288">  2  5  1 -1</clus>
<clus scale="   94.003">  4  6 -1 -1</clus>
<clus scale="  228.739">  2  3  1 -1</clus>
<clus scale="   35.288">  2  3  1 -1</clus>
</clustering>
</event>
<event>
 6    0  0.4340992E+002  0.1755517E+03  0.7546771E-02  0.1172179E+00
          1   -1    0    0  504    0 -0.00000000000E+00  0.00000000000E+00  0.12852071884E+04  0.12852071884E+04  0.00000000000E+00 0. -1.
         21   -1    0    0  501  502  0.00000000000E+00 -0.00000000000E+00 -0.57976459327E+03  0.57976459327E+03  0.00000000000E+00 0.  1.
         21    1    1    2  503  502 -0.43201685220E+00  0.32974409085E+02 -0.86787098357E+02  0.92841255562E+02  0.00000000000E+00 0. -1.
         21    1    1    2  504  505 -0.13314421876E+03 -0.11652642955E+03  0.10204612225E+03  0.20425279151E+03  0.00000000000E+00 0. -1.
         21    1    1    2  505  503  0.37614921989E+02 -0.64177772574E+02 -0.42875332465E+03  0.43515868628E+03  0.00000000000E+00 0.  1.
          1    1    1    2  501    0  0.95961313621E+02  0.14772979304E+03  0.11189368959E+04  0.11327190483E+04  0.00000000000E+00 0. -1.
<scales pt_clust_3="32.97724" pt_clust_4="14000.00000" pt_clust_5="51.17459" pt_clust_6="175.55174"></scales>
<clustering>
<clus scale="   32.977">  2  3  1 -1</clus>
<clus scale="   51.175">  2  5  1 -1</clus>
<clus scale="  175.552">  1  6  2 -1</clus>
<clus scale="   32.977">  2  3  1 -1</clus>
</clustering>
</event>
<event>
 6    0  0.4340992E+002  0.1316009E+03  0.7546771E-02  0.1225099E+00
          2   -1    0    0  503    0 -0.00000000000E+00  0.00000000000E+00  0.62941549222E+03  0.62941549222E+03  0.00000000000E+00 0.  1.
         21   -1    0    0  504  502  0.00000000000E+00 -0.00000000000E+00 -0.71871882057E+03  0.71871882057E+03  0.00000000000E+00 0.  1.
         21    1    1    2  503  502 -0.30391645272E+02  0.23888546855E+02  0.23137336624E+03  0.23458036870E+03  0.00000000000E+00 0. -1.
         21    1    1    2  504  505  0.24097962819E+02 -0.20052403193E+02 -0.13373956540E+03  0.13736477728E+03  0.00000000000E+00 0.  1.
         21    1    1    2  505  501 -0.14815039406E+03 -0.20693971589E+02 -0.55599323456E+03  0.57576493172E+03  0.00000000000E+00 0.  1.
          2    1    1    2  501    0  0.15444407651E+03  0.16857827927E+02  0.36905610536E+03  0.40042423508E+03  0.00000000000E+00 0.  1.
<scales pt_clust_3="38.57020" pt_clust_4="31.34981" pt_clust_5="14000.00000" pt_clust_6="131.60093"></scales>
<clustering>
<clus scale="   31.350">  2  4  1 -1</clus>
<clus scale="   38.570">  1  3  2 -1</clus>
<clus scale="  131.601">  1  6  2 -1</clus>
<clus scale="   31.350">  2  3  1 -1</clus>
</clustering>
</event>
<event>
 6    0  0.4340992E+002  0.1013921E+03  0.7546771E-02  0.1277395E+00
          4   -1    0    0  504    0 -0.00000000000E+00  0.00000000000E+00  0.40918989492E+02  0.40918989492E+02  0.00000000000E+00 0.  1.
         21   -1    0    0  503  502  0.00000000000E+00 -0.00000000000E+00 -0.11755887023E+04  0.11755887023E+04  0.00000000000E+00 0. -1.
         21    1    1    2  503  505  0.12572392374E+02 -0.48857344146E+02 -0.25590898398E+03  0.26083426387E+03  0.00000000000E+00 0. -1.
         21    1    1    2  504  502 -0.89287237691E+02  0.10598710636E+03 -0.16230775478E+03  0.21342278414E+03  0.00000000000E+00 0.  1.
         21    1    1    2  505  501  0.51913873822E+02 -0.33863755903E+02 -0.70292560022E+03  0.70565303351E+03  0.00000000000E+00 0. -1.
          4    1    1    2  501    0  0.24800971494E+02 -0.23266006311E+02 -0.13527373872E+02  0.36597610313E+02  0.00000000000E+00 0.  1.
<scales pt_clust_3="52.87747" pt_clust_4="14000.00000" pt_clust_5="101.39212" pt_clust_6="34.00581"></scales>
<clustering>
<clus scale="   34.006">  1  6  2 -1</clus>
<clus scale="   52.877">  2  3  1 -1</clus>
<clus scale="  101.392">  2  5  1 -1</clus>
<clus scale="   52.877">  2  3  1 -1</clus>
</clustering>
</event>
<event>
 6    0  0.4340992E+002  0.1135148E+03  0.7546771E-02  0.1254196E+00
         21   -1    0    0  503  502  0.00000000000E+00  0.00000000000E+00  0.15531052523E+03  0.15531052523E+03  0.00000000000E+00 0. -1.
         -3   -1    0    0    0  501 -0.00000000000E+00 -0.00000000000E+00 -0.42964907505E+03  0.42964907505E+03  0.00000000000E+00 0. -1.
         21    1    1    2  503  505 -0.51706992837E+02  0.86100403213E+02 -0.39404608986E+01  0.10051079431E+03  0.00000000000E+00 0. -1.
         21    1    1    2  504  502 -0.34627681398E+02 -0.16189387335E+01  0.74203078354E+02  0.81901124039E+02  0.00000000000E+00 0. -1.
         21    1    1    2  505  501 -0.31898517608E+02 -0.27231660954E+02 -0.21120125826E+03  0.21532545198E+03  0.00000000000E+00 0. -1.
         -3    1    1    2    0  504  0.11823319184E+03 -0.57249803526E+02 -0.13339990902E+03  0.18722222994E+03  0.00000000000E+00 0. -1.
<scales pt_clust_3="113.51482" pt_clust_4="34.66551" pt_clust_5="42.67613" pt_clust_6="14000.00000"></scales>
<clustering>
<clus scale="   34.666">  1  4  2 -1</clus>
<clus scale="   42.676">  2  5  1 -1</clus>
<clus scale="  113.515">  1  3  2 -1</clus>
<clus scale="   34.666">  1  3  2 -1</clus>
</clustering>
</event>
<event>
 6    0  0.4340992E+002  0.1874324E+03  0.7546771E-02  0.1160798E+00
          2   -1    0    0  505    0 -0.00000000000E+00  0.00000000000E+00  0.16549794866E+04  0.16549794866E+04  0.00000000000E+00 0.  1.
         21   -1    0    0  503  502  0.00000000000E+00 -0.00000000000E+00 -0.47740689512E+02  0.47740689512E+02  0.00000000000E+00 0.  1.
         21    1    1    2  503  504 -0.31261350259E+02 -0.23193382801E+02  0.44067248986E+02  0.58797342278E+02  0.00000000000E+00 0.  1.
         21    1    1    2  504  501 -0.65514870516E+02 -0.92417689957E+02  0.67989964085E+03  0.68927262336E+03  0.00000000000E+00 0.  1.
         21    1    1    2  505  502  0.11009109990E+03  0.17958065426E+03  0.29346670722E+03  0.36123672281E+03  0.00000000000E+00 0.  1.
          2    1    1    2  501    0 -0.13314879123E+02 -0.63969581501E+02  0.58980520001E+03  0.59341348765E+03  0.00000000000E+00 0.  1.
<scales pt_clust_3="38.92563" pt_clust_4="37.68482" pt_clust_5="180.74498" pt_clust_6="37.68482"></scales>
<clustering>
<clus scale="   37.685">  4  6 -1 -1</clus>
<clus scale="   38.926">  2  3  1 -1</clus>
<clus scale="  180.745">  2  5  1 -1</clus>
<clus scale="   38.926">  2  3  1 -1</clus>
</clustering>
</event>
<event>
 6    0  0.4340992E+002  0.8974855E+02  0.7546771E-02  0.1303462E+00
         21   -1    0    0  505  502  0.00000000000E+00  0.00000000000E+00  0.35450999511E+03  0.35450999511E+03  0.00000000000E+00 0.  1.
          1   -1    0    0  504    0 -0.00000000000E+00 -0.00000000000E+00 -0.14529957299E+04  0.14529957299E+04  0.00000000000E+00 0. -1.
         21    1    1    2  503  502 -0.47006251252E+02  0.14585803303E+02  0.19032053595E+02  0.52768858040E+02  0.00000000000E+00 0. -1.
         21    1    1    2  504  503 -0.14134792019E+02 -0.56431003340E+02 -0.82208013187E+02  0.10070952247E+03  0.00000000000E+00 0.  1.
         21    1    1    2  505  501  0.47803785121E+02 -0.52842414593E+02  0.30352756800E+03  0.31177958109E+03  0.00000000000E+00 0.  1.
          1    1    1    2  501    0  0.13337258150E+02  0.94687614630E+02 -0.13388373432E+04  0.13422477634E+04  0.00000000000E+00 0. -1.
<scales pt_clust_3="49.21721" pt_clust_4="14000.00000" pt_clust_5="38.83327" pt_clust_6="89.74855"></scales>
<clustering>
<clus scale="   49.217">  1  3  2 -1</clus>
<clus scale="   38.833">  1  5  2 -1</clus>
<clus scale="   89.749">  2  6  1 -1</clus>
<clus scale="   49.217">  1  3  2 -1</clus>
</clustering>
</event>
<event>
 6    0  0.4340992E+002  0.8054297E+02  0.7546771E-02  0.1327518E+00
         21   -1    0    0  504  502  0.00000000000E+00  0.00000000000E+00  0.27601361650E+03  0.27601361650E+03  0.00000000000E+00 0. -1.
          4   -1    0    0  505    0 -0.00000000000E+00 -0.00000000000E+00 -0.13817566104E+03  0.13817566104E+03  0.00000000000E+00 0. -1.
         21    1    1    2  503  502 -0.23345240292E+02  0.33320698280E+02  0.74280112472E+02  0.84692409854E+02  0.00000000000E+00 0.  1.
         21    1    1    2  504  501  0.51112785824E+02  0.12930565463E+02  0.88326327998E+02  0.10286523521E+03  0.00000000000E+00 0.  1.
         21    1    1    2  505  503  0.62560760640E+02 -0.52103884319E+02 -0.85159974049E+02  0.11781716646E+03  0.00000000000E+00 0. -1.
          4    1    1    2  501    0 -0.90328306173E+02  0.58526205771E+01  0.60391489046E+02  0.10881446601E+03  0.00000000000E+00 0. -1.
<scales pt_clust_3="40.68500" pt_clust_4="49.29181" pt_clust_5="80.54297" pt_clust_6="14000.00000"></scales>
<clustering>
<clus scale="   40.685">  1  3  2 -1</clus>
<clus scale="   49.292">  1  4  2 -1</clus>
<clus scale="   80.543">  2  5  1 -1</clus>
<clus scale="   40.685">  1  3  2 -1</clus>
</clustering>
</event>
<event>
 6    0  0.4340992E+002  0.9613213E+02  0.7546771E-02  0.1288646E+00
         21   -1    0    0  504  502  0.00000000000E+00  0.00000000000E+00  0.18956313067E+02  0.18956313067E+02  0.00000000000E+00 0.  1.
         -1   -1    0    0    0  501 -0.00000000000E+00 -0.00000000000E+00 -0.10891793898E+04  0.10891793898E+04  0.00000000000E+00 0.  1.
         21    1    1    2  503  501  0.16003162632E+02  0.52422488622E+02 -0.29803350732E+03  0.30303166504E+03  0.00000000000E+00 0.  1.
         21    1    1    2  504  503  0.22604864530E+02  0.46001587784E+02 -0.13669578811E+03  0.14598926147E+03  0.00000000000E+00 0.  1.
         21    1    1    2  505  502 -0.72437980796E+02 -0.47073395706E+02 -0.18190547581E+03  0.20137717789E+03  0.00000000000E+00 0.  1.
         -1    1    1    2    0  505  0.33829953635E+02 -0.51350680700E+02 -0.45358830552E+03  0.45773759850E+03  0.00000000000E+00 0.  1.
<scales pt_clust_3="36.85306" pt_clust_4="36.85306" pt_clust_5="88.25550" pt_clust_6="61.49275"></scales>
<clustering>
<clus scale="   36.853">  3  4 -1 -1</clus>
<clus scale="   61.493">  2  6  1 -1</clus>
<clus scale="   88.255">  1  5  2 -1</clus>
<clus scale="   88.255">  1  3  2 -1</clus>
</clustering>
</event>
<event>
 6    0  0.4340992E+002  0.2159733E+03  0.7546771E-02  0.1136921E+00
         21   -1    0    0  505  502  0.00000000000E+00  0.00000000000E+00  0.22071796980E+03  0.22071796980E+03  0.00000000000E+00 0.  1.
          2   -1    0    0  503    0 -0.00000000000E+00 -0.00000000000E+00 -0.25480503291E+04  0.25480503291E+04  0.00000000000E+00 0.  1.
         21    1    1    2  503  502  0.19659981134E+02  0.66155263510E+02 -0.10425763432E+03  0.12503074846E+03  0.00000000000E+00 0.  1.
         21    1    1    2  504  501 -0.13868662926E+03 -0.86102406233E-01 -0.13227578665E+04  0.13300084067E+04  0.00000000000E+00 0. -1.
         21    1    1    2  505  504  0.17634763373E+03 -0.11189309868E+03  0.15234630901E+03  0.25851102747E+03  0.00000000000E+00 0.  1.
          2    1    1    2  501    0 -0.57320985607E+02  0.45823937577E+02 -0.10526631675E+04  0.10552181162E+04  0.00000000000E+00 0.  1.
<scales pt_clust_3="69.01474" pt_clust_4="57.13684" pt_clust_5="201.18384" pt_clust_6="57.13684"></scales>
<clustering>
<clus scale="   57.137">  4  6 -1 -1</clus>
<clus scale="   69.015">  1  3  2 -1</clus>
<clus scale="  201.184">  1  5  2 -1</clus>
<clus scale="   69.015">  1  3  2 -1</clus>
</clustering>
</event>
<event>
 6    0  0.4340992E+002  0.7790752E+02  0.7546771E-02  0.1335097E+00
         -1   -1    0    0    0  501 -0.00000000000E+00  0.00000000000E+00  0.16835958700E+03  0.16835958700E+03  0.00000000000E+00 0. -1.
         21   -1    0    0  503  502  0.00000000000E+00 -0.00000000000E+00 -0.29476424002E+04  0.29476424002E+04  0.00000000000E+00 0. -1.
         21    1    1    2  503  504 -0.44418072254E+02 -0.13113749956E+02 -0.11682171968E+03  0.12566721835E+03  0.00000000000E+00 0. -1.
         21    1    1    2  504  501 -0.55563037259E+02  0.86354549920E+02  0.70046475121E+02  0.12430152082E+03  0.00000000000E+00 0. -1.
         21    1    1    2  505  502  0.57260586504E+02 -0.25398408032E+02 -0.27834312391E+04  0.27841360090E+04  0.00000000000E+00 0. -1.
         -1    1    1    2    0  505  0.42720523009E+02 -0.47842391932E+02  0.50923670424E+02  0.81897239034E+02  0.00000000000E+00 0. -1.
<scales pt_clust_3="46.31345" pt_clust_4="14000.00000" pt_clust_5="40.62728" pt_clust_6="77.90752"></scales>
<clustering>
<clus scale="   46.313">  2  3  1 -1</clus>
<clus scale="   40.627">  2  5  1 -1</clus>
<clus scale="   77.908">  1  6  2 -1</clus>
<clus scale="   46.313">  2  3  1 -1</clus>
</clustering>
</event>
<event>
 6    0  0.4340992E+002  0.1136154E+03  0.7546771E-02  0.1254018E+00
          2   -1    0    0  504    0 -0.00000000000E+00  0.00000000000E+00  0.46984872860E+03  0.46984872860E+03  0.00000000000E+00 0. -1.
         21   -1    0    0  503  502  0.00000000000E+00 -0.00000000000E+00 -0.77293684164E+03  0.77293684164E+03  0.00000000000E+00 0. -1.
         21    1    1    2  503  501 -0.34212882979E+02  0.17168985994E+02 -0.82753357017E+02  0.91177922434E+02  0.00000000000E+00 0. -1.
         21    1    1    2  504  505  0.93314368129E+02  0.16782591500E+02  0.24740823752E+03  0.26495294426E+03  0.00000000000E+00 0. -1.
         21    1    1    2  505  502 -0.70161944587E+02 -0.64949402216E+02 -0.67250359387E+03  0.67926593252E+03  0.00000000000E+00 0. -1.
          2    1    1    2  501    0  0.11060459437E+02  0.30997824721E+02  0.20476060033E+03  0.20738877103E+03  0.00000000000E+00 0. -1.
<scales pt_clust_3="38.34688" pt_clust_4="113.61538" pt_clust_5="14000.00000" pt_clust_6="32.91199"></scales>
<clustering>
<clus scale="   32.912">  1  6  2 -1</clus>
<clus scale="   38.347">  2  3  1 -1</clus>
<clus scale="  113.615">  1  4  2 -1</clus>
<clus scale="   38.347">  2  3  1 -1</clus>
</clustering>
</event>
<event>
 6    0  0.4340992E+002  0.7960013E+02  0.7546771E-02  0.1330190E+00
          1   -1    0    0  505    0 -0.00000000000E+00  0.00000000000E+00  0.12272639344E+04  0.12272639344E+04  0.00000000000E+00 0. -1.
         21   -1    0    0  504  502  0.00000000000E+00 -0.00000000000E+00 -0.12882861865E+03  0.12882861865E+03  0.00000000000E+00 0. -1.
         21    1    1    2  503  501  0.18665091988E+02 -0.81052508747E+02  0.29157295633E+03  0.30320402981E+03  0.00000000000E+00 0. -1.
         21    1    1    2  504  503 -0.20861077062E+02 -0.28952622010E+02 -0.39230972547E+02  0.53033084622E+02  0.00000000000E+00 0.  1.
         21    1    1    2  505  502  0.64304170294E+02  0.94222871473E+02 -0.32747157061E+02  0.11868172615E+03  0.00000000000E+00 0. -1.
          1    1    1    2  501    0 -0.62108185219E+02  0.15782259285E+02  0.87884048899E+03  0.88117371242E+03  0.00000000000E+00 0. -1.
<scales pt_clust_3="14000.00000" pt_clust_4="35.68528" pt_clust_5="79.60013" pt_clust_6="64.26837"></scales>
<clustering>
<clus scale="   35.685">  2  4  1 -1</clus>
<clus scale="   64.268">  1  6  2 -1</clus>
<clus scale="   79.600">  2  5  1 -1</clus>
<clus scale="   35.685">  2  3  1 -1</clus>
</clustering>
</event>
<event>
 6    0  0.4340992E+002  0.9760139E+02  0.7546771E-02  0.1285422E+00
         21   -1    0    0  504  502  0.00000000000E+00  0.00000000000E+00  0.23238590834E+03  0.23238590834E+03  0.00000000000E+00 0. -1.
          1   -1    0    0  505    0 -0.00000000000E+00 -0.00000000000E+00 -0.22766585322E+04  0.22766585322E+04  0.00000000000E+00 0.  1.
         21    1    1    2  503  502  0.11241791996E+03  0.77669451060E+02  0.14720459131E+03  0.20084701656E+03  0.00000000000E+00 0. -1.
         21    1    1    2  504  501 -0.22815995238E+02 -0.40169958627E+02  0.46454510722E+02  0.65515011877E+02  0.00000000000E+00 0. -1.
         21    1    1    2  505  503 -0.14470166570E+02  0.29798852897E+02 -0.24888621727E+03  0.25108107556E+03  0.00000000000E+00 0.  1.
          1    1    1    2  501    0 -0.75131758150E+02 -0.67298345331E+02 -0.19890455086E+04  0.19916013365E+04  0.00000000000E+00 0.  1.
<scales pt_clust_3="97.60139" pt_clust_4="46.10929" pt_clust_5="33.12638" pt_clust_6="14000.00000"></scales>
<clustering>
<clus scale="   33.126">  2  5  1 -1</clus>
<clus scale="   46.109">  1  4  2 -1</clus>
<clus scale="   97.601">  1  3  2 -1</clus>
<clus scale="   46.109">  1  3  2 -1</clus>
</clustering>
</event>
<event>
 6    0  0.4340992E+002  0.1666500E+03  0.7546771E-02  0.1181387E+00
          1   -1    0    0  503    0 -0.00000000000E+00  0.00000000000E+00  0.29137339107E+04  0.29137339107E+04  0.00000000000E+00 0. -1.
         21   -1    0    0  505  502  0.00000000000E+00 -0.00000000000E+00 -0.32994201014E+03  0.32994201014E+03  0.00000000000E+00 0.  1.
         21    1    1    2  503  504  0.13867851259E+03  0.46553733746E+02 -0.25213110821E+03  0.29149455519E+03  0.00000000000E+00 0.  1.
         21    1    1    2  504  502  0.22762514252E+02 -0.24600985803E+02 -0.50681149116E+02  0.60761167149E+02  0.00000000000E+00 0.  1.
         21    1    1    2  505  501 -0.90121335192E+02  0.24136119504E+01  0.17492583580E+04  0.17515799963E+04  0.00000000000E+00 0. -1.
          1    1    1    2  501    0 -0.71319691653E+02 -0.24366359893E+02  0.11373457999E+04  0.11398402022E+04  0.00000000000E+00 0. -1.
<scales pt_clust_3="162.75798" pt_clust_4="33.51627" pt_clust_5="32.73827" pt_clust_6="32.73827"></scales>
<clustering>
<clus scale="   32.738">  5  6 -1 -1</clus>
<clus scale="   33.516">  2  4  1 -1</clus>
<clus scale="  162.758">  2  3  1 -1</clus>
<clus scale="   33.516">  2  3  1 -1</clus>
</clustering>
</event>
<event>
 6    0  0.4340992E+002  0.2864502E+03  0.7546771E-02  0.1092217E+00
          2   -1    0    0  503    0 -0.00000000000E+00  0.00000000000E+00  0.13063132543E+04  0.13063132543E+04  0.00000000000E+00 0. -1.
         21   -1    0    0  504  502  0.00000000000E+00 -0.00000000000E+00 -0.20354148521E+03  0.20354148521E+03  0.00000000000E+00 0.  1.
         21    1    1    2  503  505  0.99279109431E+02 -0.67268882749E+02  0.10359837055E+02  0.12036930830E+03  0.00000000000E+00 0.  1.
         21    1    1    2  504  501 -0.81565798772E+02  0.96818866862E+02  0.39853410600E+03  0.41815823100E+03  0.00000000000E+00 0. -1.
         21    1    1    2  505  502  0.60841956699E+02 -0.13994274589E+03 -0.89105602588E+02  0.17670745381E+03  0.00000000000E+00 0.  1.
          2    1    1    2  501    0 -0.78555267359E+02  0.11039276177E+03  0.78298342865E+03  0.79461974644E+03  0.00000000000E+00 0. -1.
<scales pt_clust_3="102.91902" pt_clust_4="76.54881" pt_clust_5="102.91902" pt_clust_6="273.58132"></scales>
<clustering>
<clus scale="   76.549">  4  6 -1 -1</clus>
<clus scale="  102.919">  3  5 -1 -1</clus>
<clus scale="  273.581">  1  4  2 -1</clus>
<clus scale="  286.450">  2  3  1 -1</clus>
</clustering>
</event>
<event>
 6    0  0.4340992E+002  0.1608543E+03  0.7546771E-02  0.1187736E+00
         21   -1    0    0  504  502  0.00000000000E+00  0.00000000000E+00  0.38038826576E+03  0.38038826576E+03  0.00000000000E+00 0.  1.
          2   -1    0    0  503    0 -0.00000000000E+00 -0.00000000000E+00 -0.67777734310E+03  0.67777734310E+03  0.00000000000E+00 0. -1.
         21    1    1    2  503  505 -0.68695742151E+02 -0.16871135233E+02 -0.93925691520E+02  0.11758305882E+03  0.00000000000E+00 0.  1.
         21    1    1    2  504  501 -0.11545178284E+03  0.10797716141E+03  0.21090900196E+03  0.26357311823E+03  0.00000000000E+00 0.  1.
         21    1    1    2  505  502  0.24536505465E+02  0.23663111872E+02  0.11097050789E+03  0.11608805530E+03  0.00000000000E+00 0.  1.
          2    1    1    2  501    0  0.15961101953E+03 -0.11476913805E+03 -0.52534289566E+03  0.56092137651E+03  0.00000000000E+00 0. -1.
<scales pt_clust_3="69.43490" pt_clust_4="160.85428" pt_clust_5="34.08787" pt_clust_6="14000.00000"></scales>
<clustering>
<clus scale="   34.088">  1  5  2 -1</clus>
<clus scale="   69.435">  2  3  1 -1</clus>
<clus scale="  160.854">  1  4  2 -1</clus>
<clus scale="   34.088">  1  3  2 -1</clus>
</clustering>
</event>
<event>
 6    0  0.4340992E+002  0.1403545E+03  0.7546771E-02  0.1212853E+00
         21   -1    0    0  505  502  0.00000000000E+00  0.00000000000E+00  0.13152500241E+03  0.13152500241E+03  0.00000000000E+00 0. -1.
          2   -1    0    0  503    0 -0.00000000000E+00 -0.00000000000E+00 -0.15786015211E+04  0.15786015211E+04  0.00000000000E+00 0. -1.
         21    1    1    2  503  502 -0.58778130335E+02 -0.27007379040E+02 -0.44219888761E+02  0.78356018852E+02  0.00000000000E+00 0. -1.
         21    1    1    2  504  501  0.77849472509E+02  0.15438645404E+02 -0.59501533325E+03  0.60028504808E+03  0.00000000000E+00 0. -1.
         21    1    1    2  505  504 -0.68614213970E+02  0.22613030957E+02  0.99369463635E+02  0.12285580910E+03  0.00000000000E+00 0. -1.
          2    1    1    2  501    0  0.49542871796E+02 -0.11044297321E+02 -0.90721076030E+03  0.90862964746E+03  0.00000000000E+00 0. -1.
<scales pt_clust_3="64.68591" pt_clust_4="49.89282" pt_clust_5="125.72662" pt_clust_6="49.89282"></scales>
<clustering>
<clus scale="   49.893">  4  6 -1 -1</clus>
<clus scale="   64.686">  1  3  2 -1</clus>
<clus scale="  125.727">  1  5  2 -1</clus>
<clus scale="   64.686">  1  3  2 -1</clus>
</clustering>
</event>
<event>
 6    0  0.4340992E+002  0.1166602E+03  0.7546771E-02  0.1248711E+00
          1   -1    0    0  505    0 -0.00000000000E+00  0.00000000000E+00  0.12499683702E+04  0.12499683702E+04  0.00000000000E+00 0.  1.
         21   -1    0    0  504  502  0.00000000000E+00 -0.00000000000E+00 -0.46192546676E+03  0.46192546676E+03  0.00000000000E+00 0. -1.
         21    1    1    2  503  502 -0.92335842483E+02  0.83720278603E+02 -0.41977765581E+03  0.43789070917E+03  0.00000000000E+00 0. -1.
         21    1    1    2  504  501  0.50955241448E+02 -0.56182227307E+02  0.15885848459E+02  0.77493480225E+02  0.00000000000E+00 0.  1.
         21    1    1    2  505  503 -0.75171562285E+01 -0.35255439380E+02  0.19227343782E+03  0.19562343555E+03  0.00000000000E+00 0.  1.
          1    1    1    2  501    0  0.48897757263E+02  0.77173880840E+01  0.99966127294E+03  0.10008862120E+04  0.00000000000E+00 0.  1.
<scales pt_clust_3="116.66024" pt_clust_4="14000.00000" pt_clust_5="36.04794" pt_clust_6="49.03732"></scales>
<clustering>
<clus scale="   36.048">  1  5  2 -1</clus>
<clus scale="   49.037">  1  6  2 -1</clus>
<clus scale="  116.660">  2  3  1 -1</clus>
<clus scale="  116.660">  2  3  1 -1</clus>
</clustering>
</event>
<event>
 6    0  0.4340992E+002  0.1835563E+03  0.7546771E-02  0.1164405E+00
         21   -1    0    0  504  502  0.00000000000E+00  0.00000000000E+00  0.70241488414E+03  0.70241488414E+03  0.00000000000E+00 0. -1.
          2   -1    0    0  502    0 -0.00000000000E+00 -0.00000000000E+00 -0.27076739594E+04  0.27076739594E+04  0.00000000000E+00 0. -1.
         21    1    1    2  503  505 -0.30834829465E+02  0.32864560098E+02 -0.48318527720E+03  0.48528226644E+03  0.00000000000E+00 0. -1.
         21    1    1    2  504  503  0.17482816843E+03 -0.31173396953E+02  0.68696751717E+03  0.70954988465E+03  0.00000000000E+00 0. -1.
         21    1    1    2  505  501 -0.99567517150E+02  0.10763609892E+02 -0.92867139140E+03  0.93405572584E+03  0.00000000000E+00 0.  1.
          2    1    1    2  501    0 -0.44425821818E+02 -0.12454773036E+02 -0.12803699239E+04  0.12812009666E+04  0.00000000000E+00 0. -1.
<scales pt_clust_3="31.98082" pt_clust_4="177.25695" pt_clust_5="31.98082" pt_clust_6="46.13865"></scales>
<clustering>
<clus scale="   31.981">  3  5 -1 -1</clus>
<clus scale="   46.139">  2  6  1 -1</clus>
<clus scale="  177.257">  1  4  2 -1</clus>
<clus scale="  177.257">  1  3  2 -1</clus>
</clustering>
</event>
<event>
 6    0  0.5884543E+002  0.9618975E+02  0.7546771E-02  0.1288519E+00
         21   -1    0    0  503  502  0.00000000000E+00  0.00000000000E+00  0.91455539261E+03  0.91455539261E+03  0.00000000000E+00 0.  1.
          2   -1    0    0  505    0 -0.00000000000E+00 -0.00000000000E+00 -0.16998187885E+04  0.16998187885E+04  0.00000000000E+00 0.  1.
         21    1    1    2  503  501  0.34850160222E+02  0.89756394321E+02  0.90188021623E+03  0.90700532987E+03  0.00000000000E+00 0.  1.
         21    1    1    2  504  502  0.64884091278E+02 -0.39594110379E+02 -0.22019021391E+03  0.23294069885E+03  0.00000000000E+00 0.  1.
         21    1    1    2  505  504 -0.31568908625E+00 -0.36613098637E+02 -0.18718404962E+03  0.19073145279E+03  0.00000000000E+00 0.  1.
          2    1    1    2  501    0 -0.99418562414E+02 -0.13549185305E+02 -0.12797693486E+04  0.12836966996E+04  0.00000000000E+00 0.  1.
<scales pt_clust_3="96.18975" pt_clust_4="78.97100" pt_clust_5="36.61446" pt_clust_6="14000.00000"></scales>
<clustering>
<clus scale="   36.614">  2  5  1 -1</clus>
<clus scale="   78.971">  2  4  1 -1</clus>
<clus scale="   96.190">  1  3  2 -1</clus>
<clus scale="   96.190">  1  3  2 -1</clus>
</clustering>
</event>
<event>
 6    0  0.4340992E+002  0.1235570E+03  0.7546771E-02  0.1237342E+00
         -4   -1    0    0    0  501 -0.00000000000E+00  0.00000000000E+00  0.23308980835E+04  0.23308980835E+04  0.00000000000E+00 0. -1.
         21   -1    0    0  504  502  0.00000000000E+00 -0.00000000000E+00 -0.44027549835E+02  0.44027549835E+02  0.00000000000E+00 0. -1.
         21    1    1    2  503  502 -0.11664952520E+02 -0.56532041101E+02  0.14150054403E+03  0.15282129024E+03  0.00000000000E+00 0. -1.
         21    1    1    2  504  505  0.13088283330E+03  0.21631090178E+01  0.84157041982E+02  0.15561941656E+03  0.00000000000E+00 0. -1.
         21    1    1    2  505  501 -0.49741647097E+02  0.52803760921E+01  0.40318090183E+03  0.40627201901E+03  0.00000000000E+00 0.  1.
         -4    1    1    2    0  503 -0.69476233686E+02  0.49088555991E+02  0.16580320458E+04  0.16602129075E+04  0.00000000000E+00 0. -1.
<scales pt_clust_3="58.22023" pt_clust_4="14000.00000" pt_clust_5="50.02113" pt_clust_6="123.55705"></scales>
<clustering>
<clus scale="   50.021">  1  5  2 -1</clus>
<clus scale="   58.220">  2  3  1 -1</clus>
<clus scale="  123.557">  1  6  2 -1</clus>
<clus scale="   58.220">  2  3  1 -1</clus>
</clustering>
</event>
<event>
 6    0  0.4340992E+002  0.1300138E+03  0.7546771E-02  0.1227435E+00
          3   -1    0    0  504    0 -0.00000000000E+00  0.00000000000E+00  0.73602038824E+03  0.73602038824E+03  0.00000000000E+00 0.  1.
         21   -1    0    0  505  502  0.00000000000E+00 -0.00000000000E+00 -0.61976606439E+02  0.61976606439E+02  0.00000000000E+00 0.  1.
         21    1    1    2  503  502 -0.66248389967E+01  0.64943988729E+02 -0.93411260175E+01  0.65945938458E+02  0.00000000000E+00 0.  1.
         21    1    1    2  504  503  0.87921173586E+02  0.36993817174E+02  0.13803017742E+03  0.16778261279E+03  0.00000000000E+00 0.  1.
         21    1    1    2  505  501 -0.33801403591E+02 -0.46189386073E+02  0.12369037490E+03  0.13629124371E+03  0.00000000000E+00 0.  1.
          3    1    1    2  501    0 -0.47494930999E+02 -0.55748419830E+02  0.42166435550E+03  0.42797719972E+03  0.00000000000E+00 0.  1.
<scales pt_clust_3="65.28101" pt_clust_4="113.65257" pt_clust_5="55.81828" pt_clust_6="55.81828"></scales>
<clustering>
<clus scale="   55.818">  5  6 -1 -1</clus>
<clus scale="   65.281">  2  3  1 -1</clus>
<clus scale="  113.653">  2  4  1 -1</clus>
<clus scale="   65.281">  2  3  1 -1</clus>
</clustering>
</event>
<event>
 6    0  0.4340992E+002  0.1905177E+03  0.7546771E-02  0.1157995E+00
         21   -1    0    0  505  502  0.00000000000E+00  0.00000000000E+00  0.20042838898E+03  0.20042838898E+03  0.00000000000E+00 0.  1.
          2   -1    0    0  503    0 -0.00000000000E+00 -0.00000000000E+00 -0.50111501184E+03  0.50111501184E+03  0.00000000000E+00 0. -1.
         21    1    1    2  503  504  0.51296588180E+02  0.20622781338E+02 -0.69606327565E+02  0.88891393881E+02  0.00000000000E+00 0. -1.
         21    1    1    2  504  502  0.51047061709E+01  0.30468569432E+02 -0.73765800349E+01  0.31761701487E+02  0.00000000000E+00 0. -1.
         21    1    1    2  505  501 -0.17825764801E+03  0.66670975372E+02  0.10038621638E+03  0.21517016631E+03  0.00000000000E+00 0.  1.
          2    1    1    2  501    0  0.12185635366E+03 -0.11776232614E+03 -0.32408993164E+03  0.36572013915E+03  0.00000000000E+00 0. -1.
<scales pt_clust_3="56.12794" pt_clust_4="30.89323" pt_clust_5="190.51768" pt_clust_6="14000.00000"></scales>
<clustering>
<clus scale="   30.893">  1  4  2 -1</clus>
<clus scale="   56.128">  2  3  1 -1</clus>
<clus scale="  190.518">  1  5  2 -1</clus>
<clus scale="   30.893">  1  3  2 -1</clus>
</clustering>
</event>
<event>
 6    0  0.4340992E+002  0.9299047E+02  0.7546771E-02  0.1295767E+00
         21   -1    0    0  503  502  0.00000000000E+00  0.00000000000E+00  0.71992897334E+03  0.71992897334E+03  0.00000000000E+00 0. -1.
         -4   -1    0    0    0  501 -0.00000000000E+00 -0.00000000000E+00 -0.36059836701E+03  0.36059836701E+03  0.00000000000E+00 0.  1.
         21    1    1    2  503  501  0.15102360943E+02 -0.52712002413E+02  0.47335999183E+01  0.55036746567E+02  0.00000000000E+00 0. -1.
         21    1    1    2  504  502 -0.23003899112E+02 -0.10164083893E+03  0.50264969063E+03  0.51333882671E+03  0.00000000000E+00 0. -1.
         21    1    1    2  505  504 -0.17066517943E+02  0.77627970603E+02  0.16805844593E+03  0.18590591465E+03  0.00000000000E+00 0. -1.
         -4    1    1    2    0  505  0.24968056112E+02  0.76724870742E+02 -0.31611113015E+03  0.32624585242E+03  0.00000000000E+00 0.  1.
<scales pt_clust_3="54.83281" pt_clust_4="14000.00000" pt_clust_5="92.99047" pt_clust_6="47.36976"></scales>
<clustering>
<clus scale="   54.833">  2  3  1 -1</clus>
<clus scale="   47.370">  2  6  1 -1</clus>
<clus scale="   92.990">  2  5  1 -1</clus>
<clus scale="   92.990">  1  3  2 -1</clus>
</clustering>
</event>
<event>
 6    0  0.4340992E+002  0.1236201E+03  0.7546771E-02  0.1237242E+00
         21   -1    0    0  505  502  0.00000000000E+00  0.00000000000E+00  0.12944468553E+04  0.12944468553E+04  0.00000000000E+00 0. -1.
         -4   -1    0    0    0  501 -0.00000000000E+00 -0.00000000000E+00 -0.46056346794E+02  0.46056346794E+02  0.00000000000E+00 0.  1.
         21    1    1    2  503  502 -0.38049555254E+01 -0.74759602695E+02  0.44910966480E+03  0.45530535567E+03  0.00000000000E+00 0. -1.
         21    1    1    2  504  503  0.46942915026E+02  0.18929520736E+02  0.45682466192E+02  0.68182488542E+02  0.00000000000E+00 0. -1.
         21    1    1    2  505  501 -0.82085956288E+02 -0.67379217153E+01  0.73684668718E+03  0.74143546194E+03  0.00000000000E+00 0. -1.
         -4    1    1    2    0  504  0.38947996787E+02  0.62568003675E+02  0.16751690291E+02  0.75579895906E+02  0.00000000000E+00 0.  1.
<scales pt_clust_3="74.85637" pt_clust_4="43.46257" pt_clust_5="111.94388" pt_clust_6="43.46257"></scales>
<clustering>
<clus scale="   43.463">  4  6 -1 -1</clus>
<clus scale="   74.856">  1  3  2 -1</clus>
<clus scale="  111.944">  1  5  2 -1</clus>
<clus scale="   74.856">  1  3  2 -1</clus>
</clustering>
</event>
<event>
 6    0  0.4340992E+002  0.6719431E+02  0.7546771E-02  0.1369902E+00
         21   -1    0    0  503  502  0.00000000000E+00  0.00000000000E+00  0.25483548436E+02  0.25483548436E+02  0.00000000000E+00 0.  1.
         -3   -1    0    0    0  501 -0.00000000000E+00 -0.00000000000E+00 -0.25701159418E+04  0.25701159418E+04  0.00000000000E+00 0.  1.
         21    1    1    2  503  504 -0.12567489562E+02  0.98261808896E+02 -0.27670153916E+03  0.29389975613E+03  0.00000000000E+00 0.  1.
         21    1    1    2  504  501 -0.23457650578E+01  0.45079639920E+02 -0.43631289000E+03  0.43864178384E+03  0.00000000000E+00 0. -1.
         21    1    1    2  505  502  0.12587661483E+02 -0.59015235401E+02 -0.47103139507E+02  0.76550329734E+02  0.00000000000E+00 0.  1.
         -3    1    1    2    0  505  0.23255931369E+01 -0.84326213415E+02 -0.17845148247E+04  0.17865076205E+04  0.00000000000E+00 0.  1.
<scales pt_clust_3="14000.00000" pt_clust_4="45.14063" pt_clust_5="67.19431" pt_clust_6="46.58554"></scales>
<clustering>
<clus scale="   45.141">  2  4  1 -1</clus>
<clus scale="   46.586">  2  6  1 -1</clus>
<clus scale="   67.194">  1  5  2 -1</clus>
<clus scale="   67.194">  1  3  2 -1</clus>
</clustering>
</event>
<event>
 6    0  0.4340992E+002  0.5592177E+02  0.7546771E-02  0.1415789E+00
          2   -1    0    0  504    0 -0.00000000000E+00  0.00000000000E+00  0.21306653938E+03  0.21306653938E+03  0.00000000000E+00 0.  1.
         21   -1    0    0  503  502  0.00000000000E+00 -0.00000000000E+00 -0.15954920251E+03  0.15954920251E+03  0.00000000000E+00 0.  1.
         21    1    1    2  503  501 -0.53434907531E+02 -0.99863091983E+01 -0.41422934888E+01  0.54517651359E+02  0.00000000000E+00 0.  1.
         21    1    1    2  504  505  0.86128748049E+01  0.37624711704E+02  0.32483253612E+02  0.50447619453E+02  0.00000000000E+00 0.  1.
         21    1    1    2  505  502  0.45754534881E+02  0.57162537145E+02 -0.95386433010E+02  0.12024809652E+03  0.00000000000E+00 0.  1.
          2    1    1    2  501    0 -0.93250215432E+00 -0.84800939651E+02  0.12056280976E+03  0.14740237455E+03  0.00000000000E+00 0.  1.
<scales pt_clust_3="52.36132" pt_clust_4="38.59793" pt_clust_5="55.92177" pt_clust_6="14000.00000"></scales>
<clustering>
<clus scale="   38.598">  1  4  2 -1</clus>
<clus scale="   52.361">  2  3  1 -1</clus>
<clus scale="   55.922">  2  5  1 -1</clus>
<clus scale="   52.361">  2  3  1 -1</clus>
</clustering>
</event>
<event>
 6    0  0.4340992E+002  0.6632684E+02  0.7546771E-02  0.1373049E+00
         21   -1    0    0  503  502  0.00000000000E+00  0.00000000000E+00  0.83328402843E+02  0.83328402843E+02  0.00000000000E+00 0. -1.
          1   -1    0    0  504    0 -0.00000000000E+00 -0.00000000000E+00 -0.24598312048E+04  0.24598312048E+04  0.00000000000E+00 0. -1.
         21    1    1    2  503  505 -0.60605581441E+02  0.26367459605E+02  0.64214309727E+02  0.92150729794E+02  0.00000000000E+00 0. -1.
         21    1    1    2  504  502  0.71906507627E+02 -0.82649920248E+02 -0.19514828571E+04  0.19545554218E+04  0.00000000000E+00 0. -1.
         21    1    1    2  505  501  0.16722107458E+02  0.39166721040E+02 -0.15947796100E+03  0.16506629262E+03  0.00000000000E+00 0. -1.
          1    1    1    2  501    0 -0.28023033644E+02  0.17115739603E+02 -0.32975629353E+03  0.33138716342E+03  0.00000000000E+00 0. -1.
<scales pt_clust_3="66.32684" pt_clust_4="14000.00000" pt_clust_5="43.01949" pt_clust_6="32.83655"></scales>
<clustering>
<clus scale="   32.837">  2  6  1 -1</clus>
<clus scale="   43.019">  2  5  1 -1</clus>
<clus scale="   66.327">  1  3  2 -1</clus>
<clus scale="   66.327">  1  3  2 -1</clus>
</clustering>
</event>
<event>
 6    0  0.8912060E+002  0.1832973E+03  0.7546771E-02  0.1164649E+00
          2   -1    0    0  504    0 -0.00000000000E+00  0.00000000000E+00  0.24469752423E+04  0.24469752423E+04  0.00000000000E+00 0.  1.
         21   -1    0    0  505  502  0.00000000000E+00 -0.00000000000E+00 -0.64516976636E+03  0.64516976636E+03  0.00000000000E+00 0.  1.
         21    1    1    2  503  501 -0.59948225712E+02 -0.99958536269E+01  0.48708865137E+03  0.49086562433E+03  0.00000000000E+00 0.  1.
         21    1    1    2  504  502  0.43637024913E+02 -0.11980202883E+02  0.44156388851E+01  0.45466614908E+02  0.00000000000E+00 0.  1.
         21    1    1    2  505  503  0.12681731922E+03  0.31866499271E+02 -0.61427659789E+03  0.62803968421E+03  0.00000000000E+00 0.  1.
          2    1    1    2  501    0 -0.11050611843E+03 -0.98904427609E+01  0.19245777836E+04  0.19277730852E+04  0.00000000000E+00 0.  1.
<scales pt_clust_3="48.10003" pt_clust_4="45.25169" pt_clust_5="171.37633" pt_clust_6="48.10003"></scales>
<clustering>
<clus scale="   45.252">  2  4  1 -1</clus>
<clus scale="   48.100">  3  6 -1 -1</clus>
<clus scale="  171.376">  2  5  1 -1</clus>
<clus scale="   45.252">  2  3  1 -1</clus>
</clustering>
</event>
<event>
 6    0  0.4340992E+002  0.8814466E+02  0.7546771E-02  0.1307408E+00
          4   -1    0    0  505    0 -0.00000000000E+00  0.00000000000E+00  0.44196616752E+03  0.44196616752E+03  0.00000000000E+00 0.  1.
         21   -1    0    0  503  502  0.00000000000E+00 -0.00000000000E+00 -0.18155099129E+03  0.18155099129E+03  0.00000000000E+00 0. -1.
         21    1    1    2  503  501  0.69457850646E+02  0.31065562094E+02  0.99870615450E+02  0.12555318393E+03  0.00000000000E+00 0. -1.
         21    1    1    2  504  502 -0.14697723973E+01 -0.44850224872E+02 -0.11712729911E+03  0.12542929123E+03  0.00000000000E+00 0. -1.
         21    1    1    2  505  504 -0.63470953029E+02 -0.48786140316E+02 -0.76302881087E+01  0.80416855584E+02  0.00000000000E+00 0. -1.
          4    1    1    2  501    0 -0.45171252192E+01  0.62570803094E+02  0.28530214800E+03  0.29211782806E+03  0.00000000000E+00 0.  1.
<scales pt_clust_3="14000.00000" pt_clust_4="44.87430" pt_clust_5="88.14466" pt_clust_6="60.21095"></scales>
<clustering>
<clus scale="   44.874">  2  4  1 -1</clus>
<clus scale="   60.211">  1  6  2 -1</clus>
<clus scale="   88.145">  2  5  1 -1</clus>
<clus scale="   44.874">  2  3  1 -1</clus>
</clustering>
</event>
<event>
 6    0  0.4340992E+002  0.1375232E+03  0.7546771E-02  0.1216701E+00
          1   -1    0    0  503    0 -0.00000000000E+00  0.00000000000E+00  0.43045702985E+03  0.43045702985E+03  0.00000000000E+00 0. -1.
         21   -1    0    0  501  502  0.00000000000E+00 -0.00000000000E+00 -0.91980031902E+03  0.91980031902E+03  0.00000000000E+00 0.  1.
         21    1    1    2  503  505 -0.70365056730E+02 -0.11482070694E+03  0.32178027650E+03  0.34882313899E+03  0.00000000000E+00 0. -1.
         21    1    1    2  504  502  0.87387960113E+02  0.89608136552E+01 -0.72899537488E+03  0.73426916614E+03  0.00000000000E+00 0.  1.
         21    1    1    2  505  504  0.60885700019E+02  0.15192299596E+03 -0.55463225282E+02  0.17281155785E+03  0.00000000000E+00 0.  1.
          1    1    1    2  501    0 -0.77908603402E+02 -0.46063102680E+02 -0.26664965512E+02  0.94353485883E+02  0.00000000000E+00 0. -1.
<scales pt_clust_3="14000.00000" pt_clust_4="87.84618" pt_clust_5="137.52323" pt_clust_6="65.91972"></scales>
<clustering>
<clus scale="   87.846">  2  4  1 -1</clus>
<clus scale="   65.920">  2  6  1 -1</clus>
<clus scale="  137.523">  2  5  1 -1</clus>
<clus scale="   87.846">  2  3  1 -1</clus>
</clustering>
</event>
<event>
 6    0  0.4340992E+002  0.7228997E+02  0.7546771E-02  0.1352475E+00
         21   -1    0    0  503  502  0.00000000000E+00  0.00000000000E+00  0.14551481816E+03  0.14551481816E+03  0.00000000000E+00 0. -1.
          2   -1    0    0  505    0 -0.00000000000E+00 -0.00000000000E+00 -0.51575137448E+03  0.51575137448E+03  0.00000000000E+00 0.  1.
         21    1    1    2  503  504 -0.29901286145E+02  0.17211210821E+02  0.11664464386E+02  0.36419396213E+02  0.00000000000E+00 0.  1.
         21    1    1    2  504  501  0.83382113268E+02  0.43875506954E+02 -0.15437411227E+03  0.18085630611E+03  0.00000000000E+00 0.  1.
         21    1    1    2  505  502  0.14776661809E+02 -0.59094029258E+02  0.95802993007E+02  0.11352826739E+03  0.00000000000E+00 0. -1.
          2    1    1    2  501    0 -0.68257488931E+02 -0.19926885180E+01 -0.32332990145E+03  0.33046222292E+03  0.00000000000E+00 0.  1.
<scales pt_clust_3="34.50091" pt_clust_4="72.28997" pt_clust_5="45.60748" pt_clust_6="14000.00000"></scales>
<clustering>
<clus scale="   34.501">  1  3  2 -1</clus>
<clus scale="   45.607">  1  5  2 -1</clus>
<clus scale="   72.290">  1  4  2 -1</clus>
<clus scale="   34.501">  1  3  2 -1</clus>
</clustering>
</event>
<event>
 6    0  0.4340992E+002  0.3311057E+03  0.7546771E-02  0.1070649E+00
         21   -1    0    0  501  502  0.00000000000E+00  0.00000000000E+00  0.66458997235E+03  0.66458997235E+03  0.00000000000E+00 0.  1.
          1   -1    0    0  505    0 -0.00000000000E+00 -0.00000000000E+00 -0.23687911195E+04  0.23687911195E+04  0.00000000000E+00 0.  1.
         21    1    1    2  503  502  0.27628635473E+03  0.17765000891E+03  0.50897538263E+03  0.60576366316E+03  0.00000000000E+00 0.  1.
         21    1    1    2  504  503 -0.28288598090E+03 -0.20071925582E+03 -0.17788604752E+03  0.38981552528E+03  0.00000000000E+00 0. -1.
         21    1    1    2  505  504 -0.50879580462E+00  0.59865221199E+02 -0.96481694574E+03  0.96667256213E+03  0.00000000000E+00 0. -1.
          1    1    1    2  501    0  0.71084219810E+01 -0.36795974295E+02 -0.10704735365E+04  0.10711293413E+04  0.00000000000E+00 0.  1.
<scales pt_clust_3="331.10566" pt_clust_4="14000.00000" pt_clust_5="32.83765" pt_clust_6="37.47630"></scales>
<clustering>
<clus scale="   37.476">  2  6  1 -1</clus>
<clus scale="   32.838">  2  5  1 -1</clus>
<clus scale="  331.106">  1  3  2 -1</clus>
<clus scale="  331.106">  1  3  2 -1</clus>
</clustering>
</event>
<event>
 6    0  0.4340992E+002  0.7115816E+02  0.7546771E-02  0.1356198E+00
          2   -1    0    0  504    0 -0.00000000000E+00  0.00000000000E+00  0.86887846764E+03  0.86887846764E+03  0.00000000000E+00 0.  1.
         21   -1    0    0  503  502  0.00000000000E+00 -0.00000000000E+00 -0.12229466209E+03  0.12229466209E+03  0.00000000000E+00 0. -1.
         21    1    1    2  503  501  0.96647504620E+01 -0.41714440561E+02  0.40209641318E+02  0.58739400812E+02  0.00000000000E+00 0. -1.
         21    1    1    2  504  505 -0.88489921860E+02 -0.26001893425E+01  0.64440119398E+02  0.10949774538E+03  0.00000000000E+00 0. -1.
         21    1    1    2  505  502  0.45240904306E+02 -0.18177963753E+02 -0.82072161310E+02  0.95462125740E+02  0.00000000000E+00 0. -1.
          2    1    1    2  501    0  0.33584267091E+02  0.62492593656E+02  0.72400620613E+03  0.72747385780E+03  0.00000000000E+00 0.  1.
<scales pt_clust_3="42.81941" pt_clust_4="71.15816" pt_clust_5="14000.00000" pt_clust_6="70.45311"></scales>
<clustering>
<clus scale="   42.819">  2  3  1 -1</clus>
<clus scale="   70.453">  1  6  2 -1</clus>
<clus scale="   71.158">  1  4  2 -1</clus>
<clus scale="   42.819">  2  3  1 -1</clus>
</clustering>
</event>
<event>
 6    0  0.4340992E+002  0.7986563E+02  0.7546771E-02  0.1329433E+00
          1   -1    0    0  503    0 -0.00000000000E+00  0.00000000000E+00  0.13994195882E+04  0.13994195882E+04  0.00000000000E+00 0.  1.
         21   -1    0    0  504  502  0.00000000000E+00 -0.00000000000E+00 -0.50147679279E+02  0.50147679279E+02  0.00000000000E+00 0. -1.
         21    1    1    2  503  502  0.17518986092E+01 -0.64607345890E+02  0.20490818924E+03  0.21485935937E+03  0.00000000000E+00 0. -1.
         21    1    1    2  504  505  0.45756241813E+02 -0.32182460494E+02 -0.17313200698E+02  0.58558443855E+02  0.00000000000E+00 0. -1.
         21    1    1    2  505  501 -0.58073801820E+02  0.11789591166E+02  0.15672404298E+03  0.16755293661E+03  0.00000000000E+00 0. -1.
          1    1    1    2  501    0  0.10565661397E+02  0.85000215218E+02  0.10049528774E+04  0.10085965276E+04  0.00000000000E+00 0.  1.
<scales pt_clust_3="14000.00000" pt_clust_4="55.94054" pt_clust_5="37.86783" pt_clust_6="79.86563"></scales>
<clustering>
<clus scale="   55.941">  2  4  1 -1</clus>
<clus scale="   37.868">  2  5  1 -1</clus>
<clus scale="   79.866">  1  6  2 -1</clus>
<clus scale="   55.941">  2  3  1 -1</clus>
</clustering>
</event>
<event>
 6    0  0.4340992E+002  0.6126879E+02  0.7546771E-02  0.1392583E+00
         21   -1    0    0  505  502  0.00000000000E+00  0.00000000000E+00  0.60263926669E+02  0.60263926669E+02  0.00000000000E+00 0. -1.
          1   -1    0    0  504    0 -0.00000000000E+00 -0.00000000000E+00 -0.61895897125E+03  0.61895897125E+03  0.00000000000E+00 0.  1.
         21    1    1    2  503  502 -0.44213304680E+02  0.50372116150E+01 -0.85872926092E+01  0.45320320011E+02  0.00000000000E+00 0. -1.
         21    1    1    2  504  503  0.14675277006E+00  0.40797076352E+02 -0.11179390467E+03  0.11900546247E+03  0.00000000000E+00 0.  1.
         21    1    1    2  505  501  0.49821468011E+02  0.50788656935E+02 -0.54620010756E+01  0.71354746190E+02  0.00000000000E+00 0. -1.
          1    1    1    2  501    0 -0.57549161016E+01 -0.96622944902E+02 -0.43285184622E+03  0.44354236925E+03  0.00000000000E+00 0.  1.
<scales pt_clust_3="44.79134" pt_clust_4="40.79734" pt_clust_5="61.26879" pt_clust_6="14000.00000"></scales>
<clustering>
<clus scale="   40.797">  2  4  1 -1</clus>
<clus scale="   44.791">  1  3  2 -1</clus>
<clus scale="   61.269">  1  5  2 -1</clus>
<clus scale="   44.791">  1  3  2 -1</clus>
</clustering>
</event>
<event>
 6    0  0.4340992E+002  0.1398315E+03  0.7546771E-02  0.1213556E+00
          1   -1    0    0  503    0 -0.00000000000E+00  0.00000000000E+00  0.71457436227E+03  0.71457436227E+03  0.00000000000E+00 0.  1.
         21   -1    0    0  504  502  0.00000000000E+00 -0.00000000000E+00 -0.14411724095E+03  0.14411724095E+03  0.00000000000E+00 0. -1.
         21    1    1    2  503  505 -0.12031254872E+02  0.56558907422E+02  0.99589868877E+02  0.11515990225E+03  0.00000000000E+00 0. -1.
         21    1    1    2  504  501  0.11503958142E+03 -0.37736541050E+02 -0.78169863739E+02  0.14411342554E+03  0.00000000000E+00 0. -1.
         21    1    1    2  505  502  0.29860913975E+02  0.29529693126E+02  0.11423500977E+02  0.43522101674E+02  0.00000000000E+00 0. -1.
          1    1    1    2  501    0 -0.13286924053E+03 -0.48352059499E+02  0.53761361521E+03  0.55589617375E+03  0.00000000000E+00 0.  1.
<scales pt_clust_3="59.24148" pt_clust_4="14000.00000" pt_clust_5="41.99615" pt_clust_6="139.83149"></scales>
<clustering>
<clus scale="   41.996">  2  5  1 -1</clus>
<clus scale="   59.241">  1  3  2 -1</clus>
<clus scale="  139.831">  1  6  2 -1</clus>
<clus scale="   41.996">  2  3  1 -1</clus>
</clustering>
</event>
<event>
 6    0  0.4340992E+002  0.1435367E+03  0.7546771E-02  0.1208648E+00
         21   -1    0    0  501  502  0.00000000000E+00  0.00000000000E+00  0.54535848386E+02  0.54535848386E+02  0.00000000000E+00 0.  1.
          2   -1    0    0  504    0 -0.00000000000E+00 -0.00000000000E+00 -0.25294437657E+04  0.25294437657E+04  0.00000000000E+00 0. -1.
         21    1    1    2  503  502  0.91481573963E+02 -0.11809939554E+02 -0.53257157286E+02  0.10651139774E+03  0.00000000000E+00 0.  1.
         21    1    1    2  504  505 -0.52394932081E+02  0.89185422263E+01 -0.24526781300E+03  0.25096029446E+03  0.00000000000E+00 0. -1.
         21    1    1    2  505  503  0.44661881850E+02  0.19611304886E+02 -0.32925188084E+00  0.48779046491E+02  0.00000000000E+00 0.  1.
          2    1    1    2  501    0 -0.83748523732E+02 -0.16719907559E+02 -0.21760536952E+04  0.21777288754E+04  0.00000000000E+00 0. -1.
<scales pt_clust_3="37.41848" pt_clust_4="53.14856" pt_clust_5="37.41848" pt_clust_6="133.99656"></scales>
<clustering>
<clus scale="   37.418">  3  5 -1 -1</clus>
<clus scale="   53.149">  2  4  1 -1</clus>
<clus scale="  133.997">  2  6  1 -1</clus>
<clus scale="  143.537">  1  3  2 -1</clus>
</clustering>
</event>
<event>
 6    0  0.4340992E+002  0.1130825E+03  0.7546771E-02  0.1254966E+00
          2   -1    0    0  505    0 -0.00000000000E+00  0.00000000000E+00  0.15667155347E+04  0.15667155347E+04  0.00000000000E+00 0. -1.
         21   -1    0    0  504  502  0.00000000000E+00 -0.00000000000E+00 -0.88162251103E+02  0.88162251103E+02  0.00000000000E+00 0.  1.
         21    1    1    2  503  502 -0.26493559499E+01 -0.38314113401E+02 -0.56014231908E+02  0.67916010991E+02  0.00000000000E+00 0.  1.
         21    1    1    2  504  501 -0.55023915101E+01 -0.38207251618E+02  0.61439382232E+01  0.39087317194E+02  0.00000000000E+00 0. -1.
         21    1    1    2  505  503  0.72741882932E+02 -0.59537455342E+02  0.58348379851E+03  0.59100713468E+03  0.00000000000E+00 0.  1.
          2    1    1    2  501    0 -0.64590135472E+02  0.13605882036E+03  0.94493977880E+03  0.95686732296E+03  0.00000000000E+00 0. -1.
<scales pt_clust_3="38.40560" pt_clust_4="62.70865" pt_clust_5="113.08245" pt_clust_6="14000.00000"></scales>
<clustering>
<clus scale="   38.406">  2  3  1 -1</clus>
<clus scale="   62.709">  2  4  1 -1</clus>
<clus scale="  113.082">  1  5  2 -1</clus>
<clus scale="   38.406">  2  3  1 -1</clus>
</clustering>
</event>
<event>
 6    0  0.4340992E+002  0.1362595E+03  0.7546771E-02  0.1218453E+00
          2   -1    0    0  505    0 -0.00000000000E+00  0.00000000000E+00  0.78194668819E+03  0.78194668819E+03  0.00000000000E+00 0.  1.
         21   -1    0    0  504  502  0.00000000000E+00 -0.00000000000E+00 -0.32472469725E+03  0.32472469725E+03  0.00000000000E+00 0.  1.
         21    1    1    2  503  501 -0.11317706897E+01  0.52368866078E+02  0.17690143160E+03  0.18449361924E+03  0.00000000000E+00 0.  1.
         21    1    1    2  504  503 -0.47231551422E+02 -0.49600155286E+02 -0.37395747036E+02  0.78034843182E+02  0.00000000000E+00 0.  1.
         21    1    1    2  505  502  0.20104759229E+02 -0.72425932616E+02 -0.25534206859E+03  0.26617529759E+03  0.00000000000E+00 0.  1.
          2    1    1    2  501    0  0.28258562883E+02  0.69657221824E+02  0.57305837497E+03  0.57796762543E+03  0.00000000000E+00 0.  1.
<scales pt_clust_3="47.81665" pt_clust_4="68.49084" pt_clust_5="123.63427" pt_clust_6="47.81665"></scales>
<clustering>
<clus scale="   47.817">  3  6 -1 -1</clus>
<clus scale="   68.491">  2  4  1 -1</clus>
<clus scale="  123.634">  2  5  1 -1</clus>
<clus scale="   68.491">  2  3  1 -1</clus>
</clustering>
</event>
<event>
 6    0  0.4340992E+002  0.1185170E+03  0.7546771E-02  0.1245564E+00
         21   -1    0    0  503  502  0.00000000000E+00  0.00000000000E+00  0.11275197776E+03  0.11275197776E+03  0.00000000000E+00 0. -1.
          2   -1    0    0  504    0 -0.00000000000E+00 -0.00000000000E+00 -0.14036908401E+04  0.14036908401E+04  0.00000000000E+00 0.  1.
         21    1    1    2  503  501  0.96673542176E+02  0.70810270379E+02  0.70958792654E+02  0.13926599873E+03  0.00000000000E+00 0. -1.
         21    1    1    2  504  505  0.65788234450E+01 -0.32491927829E+02 -0.16736919121E+03  0.17062078554E+03  0.00000000000E+00 0.  1.
         21    1    1    2  505  502 -0.54580279944E+02  0.34358532132E+02 -0.25749979560E+03  0.26545368791E+03  0.00000000000E+00 0. -1.
          2    1    1    2  501    0 -0.48672085676E+02 -0.72676874682E+02 -0.93702866821E+03  0.94110234570E+03  0.00000000000E+00 0.  1.
<scales pt_clust_3="14000.00000" pt_clust_4="33.15126" pt_clust_5="59.86552" pt_clust_6="118.51703"></scales>
<clustering>
<clus scale="   33.151">  2  4  1 -1</clus>
<clus scale="   59.866">  2  5  1 -1</clus>
<clus scale="  118.517">  2  6  1 -1</clus>
<clus scale="  118.517">  1  3  2 -1</clus>
</clustering>
</event>
<event>
 6    0  0.4340992E+002  0.1538095E+03  0.7546771E-02  0.1195869E+00
         21   -1    0    0  504  502  0.00000000000E+00  0.00000000000E+00  0.18754309311E+03  0.18754309311E+03  0.00000000000E+00 0.  1.
         -1   -1    0    0    0  501 -0.00000000000E+00 -0.00000000000E+00 -0.61570298128E+03  0.61570298128E+03  0.00000000000E+00 0.  1.
         21    1    1    2  503  501  0.85405791424E+02 -0.45760582620E+02  0.11262624678E+03  0.14856934944E+03  0.00000000000E+00 0.  1.
         21    1    1    2  504  503  0.65090019163E+02  0.17462735662E+02  0.21331334910E+02  0.70687223602E+02  0.00000000000E+00 0. -1.
         21    1    1    2  505  502 -0.10017692006E+03  0.26693786236E+01 -0.31754542907E+03  0.33298294313E+03  0.00000000000E+00 0.  1.
         -1    1    1    2    0  505 -0.50318890523E+02  0.25628468334E+02 -0.24457204079E+03  0.25100655822E+03  0.00000000000E+00 0.  1.
<scales pt_clust_3="148.45686" pt_clust_4="67.39182" pt_clust_5="30.19438" pt_clust_6="30.19438"></scales>
<clustering>
<clus scale="   30.194">  5  6 -1 -1</clus>
<clus scale="   67.392">  1  4  2 -1</clus>
<clus scale="  148.457">  1  3  2 -1</clus>
<clus scale="   67.392">  1  3  2 -1</clus>
</clustering>
</event>
<event>
 6    0  0.4340992E+002  0.2798717E+03  0.7546771E-02  0.1095759E+00
         21   -1    0    0  505  502  0.00000000000E+00  0.00000000000E+00  0.42654364078E+03  0.42654364078E+03  0.00000000000E+00 0. -1.
          4   -1    0    0  503    0 -0.00000000000E+00 -0.00000000000E+00 -0.14254714831E+04  0.14254714831E+04  0.00000000000E+00 0. -1.
         21    1    1    2  503  502 -0.33158443834E+03  0.33411237995E+03  0.17469879653E+03  0.50209460432E+03  0.00000000000E+00 0. -1.
         21    1    1    2  504  501  0.14948279566E+03 -0.12439095702E+03 -0.85413991133E+03  0.87599840441E+03  0.00000000000E+00 0.  1.
         21    1    1    2  505  504  0.11515928589E+03 -0.17922608700E+03 -0.87068222369E+02  0.23014023276E+03  0.00000000000E+00 0. -1.
          4    1    1    2  501    0  0.66942356795E+02 -0.30495335922E+02 -0.23241850511E+03  0.24378188235E+03  0.00000000000E+00 0. -1.
<scales pt_clust_3="275.42528" pt_clust_4="30.56098" pt_clust_5="213.03439" pt_clust_6="30.56098"></scales>
<clustering>
<clus scale="   30.561">  4  6 -1 -1</clus>
<clus scale="  213.034">  1  5  2 -1</clus>
<clus scale="  275.425">  1  3  2 -1</clus>
<clus scale="  213.034">  1  3  2 -1</clus>
</clustering>
</event>
<event>
 6    0  0.4340992E+002  0.7920559E+02  0.7546771E-02  0.1331321E+00
          2   -1    0    0  505    0 -0.00000000000E+00  0.00000000000E+00  0.29967395600E+03  0.29967395600E+03  0.00000000000E+00 0.  1.
         21   -1    0    0  503  502  0.00000000000E+00 -0.00000000000E+00 -0.52636121095E+03  0.52636121095E+03  0.00000000000E+00 0. -1.
         21    1    1    2  503  501  0.20240831493E+02 -0.47445852038E+02 -0.45305668667E+03  0.45598372939E+03  0.00000000000E+00 0. -1.
         21    1    1    2  504  502 -0.86389148893E+02  0.19805592356E+02 -0.98228079976E+01  0.89173056984E+02  0.00000000000E+00 0.  1.
         21    1    1    2  505  504 -0.36260019708E+02  0.25570783801E+02  0.10821529606E+03  0.11695813061E+03  0.00000000000E+00 0. -1.
          2    1    1    2  501    0  0.10240833711E+03  0.20694758813E+01  0.12797694366E+03  0.16392024997E+03  0.00000000000E+00 0.  1.
<scales pt_clust_3="51.28798" pt_clust_4="14000.00000" pt_clust_5="44.36952" pt_clust_6="79.20559"></scales>
<clustering>
<clus scale="   44.370">  1  5  2 -1</clus>
<clus scale="   51.288">  2  3  1 -1</clus>
<clus scale="   79.206">  1  6  2 -1</clus>
<clus scale="   51.288">  2  3  1 -1</clus>
</clustering>
</event>
<event>
 6    0  0.4340992E+002  0.8855122E+02  0.7546771E-02  0.1306399E+00
         21   -1    0    0  504  502  0.00000000000E+00  0.00000000000E+00  0.19747227108E+02  0.19747227108E+02  0.00000000000E+00 0. -1.
          2   -1    0    0  502    0 -0.00000000000E+00 -0.00000000000E+00 -0.34850292076E+04  0.34850292076E+04  0.00000000000E+00 0.  1.
         21    1    1    2  503  501 -0.63749829519E+02  0.22209368662E+02 -0.38887308389E+03  0.39468920963E+03  0.00000000000E+00 0. -1.
         21    1    1    2  504  505  0.64472150572E+02 -0.64052016582E+02 -0.15507080397E+03  0.17973945942E+03  0.00000000000E+00 0. -1.
         21    1    1    2  505  503  0.15341712028E+01  0.10474485385E+03 -0.67086323541E+03  0.67899287089E+03  0.00000000000E+00 0. -1.
          2    1    1    2  501    0 -0.22564922562E+01 -0.62902205929E+02 -0.22504748572E+04  0.22513548948E+04  0.00000000000E+00 0.  1.
<scales pt_clust_3="64.50510" pt_clust_4="14000.00000" pt_clust_5="88.55122" pt_clust_6="62.94267"></scales>
<clustering>
<clus scale="   62.943">  2  6  1 -1</clus>
<clus scale="   64.505">  2  3  1 -1</clus>
<clus scale="   88.551">  2  5  1 -1</clus>
<clus scale="   88.551">  1  3  2 -1</clus>
</clustering>
</event>
<event>
 6    0  0.4340992E+002  0.8394545E+02  0.7546771E-02  0.1318214E+00
         21   -1    0    0  505  502  0.00000000000E+00  0.00000000000E+00  0.29123624816E+03  0.29123624816E+03  0.00000000000E+00 0. -1.
          2   -1    0    0  502    0 -0.00000000000E+00 -0.00000000000E+00 -0.39683600702E+04  0.39683600702E+04  0.00000000000E+00 0.  1.
         21    1    1    2  503  504 -0.46810817540E+02 -0.70345274664E+02 -0.55082964785E+02  0.10086547138E+03  0.00000000000E+00 0. -1.
         21    1    1    2  504  501  0.79642085286E+02  0.23324899043E+02 -0.20860185990E+03  0.22450311494E+03  0.00000000000E+00 0. -1.
         21    1    1    2  505  503  0.48716388257E+02  0.23965680192E+02  0.25706999239E+03  0.26274059698E+03  0.00000000000E+00 0. -1.
          2    1    1    2  501    0 -0.81547656003E+02  0.23054695430E+02 -0.36705089897E+04  0.36714871351E+04  0.00000000000E+00 0.  1.
<scales pt_clust_3="54.01292" pt_clust_4="14000.00000" pt_clust_5="54.29218" pt_clust_6="83.94545"></scales>
<clustering>
<clus scale="   54.292">  1  5  2 -1</clus>
<clus scale="   54.013">  1  3  2 -1</clus>
<clus scale="   83.945">  2  6  1 -1</clus>
<clus scale="   54.292">  1  3  2 -1</clus>
</clustering>
</event>
<event>
 6    0  0.4340992E+002  0.8006913E+02  0.7546771E-02  0.1328855E+00
         21   -1    0    0  504  502  0.00000000000E+00  0.00000000000E+00  0.11728328743E+03  0.11728328743E+03  0.00000000000E+00 0. -1.
          2   -1    0    0  505    0 -0.00000000000E+00 -0.00000000000E+00 -0.20743199886E+04  0.20743199886E+04  0.00000000000E+00 0. -1.
         21    1    1    2  503  501 -0.28369799850E+02  0.49145167977E+02 -0.86786801557E+03  0.86972121138E+03  0.00000000000E+00 0.  1.
         21    1    1    2  504  503  0.31494205398E+02 -0.95184491327E+02  0.18421984520E+02  0.10193793149E+03  0.00000000000E+00 0. -1.
         21    1    1    2  505  502  0.33872455277E+02  0.69632912111E+02  0.28866660367E+02  0.82640000946E+02  0.00000000000E+00 0. -1.
          2    1    1    2  501    0 -0.36996860825E+02 -0.23593588762E+02 -0.11364573305E+04  0.11373041322E+04  0.00000000000E+00 0. -1.
<scales pt_clust_3="68.33831" pt_clust_4="80.06913" pt_clust_5="14000.00000" pt_clust_6="43.87967"></scales>
<clustering>
<clus scale="   43.880">  2  6  1 -1</clus>
<clus scale="   68.338">  2  3  1 -1</clus>
<clus scale="   80.069">  2  4  1 -1</clus>
<clus scale="   80.069">  1  3  2 -1</clus>
</clustering>
</event>
<event>
 6    0  0.4340992E+002  0.2604203E+03  0.7546771E-02  0.1106891E+00
          2   -1    0    0  502    0 -0.00000000000E+00  0.00000000000E+00  0.48524732411E+03  0.48524732411E+03  0.00000000000E+00 0. -1.
         21   -1    0    0  503  502  0.00000000000E+00 -0.00000000000E+00 -0.29512721072E+03  0.29512721072E+03  0.00000000000E+00 0.  1.
         21    1    1    2  503  504  0.33329946187E+02  0.49786845518E+02 -0.11205277343E+03  0.12706470530E+03  0.00000000000E+00 0.  1.
         21    1    1    2  504  505 -0.19468885004E+03  0.15484010401E+03 -0.34436542637E+01  0.24877914884E+03  0.00000000000E+00 0.  1.
         21    1    1    2  505  501  0.81614634422E+02 -0.93707606114E+02  0.11014933270E+03  0.16605703686E+03  0.00000000000E+00 0. -1.
          2    1    1    2  501    0  0.79744269432E+02 -0.11091934342E+03  0.19546720838E+03  0.23847364383E+03  0.00000000000E+00 0. -1.
<scales pt_clust_3="59.91340" pt_clust_4="255.89843" pt_clust_5="46.08424" pt_clust_6="46.08424"></scales>
<clustering>
<clus scale="   46.084">  5  6 -1 -1</clus>
<clus scale="   59.913">  2  3  1 -1</clus>
<clus scale="  255.898">  2  4  1 -1</clus>
<clus scale="   59.913">  2  3  1 -1</clus>
</clustering>
</event>
<event>
 6    0  0.4340992E+002  0.1342693E+03  0.7546771E-02  0.1221255E+00
         21   -1    0    0  505  502  0.00000000000E+00  0.00000000000E+00  0.15138837113E+03  0.15138837113E+03  0.00000000000E+00 0. -1.
          2   -1    0    0  503    0 -0.00000000000E+00 -0.00000000000E+00 -0.31165215295E+03  0.31165215295E+03  0.00000000000E+00 0. -1.
         21    1    1    2  503  504  0.43854246450E+02 -0.27037677944E+02 -0.44235381859E+02  0.67904344254E+02  0.00000000000E+00 0. -1.
         21    1    1    2  504  502  0.10443446216E+03  0.55835780800E+01 -0.16601461784E+03  0.19621056691E+03  0.00000000000E+00 0. -1.
         21    1    1    2  505  501 -0.60252961289E+02  0.22411179305E+01  0.83321703996E+02  0.10284915318E+03  0.00000000000E+00 0. -1.
          2    1    1    2  501    0 -0.88035747318E+02  0.19212981934E+02 -0.33335486116E+02  0.96076459735E+02  0.00000000000E+00 0. -1.
<scales pt_clust_3="39.08949" pt_clust_4="39.08949" pt_clust_5="60.29463" pt_clust_6="122.17384"></scales>
<clustering>
<clus scale="   39.089">  3  4 -1 -1</clus>
<clus scale="   60.295">  1  5  2 -1</clus>
<clus scale="  122.174">  1  6  2 -1</clus>
<clus scale="   60.295">  1  3  2 -1</clus>
</clustering>
</event>
<event>
 6    0  0.4340992E+002  0.1392635E+03  0.7546771E-02  0.1214323E+00
          2   -1    0    0  502    0 -0.00000000000E+00  0.00000000000E+00  0.16293237085E+04  0.16293237085E+04  0.00000000000E+00 0. -1.
         21   -1    0    0  503  502  0.00000000000E+00 -0.00000000000E+00 -0.55657132717E+02  0.55657132717E+02  0.00000000000E+00 0. -1.
         21    1    1    2  503  504 -0.91867646514E+01  0.44623731365E+02 -0.23347053755E+02  0.51193348833E+02  0.00000000000E+00 0. -1.
         21    1    1    2  504  505 -0.98931730101E+02 -0.10103667613E+03  0.32483992487E+03  0.35428360664E+03  0.00000000000E+00 0. -1.
         21    1    1    2  505  501  0.39803178050E+02 -0.10218963029E+02  0.34905367430E+03  0.35146434774E+03  0.00000000000E+00 0. -1.
          2    1    1    2  501    0  0.68315316702E+02  0.66631907797E+02  0.92312003032E+03  0.92803953796E+03  0.00000000000E+00 0. -1.
<scales pt_clust_3="45.55957" pt_clust_4="124.74816" pt_clust_5="40.62317" pt_clust_6="40.62317"></scales>
<clustering>
<clus scale="   40.623">  5  6 -1 -1</clus>
<clus scale="   45.560">  2  3  1 -1</clus>
<clus scale="  124.748">  2  4  1 -1</clus>
<clus scale="   45.560">  2  3  1 -1</clus>
</clustering>
</event>
<event>
 6    0  0.4340992E+002  0.8918556E+02  0.7546771E-02  0.1304836E+00
         -1   -1    0    0    0  501 -0.00000000000E+00  0.00000000000E+00  0.56725794453E+02  0.56725794453E+02  0.00000000000E+00 0.  1.
         21   -1    0    0  503  502  0.00000000000E+00 -0.00000000000E+00 -0.12203717357E+04  0.12203717357E+04  0.00000000000E+00 0.  1.
         21    1    1    2  503  504 -0.37900539249E+02 -0.78579411029E+02 -0.90740032836E+03  0.91158462614E+03  0.00000000000E+00 0.  1.
         21    1    1    2  504  505  0.89985671182E+02  0.69991802911E+02 -0.19046022400E+03  0.22197155317E+03  0.00000000000E+00 0.  1.
         21    1    1    2  505  501  0.27783288061E+02 -0.22403508542E+02 -0.40998604810E+02  0.54357279980E+02  0.00000000000E+00 0.  1.
         -1    1    1    2    0  502 -0.79868419995E+02  0.30991116660E+02 -0.24786784039E+02  0.89184070816E+02  0.00000000000E+00 0.  1.
<scales pt_clust_3="89.18556" pt_clust_4="14000.00000" pt_clust_5="35.69073" pt_clust_6="64.17149"></scales>
<clustering>
<clus scale="   35.691">  1  5  2 -1</clus>
<clus scale="   64.171">  1  6  2 -1</clus>
<clus scale="   89.186">  2  3  1 -1</clus>
<clus scale="   89.186">  2  3  1 -1</clus>
</clustering>
</event>
<event>
 6    0  0.4340992E+002  0.1955669E+03  0.7546771E-02  0.1153534E+00
          2   -1    0    0  505    0 -0.00000000000E+00  0.00000000000E+00  0.25227292538E+04  0.25227292538E+04  0.00000000000E+00 0.  1.
         21   -1    0    0  504  502  0.00000000000E+00 -0.00000000000E+00 -0.40564862904E+02  0.40564862904E+02  0.00000000000E+00 0.  1.
         21    1    1    2  503  502  0.81173413943E+02  0.89339878320E+02  0.46167230295E+03  0.47719184015E+03  0.00000000000E+00 0.  1.
         21    1    1    2  504  501 -0.48403062699E+02 -0.31546268183E+02  0.15576081887E+02  0.59838431145E+02  0.00000000000E+00 0.  1.
         21    1    1    2  505  503  0.99540404120E+02  0.52961877064E+02  0.57292286154E+03  0.58391254290E+03  0.00000000000E+00 0.  1.
          2    1    1    2  501    0 -0.13231075536E+03 -0.11075548720E+03  0.14319931445E+04  0.14423513025E+04  0.00000000000E+00 0.  1.
<scales pt_clust_3="49.73472" pt_clust_4="57.77563" pt_clust_5="49.73472" pt_clust_6="188.67520"></scales>
<clustering>
<clus scale="   49.735">  3  5 -1 -1</clus>
<clus scale="   57.776">  2  4  1 -1</clus>
<clus scale="  188.675">  1  6  2 -1</clus>
<clus scale="   57.776">  2  3  1 -1</clus>
</clustering>
</event>
<event>
 6    0  0.4340992E+002  0.8140005E+02  0.7546771E-02  0.1325125E+00
         21   -1    0    0  505  502  0.00000000000E+00  0.00000000000E+00  0.68791689318E+02  0.68791689318E+02  0.00000000000E+00 0.  1.
          1   -1    0    0  504    0 -0.00000000000E+00 -0.00000000000E+00 -0.21905024103E+04  0.21905024103E+04  0.00000000000E+00 0.  1.
         21    1    1    2  503  501  0.69842177376E+02 -0.70866538245E+02 -0.27250632523E+03  0.29010290118E+03  0.00000000000E+00 0.  1.
         21    1    1    2  504  502 -0.22313317802E+02  0.54285999136E+02 -0.79327336985E+03  0.79544169690E+03  0.00000000000E+00 0.  1.
         21    1    1    2  505  503 -0.46703581468E+02  0.64640894385E+02  0.31143338931E+02  0.85612950590E+02  0.00000000000E+00 0.  1.
          1    1    1    2  501    0 -0.82527810501E+00 -0.48060355277E+02 -0.10870743649E+04  0.10881365510E+04  0.00000000000E+00 0.  1.
<scales pt_clust_3="14000.00000" pt_clust_4="30.19437" pt_clust_5="81.40005" pt_clust_6="48.06744"></scales>
<clustering>
<clus scale="   48.067">  2  6  1 -1</clus>
<clus scale="   30.194">  2  4  1 -1</clus>
<clus scale="   81.400">  1  5  2 -1</clus>
<clus scale="   81.400">  1  3  2 -1</clus>
</clustering>
</event>
<event>
 6    0  0.4340992E+002  0.7313318E+02  0.7546771E-02  0.1349751E+00
         21   -1    0    0  505  502  0.00000000000E+00  0.00000000000E+00  0.71908263312E+02  0.71908263312E+02  0.00000000000E+00 0.  1.
          3   -1    0    0  504    0 -0.00000000000E+00 -0.00000000000E+00 -0.15354571499E+04  0.15354571499E+04  0.00000000000E+00 0.  1.
         21    1    1    2  503  502  0.36306174120E+02  0.61118752797E+01  0.17432929127E+02  0.40735737586E+02  0.00000000000E+00 0. -1.
         21    1    1    2  504  503 -0.55099818158E+02 -0.13661923224E+02 -0.47757384728E+03  0.48093598089E+03  0.00000000000E+00 0.  1.
         21    1    1    2  505  501 -0.74889105629E+02 -0.85800442039E+01  0.23866419241E+01  0.75416784339E+02  0.00000000000E+00 0.  1.
          3    1    1    2  501    0  0.93682749667E+02  0.16130092148E+02 -0.10057946103E+04  0.10102769104E+04  0.00000000000E+00 0.  1.
<scales pt_clust_3="36.81702" pt_clust_4="14000.00000" pt_clust_5="42.01744" pt_clust_6="73.13318"></scales>
<clustering>
<clus scale="   36.817">  1  3  2 -1</clus>
<clus scale="   42.017">  1  5  2 -1</clus>
<clus scale="   73.133">  1  6  2 -1</clus>
<clus scale="   36.817">  1  3  2 -1</clus>
</clustering>
</event>
<event>
 6    0  0.4340992E+002  0.2371501E+03  0.7546771E-02  0.1121706E+00
         21   -1    0    0  503  502  0.00000000000E+00  0.00000000000E+00  0.68597409331E+03  0.68597409331E+03  0.00000000000E+00 0.  1.
          1   -1    0    0  504    0 -0.00000000000E+00 -0.00000000000E+00 -0.76194671696E+03  0.76194671696E+03  0.00000000000E+00 0.  1.
         21    1    1    2  503  501  0.10541504630E+02 -0.78819505598E+02 -0.16247940413E+03  0.18089553491E+03  0.00000000000E+00 0.  1.
         21    1    1    2  504  505 -0.16258414961E+03  0.23392012782E+03  0.49619970296E+03  0.57215939835E+03  0.00000000000E+00 0.  1.
         21    1    1    2  505  502  0.11768905966E+03 -0.86693941193E+01  0.10542339966E+03  0.15824021725E+03  0.00000000000E+00 0. -1.
          1    1    1    2  501    0  0.34353585316E+02 -0.14643122810E+03 -0.51511632214E+03  0.53662565977E+03  0.00000000000E+00 0.  1.
<scales pt_clust_3="39.47435" pt_clust_4="230.85258" pt_clust_5="118.00794" pt_clust_6="39.47435"></scales>
<clustering>
<clus scale="   39.474">  3  6 -1 -1</clus>
<clus scale="  118.008">  1  5  2 -1</clus>
<clus scale="  230.853">  1  4  2 -1</clus>
<clus scale="  118.008">  1  3  2 -1</clus>
</clustering>
</event>
<event>
 6    0  0.4340992E+002  0.1047269E+03  0.7546771E-02  0.1270659E+00
          2   -1    0    0  503    0 -0.00000000000E+00  0.00000000000E+00  0.12515991896E+04  0.12515991896E+04  0.00000000000E+00 0. -1.
         21   -1    0    0  501  502  0.00000000000E+00 -0.00000000000E+00 -0.32120731298E+02  0.32120731298E+02  0.00000000000E+00 0.  1.
         21    1    1    2  503  504 -0.20049152236E+02 -0.37800780542E+02  0.27342358829E+03  0.27675137967E+03  0.00000000000E+00 0.  1.
         21    1    1    2  504  505 -0.42790050161E+00 -0.61990618360E+02  0.61968414506E+02  0.87653318590E+02  0.00000000000E+00 0.  1.
         21    1    1    2  505  502 -0.25817301288E+02 -0.24506629536E+02  0.12551003477E+02  0.37744345607E+02  0.00000000000E+00 0.  1.
          2    1    1    2  501    0  0.46294354026E+02  0.12429802844E+03  0.87153545200E+03  0.88157087701E+03  0.00000000000E+00 0. -1.
<scales pt_clust_3="42.78864" pt_clust_4="33.89550" pt_clust_5="33.89550" pt_clust_6="94.69360"></scales>
<clustering>
<clus scale="   33.896">  4  5 -1 -1</clus>
<clus scale="   42.789">  1  3  2 -1</clus>
<clus scale="   94.694">  1  6  2 -1</clus>
<clus scale="  104.727">  2  3  1 -1</clus>
</clustering>
</event>
<event>
 6    0  0.4340992E+002  0.3744178E+03  0.7546771E-02  0.1053016E+00
         21   -1    0    0  503  502  0.00000000000E+00  0.00000000000E+00  0.19591179101E+03  0.19591179101E+03  0.00000000000E+00 0.  1.
          1   -1    0    0  505    0 -0.00000000000E+00 -0.00000000000E+00 -0.25996620405E+04  0.25996620405E+04  0.00000000000E+00 0.  1.
         21    1    1    2  503  504  0.13242181279E+02 -0.40747984864E+02  0.26331743622E+02  0.50290300830E+02  0.00000000000E+00 0. -1.
         21    1    1    2  504  501 -0.21699564332E+02 -0.10941960978E+03 -0.56799901770E+03  0.57884920852E+03  0.00000000000E+00 0. -1.
         21    1    1    2  505  502 -0.13913387755E+02  0.40540595463E+03 -0.14567607682E+03  0.43100938478E+03  0.00000000000E+00 0.  1.
          1    1    1    2  501    0  0.22370770809E+02 -0.25523835999E+03 -0.17164068985E+04  0.17354249374E+04  0.00000000000E+00 0.  1.
<scales pt_clust_3="42.84570" pt_clust_4="43.69863" pt_clust_5="368.52425" pt_clust_6="43.69863"></scales>
<clustering>
<clus scale="   42.846">  1  3  2 -1</clus>
<clus scale="   43.699">  4  6 -1 -1</clus>
<clus scale="  368.524">  1  5  2 -1</clus>
<clus scale="   42.846">  1  3  2 -1</clus>
</clustering>
</event>
<event>
 6    0  0.4340992E+002  0.9458439E+02  0.7546771E-02  0.1292115E+00
         21   -1    0    0  503  502  0.00000000000E+00  0.00000000000E+00  0.77473940616E+03  0.77473940616E+03  0.00000000000E+00 0.  1.
          2   -1    0    0  504    0 -0.00000000000E+00 -0.00000000000E+00 -0.63820844361E+03  0.63820844361E+03  0.00000000000E+00 0. -1.
         21    1    1    2  503  505 -0.81809917532E+02 -0.37143700678E+02  0.30291780200E+03  0.31596156708E+03  0.00000000000E+00 0.  1.
         21    1    1    2  504  502  0.29607353606E+02 -0.77486590784E+01 -0.17949675412E+02  0.35479965508E+02  0.00000000000E+00 0.  1.
         21    1    1    2  505  501  0.48278365536E+02  0.10107315076E+03  0.44831823866E+03  0.46209936756E+03  0.00000000000E+00 0.  1.
          2    1    1    2  501    0  0.39241983897E+01 -0.56180791005E+02 -0.59675540269E+03  0.59940694962E+03  0.00000000000E+00 0. -1.
<scales pt_clust_3="14000.00000" pt_clust_4="30.60453" pt_clust_5="94.58439" pt_clust_6="71.73917"></scales>
<clustering>
<clus scale="   30.605">  2  4  1 -1</clus>
<clus scale="   71.739">  2  6  1 -1</clus>
<clus scale="   94.584">  2  5  1 -1</clus>
<clus scale="   94.584">  1  3  2 -1</clus>
</clustering>
</event>
<event>
 6    0  0.4340992E+002  0.9817815E+02  0.7546771E-02  0.1284174E+00
         21   -1    0    0  504  502  0.00000000000E+00  0.00000000000E+00  0.11640811532E+03  0.11640811532E+03  0.00000000000E+00 0. -1.
          2   -1    0    0  503    0 -0.00000000000E+00 -0.00000000000E+00 -0.13752145778E+04  0.13752145778E+04  0.00000000000E+00 0.  1.
         21    1    1    2  503  505  0.27413180653E+02 -0.28245194226E+02 -0.34465999190E+03  0.34690025006E+03  0.00000000000E+00 0.  1.
         21    1    1    2  504  501 -0.51538755670E+02  0.10818006945E+03  0.66215735640E+02  0.13690761267E+03  0.00000000000E+00 0. -1.
         21    1    1    2  505  502  0.62691172982E+02 -0.78345569347E+01 -0.72037795836E+02  0.95817573968E+02  0.00000000000E+00 0.  1.
          2    1    1    2  501    0 -0.38565597965E+02 -0.72100318287E+02 -0.90832441041E+03  0.91199725646E+03  0.00000000000E+00 0.  1.
<scales pt_clust_3="39.36081" pt_clust_4="98.17815" pt_clust_5="65.71275" pt_clust_6="14000.00000"></scales>
<clustering>
<clus scale="   39.361">  2  3  1 -1</clus>
<clus scale="   65.713">  1  5  2 -1</clus>
<clus scale="   98.178">  1  4  2 -1</clus>
<clus scale="   65.713">  1  3  2 -1</clus>
</clustering>
</event>
<event>
 6    0  0.4340992E+002  0.1187337E+03  0.7546771E-02  0.1245201E+00
         -2   -1    0    0    0  501 -0.00000000000E+00  0.00000000000E+00  0.35574527571E+03  0.35574527571E+03  0.00000000000E+00 0. -1.
         21   -1    0    0  504  502  0.00000000000E+00 -0.00000000000E+00 -0.25677115552E+03  0.25677115552E+03  0.00000000000E+00 0.  1.
         21    1    1    2  503  502  0.24185581433E+01 -0.48971621321E+02  0.11727401112E+02  0.50414294155E+02  0.00000000000E+00 0.  1.
         21    1    1    2  504  505  0.10186435300E+02 -0.33691916007E+02 -0.17570109852E+03  0.17919203300E+03  0.00000000000E+00 0.  1.
         21    1    1    2  505  501 -0.94604525878E+02  0.14221773883E+03  0.12465414802E+03  0.21145817122E+03  0.00000000000E+00 0.  1.
         -2    1    1    2    0  503  0.81999532434E+02 -0.59554201502E+02  0.13829366958E+03  0.17145193286E+03  0.00000000000E+00 0. -1.
<scales pt_clust_3="57.39721" pt_clust_4="35.19813" pt_clust_5="118.73367" pt_clust_6="14000.00000"></scales>
<clustering>
<clus scale="   35.198">  2  4  1 -1</clus>
<clus scale="   57.397">  2  3  1 -1</clus>
<clus scale="  118.734">  2  5  1 -1</clus>
<clus scale="   35.198">  2  3  1 -1</clus>
</clustering>
</event>
<event>
 6    0  0.4340992E+002  0.8974431E+02  0.7546771E-02  0.1303472E+00
         21   -1    0    0  505  502  0.00000000000E+00  0.00000000000E+00  0.41756029384E+03  0.41756029384E+03  0.00000000000E+00 0. -1.
          1   -1    0    0  503    0 -0.00000000000E+00 -0.00000000000E+00 -0.18824723229E+04  0.18824723229E+04  0.00000000000E+00 0. -1.
         21    1    1    2  503  504  0.34739003199E+02 -0.33600785248E+02 -0.22719503125E+03  0.23227869756E+03  0.00000000000E+00 0. -1.
         21    1    1    2  504  502 -0.13965359890E+03  0.38499189003E+02  0.70667507171E+02  0.16118068063E+03  0.00000000000E+00 0. -1.
         21    1    1    2  505  501  0.62166520222E+02 -0.56809410101E+02  0.29244655235E+03  0.30433036538E+03  0.00000000000E+00 0. -1.
          1    1    1    2  501    0  0.42748075477E+02  0.51911006346E+02 -0.16008310573E+04  0.16022428732E+04  0.00000000000E+00 0. -1.
<scales pt_clust_3="48.33023" pt_clust_4="14000.00000" pt_clust_5="89.74431" pt_clust_6="78.82319"></scales>
<clustering>
<clus scale="   48.330">  2  3  1 -1</clus>
<clus scale="   78.823">  2  6  1 -1</clus>
<clus scale="   89.744">  1  5  2 -1</clus>
<clus scale="   89.744">  1  3  2 -1</clus>
</clustering>
</event>
<event>
 6    0  0.4340992E+002  0.8347399E+02  0.7546771E-02  0.1319472E+00
          1   -1    0    0  504    0 -0.00000000000E+00  0.00000000000E+00  0.11424744310E+04  0.11424744310E+04  0.00000000000E+00 0.  1.
         21   -1    0    0  505  502  0.00000000000E+00 -0.00000000000E+00 -0.14510382488E+03  0.14510382488E+03  0.00000000000E+00 0. -1.
         21    1    1    2  503  502  0.82935818080E+02  0.24356119118E+02 -0.77649166932E+02  0.11619364692E+03  0.00000000000E+00 0. -1.
         21    1    1    2  504  503  0.17960839777E+02 -0.37847669803E+02  0.71559681212E+02  0.82920599673E+02  0.00000000000E+00 0.  1.
         21    1    1    2  505  501 -0.48983887304E+00 -0.35489444934E+02 -0.31522130637E+02  0.47469836357E+02  0.00000000000E+00 0. -1.
          1    1    1    2  501    0 -0.10040681898E+03  0.48980995620E+02  0.10349822225E+04  0.10409941730E+04  0.00000000000E+00 0.  1.
<scales pt_clust_3="83.47399" pt_clust_4="43.61458" pt_clust_5="35.49283" pt_clust_6="14000.00000"></scales>
<clustering>
<clus scale="   35.493">  2  5  1 -1</clus>
<clus scale="   43.615">  1  4  2 -1</clus>
<clus scale="   83.474">  2  3  1 -1</clus>
<clus scale="   35.493">  2  3  1 -1</clus>
</clustering>
</event>
<event>
 6    0  0.4340992E+002  0.1107998E+03  0.7546771E-02  0.1259096E+00
         21   -1    0    0  503  502  0.00000000000E+00  0.00000000000E+00  0.90027782795E+02  0.90027782795E+02  0.00000000000E+00 0.  1.
          2   -1    0    0  505    0 -0.00000000000E+00 -0.00000000000E+00 -0.46065945616E+03  0.46065945616E+03  0.00000000000E+00 0.  1.
         21    1    1    2  503  501 -0.76584433481E+02 -0.10977707465E+03 -0.14557818280E+03  0.19776043305E+03  0.00000000000E+00 0.  1.
         21    1    1    2  504  502  0.29918352080E+02  0.45334757837E+02 -0.27353331066E+00  0.54317795240E+02  0.00000000000E+00 0.  1.
         21    1    1    2  505  504  0.11315067591E+03  0.16012232165E+02 -0.12764387165E+03  0.17132549433E+03  0.00000000000E+00 0.  1.
          2    1    1    2  501    0 -0.66484594506E+02  0.48430084648E+02 -0.97136085593E+02  0.12728351633E+03  0.00000000000E+00 0.  1.
<scales pt_clust_3="110.79977" pt_clust_4="54.31711" pt_clust_5="14000.00000" pt_clust_6="83.86496"></scales>
<clustering>
<clus scale="   54.317">  1  4  2 -1</clus>
<clus scale="   83.865">  2  6  1 -1</clus>
<clus scale="  110.800">  1  3  2 -1</clus>
<clus scale="   54.317">  1  3  2 -1</clus>
</clustering>
</event>
<event>
 6    0  0.4340992E+002  0.9564915E+02  0.7546771E-02  0.1289721E+00
          2   -1    0    0  503    0 -0.00000000000E+00  0.00000000000E+00  0.12265485017E+04  0.12265485017E+04  0.00000000000E+00 0. -1.
         21   -1    0    0  501  502  0.00000000000E+00 -0.00000000000E+00 -0.23957899883E+03  0.23957899883E+03  0.00000000000E+00 0. -1.
         21    1    1    2  503  505 -0.41959896406E+02  0.28238020811E+00  0.66128608731E+02  0.78317977104E+02  0.00000000000E+00 0. -1.
         21    1    1    2  504  502  0.49639949374E+02  0.81333628491E+02 -0.21168799786E+03  0.23214455009E+03  0.00000000000E+00 0. -1.
         21    1    1    2  505  504 -0.62539959112E+00  0.65833666077E+02  0.17792858177E+03  0.18971832522E+03  0.00000000000E+00 0. -1.
          2    1    1    2  501    0 -0.70546533767E+01 -0.14744967478E+03  0.95460031026E+03  0.96594664815E+03  0.00000000000E+00 0. -1.
<scales pt_clust_3="41.96085" pt_clust_4="14000.00000" pt_clust_5="66.28267" pt_clust_6="95.64915"></scales>
<clustering>
<clus scale="   41.961">  1  3  2 -1</clus>
<clus scale="   66.283">  1  5  2 -1</clus>
<clus scale="   95.649">  1  6  2 -1</clus>
<clus scale="   95.649">  2  3  1 -1</clus>
</clustering>
</event>
<event>
 6    0  0.4340992E+002  0.1414910E+03  0.7546771E-02  0.1211337E+00
         21   -1    0    0  505  502  0.00000000000E+00  0.00000000000E+00  0.33600813996E+03  0.33600813996E+03  0.00000000000E+00 0.  1.
          1   -1    0    0  503    0 -0.00000000000E+00 -0.00000000000E+00 -0.24550023067E+03  0.24550023067E+03  0.00000000000E+00 0.  1.
         21    1    1    2  503  502  0.46188305196E+01 -0.17798679318E+03  0.19063610886E+03  0.26085006832E+03  0.00000000000E+00 0.  1.
         21    1    1    2  504  501 -0.26147057687E+02  0.41010460327E+02 -0.48483844827E+02  0.68674665570E+02  0.00000000000E+00 0.  1.
         21    1    1    2  505  504  0.49513397376E+02  0.10265274033E+03  0.62193185512E+02  0.12983510289E+03  0.00000000000E+00 0. -1.
          1    1    1    2  501    0 -0.27985170209E+02  0.34323592520E+02 -0.11383754025E+03  0.12214853386E+03  0.00000000000E+00 0.  1.
<scales pt_clust_3="14000.00000" pt_clust_4="36.45786" pt_clust_5="141.49103" pt_clust_6="100.32578"></scales>
<clustering>
<clus scale="   36.458">  4  6 -1 -1</clus>
<clus scale="  100.326">  2  4  1 -1</clus>
<clus scale="  141.491">  1  5  2 -1</clus>
<clus scale="  141.491">  1  3  2 -1</clus>
</clustering>
</event>
<event>
 6    0  0.4340992E+002  0.1119788E+03  0.7546771E-02  0.1256949E+00
          1   -1    0    0  504    0 -0.00000000000E+00  0.00000000000E+00  0.17371556495E+04  0.17371556495E+04  0.00000000000E+00 0. -1.
         21   -1    0    0  503  502  0.00000000000E+00 -0.00000000000E+00 -0.52072716616E+02  0.52072716616E+02  0.00000000000E+00 0. -1.
         21    1    1    2  503  501 -0.10001745475E+02  0.33079328984E+02  0.58497091483E+02  0.67942524464E+02  0.00000000000E+00 0.  1.
         21    1    1    2  504  505 -0.24550687496E+02  0.27462223496E+02  0.31947983875E+03  0.32159645108E+03  0.00000000000E+00 0. -1.
         21    1    1    2  505  502  0.14759812849E+02 -0.14596106907E+03  0.75550080872E+02  0.16501606127E+03  0.00000000000E+00 0. -1.
          1    1    1    2  501    0  0.19792620121E+02  0.85419516588E+02  0.12315559217E+04  0.12346733293E+04  0.00000000000E+00 0. -1.
<scales pt_clust_3="34.55831" pt_clust_4="37.53786" pt_clust_5="111.97885" pt_clust_6="14000.00000"></scales>
<clustering>
<clus scale="   34.558">  2  3  1 -1</clus>
<clus scale="   37.538">  1  4  2 -1</clus>
<clus scale="  111.979">  2  5  1 -1</clus>
<clus scale="   34.558">  2  3  1 -1</clus>
</clustering>
</event>
<event>
 6    0  0.4340992E+002  0.9472019E+02  0.7546771E-02  0.1291808E+00
         21   -1    0    0  504  502  0.00000000000E+00  0.00000000000E+00  0.92894717006E+03  0.92894717006E+03  0.00000000000E+00 0. -1.
          1   -1    0    0  505    0 -0.00000000000E+00 -0.00000000000E+00 -0.59473134064E+02  0.59473134064E+02  0.00000000000E+00 0. -1.
         21    1    1    2  503  502 -0.54696333678E+01 -0.15436356907E+03  0.53038714587E+03  0.55242063036E+03  0.00000000000E+00 0. -1.
         21    1    1    2  504  501 -0.34838585726E+02  0.78621553802E+02  0.25245046417E+03  0.26669516800E+03  0.00000000000E+00 0. -1.
         21    1    1    2  505  503  0.54408421761E+02 -0.12674975852E+02  0.30952900110E+02  0.63867154286E+02  0.00000000000E+00 0. -1.
          1    1    1    2  501    0 -0.14100202667E+02  0.88416991121E+02  0.55683525844E+02  0.10543735147E+03  0.00000000000E+00 0. -1.
<scales pt_clust_3="94.72019" pt_clust_4="80.76472" pt_clust_5="55.86530" pt_clust_6="14000.00000"></scales>
<clustering>
<clus scale="   55.865">  2  5  1 -1</clus>
<clus scale="   80.765">  1  4  2 -1</clus>
<clus scale="   94.720">  1  3  2 -1</clus>
<clus scale="   80.765">  1  3  2 -1</clus>
</clustering>
</event>
<event>
 6    0  0.4340992E+002  0.3074930E+03  0.7546771E-02  0.1081554E+00
         21   -1    0    0  504  502  0.00000000000E+00  0.00000000000E+00  0.10097701041E+03  0.10097701041E+03  0.00000000000E+00 0. -1.
          2   -1    0    0  503    0 -0.00000000000E+00 -0.00000000000E+00 -0.30287659360E+04  0.30287659360E+04  0.00000000000E+00 0.  1.
         21    1    1    2  503  502  0.35729358811E+02 -0.30722747554E+03 -0.20649574266E+03  0.37189487835E+03  0.00000000000E+00 0. -1.
         21    1    1    2  504  505  0.36487233553E+02  0.18472714355E+02 -0.34188360463E+02  0.53304815721E+02  0.00000000000E+00 0.  1.
         21    1    1    2  505  501 -0.21906946079E+02  0.85044808321E+02 -0.52658413860E+03  0.53385708643E+03  0.00000000000E+00 0.  1.
          2    1    1    2  501    0 -0.50309646284E+02  0.20370995286E+03 -0.21605206839E+04  0.21706861659E+04  0.00000000000E+00 0.  1.
<scales pt_clust_3="298.53748" pt_clust_4="40.89694" pt_clust_5="47.69974" pt_clust_6="47.69974"></scales>
<clustering>
<clus scale="   40.897">  1  4  2 -1</clus>
<clus scale="   47.700">  5  6 -1 -1</clus>
<clus scale="  298.537">  1  3  2 -1</clus>
<clus scale="   40.897">  1  3  2 -1</clus>
</clustering>
</event>
<event>
 6    0  0.4340992E+002  0.9215470E+02  0.7546771E-02  0.1297716E+00
         21   -1    0    0  503  502  0.00000000000E+00  0.00000000000E+00  0.27293166831E+03  0.27293166831E+03  0.00000000000E+00 0. -1.
          2   -1    0    0  505    0 -0.00000000000E+00 -0.00000000000E+00 -0.33890810486E+03  0.33890810486E+03  0.00000000000E+00 0. -1.
         21    1    1    2  503  501 -0.80109425991E+02 -0.52164811678E+02  0.22634541314E+03  0.24570497300E+03  0.00000000000E+00 0. -1.
         21    1    1    2  504  502  0.45883990939E+02  0.60909759708E+02 -0.30099881457E+02  0.81983793007E+02  0.00000000000E+00 0. -1.
         21    1    1    2  505  504  0.90063854030E+01  0.43491081789E+02 -0.16562258425E+03  0.17147428258E+03  0.00000000000E+00 0. -1.
          2    1    1    2  501    0  0.25219049649E+02 -0.52236029819E+02 -0.96599383984E+02  0.11267672458E+03  0.00000000000E+00 0. -1.
<scales pt_clust_3="92.15470" pt_clust_4="14000.00000" pt_clust_5="44.41384" pt_clust_6="39.96303"></scales>
<clustering>
<clus scale="   44.414">  2  5  1 -1</clus>
<clus scale="   39.963">  2  6  1 -1</clus>
<clus scale="   92.155">  1  3  2 -1</clus>
<clus scale="   92.155">  1  3  2 -1</clus>
</clustering>
</event>
<event>
 6    0  0.4340992E+002  0.1619178E+03  0.7546771E-02  0.1186548E+00
         21   -1    0    0  503  502  0.00000000000E+00  0.00000000000E+00  0.48899843277E+02  0.48899843277E+02  0.00000000000E+00 0. -1.
          1   -1    0    0  504    0 -0.00000000000E+00 -0.00000000000E+00 -0.22132756666E+04  0.22132756666E+04  0.00000000000E+00 0. -1.
         21    1    1    2  503  505 -0.54173206143E+02 -0.16948719197E+03 -0.18174135493E+03  0.25434339897E+03  0.00000000000E+00 0. -1.
         21    1    1    2  504  502 -0.10566334734E+02  0.35831424919E+02 -0.28020121823E+02  0.46697598101E+02  0.00000000000E+00 0.  1.
         21    1    1    2  505  501  0.12330806967E+02  0.81473994238E+02 -0.82615101357E+03  0.83025029826E+03  0.00000000000E+00 0. -1.
          1    1    1    2  501    0  0.52408733910E+02  0.52181772809E+02 -0.11284633330E+04  0.11308842145E+04  0.00000000000E+00 0. -1.
<scales pt_clust_3="150.80155" pt_clust_4="37.35691" pt_clust_5="55.47617" pt_clust_6="55.47617"></scales>
<clustering>
<clus scale="   37.357">  1  4  2 -1</clus>
<clus scale="   55.476">  5  6 -1 -1</clus>
<clus scale="  150.802">  1  3  2 -1</clus>
<clus scale="   37.357">  1  3  2 -1</clus>
</clustering>
</event>
<event>
 6    0  0.4340992E+002  0.1800339E+03  0.7546771E-02  0.1167770E+00
          2   -1    0    0  504    0 -0.00000000000E+00  0.00000000000E+00  0.94706746337E+03  0.94706746337E+03  0.00000000000E+00 0. -1.
         21   -1    0    0  505  502  0.00000000000E+00 -0.00000000000E+00 -0.39188991306E+03  0.39188991306E+03  0.00000000000E+00 0.  1.
         21    1    1    2  503  502 -0.76878339012E+02  0.15329755884E+03  0.13136494389E+03  0.21602585271E+03  0.00000000000E+00 0.  1.
         21    1    1    2  504  503  0.13063113844E+01 -0.34056436893E+02  0.12636907981E+03  0.13088426825E+03  0.00000000000E+00 0. -1.
         21    1    1    2  505  501  0.14587870124E+03 -0.11115905810E+03 -0.32092907636E+03  0.36963820653E+03  0.00000000000E+00 0.  1.
          2    1    1    2  501    0 -0.70306673608E+02 -0.80820638442E+01  0.61837260297E+03  0.62240904895E+03  0.00000000000E+00 0. -1.
<scales pt_clust_3="14000.00000" pt_clust_4="34.08148" pt_clust_5="180.03391" pt_clust_6="77.16090"></scales>
<clustering>
<clus scale="   34.081">  1  4  2 -1</clus>
<clus scale="   77.161">  1  6  2 -1</clus>
<clus scale="  180.034">  2  5  1 -1</clus>
<clus scale="  180.034">  2  3  1 -1</clus>
</clustering>
</event>
<event>
 6    0  0.4340992E+002  0.1166562E+03  0.7546771E-02  0.1248717E+00
          2   -1    0    0  504    0 -0.00000000000E+00  0.00000000000E+00  0.11189165565E+04  0.11189165565E+04  0.00000000000E+00 0.  1.
         21   -1    0    0  505  502  0.00000000000E+00 -0.00000000000E+00 -0.67506320174E+03  0.67506320174E+03  0.00000000000E+00 0. -1.
         21    1    1    2  503  501 -0.62224816523E+02 -0.84781683364E+02 -0.21962984609E+03  0.24351002221E+03  0.00000000000E+00 0. -1.
         21    1    1    2  504  502 -0.23447218823E+02 -0.34827198805E+02  0.26817321462E+03  0.27143982553E+03  0.00000000000E+00 0.  1.
         21    1    1    2  505  503  0.10312985351E+03  0.75624466395E+02 -0.43191615127E+03  0.45045131628E+03  0.00000000000E+00 0. -1.
          2    1    1    2  501    0 -0.17457818163E+02  0.43984415774E+02  0.82722613753E+03  0.82857859426E+03  0.00000000000E+00 0.  1.
<scales pt_clust_3="14000.00000" pt_clust_4="41.98459" pt_clust_5="116.65623" pt_clust_6="41.54753"></scales>
<clustering>
<clus scale="   41.985">  1  4  2 -1</clus>
<clus scale="   41.548">  1  6  2 -1</clus>
<clus scale="  116.656">  2  5  1 -1</clus>
<clus scale="  116.656">  2  3  1 -1</clus>
</clustering>
</event>
<event>
 6    0  0.4340992E+002  0.1628150E+03  0.7546771E-02  0.1185555E+00
         21   -1    0    0  505  502  0.00000000000E+00  0.00000000000E+00  0.45653189991E+03  0.45653189991E+03  0.00000000000E+00 0. -1.
          2   -1    0    0  504    0 -0.00000000000E+00 -0.00000000000E+00 -0.40268850013E+03  0.40268850013E+03  0.00000000000E+00 0. -1.
         21    1    1    2  503  501  0.55331919777E+02 -0.37637033410E+02 -0.10444655969E+03  0.12404536049E+03  0.00000000000E+00 0.  1.
         21    1    1    2  504  502 -0.13594121115E+03  0.25570713334E+02  0.36771352008E+03  0.39287034390E+03  0.00000000000E+00 0. -1.
         21    1    1    2  505  503  0.21288874715E+02  0.85968606114E+02  0.22831060480E+02  0.91460782560E+02  0.00000000000E+00 0. -1.
          2    1    1    2  501    0  0.59320416661E+02 -0.73902286038E+02 -0.23225462109E+03  0.25084391308E+03  0.00000000000E+00 0. -1.
<scales pt_clust_3="33.48806" pt_clust_4="157.86269" pt_clust_5="88.56533" pt_clust_6="33.48806"></scales>
<clustering>
<clus scale="   33.488">  3  6 -1 -1</clus>
<clus scale="   88.565">  1  5  2 -1</clus>
<clus scale="  157.863">  1  4  2 -1</clus>
<clus scale="   88.565">  1  3  2 -1</clus>
</clustering>
</event>
<event>
 6    0  0.4340992E+002  0.7642919E+02  0.7546771E-02  0.1339502E+00
          1   -1    0    0  504    0 -0.00000000000E+00  0.00000000000E+00  0.10724980406E+04  0.10724980406E+04  0.00000000000E+00 0. -1.
         21   -1    0    0  503  502  0.00000000000E+00 -0.00000000000E+00 -0.52016158177E+03  0.52016158177E+03  0.00000000000E+00 0. -1.
         21    1    1    2  503  501  0.34771958313E+02 -0.63485846325E+02 -0.18831766317E+03  0.20175005336E+03  0.00000000000E+00 0.  1.
         21    1    1    2  504  505 -0.19219489533E+02 -0.33410914720E+02  0.24485149694E+02  0.45663996276E+02  0.00000000000E+00 0.  1.
         21    1    1    2  505  502 -0.64378499579E+02  0.51363877355E+02 -0.30804168789E+03  0.31886128737E+03  0.00000000000E+00 0. -1.
          1    1    1    2  501    0  0.48826030799E+02  0.45532883689E+02  0.10242106602E+04  0.10263842853E+04  0.00000000000E+00 0. -1.
<scales pt_clust_3="14000.00000" pt_clust_4="38.54449" pt_clust_5="76.42919" pt_clust_6="32.34907"></scales>
<clustering>
<clus scale="   38.544">  1  4  2 -1</clus>
<clus scale="   32.349">  1  6  2 -1</clus>
<clus scale="   76.429">  2  5  1 -1</clus>
<clus scale="   76.429">  2  3  1 -1</clus>
</clustering>
</event>
<event>
 6    0  0.4340992E+002  0.1567801E+03  0.7546771E-02  0.1192381E+00
         21   -1    0    0  503  502  0.00000000000E+00  0.00000000000E+00  0.97024379698E+03  0.97024379698E+03  0.00000000000E+00 0.  1.
          1   -1    0    0  504    0 -0.00000000000E+00 -0.00000000000E+00 -0.59593945270E+03  0.59593945270E+03  0.00000000000E+00 0.  1.
         21    1    1    2  503  501 -0.84408932632E+02 -0.43657440528E+02 -0.26001532596E+03  0.27683715386E+03  0.00000000000E+00 0. -1.
         21    1    1    2  504  505  0.11002052703E+03  0.87935233963E+01  0.59168097647E+03  0.60188721563E+03  0.00000000000E+00 0.  1.
         21    1    1    2  505  502  0.19051778176E+02  0.62114174623E+02  0.35999899863E+03  0.36581473447E+03  0.00000000000E+00 0.  1.
          1    1    1    2  501    0 -0.44663372579E+02 -0.27250257492E+02 -0.31736030485E+03  0.32164414572E+03  0.00000000000E+00 0.  1.
<scales pt_clust_3="41.50999" pt_clust_4="146.45929" pt_clust_5="64.97031" pt_clust_6="41.50999"></scales>
<clustering>
<clus scale="   41.510">  3  6 -1 -1</clus>
<clus scale="   64.970">  1  5  2 -1</clus>
<clus scale="  146.459">  1  4  2 -1</clus>
<clus scale="   64.970">  1  3  2 -1</clus>
</clustering>
</event>
<event>
 6    0  0.4340992E+002  0.1402595E+03  0.7546771E-02  0.1212980E+00
         -2   -1    0    0    0  501 -0.00000000000E+00  0.00000000000E+00  0.16609827926E+03  0.16609827926E+03  0.00000000000E+00 0. -1.
         21   -1    0    0  504  502  0.00000000000E+00 -0.00000000000E+00 -0.33788710507E+03  0.33788710507E+03  0.00000000000E+00 0.  1.
         21    1    1    2  503  501 -0.33603661732E+02 -0.41494207313E+01 -0.48972731401E+01  0.34211212466E+02  0.00000000000E+00 0.  1.
         21    1    1    2  504  503 -0.35140051921E+02  0.44296841270E+02 -0.72376445391E+02  0.91844342466E+02  0.00000000000E+00 0.  1.
         21    1    1    2  505  502  0.80689562718E+02  0.99111915875E+02 -0.17495563981E+03  0.21666437940E+03  0.00000000000E+00 0.  1.
         -2    1    1    2    0  505 -0.11945849065E+02 -0.13925933641E+03  0.80440532535E+02  0.16126545000E+03  0.00000000000E+00 0. -1.
<scales pt_clust_3="33.85888" pt_clust_4="57.70562" pt_clust_5="140.25952" pt_clust_6="14000.00000"></scales>
<clustering>
<clus scale="   33.859">  1  3  2 -1</clus>
<clus scale="   57.706">  2  4  1 -1</clus>
<clus scale="  140.260">  2  5  1 -1</clus>
<clus scale="   57.706">  2  3  1 -1</clus>
</clustering>
</event>
<event>
 6    0  0.4340992E+002  0.9847823E+02  0.7546771E-02  0.1283529E+00
         21   -1    0    0  504  502  0.00000000000E+00  0.00000000000E+00  0.60383148324E+02  0.60383148324E+02  0.00000000000E+00 0. -1.
          2   -1    0    0  505    0 -0.00000000000E+00 -0.00000000000E+00 -0.36244424954E+04  0.36244424954E+04  0.00000000000E+00 0. -1.
         21    1    1    2  503  502  0.49725884256E+02 -0.26479168519E+01 -0.30345746135E+03  0.30751602540E+03  0.00000000000E+00 0.  1.
         21    1    1    2  504  501  0.43848230712E+02 -0.48561545380E+01  0.30870503269E+02  0.53844568394E+02  0.00000000000E+00 0. -1.
         21    1    1    2  505  503 -0.22641986297E+02 -0.65762752121E+02 -0.64419310460E+02  0.94801090026E+02  0.00000000000E+00 0.  1.
          2    1    1    2  501    0 -0.70932128671E+02  0.73266823510E+02 -0.32270530785E+04  0.32286639599E+04  0.00000000000E+00 0. -1.
<scales pt_clust_3="54.75549" pt_clust_4="44.11632" pt_clust_5="98.47823" pt_clust_6="14000.00000"></scales>
<clustering>
<clus scale="   44.116">  1  4  2 -1</clus>
<clus scale="   54.755">  1  3  2 -1</clus>
<clus scale="   98.478">  1  5  2 -1</clus>
<clus scale="   44.116">  1  3  2 -1</clus>
</clustering>
</event>
<event>
 6    0  0.4340992E+002  0.6280941E+02  0.7546771E-02  0.1386406E+00
         21   -1    0    0  505  502  0.00000000000E+00  0.00000000000E+00  0.69188240856E+02  0.69188240856E+02  0.00000000000E+00 0.  1.
          2   -1    0    0  504    0 -0.00000000000E+00 -0.00000000000E+00 -0.57070278758E+03  0.57070278758E+03  0.00000000000E+00 0. -1.
         21    1    1    2  503  502 -0.69222066542E+02 -0.20349314050E+01 -0.60200279920E+02  0.91760062907E+02  0.00000000000E+00 0.  1.
         21    1    1    2  504  503  0.21929507708E+02 -0.27308044008E+02 -0.72811795706E+02  0.80797216350E+02  0.00000000000E+00 0. -1.
         21    1    1    2  505  501  0.42330815705E+02 -0.53024090487E+02  0.19546706484E+02  0.70608256349E+02  0.00000000000E+00 0.  1.
          2    1    1    2  501    0  0.49617431277E+01  0.82367065900E+02 -0.38804917758E+03  0.39672549283E+03  0.00000000000E+00 0. -1.
<scales pt_clust_3="62.80941" pt_clust_4="35.02331" pt_clust_5="14000.00000" pt_clust_6="64.66912"></scales>
<clustering>
<clus scale="   35.023">  2  4  1 -1</clus>
<clus scale="   64.669">  2  6  1 -1</clus>
<clus scale="   62.809">  2  3  1 -1</clus>
<clus scale="   62.809">  1  3  2 -1</clus>
</clustering>
</event>
<event>
 6    0  0.4340992E+002  0.1112692E+03  0.7546771E-02  0.1258237E+00
          1   -1    0    0  503    0 -0.00000000000E+00  0.00000000000E+00  0.32425631985E+03  0.32425631985E+03  0.00000000000E+00 0. -1.
         21   -1    0    0  505  502  0.00000000000E+00 -0.00000000000E+00 -0.28843279607E+03  0.28843279607E+03  0.00000000000E+00 0.  1.
         21    1    1    2  503  504  0.28610564814E+02  0.13699582076E+02  0.22935984943E+02  0.39144634030E+02  0.00000000000E+00 0.  1.
         21    1    1    2  504  502  0.27595166857E+02  0.75102207786E+02 -0.12484979979E+03  0.14828792047E+03  0.00000000000E+00 0.  1.
         21    1    1    2  505  501 -0.11431791570E+03  0.28345074439E+01 -0.10758572036E+03  0.15700734858E+03  0.00000000000E+00 0.  1.
          1    1    1    2  501    0  0.58112184026E+02 -0.91636297305E+02  0.24532305900E+03  0.26824921284E+03  0.00000000000E+00 0. -1.
<scales pt_clust_3="31.72133" pt_clust_4="80.92462" pt_clust_5="111.26921" pt_clust_6="14000.00000"></scales>
<clustering>
<clus scale="   31.721">  1  3  2 -1</clus>
<clus scale="   80.925">  2  4  1 -1</clus>
<clus scale="  111.269">  2  5  1 -1</clus>
<clus scale="   80.925">  2  3  1 -1</clus>
</clustering>
</event>
<event>
 6    0  0.4340992E+002  0.1661524E+03  0.7546771E-02  0.1181921E+00
         21   -1    0    0  504  502  0.00000000000E+00  0.00000000000E+00  0.11987640047E+03  0.11987640047E+03  0.00000000000E+00 0. -1.
          2   -1    0    0  505    0 -0.00000000000E+00 -0.00000000000E+00 -0.11236399225E+04  0.11236399225E+04  0.00000000000E+00 0. -1.
         21    1    1    2  503  501  0.31474177484E+02  0.61129774172E+02 -0.32660370315E+03  0.33376256838E+03  0.00000000000E+00 0. -1.
         21    1    1    2  504  503 -0.12657907409E+03 -0.12004213664E+03  0.26742621410E+02  0.17648666910E+03  0.00000000000E+00 0. -1.
         21    1    1    2  505  502  0.51010588943E+01  0.38931383999E+02 -0.21697125257E+02  0.44860212955E+02  0.00000000000E+00 0. -1.
          2    1    1    2  501    0  0.90003837716E+02  0.19980978474E+02 -0.68220531508E+03  0.68840687259E+03  0.00000000000E+00 0. -1.
<scales pt_clust_3="66.20416" pt_clust_4="147.67448" pt_clust_5="39.26415" pt_clust_6="66.20416"></scales>
<clustering>
<clus scale="   39.264">  1  5  2 -1</clus>
<clus scale="   66.204">  3  6 -1 -1</clus>
<clus scale="  147.674">  1  4  2 -1</clus>
<clus scale="   39.264">  1  3  2 -1</clus>
</clustering>
</event>
<event>
 6    0  0.4340992E+002  0.7643383E+02  0.7546771E-02  0.1339488E+00
         21   -1    0    0  505  502  0.00000000000E+00  0.00000000000E+00  0.20212840570E+02  0.20212840570E+02  0.00000000000E+00 0. -1.
          2   -1    0    0  503    0 -0.00000000000E+00 -0.00000000000E+00 -0.28992022525E+04  0.28992022525E+04  0.00000000000E+00 0. -1.
         21    1    1    2  503  504 -0.43440326374E+02  0.28007639836E+02 -0.10871827044E+04  0.10884106406E+04  0.00000000000E+00 0. -1.
         21    1    1    2  504  502 -0.33360006953E+02  0.73608835495E+01 -0.29639599315E+02  0.45228072235E+02  0.00000000000E+00 0. -1.
         21    1    1    2  505  501  0.10831560172E+03  0.12737923871E+02 -0.25290192695E+03  0.27541588359E+03  0.00000000000E+00 0. -1.
          2    1    1    2  501    0 -0.31515268393E+02 -0.48106447256E+02 -0.15092651812E+04  0.15103604966E+04  0.00000000000E+00 0. -1.
<scales pt_clust_3="53.27307" pt_clust_4="34.16245" pt_clust_5="14000.00000" pt_clust_6="76.43383"></scales>
<clustering>
<clus scale="   34.162">  1  4  2 -1</clus>
<clus scale="   53.273">  2  3  1 -1</clus>
<clus scale="   76.434">  2  6  1 -1</clus>
<clus scale="   34.162">  1  3  2 -1</clus>
</clustering>
</event>
<event>
 6    0  0.4340992E+002  0.6744401E+02  0.7546771E-02  0.1369007E+00
         21   -1    0    0  503  502  0.00000000000E+00  0.00000000000E+00  0.24494010157E+03  0.24494010157E+03  0.00000000000E+00 0.  1.
         -1   -1    0    0    0  501 -0.00000000000E+00 -0.00000000000E+00 -0.22883648861E+03  0.22883648861E+03  0.00000000000E+00 0.  1.
         21    1    1    2  503  504 -0.59973947188E+02  0.35988494606E+02  0.15578275927E+03  0.17076391355E+03  0.00000000000E+00 0.  1.
         21    1    1    2  504  501 -0.49270963864E+02  0.18804662131E+02 -0.69639749496E+02  0.87355239727E+02  0.00000000000E+00 0.  1.
         21    1    1    2  505  502  0.18877260626E+02 -0.73422816840E+02  0.28196756494E+02  0.80884597287E+02  0.00000000000E+00 0.  1.
         -1    1    1    2    0  505  0.90367650426E+02  0.18629660103E+02 -0.98236153309E+02  0.13477283961E+03  0.00000000000E+00 0.  1.
<scales pt_clust_3="67.44401" pt_clust_4="52.73749" pt_clust_5="14000.00000" pt_clust_6="61.85224"></scales>
<clustering>
<clus scale="   52.737">  2  4  1 -1</clus>
<clus scale="   61.852">  2  6  1 -1</clus>
<clus scale="   67.444">  1  3  2 -1</clus>
<clus scale="   67.444">  1  3  2 -1</clus>
</clustering>
</event>
<event>
 6    0  0.4340992E+002  0.1321436E+03  0.7546771E-02  0.1224309E+00
         21   -1    0    0  503  502  0.00000000000E+00  0.00000000000E+00  0.35700936221E+03  0.35700936221E+03  0.00000000000E+00 0.  1.
          1   -1    0    0  504    0 -0.00000000000E+00 -0.00000000000E+00 -0.17863431300E+03  0.17863431300E+03  0.00000000000E+00 0. -1.
         21    1    1    2  503  505  0.48011793330E+02  0.32698635556E+02  0.85769233068E+02  0.10358906509E+03  0.00000000000E+00 0.  1.
         21    1    1    2  504  502 -0.16250682460E+03 -0.19122498712E+02  0.20475130373E+03  0.26210157264E+03  0.00000000000E+00 0.  1.
         21    1    1    2  505  501  0.61880079890E+02  0.41868601616E+01 -0.25543574973E+02  0.67075690885E+02  0.00000000000E+00 0.  1.
          1    1    1    2  501    0  0.52614951383E+02 -0.17762997006E+02 -0.86601912619E+02  0.10287734659E+03  0.00000000000E+00 0. -1.
<scales pt_clust_3="58.08901" pt_clust_4="120.19949" pt_clust_5="51.94861" pt_clust_6="51.94861"></scales>
<clustering>
<clus scale="   51.949">  5  6 -1 -1</clus>
<clus scale="   58.089">  1  3  2 -1</clus>
<clus scale="  120.199">  1  4  2 -1</clus>
<clus scale="   58.089">  1  3  2 -1</clus>
</clustering>
</event>
<event>
 6    0  0.4340992E+002  0.2070317E+03  0.7546771E-02  0.1143938E+00
          1   -1    0    0  504    0 -0.00000000000E+00  0.00000000000E+00  0.21938305063E+04  0.21938305063E+04  0.00000000000E+00 0. -1.
         21   -1    0    0  501  502  0.00000000000E+00 -0.00000000000E+00 -0.76740059259E+02  0.76740059259E+02  0.00000000000E+00 0. -1.
         21    1    1    2  503  505 -0.54743103091E+02 -0.70326372741E+01  0.40122348978E+02  0.68235388256E+02  0.00000000000E+00 0. -1.
         21    1    1    2  504  503 -0.14922546078E+02 -0.19996886332E+03  0.11391971895E+04  0.11567110552E+04  0.00000000000E+00 0. -1.
         21    1    1    2  505  502 -0.71062048714E+02  0.13081955359E+02 -0.54356942884E+01  0.72460327737E+02  0.00000000000E+00 0. -1.
          1    1    1    2  501    0  0.14072769788E+03  0.19391954524E+03  0.94320660280E+03  0.97316379431E+03  0.00000000000E+00 0. -1.
<scales pt_clust_3="45.65345" pt_clust_4="14000.00000" pt_clust_5="136.35293" pt_clust_6="207.03174"></scales>
<clustering>
<clus scale="   45.653">  3  5 -1 -1</clus>
<clus scale="  136.353">  2  3  1 -1</clus>
<clus scale="  207.032">  2  6  1 -1</clus>
<clus scale="  136.353">  2  3  1 -1</clus>
</clustering>
</event>
<event>
 6    0  0.4340992E+002  0.6618555E+02  0.7546771E-02  0.1373567E+00
         21   -1    0    0  504  502  0.00000000000E+00  0.00000000000E+00  0.92675990718E+02  0.92675990718E+02  0.00000000000E+00 0. -1.
          2   -1    0    0  505    0 -0.00000000000E+00 -0.00000000000E+00 -0.17908739921E+04  0.17908739921E+04  0.00000000000E+00 0.  1.
         21    1    1    2  503  501 -0.69273369481E+01 -0.93705230366E+02  0.33345834369E+02  0.99702572008E+02  0.00000000000E+00 0. -1.
         21    1    1    2  504  503  0.24189478480E+02  0.57765277565E+02 -0.76783835394E+02  0.99084385950E+02  0.00000000000E+00 0. -1.
         21    1    1    2  505  502  0.36750333533E+02 -0.26049011367E+01 -0.93431924051E+01  0.38008785419E+02  0.00000000000E+00 0. -1.
          2    1    1    2  501    0 -0.54012475064E+02  0.38544853938E+02 -0.16454168080E+04  0.16467542395E+04  0.00000000000E+00 0.  1.
<scales pt_clust_3="66.18555" pt_clust_4="64.49550" pt_clust_5="36.84254" pt_clust_6="14000.00000"></scales>
<clustering>
<clus scale="   36.843">  1  5  2 -1</clus>
<clus scale="   64.495">  1  4  2 -1</clus>
<clus scale="   66.186">  1  3  2 -1</clus>
<clus scale="   36.843">  1  3  2 -1</clus>
</clustering>
</event>
<event>
 6    0  0.4340992E+002  0.1137932E+03  0.7546771E-02  0.1253702E+00
          2   -1    0    0  505    0 -0.00000000000E+00  0.00000000000E+00  0.51814119617E+03  0.51814119617E+03  0.00000000000E+00 0.  1.
         21   -1    0    0  504  502  0.00000000000E+00 -0.00000000000E+00 -0.11451847110E+03  0.11451847110E+03  0.00000000000E+00 0. -1.
         21    1    1    2  503  501 -0.49398547334E+02  0.71996528096E+01  0.24365029743E+03  0.24871171850E+03  0.00000000000E+00 0.  1.
         21    1    1    2  504  503  0.26332188296E-02  0.33239625629E+02 -0.39552541847E+01  0.33474120669E+02  0.00000000000E+00 0. -1.
         21    1    1    2  505  502  0.10631790995E+03 -0.13853801298E+02 -0.56552785513E+02  0.12121733925E+03  0.00000000000E+00 0. -1.
          2    1    1    2  501    0 -0.56921995833E+02 -0.26585477140E+02  0.22048046734E+03  0.22925648885E+03  0.00000000000E+00 0.  1.
<scales pt_clust_3="32.82953" pt_clust_4="33.23963" pt_clust_5="107.66856" pt_clust_6="32.82953"></scales>
<clustering>
<clus scale="   32.830">  3  6 -1 -1</clus>
<clus scale="   33.240">  2  4  1 -1</clus>
<clus scale="  107.669">  2  5  1 -1</clus>
<clus scale="   33.240">  2  3  1 -1</clus>
</clustering>
</event>
<event>
 6    0  0.4340992E+002  0.1081210E+03  0.7546771E-02  0.1264090E+00
          2   -1    0    0  503    0 -0.00000000000E+00  0.00000000000E+00  0.25136407114E+04  0.25136407114E+04  0.00000000000E+00 0.  1.
         21   -1    0    0  501  502  0.00000000000E+00 -0.00000000000E+00 -0.43990251191E+02  0.43990251191E+02  0.00000000000E+00 0.  1.
         21    1    1    2  503  504 -0.27332780450E+02 -0.33334219278E+02  0.17199718011E+03  0.17731689437E+03  0.00000000000E+00 0.  1.
         21    1    1    2  504  505 -0.43625875637E+02  0.16497988183E+03  0.41776301475E+03  0.45127321539E+03  0.00000000000E+00 0. -1.
         21    1    1    2  505  502  0.15623252468E+02 -0.93453333109E+02  0.69756348248E+02  0.11765865717E+03  0.00000000000E+00 0.  1.
          2    1    1    2  501    0  0.55335403620E+02 -0.38192329446E+02  0.18101339171E+04  0.18113821957E+04  0.00000000000E+00 0.  1.
<scales pt_clust_3="43.10744" pt_clust_4="108.12099" pt_clust_5="14000.00000" pt_clust_6="72.55178"></scales>
<clustering>
<clus scale="   43.107">  1  3  2 -1</clus>
<clus scale="   72.552">  1  6  2 -1</clus>
<clus scale="  108.121">  1  4  2 -1</clus>
<clus scale="  108.121">  2  3  1 -1</clus>
</clustering>
</event>
<event>
 6    0  0.4340992E+002  0.1261463E+03  0.7546771E-02  0.1233289E+00
          2   -1    0    0  503    0 -0.00000000000E+00  0.00000000000E+00  0.68066717967E+03  0.68066717967E+03  0.00000000000E+00 0.  1.
         21   -1    0    0  504  502  0.00000000000E+00 -0.00000000000E+00 -0.41331292654E+03  0.41331292654E+03  0.00000000000E+00 0. -1.
         21    1    1    2  503  505 -0.80591112341E+02  0.34192206122E+02  0.33603153545E+02  0.93772097535E+02  0.00000000000E+00 0. -1.
         21    1    1    2  504  501 -0.44400925182E+02  0.28080534972E+02 -0.41653692655E+02  0.67044676993E+02  0.00000000000E+00 0. -1.
         21    1    1    2  505  502  0.12002740190E+03 -0.14492920766E+03 -0.29874573929E+03  0.35307232854E+03  0.00000000000E+00 0. -1.
          2    1    1    2  501    0  0.49646356201E+01  0.82656466562E+02  0.57415053153E+03  0.58009100314E+03  0.00000000000E+00 0.  1.
<scales pt_clust_3="14000.00000" pt_clust_4="52.53531" pt_clust_5="126.14631" pt_clust_6="83.01621"></scales>
<clustering>
<clus scale="   52.535">  2  4  1 -1</clus>
<clus scale="   83.016">  1  6  2 -1</clus>
<clus scale="  126.146">  2  5  1 -1</clus>
<clus scale="   52.535">  2  3  1 -1</clus>
</clustering>
</event>
<event>
 6    0  0.4340992E+002  0.1673736E+03  0.7546771E-02  0.1180615E+00
         21   -1    0    0  504  502  0.00000000000E+00  0.00000000000E+00  0.35419158098E+03  0.35419158098E+03  0.00000000000E+00 0. -1.
          2   -1    0    0  503    0 -0.00000000000E+00 -0.00000000000E+00 -0.69841804787E+03  0.69841804787E+03  0.00000000000E+00 0. -1.
         21    1    1    2  503  502 -0.97735350366E+02 -0.82942558080E+02 -0.16623122493E+03  0.20991542771E+03  0.00000000000E+00 0. -1.
         21    1    1    2  504  505  0.92976127727E+02  0.17342303101E+01  0.14320515537E+03  0.17074918567E+03  0.00000000000E+00 0. -1.
         21    1    1    2  505  501  0.49095691282E+02  0.57018751588E+02  0.16593544009E+03  0.18219795611E+03  0.00000000000E+00 0. -1.
          2    1    1    2  501    0 -0.44336468643E+02  0.24189576181E+02 -0.48713583742E+03  0.48974705936E+03  0.00000000000E+00 0. -1.
<scales pt_clust_3="150.48736" pt_clust_4="66.76792" pt_clust_5="66.76792" pt_clust_6="50.50602"></scales>
<clustering>
<clus scale="   50.506">  2  6  1 -1</clus>
<clus scale="   66.768">  4  5 -1 -1</clus>
<clus scale="  150.487">  2  3  1 -1</clus>
<clus scale="  167.374">  1  3  2 -1</clus>
</clustering>
</event>
<event>
 6    0  0.4340992E+002  0.2921497E+03  0.7546771E-02  0.1089232E+00
         21   -1    0    0  504  502  0.00000000000E+00  0.00000000000E+00  0.61074373865E+03  0.61074373865E+03  0.00000000000E+00 0.  1.
          2   -1    0    0  503    0 -0.00000000000E+00 -0.00000000000E+00 -0.23525742886E+04  0.23525742886E+04  0.00000000000E+00 0.  1.
         21    1    1    2  503  505 -0.50532102641E+01 -0.42087668489E+02 -0.55216499465E+03  0.55378975080E+03  0.00000000000E+00 0.  1.
         21    1    1    2  504  501 -0.14210933180E+03  0.13649897506E+03  0.26846084834E+02  0.19886614756E+03  0.00000000000E+00 0. -1.
         21    1    1    2  505  502 -0.13405806114E+03 -0.31364385544E+01  0.47496932143E+03  0.49353546712E+03  0.00000000000E+00 0.  1.
          2    1    1    2  501    0  0.28122060320E+03 -0.91274868012E+02 -0.16914809615E+04  0.17171266617E+04  0.00000000000E+00 0.  1.
<scales pt_clust_3="42.38994" pt_clust_4="14000.00000" pt_clust_5="134.12606" pt_clust_6="292.14968"></scales>
<clustering>
<clus scale="   42.390">  2  3  1 -1</clus>
<clus scale="  134.126">  1  5  2 -1</clus>
<clus scale="  292.150">  2  6  1 -1</clus>
<clus scale="  134.126">  1  3  2 -1</clus>
</clustering>
</event>
<event>
 6    0  0.4340992E+002  0.1104428E+03  0.7546771E-02  0.1259752E+00
         21   -1    0    0  504  502  0.00000000000E+00  0.00000000000E+00  0.21160770889E+03  0.21160770889E+03  0.00000000000E+00 0. -1.
          2   -1    0    0  503    0 -0.00000000000E+00 -0.00000000000E+00 -0.35611357775E+03  0.35611357775E+03  0.00000000000E+00 0. -1.
         21    1    1    2  503  502 -0.72476118074E+02  0.69139211031E+02 -0.13772804321E+03  0.17029982995E+03  0.00000000000E+00 0. -1.
         21    1    1    2  504  505  0.10750116727E+03  0.24465693449E+02  0.16367374567E+03  0.19734276308E+03  0.00000000000E+00 0. -1.
         21    1    1    2  505  501 -0.19497676574E+02 -0.47184293629E+02 -0.11670167857E+03  0.12738052731E+03  0.00000000000E+00 0. -1.
          2    1    1    2  501    0 -0.15527372623E+02 -0.46420610851E+02 -0.53749892749E+02  0.72698166297E+02  0.00000000000E+00 0. -1.
<scales pt_clust_3="100.16495" pt_clust_4="105.87018" pt_clust_5="30.79487" pt_clust_6="30.79487"></scales>
<clustering>
<clus scale="   30.795">  5  6 -1 -1</clus>
<clus scale="  100.165">  2  3  1 -1</clus>
<clus scale="  105.870">  1  4  2 -1</clus>
<clus scale="  105.870">  1  3  2 -1</clus>
</clustering>
</event>
<event>
 6    0  0.4340992E+002  0.1085461E+03  0.7546771E-02  0.1263286E+00
          1   -1    0    0  504    0 -0.00000000000E+00  0.00000000000E+00  0.63920313691E+02  0.63920313691E+02  0.00000000000E+00 0.  1.
         21   -1    0    0  503  502  0.00000000000E+00 -0.00000000000E+00 -0.51279333626E+03  0.51279333626E+03  0.00000000000E+00 0.  1.
         21    1    1    2  503  501 -0.54774267391E+02  0.20829956093E+02 -0.38438602518E+02  0.70083047898E+02  0.00000000000E+00 0.  1.
         21    1    1    2  504  505  0.38256350009E+02 -0.13488303207E+03 -0.22358495454E+03  0.26390758336E+03  0.00000000000E+00 0.  1.
         21    1    1    2  505  502  0.40793284655E+02  0.78896927289E+02 -0.17823611198E+03  0.19914047510E+03  0.00000000000E+00 0.  1.
          1    1    1    2  501    0 -0.24275367273E+02  0.35156148692E+02 -0.86133535286E+01  0.43582543594E+02  0.00000000000E+00 0.  1.
<scales pt_clust_3="31.05319" pt_clust_4="102.27198" pt_clust_5="88.81901" pt_clust_6="31.05319"></scales>
<clustering>
<clus scale="   31.053">  3  6 -1 -1</clus>
<clus scale="   88.819">  2  5  1 -1</clus>
<clus scale="  102.272">  2  4  1 -1</clus>
<clus scale="   88.819">  2  3  1 -1</clus>
</clustering>
</event>
<event>
 6    0  0.4340992E+002  0.1883103E+03  0.7546771E-02  0.1159994E+00
         21   -1    0    0  503  502  0.00000000000E+00  0.00000000000E+00  0.10385925144E+04  0.10385925144E+04  0.00000000000E+00 0. -1.
         -4   -1    0    0    0  501 -0.00000000000E+00 -0.00000000000E+00 -0.40320907832E+02  0.40320907832E+02  0.00000000000E+00 0.  1.
         21    1    1    2  503  505  0.18071360844E+03 -0.60138160473E+01  0.44152086258E+03  0.47711030837E+03  0.00000000000E+00 0. -1.
         21    1    1    2  504  502 -0.41482887960E+02 -0.13204245974E+02  0.10571199808E+03  0.11432501320E+03  0.00000000000E+00 0. -1.
         21    1    1    2  505  501 -0.49181831017E+01 -0.37451617285E+02  0.70680875406E+02  0.80141114981E+02  0.00000000000E+00 0.  1.
         -4    1    1    2    0  504 -0.13431253738E+03  0.56669679306E+02  0.38035787046E+03  0.40733698564E+03  0.00000000000E+00 0.  1.
<scales pt_clust_3="179.96311" pt_clust_4="30.29854" pt_clust_5="37.77317" pt_clust_6="30.29854"></scales>
<clustering>
<clus scale="   30.299">  4  6 -1 -1</clus>
<clus scale="   37.773">  2  5  1 -1</clus>
<clus scale="  179.963">  2  3  1 -1</clus>
<clus scale="  188.310">  1  3  2 -1</clus>
</clustering>
</event>
<event>
 6    0  0.4340992E+002  0.8771010E+02  0.7546771E-02  0.1308494E+00
          1   -1    0    0  502    0 -0.00000000000E+00  0.00000000000E+00  0.59696323184E+03  0.59696323184E+03  0.00000000000E+00 0. -1.
         21   -1    0    0  505  502  0.00000000000E+00 -0.00000000000E+00 -0.54864125245E+02  0.54864125245E+02  0.00000000000E+00 0. -1.
         21    1    1    2  503  504 -0.34722391433E+01 -0.83035979488E+02  0.82466256666E+02  0.11707994629E+03  0.00000000000E+00 0. -1.
         21    1    1    2  504  501 -0.39233646126E+02  0.12137980947E+02  0.21773259792E+03  0.22157187043E+03  0.00000000000E+00 0.  1.
         21    1    1    2  505  503  0.69387546389E+02  0.25918379555E+02  0.91630605265E+01  0.74634815407E+02  0.00000000000E+00 0. -1.
          1    1    1    2  501    0 -0.26681661120E+02  0.44979618986E+02  0.23273719148E+03  0.23854072496E+03  0.00000000000E+00 0. -1.
<scales pt_clust_3="80.74491" pt_clust_4="30.35427" pt_clust_5="74.07020" pt_clust_6="30.35427"></scales>
<clustering>
<clus scale="   30.354">  4  6 -1 -1</clus>
<clus scale="   74.070">  2  5  1 -1</clus>
<clus scale="   80.745">  2  3  1 -1</clus>
<clus scale="   74.070">  2  3  1 -1</clus>
</clustering>
</event>
<event>
 6    0  0.4340992E+002  0.9731017E+02  0.7546771E-02  0.1286056E+00
         21   -1    0    0  501  502  0.00000000000E+00  0.00000000000E+00  0.14540859656E+04  0.14540859656E+04  0.00000000000E+00 0. -1.
         -2   -1    0    0    0  501 -0.00000000000E+00 -0.00000000000E+00 -0.15332409315E+04  0.15332409315E+04  0.00000000000E+00 0. -1.
         21    1    1    2  503  505 -0.57845164172E+02 -0.38628137508E+02 -0.63877148509E+02  0.94437736774E+02  0.00000000000E+00 0.  1.
         21    1    1    2  504  503 -0.60738722790E+02 -0.20071167799E+02 -0.37603467778E+03  0.38143691892E+03  0.00000000000E+00 0.  1.
         21    1    1    2  505  502  0.93421535564E+02  0.29450492465E+02  0.14340872241E+04  0.14374286352E+04  0.00000000000E+00 0. -1.
         -2    1    1    2    0  504  0.25162351398E+02  0.29248812842E+02 -0.10733303638E+04  0.10740236063E+04  0.00000000000E+00 0. -1.
<scales pt_clust_3="14000.00000" pt_clust_4="40.20475" pt_clust_5="97.31017" pt_clust_6="38.58286"></scales>
<clustering>
<clus scale="   38.583">  2  6  1 -1</clus>
<clus scale="   40.205">  2  4  1 -1</clus>
<clus scale="   97.310">  1  5  2 -1</clus>
<clus scale="   97.310">  1  3  2 -1</clus>
</clustering>
</event>
<event>
 6    0  0.4340992E+002  0.8393254E+02  0.7546771E-02  0.1318248E+00
          1   -1    0    0  503    0 -0.00000000000E+00  0.00000000000E+00  0.60864148731E+03  0.60864148731E+03  0.00000000000E+00 0. -1.
         21   -1    0    0  505  502  0.00000000000E+00 -0.00000000000E+00 -0.30594514175E+03  0.30594514175E+03  0.00000000000E+00 0. -1.
         21    1    1    2  503  504 -0.47007458169E+02 -0.14156860672E+02  0.22477123983E+02  0.53993878636E+02  0.00000000000E+00 0. -1.
         21    1    1    2  504  502 -0.80872516348E+02 -0.23172402340E+02 -0.27464193303E+03  0.28723773344E+03  0.00000000000E+00 0. -1.
         21    1    1    2  505  501  0.64703677814E+02  0.46724253194E+02  0.27857979982E+03  0.28978686414E+03  0.00000000000E+00 0. -1.
          1    1    1    2  501    0  0.63176296704E+02 -0.93949901825E+01  0.27628135479E+03  0.28356815285E+03  0.00000000000E+00 0. -1.
<scales pt_clust_3="49.09295" pt_clust_4="14000.00000" pt_clust_5="83.93254" pt_clust_6="43.30924"></scales>
<clustering>
<clus scale="   49.093">  1  3  2 -1</clus>
<clus scale="   43.309">  1  6  2 -1</clus>
<clus scale="   83.933">  1  5  2 -1</clus>
<clus scale="   83.933">  2  3  1 -1</clus>
</clustering>
</event>
<event>
 6    0  0.4340992E+002  0.8410953E+02  0.7546771E-02  0.1317778E+00
         -2   -1    0    0    0  501 -0.00000000000E+00  0.00000000000E+00  0.94409549694E+03  0.94409549694E+03  0.00000000000E+00 0. -1.
         21   -1    0    0  505  502  0.00000000000E+00 -0.00000000000E+00 -0.57120952745E+03  0.57120952745E+03  0.00000000000E+00 0. -1.
         21    1    1    2  503  504 -0.92774590192E+01 -0.82628669165E+02  0.42666516311E+03  0.43469153387E+03  0.00000000000E+00 0. -1.
         21    1    1    2  504  502 -0.15658772520E+02 -0.46568999682E+02 -0.51550369289E+03  0.51783967236E+03  0.00000000000E+00 0. -1.
         21    1    1    2  505  501 -0.42475888000E+02  0.10655540422E+03  0.21331211829E+02  0.11667594365E+03  0.00000000000E+00 0. -1.
         -2    1    1    2    0  503  0.67412119539E+02  0.22642264631E+02  0.44039328745E+03  0.44609787451E+03  0.00000000000E+00 0. -1.
<scales pt_clust_3="84.10953" pt_clust_4="49.13114" pt_clust_5="14000.00000" pt_clust_6="69.59140"></scales>
<clustering>
<clus scale="   49.131">  2  4  1 -1</clus>
<clus scale="   69.591">  1  6  2 -1</clus>
<clus scale="   84.110">  1  3  2 -1</clus>
<clus scale="   49.131">  2  3  1 -1</clus>
</clustering>
</event>
<event>
 6    0  0.4340992E+002  0.9837210E+02  0.7546771E-02  0.1283757E+00
          1   -1    0    0  503    0 -0.00000000000E+00  0.00000000000E+00  0.14037336367E+04  0.14037336367E+04  0.00000000000E+00 0. -1.
         21   -1    0    0  505  502  0.00000000000E+00 -0.00000000000E+00 -0.10951536674E+03  0.10951536674E+03  0.00000000000E+00 0. -1.
         21    1    1    2  503  502  0.45643780583E+02  0.55473570180E+02  0.40502951247E+03  0.41135091791E+03  0.00000000000E+00 0. -1.
         21    1    1    2  504  501 -0.71786507032E+02 -0.48342695866E+02  0.61505828384E+02  0.10617573056E+03  0.00000000000E+00 0. -1.
         21    1    1    2  505  504  0.46403147317E+01 -0.46719533214E+02 -0.76856331086E+02  0.90061883905E+02  0.00000000000E+00 0. -1.
          1    1    1    2  501    0  0.21502411717E+02  0.39588658899E+02  0.90453926023E+03  0.90566047111E+03  0.00000000000E+00 0. -1.
<scales pt_clust_3="14000.00000" pt_clust_4="98.37210" pt_clust_5="46.45711" pt_clust_6="45.05126"></scales>
<clustering>
<clus scale="   45.051">  1  6  2 -1</clus>
<clus scale="   46.457">  2  5  1 -1</clus>
<clus scale="   98.372">  2  4  1 -1</clus>
<clus scale="   46.457">  2  3  1 -1</clus>
</clustering>
</event>
<event>
 6    0  0.4340992E+002  0.1625761E+03  0.7546771E-02  0.1185819E+00
          2   -1    0    0  505    0 -0.00000000000E+00  0.00000000000E+00  0.12540359030E+04  0.12540359030E+04  0.00000000000E+00 0. -1.
         21   -1    0    0  503  502  0.00000000000E+00 -0.00000000000E+00 -0.60075978484E+03  0.60075978484E+03  0.00000000000E+00 0.  1.
         21    1    1    2  503  501  0.30538703790E+02  0.35256972716E+02 -0.54979416083E+02  0.72099949702E+02  0.00000000000E+00 0.  1.
         21    1    1    2  504  502 -0.36658509511E+02 -0.19822692378E+03 -0.50979112176E+03  0.54820137491E+03  0.00000000000E+00 0.  1.
         21    1    1    2  505  504 -0.86415914292E+01  0.54039578575E+02  0.13194647478E+03  0.14284545972E+03  0.00000000000E+00 0.  1.
          2    1    1    2  501    0  0.14761397150E+02  0.10893037249E+03  0.10861001812E+04  0.10916489035E+04  0.00000000000E+00 0. -1.
<scales pt_clust_3="46.64404" pt_clust_4="14000.00000" pt_clust_5="55.03160" pt_clust_6="162.57607"></scales>
<clustering>
<clus scale="   46.644">  2  3  1 -1</clus>
<clus scale="   55.032">  1  5  2 -1</clus>
<clus scale="  162.576">  1  6  2 -1</clus>
<clus scale="   46.644">  2  3  1 -1</clus>
</clustering>
</event>
<event>
 6    0  0.4340992E+002  0.1524237E+03  0.7546771E-02  0.1197526E+00
         21   -1    0    0  504  502  0.00000000000E+00  0.00000000000E+00  0.12561143758E+03  0.12561143758E+03  0.00000000000E+00 0. -1.
          2   -1    0    0  503    0 -0.00000000000E+00 -0.00000000000E+00 -0.17712765848E+04  0.17712765848E+04  0.00000000000E+00 0.  1.
         21    1    1    2  503  502  0.39219895120E+02  0.12952492022E+03  0.74682673291E+02  0.15457168829E+03  0.00000000000E+00 0. -1.
         21    1    1    2  504  505  0.31439175873E+02  0.74567385130E+01 -0.35255509002E+02  0.47822334152E+02  0.00000000000E+00 0.  1.
         21    1    1    2  505  501 -0.90589624120E+02 -0.11219509629E+03 -0.12630970839E+04  0.12713018772E+04  0.00000000000E+00 0.  1.
          2    1    1    2  501    0  0.19930553127E+02 -0.24786562436E+02 -0.42199522768E+03  0.42319212281E+03  0.00000000000E+00 0.  1.
<scales pt_clust_3="152.42372" pt_clust_4="32.74442" pt_clust_5="14000.00000" pt_clust_6="31.80567"></scales>
<clustering>
<clus scale="   31.806">  2  6  1 -1</clus>
<clus scale="   32.744">  1  4  2 -1</clus>
<clus scale="  152.424">  1  3  2 -1</clus>
<clus scale="   32.744">  1  3  2 -1</clus>
</clustering>
</event>
<event>
 6    0  0.4340992E+002  0.1994457E+03  0.7546771E-02  0.1150207E+00
          1   -1    0    0  505    0 -0.00000000000E+00  0.00000000000E+00  0.28813564645E+03  0.28813564645E+03  0.00000000000E+00 0. -1.
         21   -1    0    0  504  502  0.00000000000E+00 -0.00000000000E+00 -0.18631825551E+04  0.18631825551E+04  0.00000000000E+00 0. -1.
         21    1    1    2  503  502 -0.28885328990E+02  0.19715618616E+03 -0.12620864596E+04  0.12777195137E+04  0.00000000000E+00 0. -1.
         21    1    1    2  504  501  0.55396089866E+00 -0.20126834769E+03 -0.56263460798E+03  0.59755079847E+03  0.00000000000E+00 0. -1.
         21    1    1    2  505  503 -0.36573307255E+02 -0.21528012653E+02  0.56560371650E+02  0.70711652318E+02  0.00000000000E+00 0.  1.
          1    1    1    2  501    0  0.64904675346E+02  0.25640174181E+02  0.19311378732E+03  0.20533623710E+03  0.00000000000E+00 0. -1.
<scales pt_clust_3="14000.00000" pt_clust_4="199.44572" pt_clust_5="42.43892" pt_clust_6="33.10054"></scales>
<clustering>
<clus scale="   42.439">  1  5  2 -1</clus>
<clus scale="   33.101">  1  6  2 -1</clus>
<clus scale="  199.446">  1  4  2 -1</clus>
<clus scale="  199.446">  2  3  1 -1</clus>
</clustering>
</event>
<event>
 6    0  0.4340992E+002  0.1095405E+03  0.7546771E-02  0.1261423E+00
          1   -1    0    0  505    0 -0.00000000000E+00  0.00000000000E+00  0.10641545142E+04  0.10641545142E+04  0.00000000000E+00 0.  1.
         21   -1    0    0  503  502  0.00000000000E+00 -0.00000000000E+00 -0.38360842068E+03  0.38360842068E+03  0.00000000000E+00 0. -1.
         21    1    1    2  503  504 -0.13126460384E+02  0.98130505013E+02 -0.32657930596E+03  0.34125641833E+03  0.00000000000E+00 0. -1.
         21    1    1    2  504  501  0.35022697727E+02 -0.22614767457E+02  0.61019370983E+03  0.61161620366E+03  0.00000000000E+00 0.  1.
         21    1    1    2  505  502 -0.57447755435E+02 -0.25877330036E+02 -0.25571395316E+02  0.67998360809E+02  0.00000000000E+00 0. -1.
          1    1    1    2  501    0  0.35551518092E+02 -0.49638407519E+02  0.42250308497E+03  0.42689195208E+03  0.00000000000E+00 0.  1.
<scales pt_clust_3="100.81589" pt_clust_4="35.39965" pt_clust_5="63.00699" pt_clust_6="35.39965"></scales>
<clustering>
<clus scale="   35.400">  4  6 -1 -1</clus>
<clus scale="   63.007">  2  5  1 -1</clus>
<clus scale="  100.816">  2  3  1 -1</clus>
<clus scale="   63.007">  2  3  1 -1</clus>
</clustering>
</event>
<event>
 6    0  0.4340992E+002  0.1645289E+03  0.7546771E-02  0.1183676E+00
          2   -1    0    0  504    0 -0.00000000000E+00  0.00000000000E+00  0.18885501300E+04  0.18885501300E+04  0.00000000000E+00 0.  1.
         21   -1    0    0  505  502  0.00000000000E+00 -0.00000000000E+00 -0.62675726464E+03  0.62675726464E+03  0.00000000000E+00 0. -1.
         21    1    1    2  503  501  0.22837236637E+02 -0.75986845851E+02  0.10137663199E+04  0.10168666046E+04  0.00000000000E+00 0. -1.
         21    1    1    2  504  502 -0.28752539784E+02 -0.29532186128E+02 -0.11557418160E+02  0.42806920890E+02  0.00000000000E+00 0.  1.
         21    1    1    2  505  503  0.21584075903E+02  0.18787157882E+03 -0.58093773499E+03  0.61094210396E+03  0.00000000000E+00 0. -1.
          2    1    1    2  501    0 -0.15668772756E+02 -0.82352546844E+02  0.84052169858E+03  0.84469176520E+03  0.00000000000E+00 0.  1.
<scales pt_clust_3="42.30955" pt_clust_4="41.21721" pt_clust_5="158.67267" pt_clust_6="42.30955"></scales>
<clustering>
<clus scale="   41.217">  2  4  1 -1</clus>
<clus scale="   42.310">  3  6 -1 -1</clus>
<clus scale="  158.673">  2  5  1 -1</clus>
<clus scale="   41.217">  2  3  1 -1</clus>
</clustering>
</event>
<event>
 6    0  0.4340992E+002  0.1430965E+03  0.7546771E-02  0.1209222E+00
         21   -1    0    0  503  502  0.00000000000E+00  0.00000000000E+00  0.33217483874E+04  0.33217483874E+04  0.00000000000E+00 0. -1.
         -2   -1    0    0    0  501 -0.00000000000E+00 -0.00000000000E+00 -0.84419259477E+02  0.84419259477E+02  0.00000000000E+00 0. -1.
         21    1    1    2  503  505  0.93508042616E+02  0.43197657732E+02  0.28725511058E+04  0.28743972667E+04  0.00000000000E+00 0. -1.
         21    1    1    2  504  502  0.22935939982E+02  0.45694138406E+02  0.34002263540E+03  0.34384502935E+03  0.00000000000E+00 0.  1.
         21    1    1    2  505  501 -0.11670768405E+02 -0.44203614434E+02  0.53575100556E+02  0.70430517277E+02  0.00000000000E+00 0.  1.
         -2    1    1    2    0  504 -0.10477321419E+03 -0.44688181704E+02 -0.28819713821E+02  0.11749483351E+03  0.00000000000E+00 0. -1.
<scales pt_clust_3="143.09651" pt_clust_4="50.00271" pt_clust_5="45.71834" pt_clust_6="14000.00000"></scales>
<clustering>
<clus scale="   45.718">  2  5  1 -1</clus>
<clus scale="   50.003">  1  4  2 -1</clus>
<clus scale="  143.097">  1  3  2 -1</clus>
<clus scale="   50.003">  1  3  2 -1</clus>
</clustering>
</event>
<event>
 6    0  0.4340992E+002  0.9110338E+02  0.7546771E-02  0.1300202E+00
         21   -1    0    0  501  502  0.00000000000E+00  0.00000000000E+00  0.14440157178E+04  0.14440157178E+04  0.00000000000E+00 0. -1.
          2   -1    0    0  504    0 -0.00000000000E+00 -0.00000000000E+00 -0.28267897272E+04  0.28267897272E+04  0.00000000000E+00 0.  1.
         21    1    1    2  503  502  0.90112226792E+02  0.16977600100E+02  0.11399341420E+04  0.11436163257E+04  0.00000000000E+00 0. -1.
         21    1    1    2  504  505  0.22037758798E+02  0.57778185865E+02 -0.48538098058E+03  0.48930427945E+03  0.00000000000E+00 0. -1.
         21    1    1    2  505  503 -0.92435542665E+02  0.19133325347E+02  0.29184844305E+03  0.30673429446E+03  0.00000000000E+00 0. -1.
          2    1    1    2  501    0 -0.19714442925E+02 -0.93889111312E+02 -0.23291756139E+04  0.23311505453E+04  0.00000000000E+00 0.  1.
<scales pt_clust_3="14000.00000" pt_clust_4="61.83835" pt_clust_5="91.10338" pt_clust_6="36.40893"></scales>
<clustering>
<clus scale="   61.838">  2  4  1 -1</clus>
<clus scale="   36.409">  2  6  1 -1</clus>
<clus scale="   91.103">  2  5  1 -1</clus>
<clus scale="   91.103">  1  3  2 -1</clus>
</clustering>
</event>
<event>
 6    0  0.4340992E+002  0.9130048E+02  0.7546771E-02  0.1299733E+00
          2   -1    0    0  505    0 -0.00000000000E+00  0.00000000000E+00  0.29445375950E+04  0.29445375950E+04  0.00000000000E+00 0.  1.
         21   -1    0    0  504  502  0.00000000000E+00 -0.00000000000E+00 -0.10359295536E+02  0.10359295536E+02  0.00000000000E+00 0. -1.
         21    1    1    2  503  502 -0.65342336169E+02 -0.14935250330E+02  0.22596276185E+03  0.23569440456E+03  0.00000000000E+00 0. -1.
         21    1    1    2  504  501  0.30982358988E+02  0.76675679341E+01  0.13041483984E+03  0.13426365337E+03  0.00000000000E+00 0.  1.
         21    1    1    2  505  503 -0.54400284146E+02 -0.46157541022E+02  0.56694983569E+03  0.57142105815E+03  0.00000000000E+00 0. -1.
          2    1    1    2  501    0  0.88760261327E+02  0.53425223418E+02  0.20108508621E+04  0.20135177745E+04  0.00000000000E+00 0.  1.
<scales pt_clust_3="48.61960" pt_clust_4="31.91705" pt_clust_5="91.30048" pt_clust_6="14000.00000"></scales>
<clustering>
<clus scale="   31.917">  2  4  1 -1</clus>
<clus scale="   48.620">  2  3  1 -1</clus>
<clus scale="   91.300">  2  5  1 -1</clus>
<clus scale="   31.917">  2  3  1 -1</clus>
</clustering>
</event>
<event>
 6    0  0.4340992E+002  0.8913995E+02  0.7546771E-02  0.1304948E+00
         21   -1    0    0  501  502  0.00000000000E+00  0.00000000000E+00  0.18347988632E+03  0.18347988632E+03  0.00000000000E+00 0.  1.
          2   -1    0    0  504    0 -0.00000000000E+00 -0.00000000000E+00 -0.10293803018E+04  0.10293803018E+04  0.00000000000E+00 0.  1.
         21    1    1    2  503  502 -0.77414419510E+01  0.35681208201E+02  0.14832654066E+03  0.15275418556E+03  0.00000000000E+00 0.  1.
         21    1    1    2  504  505 -0.48253800526E+02 -0.11728542135E+03 -0.79850184642E+03  0.80851066663E+03  0.00000000000E+00 0.  1.
         21    1    1    2  505  503  0.36178934975E+02  0.27174955813E+02  0.22661441335E+01  0.45304844869E+02  0.00000000000E+00 0. -1.
          2    1    1    2  501    0  0.19816307501E+02  0.54429257334E+02 -0.19799125390E+03  0.20629049110E+03  0.00000000000E+00 0.  1.
<scales pt_clust_3="36.51135" pt_clust_4="89.13995" pt_clust_5="61.14201" pt_clust_6="14000.00000"></scales>
<clustering>
<clus scale="   36.511">  1  3  2 -1</clus>
<clus scale="   61.142">  1  5  2 -1</clus>
<clus scale="   89.140">  1  4  2 -1</clus>
<clus scale="   36.511">  1  3  2 -1</clus>
</clustering>
</event>
<event>
 6    0  0.4340992E+002  0.1103094E+03  0.7546771E-02  0.1259998E+00
          2   -1    0    0  504    0 -0.00000000000E+00  0.00000000000E+00  0.49941302932E+03  0.49941302932E+03  0.00000000000E+00 0.  1.
         21   -1    0    0  501  502  0.00000000000E+00 -0.00000000000E+00 -0.19864060680E+03  0.19864060680E+03  0.00000000000E+00 0.  1.
         21    1    1    2  503  502 -0.39184421463E+02  0.26826861411E+02 -0.43843074409E+02  0.64632147977E+02  0.00000000000E+00 0.  1.
         21    1    1    2  504  505  0.45293764168E+02 -0.96147693237E+02  0.31735288990E+03  0.33467709918E+03  0.00000000000E+00 0.  1.
         21    1    1    2  505  503 -0.44219229294E+02  0.35475236726E+02 -0.12549620635E+03  0.13770668273E+03  0.00000000000E+00 0.  1.
          2    1    1    2  501    0  0.38109886588E+02  0.33845595100E+02  0.15275881338E+03  0.16103770623E+03  0.00000000000E+00 0.  1.
<scales pt_clust_3="34.57977" pt_clust_4="103.63722" pt_clust_5="34.57977" pt_clust_6="50.96948"></scales>
<clustering>
<clus scale="   34.580">  3  5 -1 -1</clus>
<clus scale="   50.969">  1  6  2 -1</clus>
<clus scale="  103.637">  1  4  2 -1</clus>
<clus scale="  110.309">  2  3  1 -1</clus>
</clustering>
</event>
<event>
 6    0  0.4340992E+002  0.4351674E+03  0.7546771E-02  0.1032240E+00
         21   -1    0    0  504  502  0.00000000000E+00  0.00000000000E+00  0.13887643305E+03  0.13887643305E+03  0.00000000000E+00 0.  1.
         -2   -1    0    0    0  501 -0.00000000000E+00 -0.00000000000E+00 -0.29828697231E+04  0.29828697231E+04  0.00000000000E+00 0. -1.
         21    1    1    2  503  505  0.48629070370E+01  0.62325501673E+02 -0.51732296580E+03  0.52108652541E+03  0.00000000000E+00 0. -1.
         21    1    1    2  504  501  0.77426741748E+02 -0.42756157658E+03 -0.52641948858E+03  0.68258426591E+03  0.00000000000E+00 0.  1.
         21    1    1    2  505  502 -0.35470281638E+02  0.36132502409E+01  0.33198735471E+02  0.48717065733E+02  0.00000000000E+00 0.  1.
         -2    1    1    2    0  503 -0.46819367148E+02  0.36162282467E+03 -0.18334495711E+04  0.18693582991E+04  0.00000000000E+00 0. -1.
<scales pt_clust_3="33.64421" pt_clust_4="427.51407" pt_clust_5="35.65384" pt_clust_6="33.64421"></scales>
<clustering>
<clus scale="   33.644">  3  6 -1 -1</clus>
<clus scale="   35.654">  1  5  2 -1</clus>
<clus scale="  427.514">  1  4  2 -1</clus>
<clus scale="   35.654">  1  3  2 -1</clus>
</clustering>
</event>
<event>
 6    0  0.4340992E+002  0.7815885E+02  0.7546771E-02  0.1334359E+00
         -1   -1    0    0    0  501 -0.00000000000E+00  0.00000000000E+00  0.10677945590E+04  0.10677945590E+04  0.00000000000E+00 0.  1.
         21   -1    0    0  504  502  0.00000000000E+00 -0.00000000000E+00 -0.43443613048E+03  0.43443613048E+03  0.00000000000E+00 0.  1.
         21    1    1    2  503  505 -0.10947662753E+03 -0.39728601431E+02  0.23202615016E+03  0.25961438347E+03  0.00000000000E+00 0.  1.
         21    1    1    2  504  501  0.29788392287E+02 -0.15566592560E+02  0.33005652232E+02  0.47106689527E+02  0.00000000000E+00 0.  1.
         21    1    1    2  505  502  0.39498991343E+02  0.44185168932E+02 -0.41090806566E+03  0.41516013525E+03  0.00000000000E+00 0.  1.
         -1    1    1    2    0  503  0.40189243899E+02  0.11110025059E+02  0.77923469183E+03  0.78034948128E+03  0.00000000000E+00 0.  1.
<scales pt_clust_3="14000.00000" pt_clust_4="33.61052" pt_clust_5="59.28344" pt_clust_6="78.15885"></scales>
<clustering>
<clus scale="   33.611">  1  4  2 -1</clus>
<clus scale="   59.283">  2  5  1 -1</clus>
<clus scale="   78.159">  1  6  2 -1</clus>
<clus scale="   59.283">  2  3  1 -1</clus>
</clustering>
</event>
<event>
 6    0  0.4340992E+002  0.8322010E+02  0.7546771E-02  0.1320154E+00
         21   -1    0    0  504  502  0.00000000000E+00  0.00000000000E+00  0.55388352176E+02  0.55388352176E+02  0.00000000000E+00 0.  1.
          1   -1    0    0  503    0 -0.00000000000E+00 -0.00000000000E+00 -0.16908472225E+04  0.16908472225E+04  0.00000000000E+00 0. -1.
         21    1    1    2  503  505  0.69102236234E+02 -0.16906805964E+02 -0.75968539864E+03  0.76300908517E+03  0.00000000000E+00 0. -1.
         21    1    1    2  504  501 -0.31534246697E+02 -0.71408276626E+02 -0.11602812030E+01  0.78069820916E+02  0.00000000000E+00 0.  1.
         21    1    1    2  505  502 -0.49349419862E+02  0.31431477059E+02 -0.45781236150E+02  0.74291483861E+02  0.00000000000E+00 0.  1.
          1    1    1    2  501    0  0.11781430325E+02  0.56883605530E+02 -0.82883195436E+03  0.83086518476E+03  0.00000000000E+00 0. -1.
<scales pt_clust_3="14000.00000" pt_clust_4="83.22010" pt_clust_5="60.06638" pt_clust_6="58.09085"></scales>
<clustering>
<clus scale="   58.091">  2  6  1 -1</clus>
<clus scale="   60.066">  1  5  2 -1</clus>
<clus scale="   83.220">  1  4  2 -1</clus>
<clus scale="   60.066">  1  3  2 -1</clus>
</clustering>
</event>
<event>
 6    0  0.4340992E+002  0.3484272E+03  0.7546771E-02  0.1063262E+00
         -2   -1    0    0    0  501 -0.00000000000E+00  0.00000000000E+00  0.52519730086E+03  0.52519730086E+03  0.00000000000E+00 0.  1.
         21   -1    0    0  503  502  0.00000000000E+00 -0.00000000000E+00 -0.66101096421E+03  0.66101096421E+03  0.00000000000E+00 0.  1.
         21    1    1    2  503  501  0.19844995077E+03 -0.17341794562E+03  0.17969293724E+03  0.31897604693E+03  0.00000000000E+00 0.  1.
         21    1    1    2  504  505  0.69010742579E+02  0.17002951093E+03  0.28290169548E+02  0.18566865883E+03  0.00000000000E+00 0.  1.
         21    1    1    2  505  502 -0.36733891767E+03 -0.89472247369E+02 -0.38449830158E+03  0.53924216026E+03  0.00000000000E+00 0.  1.
         -2    1    1    2    0  504  0.99878224324E+02  0.92860682055E+02  0.40701531441E+02  0.14232139905E+03  0.00000000000E+00 0.  1.
<scales pt_clust_3="263.54538" pt_clust_4="62.06375" pt_clust_5="340.90850" pt_clust_6="62.06375"></scales>
<clustering>
<clus scale="   62.064">  4  6 -1 -1</clus>
<clus scale="  263.545">  1  3  2 -1</clus>
<clus scale="  340.909">  2  5  1 -1</clus>
<clus scale="  340.909">  2  3  1 -1</clus>
</clustering>
</event>
<event>
 6    0  0.4340992E+002  0.8447738E+02  0.7546771E-02  0.1316805E+00
          2   -1    0    0  503    0 -0.00000000000E+00  0.00000000000E+00  0.57188080024E+03  0.57188080024E+03  0.00000000000E+00 0.  1.
         21   -1    0    0  504  502  0.00000000000E+00 -0.00000000000E+00 -0.17106440123E+03  0.17106440123E+03  0.00000000000E+00 0.  1.
         21    1    1    2  503  505  0.29087172410E+02 -0.11379544994E+02  0.61700504986E+02  0.69155693609E+02  0.00000000000E+00 0.  1.
         21    1    1    2  504  501  0.78499004239E+02 -0.35943946310E+02 -0.13145254872E+03  0.15726993834E+03  0.00000000000E+00 0.  1.
         21    1    1    2  505  502 -0.34952667821E+02  0.83247415210E+02  0.90230665874E+02  0.12764558038E+03  0.00000000000E+00 0. -1.
          2    1    1    2  501    0 -0.72633508828E+02 -0.35923923907E+02  0.38033777686E+03  0.38887398913E+03  0.00000000000E+00 0.  1.
<scales pt_clust_3="31.23392" pt_clust_4="84.47738" pt_clust_5="14000.00000" pt_clust_6="67.38571"></scales>
<clustering>
<clus scale="   31.234">  1  3  2 -1</clus>
<clus scale="   67.386">  1  6  2 -1</clus>
<clus scale="   84.477">  2  4  1 -1</clus>
<clus scale="   84.477">  2  3  1 -1</clus>
</clustering>
</event>
<event>
 6    0  0.4340992E+002  0.7641046E+02  0.7546771E-02  0.1339558E+00
          4   -1    0    0  504    0 -0.00000000000E+00  0.00000000000E+00  0.93994896157E+02  0.93994896157E+02  0.00000000000E+00 0. -1.
         21   -1    0    0  503  502  0.00000000000E+00 -0.00000000000E+00 -0.81840607235E+03  0.81840607235E+03  0.00000000000E+00 0.  1.
         21    1    1    2  503  501 -0.60082167048E+01 -0.93962244665E+02 -0.40018014509E+03  0.41110722521E+03  0.00000000000E+00 0.  1.
         21    1    1    2  504  505  0.29346749850E+02  0.85086430736E+02 -0.53980100329E+02  0.10495133946E+03  0.00000000000E+00 0.  1.
         21    1    1    2  505  502  0.25684975136E+02  0.24665028934E+02 -0.32162888475E+03  0.32359422291E+03  0.00000000000E+00 0.  1.
          4    1    1    2  501    0 -0.49023508281E+02 -0.15789215005E+02  0.51377953973E+02  0.72748180933E+02  0.00000000000E+00 0. -1.
<scales pt_clust_3="76.41046" pt_clust_4="14000.00000" pt_clust_5="35.61013" pt_clust_6="50.81469"></scales>
<clustering>
<clus scale="   35.610">  2  5  1 -1</clus>
<clus scale="   50.815">  1  6  2 -1</clus>
<clus scale="   76.410">  2  3  1 -1</clus>
<clus scale="   35.610">  2  3  1 -1</clus>
</clustering>
</event>
<event>
 6    0  0.4340992E+002  0.9549948E+02  0.7546771E-02  0.1290055E+00
          2   -1    0    0  503    0 -0.00000000000E+00  0.00000000000E+00  0.81207388052E+03  0.81207388052E+03  0.00000000000E+00 0.  1.
         21   -1    0    0  504  502  0.00000000000E+00 -0.00000000000E+00 -0.66912198748E+02  0.66912198748E+02  0.00000000000E+00 0.  1.
         21    1    1    2  503  502  0.30652757847E+02 -0.50942684452E+02 -0.36291362330E+01  0.59564412971E+02  0.00000000000E+00 0.  1.
         21    1    1    2  504  505 -0.31339816574E+02  0.87209546544E+01 -0.31800000500E+01  0.32685647513E+02  0.00000000000E+00 0.  1.
         21    1    1    2  505  501 -0.88678799707E+02  0.66655013674E+02  0.21605913911E+03  0.24287521891E+03  0.00000000000E+00 0.  1.
          2    1    1    2  501    0  0.89365858435E+02 -0.24433283877E+02  0.53591167895E+03  0.54386079988E+03  0.00000000000E+00 0.  1.
<scales pt_clust_3="46.50274" pt_clust_4="32.53059" pt_clust_5="95.49948" pt_clust_6="14000.00000"></scales>
<clustering>
<clus scale="   32.531">  2  4  1 -1</clus>
<clus scale="   46.503">  2  3  1 -1</clus>
<clus scale="   95.499">  2  5  1 -1</clus>
<clus scale="   32.531">  2  3  1 -1</clus>
</clustering>
</event>
<event>
 6    0  0.4340992E+002  0.7689803E+02  0.7546771E-02  0.1338092E+00
         21   -1    0    0  501  502  0.00000000000E+00  0.00000000000E+00  0.59334812669E+03  0.59334812669E+03  0.00000000000E+00 0.  1.
         -2   -1    0    0    0  501 -0.00000000000E+00 -0.00000000000E+00 -0.14491446091E+03  0.14491446091E+03  0.00000000000E+00 0. -1.
         21    1    1    2  503  505 -0.88105897279E+02 -0.47445226769E+02  0.14830526987E+03  0.17890822158E+03  0.00000000000E+00 0. -1.
         21    1    1    2  504  503  0.43147461312E+02  0.13817729939E+02 -0.40143705837E+02  0.60532224448E+02  0.00000000000E+00 0.  1.
         21    1    1    2  505  502  0.26198857411E+02  0.71482779121E+02  0.41015493330E+03  0.41716092476E+03  0.00000000000E+00 0.  1.
         -2    1    1    2    0  504  0.18759578556E+02 -0.37855282291E+02 -0.69882831551E+02  0.81661216807E+02  0.00000000000E+00 0. -1.
<scales pt_clust_3="76.89803" pt_clust_4="58.44365" pt_clust_5="14000.00000" pt_clust_6="42.24860"></scales>
<clustering>
<clus scale="   42.249">  2  6  1 -1</clus>
<clus scale="   58.444">  2  4  1 -1</clus>
<clus scale="   76.898">  2  3  1 -1</clus>
<clus scale="   76.898">  1  3  2 -1</clus>
</clustering>
</event>
<event>
 6    0  0.4340992E+002  0.2024668E+03  0.7546771E-02  0.1147674E+00
         21   -1    0    0  504  502  0.00000000000E+00  0.00000000000E+00  0.53869260591E+02  0.53869260591E+02  0.00000000000E+00 0.  1.
          2   -1    0    0  505    0 -0.00000000000E+00 -0.00000000000E+00 -0.20907876110E+04  0.20907876110E+04  0.00000000000E+00 0.  1.
         21    1    1    2  503  502  0.22612124499E+02  0.34552146824E+02  0.85479070199E+01  0.42169013967E+02  0.00000000000E+00 0.  1.
         21    1    1    2  504  501 -0.12512191981E+03  0.15124878428E+02 -0.90930234288E+03  0.91799510213E+03  0.00000000000E+00 0.  1.
         21    1    1    2  505  503  0.14602503886E+03 -0.10960863701E+03 -0.34921762382E+03  0.39406892045E+03  0.00000000000E+00 0.  1.
          2    1    1    2  501    0 -0.43515243546E+02  0.59931611756E+02 -0.78694629076E+03  0.79042383507E+03  0.00000000000E+00 0.  1.
<scales pt_clust_3="41.29357" pt_clust_4="66.90549" pt_clust_5="183.38190" pt_clust_6="66.90549"></scales>
<clustering>
<clus scale="   41.294">  1  3  2 -1</clus>
<clus scale="   66.905">  4  6 -1 -1</clus>
<clus scale="  183.382">  1  5  2 -1</clus>
<clus scale="   41.294">  1  3  2 -1</clus>
</clustering>
</event>
<event>
 6    0  0.4340992E+002  0.1730136E+03  0.7546771E-02  0.1174741E+00
          2   -1    0    0  505    0 -0.00000000000E+00  0.00000000000E+00  0.59783558941E+03  0.59783558941E+03  0.00000000000E+00 0.  1.
         21   -1    0    0  504  502  0.00000000000E+00 -0.00000000000E+00 -0.15535867728E+03  0.15535867728E+03  0.00000000000E+00 0. -1.
         21    1    1    2  503  501 -0.75117349759E+00 -0.41847848733E+02 -0.17988098872E+02  0.45556321254E+02  0.00000000000E+00 0. -1.
         21    1    1    2  504  503 -0.11067362012E+03 -0.73304337302E+02 -0.67958093021E+02  0.14913241923E+03  0.00000000000E+00 0. -1.
         21    1    1    2  505  502  0.31810661379E+02 -0.53501144025E+01  0.57467811002E+02  0.65902133523E+02  0.00000000000E+00 0. -1.
          2    1    1    2  501    0  0.79614132234E+02  0.12050230044E+03  0.47095529302E+03  0.49260339269E+03  0.00000000000E+00 0.  1.
<scales pt_clust_3="39.39513" pt_clust_4="39.39513" pt_clust_5="32.25743" pt_clust_6="158.40539"></scales>
<clustering>
<clus scale="   32.257">  1  5  2 -1</clus>
<clus scale="   39.395">  3  4 -1 -1</clus>
<clus scale="  158.405">  1  6  2 -1</clus>
<clus scale="  173.014">  2  3  1 -1</clus>
</clustering>
</event>
<event>
 6    0  0.4340992E+002  0.2267024E+03  0.7546771E-02  0.1128983E+00
         21   -1    0    0  504  502  0.00000000000E+00  0.00000000000E+00  0.90921184210E+02  0.90921184210E+02  0.00000000000E+00 0. -1.
          1   -1    0    0  503    0 -0.00000000000E+00 -0.00000000000E+00 -0.12259179359E+04  0.12259179359E+04  0.00000000000E+00 0.  1.
         21    1    1    2  503  502  0.43234760557E+02 -0.45550889280E+02 -0.21724301199E+02  0.66453542398E+02  0.00000000000E+00 0.  1.
         21    1    1    2  504  505  0.26042190597E+02  0.16641823626E+03 -0.20835140179E+03  0.26792448876E+03  0.00000000000E+00 0. -1.
         21    1    1    2  505  501  0.14965211088E+02  0.61649140887E+02 -0.87723729796E+01  0.64043177956E+02  0.00000000000E+00 0. -1.
          1    1    1    2  501    0 -0.84242162242E+02 -0.18251648786E+03 -0.89614867574E+03  0.91841791101E+03  0.00000000000E+00 0.  1.
<scales pt_clust_3="62.80229" pt_clust_4="59.38422" pt_clust_5="59.38422" pt_clust_6="205.01348"></scales>
<clustering>
<clus scale="   59.384">  4  5 -1 -1</clus>
<clus scale="   62.802">  1  3  2 -1</clus>
<clus scale="  205.013">  2  6  1 -1</clus>
<clus scale="   62.802">  1  3  2 -1</clus>
</clustering>
</event>
<event>
 6    0  0.4340992E+002  0.3595798E+03  0.7546771E-02  0.1058750E+00
          2   -1    0    0  505    0 -0.00000000000E+00  0.00000000000E+00  0.14878217965E+04  0.14878217965E+04  0.00000000000E+00 0.  1.
         21   -1    0    0  501  502  0.00000000000E+00 -0.00000000000E+00 -0.31802643118E+03  0.31802643118E+03  0.00000000000E+00 0.  1.
         21    1    1    2  503  502  0.84912025584E+02  0.95020860008E+02 -0.97853220741E+02  0.16066819453E+03  0.00000000000E+00 0.  1.
         21    1    1    2  504  503 -0.73235917349E+02  0.27652282023E+03 -0.11802398210E+02  0.28629995861E+03  0.00000000000E+00 0.  1.
         21    1    1    2  505  504  0.16599058934E+02  0.41009547779E+02  0.12693313851E+03  0.13442222071E+03  0.00000000000E+00 0.  1.
          2    1    1    2  501    0 -0.28275167169E+02 -0.41255322801E+03  0.11525178457E+04  0.12244578538E+04  0.00000000000E+00 0.  1.
<scales pt_clust_3="128.39650" pt_clust_4="14000.00000" pt_clust_5="44.24152" pt_clust_6="359.57975"></scales>
<clustering>
<clus scale="   44.242">  1  5  2 -1</clus>
<clus scale="  128.396">  2  3  1 -1</clus>
<clus scale="  359.580">  1  6  2 -1</clus>
<clus scale="  128.396">  2  3  1 -1</clus>
</clustering>
</event>
<event>
 6    0  0.4340992E+002  0.2191699E+03  0.7546771E-02  0.1134503E+00
         -2   -1    0    0    0  501 -0.00000000000E+00  0.00000000000E+00  0.69998275080E+03  0.69998275080E+03  0.00000000000E+00 0.  1.
         21   -1    0    0  505  502  0.00000000000E+00 -0.00000000000E+00 -0.11572451123E+03  0.11572451123E+03  0.00000000000E+00 0. -1.
         21    1    1    2  503  502 -0.35867309319E+02 -0.29992586061E+02 -0.56722760893E+01  0.47097704959E+02  0.00000000000E+00 0. -1.
         21    1    1    2  504  503 -0.33775669434E+02  0.72037618286E+02  0.17649290234E+03  0.19359741442E+03  0.00000000000E+00 0. -1.
         21    1    1    2  505  501  0.17761334475E+03 -0.12929471609E+03  0.11983804140E+03  0.25024943559E+03  0.00000000000E+00 0. -1.
         -2    1    1    2    0  504 -0.10797036600E+03  0.87249683866E+02  0.29359957192E+03  0.32476270706E+03  0.00000000000E+00 0.  1.
<scales pt_clust_3="46.75488" pt_clust_4="35.87803" pt_clust_5="213.98495" pt_clust_6="35.87803"></scales>
<clustering>
<clus scale="   35.878">  4  6 -1 -1</clus>
<clus scale="   46.755">  2  3  1 -1</clus>
<clus scale="  213.985">  2  5  1 -1</clus>
<clus scale="   46.755">  2  3  1 -1</clus>
</clustering>
</event>
<event>
 6    0  0.4340992E+002  0.8447710E+02  0.7546771E-02  0.1316806E+00
          2   -1    0    0  504    0 -0.00000000000E+00  0.00000000000E+00  0.76562844851E+03  0.76562844851E+03  0.00000000000E+00 0. -1.
         21   -1    0    0  505  502  0.00000000000E+00 -0.00000000000E+00 -0.16955442219E+03  0.16955442219E+03  0.00000000000E+00 0.  1.
         21    1    1    2  503  502 -0.36816015227E+02 -0.22180132119E+02 -0.22922220122E+02  0.48711450536E+02  0.00000000000E+00 0. -1.
         21    1    1    2  504  503  0.69870700906E+02 -0.64344079785E+01  0.12806633789E+03  0.14602843337E+03  0.00000000000E+00 0. -1.
         21    1    1    2  505  501 -0.26673020483E+01 -0.57301395807E+02 -0.11456750748E+03  0.12812602480E+03  0.00000000000E+00 0.  1.
          2    1    1    2  501    0 -0.30387383631E+02  0.85915935905E+02  0.60549741603E+03  0.61231696199E+03  0.00000000000E+00 0. -1.
<scales pt_clust_3="42.98113" pt_clust_4="67.86255" pt_clust_5="84.47710" pt_clust_6="14000.00000"></scales>
<clustering>
<clus scale="   42.981">  2  3  1 -1</clus>
<clus scale="   67.863">  1  4  2 -1</clus>
<clus scale="   84.477">  2  5  1 -1</clus>
<clus scale="   42.981">  2  3  1 -1</clus>
</clustering>
</event>
<event>
 6    0  0.4340992E+002  0.8576470E+02  0.7546771E-02  0.1313445E+00
          1   -1    0    0  504    0 -0.00000000000E+00  0.00000000000E+00  0.15170816195E+04  0.15170816195E+04  0.00000000000E+00 0.  1.
         21   -1    0    0  501  502  0.00000000000E+00 -0.00000000000E+00 -0.66396780034E+03  0.66396780034E+03  0.00000000000E+00 0. -1.
         21    1    1    2  503  502 -0.24277431879E+02 -0.78846818143E+02 -0.55639025068E+03  0.56247339980E+03  0.00000000000E+00 0. -1.
         21    1    1    2  504  505 -0.52212539440E+01 -0.34021558734E+02  0.17528430235E+03  0.17863178497E+03  0.00000000000E+00 0.  1.
         21    1    1    2  505  503  0.49550650556E+01  0.14685040106E+03 -0.49873064872E+02  0.15516737918E+03  0.00000000000E+00 0. -1.
          1    1    1    2  501    0  0.24543620767E+02 -0.33982024183E+02  0.12840928324E+04  0.12847768559E+04  0.00000000000E+00 0.  1.
<scales pt_clust_3="14000.00000" pt_clust_4="34.41988" pt_clust_5="85.76470" pt_clust_6="69.39733"></scales>
<clustering>
<clus scale="   34.420">  1  4  2 -1</clus>
<clus scale="   69.397">  1  6  2 -1</clus>
<clus scale="   85.765">  1  5  2 -1</clus>
<clus scale="   85.765">  2  3  1 -1</clus>
</clustering>
</event>
<event>
 6    0  0.4340992E+002  0.8463020E+02  0.7546771E-02  0.1316402E+00
         21   -1    0    0  504  502  0.00000000000E+00  0.00000000000E+00  0.22103029974E+02  0.22103029974E+02  0.00000000000E+00 0. -1.
          2   -1    0    0  503    0 -0.00000000000E+00 -0.00000000000E+00 -0.17709052544E+04  0.17709052544E+04  0.00000000000E+00 0.  1.
         21    1    1    2  503  505 -0.66325808593E+01 -0.36106339962E+02 -0.20313298559E+03  0.20642351791E+03  0.00000000000E+00 0.  1.
         21    1    1    2  504  501  0.83104484735E+02 -0.16481217300E+01 -0.92500910696E+02  0.12436032393E+03  0.00000000000E+00 0. -1.
         21    1    1    2  505  502  0.25374571111E+02  0.39097285224E+02 -0.22145271048E+03  0.22630459462E+03  0.00000000000E+00 0. -1.
          2    1    1    2  501    0 -0.10184647499E+03 -0.13428235325E+01 -0.12317156176E+04  0.12359198479E+04  0.00000000000E+00 0.  1.
<scales pt_clust_3="36.71047" pt_clust_4="14000.00000" pt_clust_5="41.81261" pt_clust_6="84.63020"></scales>
<clustering>
<clus scale="   36.710">  2  3  1 -1</clus>
<clus scale="   41.813">  2  5  1 -1</clus>
<clus scale="   84.630">  2  6  1 -1</clus>
<clus scale="   84.630">  1  3  2 -1</clus>
</clustering>
</event>
<event>
 6    0  0.4340992E+002  0.1196154E+03  0.7546771E-02  0.1243733E+00
          1   -1    0    0  503    0 -0.00000000000E+00  0.00000000000E+00  0.29734014713E+02  0.29734014713E+02  0.00000000000E+00 0.  1.
         21   -1    0    0  505  502  0.00000000000E+00 -0.00000000000E+00 -0.13793760507E+04  0.13793760507E+04  0.00000000000E+00 0. -1.
         21    1    1    2  503  504  0.78178468003E+02  0.31245632590E+02 -0.35596577221E+03  0.36578654076E+03  0.00000000000E+00 0. -1.
         21    1    1    2  504  502  0.46919063882E+02 -0.35384266417E+02 -0.82778613983E+03  0.82986947055E+03  0.00000000000E+00 0. -1.
         21    1    1    2  505  501 -0.56645894219E+02  0.13638845037E+02 -0.11037595933E+03  0.12481036746E+03  0.00000000000E+00 0.  1.
          1    1    1    2  501    0 -0.68451637665E+02 -0.95002112105E+01 -0.55514164661E+02  0.88643686690E+02  0.00000000000E+00 0.  1.
<scales pt_clust_3="109.23038" pt_clust_4="58.76602" pt_clust_5="44.76262" pt_clust_6="44.76262"></scales>
<clustering>
<clus scale="   44.763">  5  6 -1 -1</clus>
<clus scale="   58.766">  2  4  1 -1</clus>
<clus scale="  109.230">  2  3  1 -1</clus>
<clus scale="   58.766">  2  3  1 -1</clus>
</clustering>
</event>
<event>
 6    0  0.4340992E+002  0.1802814E+03  0.7546771E-02  0.1167531E+00
          1   -1    0    0  505    0 -0.00000000000E+00  0.00000000000E+00  0.62439054901E+03  0.62439054901E+03  0.00000000000E+00 0.  1.
         21   -1    0    0  504  502  0.00000000000E+00 -0.00000000000E+00 -0.39830025479E+03  0.39830025479E+03  0.00000000000E+00 0.  1.
         21    1    1    2  503  502  0.32003057087E+02 -0.77018408651E+01 -0.62075756495E+02  0.70263173569E+02  0.00000000000E+00 0. -1.
         21    1    1    2  504  501  0.40434794498E+02  0.20671024171E+02  0.13713765934E+03  0.14446107246E+03  0.00000000000E+00 0.  1.
         21    1    1    2  505  503 -0.19950538272E+03  0.27975388752E+02 -0.28666066300E+03  0.35037031241E+03  0.00000000000E+00 0.  1.
          1    1    1    2  501    0  0.12706753114E+03 -0.40944572058E+02  0.43768905437E+03  0.45759624536E+03  0.00000000000E+00 0.  1.
<scales pt_clust_3="32.91677" pt_clust_4="34.87060" pt_clust_5="170.06519" pt_clust_6="34.87060"></scales>
<clustering>
<clus scale="   32.917">  2  3  1 -1</clus>
<clus scale="   34.871">  4  6 -1 -1</clus>
<clus scale="  170.065">  2  5  1 -1</clus>
<clus scale="   32.917">  2  3  1 -1</clus>
</clustering>
</event>
<event>
 6    0  0.4340992E+002  0.1421886E+03  0.7546771E-02  0.1210414E+00
         -3   -1    0    0    0  501 -0.00000000000E+00  0.00000000000E+00  0.41411597206E+03  0.41411597206E+03  0.00000000000E+00 0.  1.
         21   -1    0    0  504  502  0.00000000000E+00 -0.00000000000E+00 -0.40094673432E+03  0.40094673432E+03  0.00000000000E+00 0. -1.
         21    1    1    2  503  505 -0.27522790005E+02 -0.21327010224E+02  0.21213108185E+01  0.34883309682E+02  0.00000000000E+00 0. -1.
         21    1    1    2  504  503 -0.12199431453E+03 -0.69093188814E+02 -0.33094632146E+03  0.35941890491E+03  0.00000000000E+00 0. -1.
         21    1    1    2  505  501 -0.17624197974E+00 -0.34770861311E+02  0.10904285440E+02  0.36441011217E+02  0.00000000000E+00 0. -1.
         -3    1    1    2    0  502  0.14969334651E+03  0.12519106035E+03  0.33108996295E+03  0.38431948057E+03  0.00000000000E+00 0.  1.
<scales pt_clust_3="70.12484" pt_clust_4="142.18862" pt_clust_5="31.65309" pt_clust_6="14000.00000"></scales>
<clustering>
<clus scale="   31.653">  3  5 -1 -1</clus>
<clus scale="   70.125">  1  3  2 -1</clus>
<clus scale="  142.189">  2  4  1 -1</clus>
<clus scale="  142.189">  2  3  1 -1</clus>
</clustering>
</event>
<event>
 6    0  0.4340992E+002  0.1343260E+03  0.7546771E-02  0.1221174E+00
         21   -1    0    0  503  502  0.00000000000E+00  0.00000000000E+00  0.33626908748E+03  0.33626908748E+03  0.00000000000E+00 0. -1.
          2   -1    0    0  502    0 -0.00000000000E+00 -0.00000000000E+00 -0.53906620207E+03  0.53906620207E+03  0.00000000000E+00 0. -1.
         21    1    1    2  503  504 -0.31245997715E+02 -0.36163502691E+02  0.23098917091E+03  0.23588155582E+03  0.00000000000E+00 0. -1.
         21    1    1    2  504  505 -0.63441769768E+02 -0.47044536396E+02  0.77003326273E+02  0.11030665806E+03  0.00000000000E+00 0. -1.
         21    1    1    2  505  501  0.34705855080E+02  0.36959419087E+02 -0.10813386273E+03  0.11942959142E+03  0.00000000000E+00 0. -1.
          2    1    1    2  501    0  0.59981912403E+02  0.46248620000E+02 -0.40265574903E+03  0.40971748425E+03  0.00000000000E+00 0. -1.
<scales pt_clust_3="47.79238" pt_clust_4="121.82864" pt_clust_5="46.29106" pt_clust_6="46.29106"></scales>
<clustering>
<clus scale="   46.291">  5  6 -1 -1</clus>
<clus scale="   47.792">  1  3  2 -1</clus>
<clus scale="  121.829">  1  4  2 -1</clus>
<clus scale="   47.792">  1  3  2 -1</clus>
</clustering>
</event>
<event>
 6    0  0.4340992E+002  0.3139868E+03  0.7546771E-02  0.1078450E+00
          1   -1    0    0  505    0 -0.00000000000E+00  0.00000000000E+00  0.62918480032E+03  0.62918480032E+03  0.00000000000E+00 0.  1.
         21   -1    0    0  503  502  0.00000000000E+00 -0.00000000000E+00 -0.22632660165E+04  0.22632660165E+04  0.00000000000E+00 0. -1.
         21    1    1    2  503  504 -0.25630142598E+03 -0.11581198308E+03 -0.94900897502E+03  0.98980850221E+03  0.00000000000E+00 0. -1.
         21    1    1    2  504  501  0.86131520304E+02  0.11090867888E+03  0.14860505028E+03  0.20445741564E+03  0.00000000000E+00 0. -1.
         21    1    1    2  505  502  0.42065328196E+02 -0.70004330094E+02 -0.12518244110E+04  0.12544857329E+04  0.00000000000E+00 0. -1.
          1    1    1    2  501    0  0.12810457748E+03  0.74907634294E+02  0.41814711952E+03  0.44369916611E+03  0.00000000000E+00 0.  1.
<scales pt_clust_3="283.04346" pt_clust_4="131.83428" pt_clust_5="81.67067" pt_clust_6="131.83428"></scales>
<clustering>
<clus scale="   81.671">  2  5  1 -1</clus>
<clus scale="  131.834">  4  6 -1 -1</clus>
<clus scale="  283.043">  2  3  1 -1</clus>
<clus scale="   81.671">  2  3  1 -1</clus>
</clustering>
</event>
<event>
 6    0  0.4340992E+002  0.1262696E+03  0.7546771E-02  0.1233098E+00
         21   -1    0    0  503  502  0.00000000000E+00  0.00000000000E+00  0.43450539941E+02  0.43450539941E+02  0.00000000000E+00 0.  1.
          1   -1    0    0  504    0 -0.00000000000E+00 -0.00000000000E+00 -0.11179095556E+04  0.11179095556E+04  0.00000000000E+00 0. -1.
         21    1    1    2  503  505 -0.19160028121E+00  0.36229496126E+02 -0.23519272846E+02  0.43194551686E+02  0.00000000000E+00 0.  1.
         21    1    1    2  504  502 -0.10807491541E+03 -0.66386817253E+02 -0.10692639411E+03  0.16589349174E+03  0.00000000000E+00 0.  1.
         21    1    1    2  505  501  0.29265621743E+02  0.30067241073E+02 -0.22034680575E+03  0.22430610872E+03  0.00000000000E+00 0. -1.
          1    1    1    2  501    0  0.79000893945E+02  0.90080053640E-01 -0.72366654291E+03  0.72796594336E+03  0.00000000000E+00 0. -1.
<scales pt_clust_3="36.23000" pt_clust_4="113.64094" pt_clust_5="40.84062" pt_clust_6="40.84062"></scales>
<clustering>
<clus scale="   36.230">  1  3  2 -1</clus>
<clus scale="   40.841">  5  6 -1 -1</clus>
<clus scale="  113.641">  1  4  2 -1</clus>
<clus scale="   36.230">  1  3  2 -1</clus>
</clustering>
</event>
<event>
 6    0  0.4340992E+002  0.1039605E+03  0.7546771E-02  0.1272181E+00
          2   -1    0    0  505    0 -0.00000000000E+00  0.00000000000E+00  0.14975645651E+03  0.14975645651E+03  0.00000000000E+00 0.  1.
         21   -1    0    0  504  502  0.00000000000E+00 -0.00000000000E+00 -0.84106131446E+03  0.84106131446E+03  0.00000000000E+00 0. -1.
         21    1    1    2  503  501  0.85746493894E+02 -0.65937695971E+02  0.26161793944E+02  0.11128647909E+03  0.00000000000E+00 0. -1.
         21    1    1    2  504  503 -0.76687643193E+01 -0.53896824962E+02 -0.69502355321E+03  0.69715236298E+03  0.00000000000E+00 0. -1.
         21    1    1    2  505  502 -0.80883717131E+02  0.86842269456E+02 -0.59440226159E+02  0.13272865534E+03  0.00000000000E+00 0. -1.
          2    1    1    2  501    0  0.28059875561E+01  0.32992251477E+02  0.36997127481E+02  0.49650273569E+02  0.00000000000E+00 0.  1.
<scales pt_clust_3="103.96047" pt_clust_4="54.10906" pt_clust_5="14000.00000" pt_clust_6="33.11136"></scales>
<clustering>
<clus scale="   33.111">  1  6  2 -1</clus>
<clus scale="   54.109">  2  4  1 -1</clus>
<clus scale="  103.960">  1  3  2 -1</clus>
<clus scale="   54.109">  2  3  1 -1</clus>
</clustering>
</event>
<event>
 6    0  0.4340992E+002  0.1220772E+03  0.7546771E-02  0.1239709E+00
         21   -1    0    0  505  502  0.00000000000E+00  0.00000000000E+00  0.25520097547E+03  0.25520097547E+03  0.00000000000E+00 0. -1.
          2   -1    0    0  503    0 -0.00000000000E+00 -0.00000000000E+00 -0.73474654513E+03  0.73474654513E+03  0.00000000000E+00 0.  1.
         21    1    1    2  503  502  0.29320434980E+02  0.96617406221E+01 -0.27076933782E+02  0.41063335012E+02  0.00000000000E+00 0. -1.
         21    1    1    2  504  501 -0.94256543053E+02 -0.42992798606E+02  0.95482675729E+02  0.14088867238E+03  0.00000000000E+00 0. -1.
         21    1    1    2  505  504 -0.28890179340E+02  0.18423691423E+02  0.12436557031E+03  0.12899949592E+03  0.00000000000E+00 0. -1.
          2    1    1    2  501    0  0.93826287413E+02  0.14907366560E+02 -0.67231688192E+03  0.67899601729E+03  0.00000000000E+00 0.  1.
<scales pt_clust_3="30.87130" pt_clust_4="14000.00000" pt_clust_5="34.20030" pt_clust_6="122.07723"></scales>
<clustering>
<clus scale="   30.871">  2  3  1 -1</clus>
<clus scale="   34.200">  1  5  2 -1</clus>
<clus scale="  122.077">  2  6  1 -1</clus>
<clus scale="   34.200">  1  3  2 -1</clus>
</clustering>
</event>
<event>
 6    0  0.4340992E+002  0.1054338E+03  0.7546771E-02  0.1269267E+00
         -1   -1    0    0    0  501 -0.00000000000E+00  0.00000000000E+00  0.12767008565E+04  0.12767008565E+04  0.00000000000E+00 0. -1.
         21   -1    0    0  504  502  0.00000000000E+00 -0.00000000000E+00 -0.33495145823E+02  0.33495145823E+02  0.00000000000E+00 0.  1.
         21    1    1    2  503  501 -0.31173223623E+02 -0.33630249007E+02  0.92137338050E+02  0.10291769810E+03  0.00000000000E+00 0.  1.
         21    1    1    2  504  503 -0.35272223481E+02 -0.45581412330E+02  0.29454493819E+02  0.64725281810E+02  0.00000000000E+00 0.  1.
         21    1    1    2  505  502  0.73116499418E+02 -0.14185052530E+02  0.16107326186E+03  0.17745938658E+03  0.00000000000E+00 0.  1.
         -1    1    1    2    0  505 -0.66710523143E+01  0.93396713867E+02  0.96054061700E+03  0.96509363587E+03  0.00000000000E+00 0. -1.
<scales pt_clust_3="45.74476" pt_clust_4="45.74476" pt_clust_5="74.47978" pt_clust_6="92.12049"></scales>
<clustering>
<clus scale="   45.745">  3  4 -1 -1</clus>
<clus scale="   74.480">  2  5  1 -1</clus>
<clus scale="   92.120">  1  6  2 -1</clus>
<clus scale="   74.480">  2  3  1 -1</clus>
</clustering>
</event>
<event>
 6    0  0.4340992E+002  0.9044469E+02  0.7546771E-02  0.1301778E+00
          1   -1    0    0  505    0 -0.00000000000E+00  0.00000000000E+00  0.70574268488E+03  0.70574268488E+03  0.00000000000E+00 0. -1.
         21   -1    0    0  504  502  0.00000000000E+00 -0.00000000000E+00 -0.10063638034E+03  0.10063638034E+03  0.00000000000E+00 0. -1.
         21    1    1    2  503  501 -0.14400450170E+02  0.37913608796E+02  0.17607347223E+03  0.18068392934E+03  0.00000000000E+00 0. -1.
         21    1    1    2  504  503  0.20350821705E+02  0.50646662642E+02  0.20428453196E+02  0.58280031579E+02  0.00000000000E+00 0. -1.
         21    1    1    2  505  502  0.31850571283E+00 -0.12790190026E+03 -0.26393224658E+02  0.13059708972E+03  0.00000000000E+00 0. -1.
          1    1    1    2  501    0 -0.62688772475E+01  0.39341628820E+02  0.43499760376E+03  0.43681801458E+03  0.00000000000E+00 0. -1.
<scales pt_clust_3="38.45175" pt_clust_4="54.58242" pt_clust_5="81.70094" pt_clust_6="38.45175"></scales>
<clustering>
<clus scale="   38.452">  3  6 -1 -1</clus>
<clus scale="   54.582">  2  4  1 -1</clus>
<clus scale="   81.701">  2  5  1 -1</clus>
<clus scale="   54.582">  2  3  1 -1</clus>
</clustering>
</event>
<event>
 6    0  0.4340992E+002  0.1740557E+03  0.7546771E-02  0.1173683E+00
         21   -1    0    0  504  502  0.00000000000E+00  0.00000000000E+00  0.19659598175E+03  0.19659598175E+03  0.00000000000E+00 0. -1.
          2   -1    0    0  503    0 -0.00000000000E+00 -0.00000000000E+00 -0.88098215167E+03  0.88098215167E+03  0.00000000000E+00 0. -1.
         21    1    1    2  503  505 -0.44413404300E+02  0.52220810069E+02  0.76993868830E+02  0.10309034544E+03  0.00000000000E+00 0. -1.
         21    1    1    2  504  501 -0.14460677282E+02  0.53370295105E+02 -0.41226348639E+02  0.68971816049E+02  0.00000000000E+00 0. -1.
         21    1    1    2  505  502 -0.27497667181E+01  0.55044859291E+02  0.74376549467E+02  0.92570885607E+02  0.00000000000E+00 0. -1.
          2    1    1    2  501    0  0.61623848300E+02 -0.16063596447E+03 -0.79453023958E+03  0.81294508632E+03  0.00000000000E+00 0. -1.
<scales pt_clust_3="36.31114" pt_clust_4="55.29466" pt_clust_5="36.31114" pt_clust_6="169.27895"></scales>
<clustering>
<clus scale="   36.311">  3  5 -1 -1</clus>
<clus scale="   55.295">  1  4  2 -1</clus>
<clus scale="  169.279">  2  6  1 -1</clus>
<clus scale="   55.295">  1  3  2 -1</clus>
</clustering>
</event>
<event>
 6    0  0.4340992E+002  0.8049778E+02  0.7546771E-02  0.1327645E+00
         21   -1    0    0  503  502  0.00000000000E+00  0.00000000000E+00  0.13693841994E+04  0.13693841994E+04  0.00000000000E+00 0. -1.
         -2   -1    0    0    0  501 -0.00000000000E+00 -0.00000000000E+00 -0.17184151652E+03  0.17184151652E+03  0.00000000000E+00 0.  1.
         21    1    1    2  503  505 -0.11045296098E+03 -0.35668550689E+02  0.12324378209E+04  0.12378913864E+04  0.00000000000E+00 0. -1.
         21    1    1    2  504  502  0.39835162425E+02 -0.88701987655E+01  0.11533020396E+03  0.12233796032E+03  0.00000000000E+00 0. -1.
         21    1    1    2  505  501  0.22516911395E+02  0.41968583214E+02 -0.10328821262E+03  0.11374017822E+03  0.00000000000E+00 0.  1.
         -2    1    1    2    0  504  0.48100887161E+02  0.25701662412E+01 -0.46937129419E+02  0.67256190929E+02  0.00000000000E+00 0.  1.
<scales pt_clust_3="80.49778" pt_clust_4="40.81079" pt_clust_5="47.67376" pt_clust_6="14000.00000"></scales>
<clustering>
<clus scale="   40.811">  1  4  2 -1</clus>
<clus scale="   47.674">  2  5  1 -1</clus>
<clus scale="   80.498">  1  3  2 -1</clus>
<clus scale="   40.811">  1  3  2 -1</clus>
</clustering>
</event>
<event>
 6    0  0.4340992E+002  0.9873675E+02  0.7546771E-02  0.1282975E+00
         21   -1    0    0  504  502  0.00000000000E+00  0.00000000000E+00  0.17969844608E+03  0.17969844608E+03  0.00000000000E+00 0. -1.
          2   -1    0    0  503    0 -0.00000000000E+00 -0.00000000000E+00 -0.62915731014E+03  0.62915731014E+03  0.00000000000E+00 0.  1.
         21    1    1    2  503  502 -0.19276141036E+02  0.16121105072E+03 -0.85046280875E-01  0.16235941525E+03  0.00000000000E+00 0. -1.
         21    1    1    2  504  505  0.35924291041E+02 -0.76630918362E+02  0.70907748680E+02  0.11041177998E+03  0.00000000000E+00 0. -1.
         21    1    1    2  505  501  0.27610630865E+02 -0.50104165722E+02 -0.13329936207E+03  0.14505686570E+03  0.00000000000E+00 0.  1.
          2    1    1    2  501    0 -0.44258780870E+02 -0.34475966634E+02 -0.38698220440E+03  0.39102769528E+03  0.00000000000E+00 0.  1.
<scales pt_clust_3="98.73675" pt_clust_4="14000.00000" pt_clust_5="70.11182" pt_clust_6="56.10198"></scales>
<clustering>
<clus scale="   56.102">  2  6  1 -1</clus>
<clus scale="   70.112">  2  5  1 -1</clus>
<clus scale="   98.737">  2  3  1 -1</clus>
<clus scale="   98.737">  1  3  2 -1</clus>
</clustering>
</event>
<event>
 6    0  0.4340992E+002  0.1021391E+03  0.7546771E-02  0.1275861E+00
         21   -1    0    0  505  502  0.00000000000E+00  0.00000000000E+00  0.30640837690E+04  0.30640837690E+04  0.00000000000E+00 0.  1.
          1   -1    0    0  504    0 -0.00000000000E+00 -0.00000000000E+00 -0.56935376821E+03  0.56935376821E+03  0.00000000000E+00 0. -1.
         21    1    1    2  503  501 -0.22554457300E+02  0.66457979197E+02 -0.82881087221E+02  0.10860313606E+03  0.00000000000E+00 0. -1.
         21    1    1    2  504  502  0.13468144916E+02 -0.46599260422E+02  0.53906020095E+02  0.72517177289E+02  0.00000000000E+00 0.  1.
         21    1    1    2  505  503 -0.47155346777E+02  0.89160601458E+02  0.29790401391E+04  0.29807471194E+04  0.00000000000E+00 0.  1.
          1    1    1    2  501    0  0.56241659161E+02 -0.10901932023E+03 -0.45533507115E+03  0.47157010447E+03  0.00000000000E+00 0. -1.
<scales pt_clust_3="14000.00000" pt_clust_4="48.50652" pt_clust_5="54.59381" pt_clust_6="102.13912"></scales>
<clustering>
<clus scale="   48.507">  1  4  2 -1</clus>
<clus scale="   54.594">  1  5  2 -1</clus>
<clus scale="  102.139">  2  6  1 -1</clus>
<clus scale="   48.507">  1  3  2 -1</clus>
</clustering>
</event>
<event>
 6    0  0.4340992E+002  0.9553437E+02  0.7546771E-02  0.1289977E+00
         21   -1    0    0  504  502  0.00000000000E+00  0.00000000000E+00  0.18631978962E+03  0.18631978962E+03  0.00000000000E+00 0.  1.
          1   -1    0    0  505    0 -0.00000000000E+00 -0.00000000000E+00 -0.13014845924E+04  0.13014845924E+04  0.00000000000E+00 0.  1.
         21    1    1    2  503  502 -0.36156495325E+01  0.12654169463E+03  0.55029139367E+02  0.13803651539E+03  0.00000000000E+00 0.  1.
         21    1    1    2  504  501  0.20283384154E+02 -0.77897656915E+02  0.54636334646E+02  0.97286122798E+02  0.00000000000E+00 0.  1.
         21    1    1    2  505  503 -0.46178535372E+02 -0.70514742723E+02 -0.11784355592E+03  0.14488578171E+03  0.00000000000E+00 0.  1.
          1    1    1    2  501    0  0.29510800750E+02  0.21870705004E+02 -0.11069867209E+04  0.11075959621E+04  0.00000000000E+00 0.  1.
<scales pt_clust_3="14000.00000" pt_clust_4="95.53437" pt_clust_5="61.57901" pt_clust_6="36.73166"></scales>
<clustering>
<clus scale="   36.732">  2  6  1 -1</clus>
<clus scale="   61.579">  2  5  1 -1</clus>
<clus scale="   95.534">  1  4  2 -1</clus>
<clus scale="   95.534">  1  3  2 -1</clus>
</clustering>
</event>
<event>
 6    0  0.4340992E+002  0.7362468E+02  0.7546771E-02  0.1348184E+00
         21   -1    0    0  504  502  0.00000000000E+00  0.00000000000E+00  0.25918540347E+03  0.25918540347E+03  0.00000000000E+00 0. -1.
          2   -1    0    0  503    0 -0.00000000000E+00 -0.00000000000E+00 -0.17727410531E+04  0.17727410531E+04  0.00000000000E+00 0.  1.
         21    1    1    2  503  505 -0.43856038305E+02 -0.62658158233E+02 -0.29851664035E+03  0.30815837074E+03  0.00000000000E+00 0. -1.
         21    1    1    2  504  501  0.31023394481E+02 -0.19014135114E+02 -0.15009565368E+02  0.39360835761E+02  0.00000000000E+00 0. -1.
         21    1    1    2  505  502 -0.49933656951E+02  0.42362630895E+02  0.23679143968E+03  0.24567895412E+03  0.00000000000E+00 0. -1.
          2    1    1    2  501    0  0.62766300775E+02  0.39309662452E+02 -0.14368208836E+04  0.14387282960E+04  0.00000000000E+00 0.  1.
<scales pt_clust_3="73.62468" pt_clust_4="36.38665" pt_clust_5="30.84900" pt_clust_6="14000.00000"></scales>
<clustering>
<clus scale="   36.387">  1  4  2 -1</clus>
<clus scale="   30.849">  1  5  2 -1</clus>
<clus scale="   73.625">  1  3  2 -1</clus>
<clus scale="   36.387">  1  3  2 -1</clus>
</clustering>
</event>
<event>
 6    0  0.4340992E+002  0.7367168E+02  0.7546771E-02  0.1348034E+00
         21   -1    0    0  501  502  0.00000000000E+00  0.00000000000E+00  0.90220050223E+02  0.90220050223E+02  0.00000000000E+00 0. -1.
          2   -1    0    0  504    0 -0.00000000000E+00 -0.00000000000E+00 -0.26218363558E+04  0.26218363558E+04  0.00000000000E+00 0. -1.
         21    1    1    2  503  505 -0.87198684423E+02  0.19579558029E+02 -0.67437661511E+02  0.11195895609E+03  0.00000000000E+00 0. -1.
         21    1    1    2  504  503  0.46276029038E+02 -0.82613042466E+02 -0.17666467649E+04  0.17691826298E+04  0.00000000000E+00 0. -1.
         21    1    1    2  505  502  0.70727752700E+02  0.13086135797E+01  0.45902193557E+02  0.84327568712E+02  0.00000000000E+00 0. -1.
          2    1    1    2  501    0 -0.29805097316E+02  0.61724870857E+02 -0.74343407270E+03  0.74658725141E+03  0.00000000000E+00 0. -1.
<scales pt_clust_3="73.67168" pt_clust_4="30.49657" pt_clust_5="14000.00000" pt_clust_6="68.54417"></scales>
<clustering>
<clus scale="   68.544">  2  6  1 -1</clus>
<clus scale="   30.497">  2  4  1 -1</clus>
<clus scale="   73.672">  2  3  1 -1</clus>
<clus scale="   73.672">  1  3  2 -1</clus>
</clustering>
</event>
<event>
 6    0  0.4340992E+002  0.1099382E+03  0.7546771E-02  0.1260684E+00
          1   -1    0    0  504    0 -0.00000000000E+00  0.00000000000E+00  0.14628443310E+04  0.14628443310E+04  0.00000000000E+00 0.  1.
         21   -1    0    0  503  502  0.00000000000E+00 -0.00000000000E+00 -0.62144037863E+02  0.62144037863E+02  0.00000000000E+00 0.  1.
         21    1    1    2  503  505  0.16427080272E+02 -0.37561437256E+02  0.59275366590E+02  0.72071350892E+02  0.00000000000E+00 0.  1.
         21    1    1    2  504  502 -0.88053766609E+02  0.49536588561E+02  0.60846165806E+01  0.10121443563E+03  0.00000000000E+00 0.  1.
         21    1    1    2  505  501  0.13203445277E+01 -0.80513873359E+02  0.26748743333E+03  0.27934522388E+03  0.00000000000E+00 0.  1.
          1    1    1    2  501    0  0.70306341809E+02  0.68538722054E+02  0.10678528766E+04  0.10723573585E+04  0.00000000000E+00 0.  1.
<scales pt_clust_3="35.41073" pt_clust_4="98.09928" pt_clust_5="35.41073" pt_clust_6="98.18624"></scales>
<clustering>
<clus scale="   35.411">  3  5 -1 -1</clus>
<clus scale="   98.186">  1  6  2 -1</clus>
<clus scale="   98.099">  2  4  1 -1</clus>
<clus scale="   98.099">  2  3  1 -1</clus>
</clustering>
</event>
<event>
 6    0  0.4340992E+002  0.1259522E+03  0.7546771E-02  0.1233589E+00
         21   -1    0    0  503  502  0.00000000000E+00  0.00000000000E+00  0.18934403467E+03  0.18934403467E+03  0.00000000000E+00 0.  1.
          1   -1    0    0  505    0 -0.00000000000E+00 -0.00000000000E+00 -0.94176863020E+03  0.94176863020E+03  0.00000000000E+00 0.  1.
         21    1    1    2  503  504  0.16223118784E+02 -0.82528374307E+02  0.12014166595E+03  0.14665654450E+03  0.00000000000E+00 0.  1.
         21    1    1    2  504  501  0.95091615575E+02  0.47164101576E+00  0.34375197166E+01  0.95154896562E+02  0.00000000000E+00 0.  1.
         21    1    1    2  505  502 -0.26110955194E+02  0.30329199910E+02 -0.11431094603E+03  0.12111413927E+03  0.00000000000E+00 0.  1.
          1    1    1    2  501    0 -0.85203779165E+02  0.51727533381E+02 -0.76169283517E+03  0.76818708453E+03  0.00000000000E+00 0.  1.
<scales pt_clust_3="83.54861" pt_clust_4="125.95220" pt_clust_5="40.02052" pt_clust_6="14000.00000"></scales>
<clustering>
<clus scale="   40.021">  2  5  1 -1</clus>
<clus scale="   83.549">  1  3  2 -1</clus>
<clus scale="  125.952">  1  4  2 -1</clus>
<clus scale="   83.549">  1  3  2 -1</clus>
</clustering>
</event>
<event>
 6    0  0.4340992E+002  0.9983464E+02  0.7546771E-02  0.1280644E+00
          2   -1    0    0  503    0 -0.00000000000E+00  0.00000000000E+00  0.12382363653E+04  0.12382363653E+04  0.00000000000E+00 0. -1.
         21   -1    0    0  505  502  0.00000000000E+00 -0.00000000000E+00 -0.17807192096E+03  0.17807192096E+03  0.00000000000E+00 0. -1.
         21    1    1    2  503  504  0.29987587245E+02  0.23664027630E+02  0.11354904933E+03  0.11980245488E+03  0.00000000000E+00 0.  1.
         21    1    1    2  504  502  0.34853957437E+02 -0.28133061206E+02 -0.42972652542E+02  0.62071864386E+02  0.00000000000E+00 0.  1.
         21    1    1    2  505  501 -0.11867427822E+03 -0.27411343846E+02 -0.90998044899E+02  0.15203818684E+03  0.00000000000E+00 0. -1.
          2    1    1    2  501    0  0.53832733543E+02  0.31880377422E+02  0.10805860924E+04  0.10823957801E+04  0.00000000000E+00 0. -1.
<scales pt_clust_3="38.20002" pt_clust_4="44.86463" pt_clust_5="99.83464" pt_clust_6="14000.00000"></scales>
<clustering>
<clus scale="   38.200">  1  3  2 -1</clus>
<clus scale="   44.865">  2  4  1 -1</clus>
<clus scale="   99.835">  2  5  1 -1</clus>
<clus scale="   44.865">  2  3  1 -1</clus>
</clustering>
</event>
<event>
 6    0  0.4340992E+002  0.8333505E+02  0.7546771E-02  0.1319845E+00
         21   -1    0    0  504  502  0.00000000000E+00  0.00000000000E+00  0.61511513921E+02  0.61511513921E+02  0.00000000000E+00 0. -1.
          2   -1    0    0  505    0 -0.00000000000E+00 -0.00000000000E+00 -0.21905320351E+04  0.21905320351E+04  0.00000000000E+00 0. -1.
         21    1    1    2  503  501 -0.73440289201E+01 -0.60046902306E+02 -0.53715208545E+02  0.80900487430E+02  0.00000000000E+00 0.  1.
         21    1    1    2  504  503  0.46953763817E+02  0.95229855280E+02 -0.15291466311E+02  0.10727166548E+03  0.00000000000E+00 0. -1.
         21    1    1    2  505  502  0.30725981604E+02  0.14201284094E+02 -0.33182840504E+03  0.33355037522E+03  0.00000000000E+00 0. -1.
          2    1    1    2  501    0 -0.70335716501E+02 -0.49384237068E+02 -0.17281854413E+04  0.17303210209E+04  0.00000000000E+00 0. -1.
<scales pt_clust_3="83.33505" pt_clust_4="14000.00000" pt_clust_5="33.84911" pt_clust_6="55.22590"></scales>
<clustering>
<clus scale="   33.849">  2  5  1 -1</clus>
<clus scale="   55.226">  2  6  1 -1</clus>
<clus scale="   83.335">  2  3  1 -1</clus>
<clus scale="   83.335">  1  3  2 -1</clus>
</clustering>
</event>
<event>
 6    0  0.4340992E+002  0.1239696E+03  0.7546771E-02  0.1236688E+00
          2   -1    0    0  503    0 -0.00000000000E+00  0.00000000000E+00  0.89424017429E+03  0.89424017429E+03  0.00000000000E+00 0.  1.
         21   -1    0    0  501  502  0.00000000000E+00 -0.00000000000E+00 -0.75143224586E+02  0.75143224586E+02  0.00000000000E+00 0. -1.
         21    1    1    2  503  504  0.69412006739E+02 -0.14775554894E+02  0.47379188036E+03  0.47907733154E+03  0.00000000000E+00 0.  1.
         21    1    1    2  504  505 -0.69687228614E+02 -0.47097839886E+02 -0.11134977460E+02  0.84843998473E+02  0.00000000000E+00 0. -1.
         21    1    1    2  505  502 -0.10811477805E+02 -0.41287293952E+02  0.10022340402E+02  0.43840346729E+02  0.00000000000E+00 0. -1.
          2    1    1    2  501    0  0.11086699680E+02  0.10316068873E+03  0.34641770640E+03  0.36162172213E+03  0.00000000000E+00 0.  1.
<scales pt_clust_3="70.96720" pt_clust_4="33.91234" pt_clust_5="33.91234" pt_clust_6="114.46403"></scales>
<clustering>
<clus scale="   33.912">  4  5 -1 -1</clus>
<clus scale="   70.967">  1  3  2 -1</clus>
<clus scale="  114.464">  1  6  2 -1</clus>
<clus scale="  123.970">  2  3  1 -1</clus>
</clustering>
</event>
<event>
 6    0  0.4340992E+002  0.2954923E+03  0.7546771E-02  0.1087516E+00
          1   -1    0    0  504    0 -0.00000000000E+00  0.00000000000E+00  0.78931498031E+03  0.78931498031E+03  0.00000000000E+00 0.  1.
         21   -1    0    0  505  502  0.00000000000E+00 -0.00000000000E+00 -0.49311549459E+03  0.49311549459E+03  0.00000000000E+00 0.  1.
         21    1    1    2  503  501 -0.78756565965E+02  0.13301942410E+02  0.15129233647E+03  0.17108158706E+03  0.00000000000E+00 0.  1.
         21    1    1    2  504  502  0.35714308927E+03  0.18448822605E-01 -0.26568829059E+03  0.44513082831E+03  0.00000000000E+00 0.  1.
         21    1    1    2  505  503 -0.75973896372E+02  0.37929245666E+02 -0.90052119068E+02  0.12377416837E+03  0.00000000000E+00 0.  1.
          1    1    1    2  501    0 -0.20241262693E+03 -0.51249636898E+02  0.50064755891E+03  0.54244389116E+03  0.00000000000E+00 0.  1.
<scales pt_clust_3="37.09306" pt_clust_4="289.34213" pt_clust_5="84.91561" pt_clust_6="37.09306"></scales>
<clustering>
<clus scale="   37.093">  3  6 -1 -1</clus>
<clus scale="   84.916">  2  5  1 -1</clus>
<clus scale="  289.342">  2  4  1 -1</clus>
<clus scale="   84.916">  2  3  1 -1</clus>
</clustering>
</event>
<event>
 6    0  0.4340992E+002  0.1886749E+03  0.7546771E-02  0.1159662E+00
          2   -1    0    0  503    0 -0.00000000000E+00  0.00000000000E+00  0.21690200462E+04  0.21690200462E+04  0.00000000000E+00 0.  1.
         21   -1    0    0  504  502  0.00000000000E+00 -0.00000000000E+00 -0.12837052889E+03  0.12837052889E+03  0.00000000000E+00 0. -1.
         21    1    1    2  503  502  0.24102516808E+02 -0.99856120370E+02  0.19588521714E+02  0.10457478795E+03  0.00000000000E+00 0. -1.
         21    1    1    2  504  505 -0.53893110868E+02 -0.77966090599E+02 -0.53598558980E+02  0.10888518819E+03  0.00000000000E+00 0. -1.
         21    1    1    2  505  501  0.34893547579E+02  0.49520289341E+02  0.95786143197E+03  0.95977515157E+03  0.00000000000E+00 0.  1.
          2    1    1    2  501    0 -0.51029535190E+01  0.12830192163E+03  0.11167981226E+04  0.11241554474E+04  0.00000000000E+00 0.  1.
<scales pt_clust_3="171.90689" pt_clust_4="94.77963" pt_clust_5="53.40922" pt_clust_6="53.40922"></scales>
<clustering>
<clus scale="   53.409">  5  6 -1 -1</clus>
<clus scale="   94.780">  2  4  1 -1</clus>
<clus scale="  171.907">  2  3  1 -1</clus>
<clus scale="   94.780">  2  3  1 -1</clus>
</clustering>
</event>
<event>
 6    0  0.4340992E+002  0.7231505E+02  0.7546771E-02  0.1352393E+00
         21   -1    0    0  501  502  0.00000000000E+00  0.00000000000E+00  0.19760085266E+03  0.19760085266E+03  0.00000000000E+00 0.  1.
          1   -1    0    0  503    0 -0.00000000000E+00 -0.00000000000E+00 -0.16227103456E+03  0.16227103456E+03  0.00000000000E+00 0.  1.
         21    1    1    2  503  504  0.30788258491E+02  0.46798597354E+01 -0.36501269144E+01  0.31355085306E+02  0.00000000000E+00 0.  1.
         21    1    1    2  504  505 -0.22091173344E+02 -0.49753527305E+02 -0.22598212836E+02  0.58941603663E+02  0.00000000000E+00 0.  1.
         21    1    1    2  505  502 -0.22069116621E+02 -0.65238731149E+02  0.12420576277E+03  0.14202186260E+03  0.00000000000E+00 0.  1.
          1    1    1    2  501    0  0.13372031473E+02  0.11031239872E+03 -0.62627604919E+02  0.12755333565E+03  0.00000000000E+00 0.  1.
<scales pt_clust_3="31.14190" pt_clust_4="50.26048" pt_clust_5="14000.00000" pt_clust_6="72.31505"></scales>
<clustering>
<clus scale="   31.142">  2  3  1 -1</clus>
<clus scale="   50.260">  2  4  1 -1</clus>
<clus scale="   72.315">  2  6  1 -1</clus>
<clus scale="   72.315">  1  3  2 -1</clus>
</clustering>
</event>
<event>
 6    0  0.4340992E+002  0.1238415E+03  0.7546771E-02  0.1236891E+00
         21   -1    0    0  505  502  0.00000000000E+00  0.00000000000E+00  0.96701910994E+02  0.96701910994E+02  0.00000000000E+00 0. -1.
         -1   -1    0    0    0  501 -0.00000000000E+00 -0.00000000000E+00 -0.43088167844E+03  0.43088167844E+03  0.00000000000E+00 0. -1.
         21    1    1    2  503  501 -0.59446599276E+02  0.24239556962E+02 -0.82582464774E+02  0.10460075418E+03  0.00000000000E+00 0. -1.
         21    1    1    2  504  502 -0.65829340278E+01 -0.31863730137E+02  0.49058829685E+02  0.58867657408E+02  0.00000000000E+00 0. -1.
         21    1    1    2  505  503 -0.44065114411E+02  0.27405539804E+02 -0.10227702057E+02  0.52890488836E+02  0.00000000000E+00 0. -1.
         -1    1    1    2    0  504  0.11009464771E+03 -0.19781366630E+02 -0.29042843030E+03  0.31122468901E+03  0.00000000000E+00 0. -1.
<scales pt_clust_3="46.52503" pt_clust_4="32.53663" pt_clust_5="46.52503" pt_clust_6="111.93232"></scales>
<clustering>
<clus scale="   32.537">  1  4  2 -1</clus>
<clus scale="   46.525">  3  5 -1 -1</clus>
<clus scale="  111.932">  2  6  1 -1</clus>
<clus scale="   32.537">  1  3  2 -1</clus>
</clustering>
</event>
<event>
 6    0  0.4340992E+002  0.9083544E+02  0.7546771E-02  0.1300841E+00
          3   -1    0    0  505    0 -0.00000000000E+00  0.00000000000E+00  0.11514638261E+04  0.11514638261E+04  0.00000000000E+00 0. -1.
         21   -1    0    0  503  502  0.00000000000E+00 -0.00000000000E+00 -0.37108855797E+02  0.37108855797E+02  0.00000000000E+00 0. -1.
         21    1    1    2  503  501 -0.36348608697E+02  0.67130578284E+01  0.92275814179E+02  0.99403784546E+02  0.00000000000E+00 0.  1.
         21    1    1    2  504  502 -0.20118401121E+02 -0.89933080519E+02  0.58389209188E+02  0.10909632801E+03  0.00000000000E+00 0. -1.
         21    1    1    2  505  504  0.83121839654E+02 -0.20086851099E+01  0.33982954695E+03  0.34985339218E+03  0.00000000000E+00 0. -1.
          3    1    1    2  501    0 -0.26654829836E+02  0.85228707800E+02  0.62386040002E+03  0.63021917719E+03  0.00000000000E+00 0. -1.
<scales pt_clust_3="36.96331" pt_clust_4="14000.00000" pt_clust_5="77.69752" pt_clust_6="90.83544"></scales>
<clustering>
<clus scale="   36.963">  2  3  1 -1</clus>
<clus scale="   77.698">  1  5  2 -1</clus>
<clus scale="   90.835">  1  6  2 -1</clus>
<clus scale="   36.963">  2  3  1 -1</clus>
</clustering>
</event>
<event>
 6    0  0.4340992E+002  0.1154375E+03  0.7546771E-02  0.1250819E+00
          1   -1    0    0  503    0 -0.00000000000E+00  0.00000000000E+00  0.13548423612E+04  0.13548423612E+04  0.00000000000E+00 0.  1.
         21   -1    0    0  505  502  0.00000000000E+00 -0.00000000000E+00 -0.11709636901E+03  0.11709636901E+03  0.00000000000E+00 0.  1.
         21    1    1    2  503  504  0.65803263108E+01 -0.41944366737E+02  0.32131009735E+03  0.32410308431E+03  0.00000000000E+00 0.  1.
         21    1    1    2  504  502 -0.13442966518E+03  0.25501898029E+02 -0.52460881285E+02  0.14653950235E+03  0.00000000000E+00 0.  1.
         21    1    1    2  505  501  0.26066552795E+02  0.15093930639E+02  0.32466278459E+01  0.30295750677E+02  0.00000000000E+00 0.  1.
          1    1    1    2  501    0  0.10178278608E+03  0.13485380698E+01  0.96565014827E+03  0.97100039287E+03  0.00000000000E+00 0.  1.
<scales pt_clust_3="42.31251" pt_clust_4="14000.00000" pt_clust_5="30.12129" pt_clust_6="115.43747"></scales>
<clustering>
<clus scale="   30.121">  2  5  1 -1</clus>
<clus scale="   42.313">  1  3  2 -1</clus>
<clus scale="  115.437">  1  6  2 -1</clus>
<clus scale="   30.121">  2  3  1 -1</clus>
</clustering>
</event>
<event>
 6    0  0.4340992E+002  0.1081638E+03  0.7546771E-02  0.1264008E+00
         21   -1    0    0  505  502  0.00000000000E+00  0.00000000000E+00  0.90193271486E+03  0.90193271486E+03  0.00000000000E+00 0.  1.
         -1   -1    0    0    0  501 -0.00000000000E+00 -0.00000000000E+00 -0.66851814746E+03  0.66851814746E+03  0.00000000000E+00 0.  1.
         21    1    1    2  503  501 -0.36664714655E+02  0.46949773282E+02 -0.17798140201E+03  0.18768580653E+03  0.00000000000E+00 0.  1.
         21    1    1    2  504  503 -0.92625809997E+02 -0.56610790956E+02  0.12325396065E+03  0.16424329863E+03  0.00000000000E+00 0.  1.
         21    1    1    2  505  504  0.25210425798E+02 -0.29355090253E+02  0.74618368766E+03  0.74718631051E+03  0.00000000000E+00 0.  1.
         -1    1    1    2    0  502  0.10408009885E+03  0.39016107928E+02 -0.45804167889E+03  0.47133544663E+03  0.00000000000E+00 0.  1.
<scales pt_clust_3="58.36193" pt_clust_4="108.16380" pt_clust_5="38.69479" pt_clust_6="14000.00000"></scales>
<clustering>
<clus scale="   38.695">  1  5  2 -1</clus>
<clus scale="   58.362">  2  3  1 -1</clus>
<clus scale="  108.164">  1  4  2 -1</clus>
<clus scale="   38.695">  1  3  2 -1</clus>
</clustering>
</event>
<event>
 6    0  0.4340992E+002  0.1145344E+03  0.7546771E-02  0.1252396E+00
          2   -1    0    0  504    0 -0.00000000000E+00  0.00000000000E+00  0.43045124454E+04  0.43045124454E+04  0.00000000000E+00 0.  1.
         21   -1    0    0  505  502  0.00000000000E+00 -0.00000000000E+00 -0.60075388778E+02  0.60075388778E+02  0.00000000000E+00 0. -1.
         21    1    1    2  503  502 -0.71904698280E+01  0.90029956798E+02 -0.30887927217E+01  0.90369445157E+02  0.00000000000E+00 0. -1.
         21    1    1    2  504  503  0.47310138188E+02  0.93764657762E+01  0.53825905760E+03  0.54041556267E+03  0.00000000000E+00 0.  1.
         21    1    1    2  505  501 -0.11066596843E+03 -0.53511152035E+02  0.30982756111E+03  0.33332194284E+03  0.00000000000E+00 0. -1.
          2    1    1    2  501    0  0.70546300066E+02 -0.45895270540E+02  0.33994392306E+04  0.34004808835E+04  0.00000000000E+00 0.  1.
<scales pt_clust_3="90.38303" pt_clust_4="48.23036" pt_clust_5="14000.00000" pt_clust_6="114.53439"></scales>
<clustering>
<clus scale="   48.230">  1  4  2 -1</clus>
<clus scale="   90.383">  2  3  1 -1</clus>
<clus scale="  114.534">  1  6  2 -1</clus>
<clus scale="   90.383">  2  3  1 -1</clus>
</clustering>
</event>
<event>
 6    0  0.4340992E+002  0.2403796E+03  0.7546771E-02  0.1119540E+00
         21   -1    0    0  503  502  0.00000000000E+00  0.00000000000E+00  0.50211736008E+02  0.50211736008E+02  0.00000000000E+00 0. -1.
          2   -1    0    0  504    0 -0.00000000000E+00 -0.00000000000E+00 -0.29580593740E+04  0.29580593740E+04  0.00000000000E+00 0.  1.
         21    1    1    2  503  501  0.14580420390E+02 -0.76252193064E+02 -0.81836512910E+03  0.82203921448E+03  0.00000000000E+00 0.  1.
         21    1    1    2  504  505  0.11637071779E+03  0.18510428341E+03 -0.32785627940E+03  0.39407547455E+03  0.00000000000E+00 0. -1.
         21    1    1    2  505  502 -0.26418553066E+02  0.16579911911E+02 -0.97372233933E+01  0.32674867169E+02  0.00000000000E+00 0. -1.
          2    1    1    2  501    0 -0.10453258511E+03 -0.12543200226E+03 -0.17518890061E+04  0.17594815538E+04  0.00000000000E+00 0.  1.
<scales pt_clust_3="65.89105" pt_clust_4="220.24332" pt_clust_5="31.19028" pt_clust_6="65.89105"></scales>
<clustering>
<clus scale="   31.190">  1  5  2 -1</clus>
<clus scale="   65.891">  3  6 -1 -1</clus>
<clus scale="  220.243">  1  4  2 -1</clus>
<clus scale="   31.190">  1  3  2 -1</clus>
</clustering>
</event>
<event>
 6    0  0.4340992E+002  0.1214004E+03  0.7546771E-02  0.1240805E+00
          1   -1    0    0  504    0 -0.00000000000E+00  0.00000000000E+00  0.10512714997E+04  0.10512714997E+04  0.00000000000E+00 0. -1.
         21   -1    0    0  501  502  0.00000000000E+00 -0.00000000000E+00 -0.24273254780E+02  0.24273254780E+02  0.00000000000E+00 0. -1.
         21    1    1    2  503  505 -0.76938568426E+02  0.62708580871E+01  0.50337250068E+03  0.50925704847E+03  0.00000000000E+00 0. -1.
         21    1    1    2  504  503 -0.29908698827E+02 -0.34016323192E+02  0.23575823801E+03  0.24006996334E+03  0.00000000000E+00 0.  1.
         21    1    1    2  505  502  0.86680348350E+02  0.65928283344E+02  0.18532934836E+03  0.21495810917E+03  0.00000000000E+00 0. -1.
          1    1    1    2  501    0  0.20166918903E+02 -0.38182818239E+02  0.10253815783E+03  0.11125963346E+03  0.00000000000E+00 0. -1.
<scales pt_clust_3="41.89012" pt_clust_4="41.89012" pt_clust_5="108.38580" pt_clust_6="43.18139"></scales>
<clustering>
<clus scale="   41.890">  3  4 -1 -1</clus>
<clus scale="   43.181">  2  6  1 -1</clus>
<clus scale="  108.386">  2  5  1 -1</clus>
<clus scale="   43.181">  2  3  1 -1</clus>
</clustering>
</event>
<event>
 6    0  0.4340992E+002  0.1788617E+03  0.7546771E-02  0.1168909E+00
         21   -1    0    0  504  502  0.00000000000E+00  0.00000000000E+00  0.32379268625E+03  0.32379268625E+03  0.00000000000E+00 0.  1.
          3   -1    0    0  503    0 -0.00000000000E+00 -0.00000000000E+00 -0.93032862165E+03  0.93032862165E+03  0.00000000000E+00 0.  1.
         21    1    1    2  503  502 -0.40893974814E+02  0.25449610180E+02 -0.30909118281E+02  0.57230878268E+02  0.00000000000E+00 0. -1.
         21    1    1    2  504  505  0.78490098223E+02 -0.16375122677E+03  0.18543096465E+03  0.25953767056E+03  0.00000000000E+00 0.  1.
         21    1    1    2  505  501  0.23106483701E+02  0.19200055359E+03 -0.22874844713E+02  0.19473412821E+03  0.00000000000E+00 0. -1.
          3    1    1    2  501    0 -0.60702607111E+02 -0.53698937001E+02 -0.73818293706E+03  0.74261863087E+03  0.00000000000E+00 0.  1.
<scales pt_clust_3="48.16638" pt_clust_4="178.86171" pt_clust_5="14000.00000" pt_clust_6="100.25885"></scales>
<clustering>
<clus scale="   48.166">  2  3  1 -1</clus>
<clus scale="  100.259">  2  6  1 -1</clus>
<clus scale="  178.862">  1  4  2 -1</clus>
<clus scale="  178.862">  1  3  2 -1</clus>
</clustering>
</event>
<event>
 6    0  0.4340992E+002  0.9363216E+02  0.7546771E-02  0.1294287E+00
         -2   -1    0    0    0  501 -0.00000000000E+00  0.00000000000E+00  0.61203743564E+03  0.61203743564E+03  0.00000000000E+00 0. -1.
         21   -1    0    0  505  502  0.00000000000E+00 -0.00000000000E+00 -0.40946732087E+03  0.40946732087E+03  0.00000000000E+00 0. -1.
         21    1    1    2  503  501 -0.63036304579E+02  0.80188173814E+02  0.71531175616E+02  0.12458100979E+03  0.00000000000E+00 0. -1.
         21    1    1    2  504  502  0.12145191336E+02  0.27694774209E+02 -0.15833365045E+03  0.16119569180E+03  0.00000000000E+00 0. -1.
         21    1    1    2  505  503  0.33282576674E+02 -0.15689845662E+02 -0.21732128756E+03  0.22041425361E+03  0.00000000000E+00 0. -1.
         -2    1    1    2    0  504  0.17608536569E+02 -0.92193102361E+02  0.50669387715E+03  0.51531380132E+03  0.00000000000E+00 0. -1.
<scales pt_clust_3="93.63216" pt_clust_4="30.24080" pt_clust_5="44.75904" pt_clust_6="14000.00000"></scales>
<clustering>
<clus scale="   30.241">  2  4  1 -1</clus>
<clus scale="   44.759">  2  5  1 -1</clus>
<clus scale="   93.632">  2  3  1 -1</clus>
<clus scale="   30.241">  2  3  1 -1</clus>
</clustering>
</event>
<event>
 6    0  0.4340992E+002  0.1393287E+03  0.7546771E-02  0.1214235E+00
         21   -1    0    0  505  502  0.00000000000E+00  0.00000000000E+00  0.98544502378E+03  0.98544502378E+03  0.00000000000E+00 0. -1.
          4   -1    0    0  504    0 -0.00000000000E+00 -0.00000000000E+00 -0.27858432985E+03  0.27858432985E+03  0.00000000000E+00 0. -1.
         21    1    1    2  503  502 -0.29635937829E+02  0.48631070832E+02  0.52749720425E+02  0.77626045025E+02  0.00000000000E+00 0.  1.
         21    1    1    2  504  503  0.14718343511E+03  0.79843685434E+02  0.26083291840E+02  0.16946479218E+03  0.00000000000E+00 0. -1.
         21    1    1    2  505  501  0.58779405497E+01 -0.79101560711E+02  0.79756433937E+03  0.80149889740E+03  0.00000000000E+00 0. -1.
          4    1    1    2  501    0 -0.12342543783E+03 -0.49373195555E+02 -0.16953665770E+03  0.21543961903E+03  0.00000000000E+00 0. -1.
<scales pt_clust_3="56.94971" pt_clust_4="14000.00000" pt_clust_5="41.86602" pt_clust_6="139.32868"></scales>
<clustering>
<clus scale="   56.950">  1  3  2 -1</clus>
<clus scale="   41.866">  1  5  2 -1</clus>
<clus scale="  139.329">  2  6  1 -1</clus>
<clus scale="   56.950">  1  3  2 -1</clus>
</clustering>
</event>
<event>
 6    0  0.4340992E+002  0.6857418E+02  0.7546771E-02  0.1365010E+00
         21   -1    0    0  503  502  0.00000000000E+00  0.00000000000E+00  0.10106497486E+04  0.10106497486E+04  0.00000000000E+00 0.  1.
         -3   -1    0    0    0  501 -0.00000000000E+00 -0.00000000000E+00 -0.24539978977E+03  0.24539978977E+03  0.00000000000E+00 0.  1.
         21    1    1    2  503  501  0.31658426473E+02  0.31750428115E+02 -0.10424365421E+03  0.11347724484E+03  0.00000000000E+00 0.  1.
         21    1    1    2  504  505 -0.65059364627E+02  0.98589945780E+02  0.24300503714E+03  0.27019279489E+03  0.00000000000E+00 0.  1.
         21    1    1    2  505  502  0.52508735717E+02 -0.36790227989E+02  0.72927488043E+03  0.73208779490E+03  0.00000000000E+00 0.  1.
         -3    1    1    2    0  504 -0.19107797563E+02 -0.93550145906E+02 -0.10278630457E+03  0.14029170372E+03  0.00000000000E+00 0.  1.
<scales pt_clust_3="44.83688" pt_clust_4="68.57418" pt_clust_5="64.19567" pt_clust_6="14000.00000"></scales>
<clustering>
<clus scale="   44.837">  2  3  1 -1</clus>
<clus scale="   64.196">  1  5  2 -1</clus>
<clus scale="   68.574">  1  4  2 -1</clus>
<clus scale="   64.196">  1  3  2 -1</clus>
</clustering>
</event>
<event>
 6    0  0.4340992E+002  0.8724834E+02  0.7546771E-02  0.1309655E+00
         21   -1    0    0  505  502  0.00000000000E+00  0.00000000000E+00  0.27173401078E+04  0.27173401078E+04  0.00000000000E+00 0. -1.
         -4   -1    0    0    0  501 -0.00000000000E+00 -0.00000000000E+00 -0.83673103750E+02  0.83673103750E+02  0.00000000000E+00 0.  1.
         21    1    1    2  503  504  0.55060258102E+02  0.11373745211E+03  0.18970188941E+03  0.22793562003E+03  0.00000000000E+00 0. -1.
         21    1    1    2  504  502 -0.61187691321E+02 -0.26744776663E+02  0.24473645838E+04  0.24482754385E+04  0.00000000000E+00 0. -1.
         21    1    1    2  505  501 -0.24346120663E+02 -0.25812198210E+02  0.32042986529E+02  0.47809582235E+02  0.00000000000E+00 0. -1.
         -4    1    1    2    0  503  0.30473553882E+02 -0.61180477240E+02 -0.35442455737E+02  0.76992570747E+02  0.00000000000E+00 0.  1.
<scales pt_clust_3="14000.00000" pt_clust_4="66.97359" pt_clust_5="35.48243" pt_clust_6="87.24834"></scales>
<clustering>
<clus scale="   35.482">  2  5  1 -1</clus>
<clus scale="   66.974">  1  4  2 -1</clus>
<clus scale="   87.248">  2  6  1 -1</clus>
<clus scale="   66.974">  1  3  2 -1</clus>
</clustering>
</event>
<event>
 6    0  0.4340992E+002  0.1526432E+03  0.7546771E-02  0.1197262E+00
         21   -1    0    0  505  502  0.00000000000E+00  0.00000000000E+00  0.26007103669E+03  0.26007103669E+03  0.00000000000E+00 0. -1.
          2   -1    0    0  504    0 -0.00000000000E+00 -0.00000000000E+00 -0.72557784510E+03  0.72557784510E+03  0.00000000000E+00 0. -1.
         21    1    1    2  503  502 -0.13284090062E+03  0.32434026228E+02  0.18656290710E+03  0.23131015810E+03  0.00000000000E+00 0. -1.
         21    1    1    2  504  503 -0.91406625888E+01  0.31766957346E+02 -0.55137789272E+02  0.64287378990E+02  0.00000000000E+00 0.  1.
         21    1    1    2  505  501 -0.30788684476E+01  0.37353206927E+02  0.23905614364E+02  0.44454694879E+02  0.00000000000E+00 0. -1.
          2    1    1    2  501    0  0.14506043165E+03 -0.10155419050E+03 -0.62083754061E+03  0.64559664983E+03  0.00000000000E+00 0. -1.
<scales pt_clust_3="14000.00000" pt_clust_4="33.05588" pt_clust_5="37.98012" pt_clust_6="152.64321"></scales>
<clustering>
<clus scale="   33.056">  2  4  1 -1</clus>
<clus scale="   37.980">  1  5  2 -1</clus>
<clus scale="  152.643">  2  6  1 -1</clus>
<clus scale="   37.980">  1  3  2 -1</clus>
</clustering>
</event>
<event>
 6    0  0.4340992E+002  0.2628079E+03  0.7546771E-02  0.1105468E+00
          1   -1    0    0  505    0 -0.00000000000E+00  0.00000000000E+00  0.21601964621E+04  0.21601964621E+04  0.00000000000E+00 0.  1.
         21   -1    0    0  503  502  0.00000000000E+00 -0.00000000000E+00 -0.41185343908E+03  0.41185343908E+03  0.00000000000E+00 0. -1.
         21    1    1    2  503  501  0.39134276318E+01  0.89293731151E+02  0.55651183170E+03  0.56364359675E+03  0.00000000000E+00 0. -1.
         21    1    1    2  504  502  0.61984350056E+02  0.18329565785E+02 -0.12428413442E+03  0.14008775358E+03  0.00000000000E+00 0. -1.
         21    1    1    2  505  504 -0.15279445899E+03 -0.25202031428E+03 -0.19139666553E+03  0.35141580654E+03  0.00000000000E+00 0. -1.
          1    1    1    2  501    0  0.86896681302E+02  0.14439701735E+03  0.15075119913E+04  0.15169027443E+04  0.00000000000E+00 0.  1.
<scales pt_clust_3="54.59917" pt_clust_4="64.63770" pt_clust_5="251.88707" pt_clust_6="54.59917"></scales>
<clustering>
<clus scale="   54.599">  3  6 -1 -1</clus>
<clus scale="   64.638">  2  4  1 -1</clus>
<clus scale="  251.887">  2  5  1 -1</clus>
<clus scale="   64.638">  2  3  1 -1</clus>
</clustering>
</event>
<event>
 6    0  0.4340992E+002  0.1292550E+03  0.7546771E-02  0.1228565E+00
         -3   -1    0    0    0  501 -0.00000000000E+00  0.00000000000E+00  0.50855426550E+03  0.50855426550E+03  0.00000000000E+00 0.  1.
         21   -1    0    0  504  502  0.00000000000E+00 -0.00000000000E+00 -0.99343502023E+03  0.99343502023E+03  0.00000000000E+00 0.  1.
         21    1    1    2  503  502 -0.67363585045E+02  0.34246931150E+02 -0.52958518375E+03  0.53494969084E+03  0.00000000000E+00 0.  1.
         21    1    1    2  504  501  0.32467476708E+02  0.22734709372E+02 -0.28533834133E+03  0.28807806769E+03  0.00000000000E+00 0. -1.
         21    1    1    2  505  503  0.14163077373E+03 -0.12434140506E+03 -0.11201247071E+03  0.21924154414E+03  0.00000000000E+00 0.  1.
         -3    1    1    2    0  505 -0.10673466540E+03  0.67359764539E+02  0.44205524106E+03  0.45971998306E+03  0.00000000000E+00 0.  1.
<scales pt_clust_3="66.93403" pt_clust_4="39.63589" pt_clust_5="129.25496" pt_clust_6="14000.00000"></scales>
<clustering>
<clus scale="   39.636">  2  4  1 -1</clus>
<clus scale="   66.934">  2  3  1 -1</clus>
<clus scale="  129.255">  2  5  1 -1</clus>
<clus scale="   39.636">  2  3  1 -1</clus>
</clustering>
</event>
<event>
 6    0  0.4340992E+002  0.2331685E+03  0.7546771E-02  0.1124429E+00
         21   -1    0    0  503  502  0.00000000000E+00  0.00000000000E+00  0.50272613541E+02  0.50272613541E+02  0.00000000000E+00 0. -1.
          2   -1    0    0  504    0 -0.00000000000E+00 -0.00000000000E+00 -0.32168748610E+04  0.32168748610E+04  0.00000000000E+00 0.  1.
         21    1    1    2  503  505  0.56639842395E+02 -0.35004714740E+02 -0.59672525446E+02  0.89410357865E+02  0.00000000000E+00 0. -1.
         21    1    1    2  504  502 -0.19183653956E+03  0.28415305749E+03 -0.14672951485E+04  0.15068175971E+04  0.00000000000E+00 0. -1.
         21    1    1    2  505  501  0.76572062672E+02 -0.60877822626E+02 -0.27023458389E+03  0.28739540776E+03  0.00000000000E+00 0. -1.
          2    1    1    2  501    0  0.58624634495E+02 -0.18827052013E+03 -0.13693999895E+04  0.13835241118E+04  0.00000000000E+00 0.  1.
<scales pt_clust_3="64.98820" pt_clust_4="14000.00000" pt_clust_5="182.05462" pt_clust_6="233.16853"></scales>
<clustering>
<clus scale="   64.988">  3  5 -1 -1</clus>
<clus scale="  182.055">  1  3  2 -1</clus>
<clus scale="  233.169">  2  6  1 -1</clus>
<clus scale="  182.055">  1  3  2 -1</clus>
</clustering>
</event>
<event>
 6    0  0.4340992E+002  0.1072586E+03  0.7546771E-02  0.1265732E+00
         21   -1    0    0  505  502  0.00000000000E+00  0.00000000000E+00  0.54987087018E+02  0.54987087018E+02  0.00000000000E+00 0. -1.
          1   -1    0    0  504    0 -0.00000000000E+00 -0.00000000000E+00 -0.10447058778E+04  0.10447058778E+04  0.00000000000E+00 0. -1.
         21    1    1    2  503  501  0.27996793893E+02  0.49195618851E+02 -0.42619156432E+03  0.42993404015E+03  0.00000000000E+00 0. -1.
         21    1    1    2  504  502 -0.14381444874E+03  0.40796568414E+01 -0.10319361301E+03  0.17705411894E+03  0.00000000000E+00 0. -1.
         21    1    1    2  505  503  0.70484338490E+02 -0.44569378205E+02 -0.10358682672E+03  0.13298384156E+03  0.00000000000E+00 0.  1.
          1    1    1    2  501    0  0.45333316356E+02 -0.87058974872E+01 -0.35674678678E+03  0.35972096422E+03  0.00000000000E+00 0. -1.
<scales pt_clust_3="71.28337" pt_clust_4="107.25861" pt_clust_5="14000.00000" pt_clust_6="46.16170"></scales>
<clustering>
<clus scale="   46.162">  2  6  1 -1</clus>
<clus scale="   71.283">  2  3  1 -1</clus>
<clus scale="  107.259">  2  4  1 -1</clus>
<clus scale="  107.259">  1  3  2 -1</clus>
</clustering>
</event>
<event>
 6    0  0.4340992E+002  0.3001641E+03  0.7546771E-02  0.1085159E+00
         21   -1    0    0  504  502  0.00000000000E+00  0.00000000000E+00  0.29044227578E+03  0.29044227578E+03  0.00000000000E+00 0. -1.
         -2   -1    0    0    0  501 -0.00000000000E+00 -0.00000000000E+00 -0.10151603954E+04  0.10151603954E+04  0.00000000000E+00 0.  1.
         21    1    1    2  503  505  0.51186910714E+01 -0.13555164095E+03 -0.29526935638E+03  0.32493759582E+03  0.00000000000E+00 0.  1.
         21    1    1    2  504  501  0.29152912371E+02  0.25362357078E+03  0.16849018433E+02  0.25584897377E+03  0.00000000000E+00 0. -1.
         21    1    1    2  505  502  0.19720992251E+02  0.35819526942E+02  0.12456999809E+03  0.13110926920E+03  0.00000000000E+00 0. -1.
         -2    1    1    2    0  503 -0.53992595694E+02 -0.15389145677E+03 -0.57086777973E+03  0.59370683236E+03  0.00000000000E+00 0.  1.
<scales pt_clust_3="78.98782" pt_clust_4="287.31584" pt_clust_5="40.88956" pt_clust_6="78.98782"></scales>
<clustering>
<clus scale="   40.890">  1  5  2 -1</clus>
<clus scale="   78.988">  3  6 -1 -1</clus>
<clus scale="  287.316">  1  4  2 -1</clus>
<clus scale="   40.890">  1  3  2 -1</clus>
</clustering>
</event>
<event>
 6    0  0.4340992E+002  0.1353538E+03  0.7546771E-02  0.1219721E+00
          2   -1    0    0  505    0 -0.00000000000E+00  0.00000000000E+00  0.43294695189E+04  0.43294695189E+04  0.00000000000E+00 0.  1.
         21   -1    0    0  503  502  0.00000000000E+00 -0.00000000000E+00 -0.44161339553E+02  0.44161339553E+02  0.00000000000E+00 0.  1.
         21    1    1    2  503  501  0.48881014674E+02 -0.10488987523E+03  0.20841613792E+04  0.20873715275E+04  0.00000000000E+00 0.  1.
         21    1    1    2  504  502 -0.67253044558E+02  0.99812192661E+02  0.47988339937E+02  0.12956977493E+03  0.00000000000E+00 0.  1.
         21    1    1    2  505  504  0.52342682419E+01  0.46883412663E+02  0.37032728444E+03  0.37331990243E+03  0.00000000000E+00 0.  1.
          2    1    1    2  501    0  0.13137761642E+02 -0.41805730091E+02  0.17828311758E+04  0.17833696536E+04  0.00000000000E+00 0.  1.
<scales pt_clust_3="37.12662" pt_clust_4="121.16401" pt_clust_5="47.17470" pt_clust_6="37.12662"></scales>
<clustering>
<clus scale="   37.127">  3  6 -1 -1</clus>
<clus scale="   47.175">  1  5  2 -1</clus>
<clus scale="  121.164">  2  4  1 -1</clus>
<clus scale="  121.164">  2  3  1 -1</clus>
</clustering>
</event>
<event>
 6    0  0.4340992E+002  0.6269140E+02  0.7546771E-02  0.1386872E+00
         21   -1    0    0  504  502  0.00000000000E+00  0.00000000000E+00  0.59940423421E+02  0.59940423421E+02  0.00000000000E+00 0. -1.
          2   -1    0    0  505    0 -0.00000000000E+00 -0.00000000000E+00 -0.15155478463E+04  0.15155478463E+04  0.00000000000E+00 0.  1.
         21    1    1    2  503  501 -0.41782494766E+02 -0.44779348321E+02 -0.20258443648E+03  0.21163983748E+03  0.00000000000E+00 0. -1.
         21    1    1    2  504  503 -0.45551101931E+02 -0.23440916187E+02 -0.23289228917E+02  0.56274040395E+02  0.00000000000E+00 0. -1.
         21    1    1    2  505  502  0.37728859139E+02  0.87234884287E+02 -0.20570539993E+02  0.97244737463E+02  0.00000000000E+00 0. -1.
          2    1    1    2  501    0  0.49604737558E+02 -0.19014619780E+02 -0.12091632175E+04  0.12103296544E+04  0.00000000000E+00 0.  1.
<scales pt_clust_3="62.69140" pt_clust_4="51.22870" pt_clust_5="14000.00000" pt_clust_6="52.66843"></scales>
<clustering>
<clus scale="   51.229">  1  4  2 -1</clus>
<clus scale="   52.668">  2  6  1 -1</clus>
<clus scale="   62.691">  2  3  1 -1</clus>
<clus scale="   51.229">  1  3  2 -1</clus>
</clustering>
</event>
<event>
 6    0  0.4340992E+002  0.1200616E+03  0.7546771E-02  0.1242995E+00
         21   -1    0    0  503  502  0.00000000000E+00  0.00000000000E+00  0.63701012615E+02  0.63701012615E+02  0.00000000000E+00 0. -1.
          3   -1    0    0  505    0 -0.00000000000E+00 -0.00000000000E+00 -0.16467936467E+04  0.16467936467E+04  0.00000000000E+00 0.  1.
         21    1    1    2  503  504  0.14757374668E+03 -0.53304485420E+02 -0.77049116400E+02  0.17480258926E+03  0.00000000000E+00 0. -1.
         21    1    1    2  504  501 -0.46053207565E+02  0.88054587190E+01 -0.38328165577E+03  0.38613891501E+03  0.00000000000E+00 0. -1.
         21    1    1    2  505  502 -0.60284103052E+02  0.59503395953E+02 -0.12599493425E+03  0.15182078470E+03  0.00000000000E+00 0. -1.
          3    1    1    2  501    0 -0.41236436058E+02 -0.15004369252E+02 -0.99676692763E+03  0.99773237032E+03  0.00000000000E+00 0.  1.
<scales pt_clust_3="120.06160" pt_clust_4="70.47667" pt_clust_5="14000.00000" pt_clust_6="43.88137"></scales>
<clustering>
<clus scale="   43.881">  2  6  1 -1</clus>
<clus scale="   70.477">  2  4  1 -1</clus>
<clus scale="  120.062">  1  3  2 -1</clus>
<clus scale="  120.062">  1  3  2 -1</clus>
</clustering>
</event>
<event>
 6    0  0.4340992E+002  0.2435202E+03  0.7546771E-02  0.1117470E+00
         21   -1    0    0  503  502  0.00000000000E+00  0.00000000000E+00  0.10868634350E+04  0.10868634350E+04  0.00000000000E+00 0. -1.
          2   -1    0    0  505    0 -0.00000000000E+00 -0.00000000000E+00 -0.14294159452E+04  0.14294159452E+04  0.00000000000E+00 0.  1.
         21    1    1    2  503  504 -0.21279043646E+01  0.36739842506E+02  0.17064160315E+02  0.40565127531E+02  0.00000000000E+00 0. -1.
         21    1    1    2  504  501  0.15648178167E+03  0.19109321016E+02 -0.80880051205E+03  0.82402062015E+03  0.00000000000E+00 0.  1.
         21    1    1    2  505  502 -0.23335489084E+03 -0.82055976244E+02  0.10328829495E+04  0.10620898623E+04  0.00000000000E+00 0. -1.
          2    1    1    2  501    0  0.79001013541E+02  0.26206812722E+02 -0.58369910798E+03  0.58960377019E+03  0.00000000000E+00 0.  1.
<scales pt_clust_3="36.80141" pt_clust_4="30.59636" pt_clust_5="239.85218" pt_clust_6="30.59636"></scales>
<clustering>
<clus scale="   30.596">  4  6 -1 -1</clus>
<clus scale="   36.801">  1  3  2 -1</clus>
<clus scale="  239.852">  1  5  2 -1</clus>
<clus scale="   36.801">  1  3  2 -1</clus>
</clustering>
</event>
<event>
 6    0  0.4340992E+002  0.8209980E+02  0.7546771E-02  0.1323196E+00
         21   -1    0    0  501  502  0.00000000000E+00  0.00000000000E+00  0.83540633293E+02  0.83540633293E+02  0.00000000000E+00 0.  1.
          2   -1    0    0  504    0 -0.00000000000E+00 -0.00000000000E+00 -0.17554556641E+04  0.17554556641E+04  0.00000000000E+00 0. -1.
         21    1    1    2  503  505  0.48777968805E+02 -0.44709479280E+02  0.15798993711E+01  0.66187036951E+02  0.00000000000E+00 0.  1.
         21    1    1    2  504  503 -0.83457214331E+02 -0.24668649995E+02 -0.24649045880E+03  0.26140236264E+03  0.00000000000E+00 0.  1.
         21    1    1    2  505  502  0.34158860977E+02 -0.24096688463E+01  0.34225158604E+02  0.48414830049E+02  0.00000000000E+00 0.  1.
          2    1    1    2  501    0  0.52038454865E+00  0.71787798122E+02 -0.14612296300E+04  0.14629920677E+04  0.00000000000E+00 0. -1.
<scales pt_clust_3="82.09980" pt_clust_4="14000.00000" pt_clust_5="34.24375" pt_clust_6="71.74811"></scales>
<clustering>
<clus scale="   34.244">  1  5  2 -1</clus>
<clus scale="   71.748">  2  6  1 -1</clus>
<clus scale="   82.100">  1  3  2 -1</clus>
<clus scale="   34.244">  1  3  2 -1</clus>
</clustering>
</event>
<event>
 6    0  0.4340992E+002  0.1621983E+03  0.7546771E-02  0.1186237E+00
          1   -1    0    0  505    0 -0.00000000000E+00  0.00000000000E+00  0.18587901455E+04  0.18587901455E+04  0.00000000000E+00 0.  1.
         21   -1    0    0  504  502  0.00000000000E+00 -0.00000000000E+00 -0.77030452409E+02  0.77030452409E+02  0.00000000000E+00 0. -1.
         21    1    1    2  503  502  0.40304572112E+02  0.16022969610E+03  0.54355622540E+02  0.17393259541E+03  0.00000000000E+00 0. -1.
         21    1    1    2  504  501  0.43547618869E+02 -0.13867117722E+02  0.35394731304E+02  0.57805527998E+02  0.00000000000E+00 0.  1.
         21    1    1    2  505  503 -0.35472665678E+02 -0.45628915225E+02  0.20825853547E+03  0.21612941843E+03  0.00000000000E+00 0.  1.
          1    1    1    2  501    0 -0.48379525303E+02 -0.10073366315E+03  0.14837508037E+04  0.14879530560E+04  0.00000000000E+00 0.  1.
<scales pt_clust_3="162.19834" pt_clust_4="45.70221" pt_clust_5="56.90977" pt_clust_6="14000.00000"></scales>
<clustering>
<clus scale="   45.702">  2  4  1 -1</clus>
<clus scale="   56.910">  1  5  2 -1</clus>
<clus scale="  162.198">  2  3  1 -1</clus>
<clus scale="   45.702">  2  3  1 -1</clus>
</clustering>
</event>
<event>
 6    0  0.4340992E+002  0.7645582E+02  0.7546771E-02  0.1339421E+00
          1   -1    0    0  504    0 -0.00000000000E+00  0.00000000000E+00  0.13929033210E+04  0.13929033210E+04  0.00000000000E+00 0. -1.
         21   -1    0    0  503  502  0.00000000000E+00 -0.00000000000E+00 -0.57165153595E+02  0.57165153595E+02  0.00000000000E+00 0. -1.
         21    1    1    2  503  501 -0.42987429172E+02 -0.67011804173E+02  0.52291357165E+02  0.95251703394E+02  0.00000000000E+00 0. -1.
         21    1    1    2  504  505 -0.67271602935E+02  0.42601569126E+02  0.58037011263E+03  0.58580699031E+03  0.00000000000E+00 0. -1.
         21    1    1    2  505  502  0.86290115851E+02  0.15615822682E+00  0.24671217975E+02  0.89747854990E+02  0.00000000000E+00 0. -1.
          1    1    1    2  501    0  0.23968916256E+02  0.24254076820E+02  0.67840547962E+03  0.67926192590E+03  0.00000000000E+00 0. -1.
<scales pt_clust_3="76.17210" pt_clust_4="76.45582" pt_clust_5="14000.00000" pt_clust_6="34.09940"></scales>
<clustering>
<clus scale="   34.099">  1  6  2 -1</clus>
<clus scale="   76.172">  2  3  1 -1</clus>
<clus scale="   76.456">  1  4  2 -1</clus>
<clus scale="   76.172">  2  3  1 -1</clus>
</clustering>
</event>
<event>
 6    0  0.4340992E+002  0.9770651E+02  0.7546771E-02  0.1285194E+00
          2   -1    0    0  505    0 -0.00000000000E+00  0.00000000000E+00  0.96006467009E+03  0.96006467009E+03  0.00000000000E+00 0. -1.
         21   -1    0    0  503  502  0.00000000000E+00 -0.00000000000E+00 -0.71398104557E+03  0.71398104557E+03  0.00000000000E+00 0.  1.
         21    1    1    2  503  504 -0.27762262801E+02  0.57778401549E+02 -0.17137426175E+02  0.66353434706E+02  0.00000000000E+00 0.  1.
         21    1    1    2  504  501 -0.64708704102E+02 -0.84492137666E+01  0.52362466437E+01  0.65467731584E+02  0.00000000000E+00 0.  1.
         21    1    1    2  505  502  0.84511861725E+02  0.48288860955E+02 -0.63574053084E+03  0.64314857647E+03  0.00000000000E+00 0.  1.
          2    1    1    2  501    0  0.79591051780E+01 -0.97618048737E+02  0.89372533490E+03  0.89907597290E+03  0.00000000000E+00 0. -1.
<scales pt_clust_3="64.10216" pt_clust_4="66.21233" pt_clust_5="97.70651" pt_clust_6="14000.00000"></scales>
<clustering>
<clus scale="   64.102">  2  3  1 -1</clus>
<clus scale="   66.212">  2  4  1 -1</clus>
<clus scale="   97.707">  2  5  1 -1</clus>
<clus scale="   64.102">  2  3  1 -1</clus>
</clustering>
</event>
<event>
 6    0  0.4340992E+002  0.1042579E+03  0.7546771E-02  0.1271589E+00
          2   -1    0    0  504    0 -0.00000000000E+00  0.00000000000E+00  0.39676287828E+03  0.39676287828E+03  0.00000000000E+00 0. -1.
         21   -1    0    0  503  502  0.00000000000E+00 -0.00000000000E+00 -0.59166155602E+03  0.59166155602E+03  0.00000000000E+00 0. -1.
         21    1    1    2  503  505  0.23558711977E+02 -0.96364226919E+02 -0.46120242482E+03  0.47175073270E+03  0.00000000000E+00 0. -1.
         21    1    1    2  504  502 -0.23680912596E+02  0.15790752400E+03 -0.54200528928E+02  0.16862167444E+03  0.00000000000E+00 0. -1.
         21    1    1    2  505  501 -0.15860968572E+02 -0.89759455401E+02  0.15855562074E+03  0.18288853170E+03  0.00000000000E+00 0. -1.
          2    1    1    2  501    0  0.15983169191E+02  0.28216158324E+02  0.16194865527E+03  0.16516349545E+03  0.00000000000E+00 0. -1.
<scales pt_clust_3="14000.00000" pt_clust_4="104.25791" pt_clust_5="69.22857" pt_clust_6="32.42859"></scales>
<clustering>
<clus scale="   32.429">  1  6  2 -1</clus>
<clus scale="   69.229">  1  5  2 -1</clus>
<clus scale="  104.258">  1  4  2 -1</clus>
<clus scale="  104.258">  2  3  1 -1</clus>
</clustering>
</event>
<event>
 6    0  0.4340992E+002  0.2213859E+03  0.7546771E-02  0.1132854E+00
         21   -1    0    0  504  502  0.00000000000E+00  0.00000000000E+00  0.21766833753E+04  0.21766833753E+04  0.00000000000E+00 0. -1.
          4   -1    0    0  503    0 -0.00000000000E+00 -0.00000000000E+00 -0.20115652522E+03  0.20115652522E+03  0.00000000000E+00 0.  1.
         21    1    1    2  503  502  0.14018877760E+03  0.19197679371E+03  0.29830517251E+03  0.38143670331E+03  0.00000000000E+00 0. -1.
         21    1    1    2  504  505 -0.20611205699E+03 -0.86705609193E+02  0.17048205427E+04  0.17194223232E+04  0.00000000000E+00 0. -1.
         21    1    1    2  505  501 -0.51917960865E+02 -0.11721822123E+03  0.47518246426E+02  0.13672443013E+03  0.00000000000E+00 0.  1.
          4    1    1    2  501    0  0.11784124026E+03  0.11947036714E+02 -0.75117111576E+02  0.14025644386E+03  0.00000000000E+00 0.  1.
<scales pt_clust_3="14000.00000" pt_clust_4="221.38595" pt_clust_5="111.60063" pt_clust_6="118.44530"></scales>
<clustering>
<clus scale="  118.445">  2  6  1 -1</clus>
<clus scale="  111.601">  2  5  1 -1</clus>
<clus scale="  221.386">  1  4  2 -1</clus>
<clus scale="  221.386">  1  3  2 -1</clus>
</clustering>
</event>
<event>
 6    0  0.4340992E+002  0.8337811E+02  0.7546771E-02  0.1319729E+00
         21   -1    0    0  501  502  0.00000000000E+00  0.00000000000E+00  0.16405871392E+03  0.16405871392E+03  0.00000000000E+00 0.  1.
          2   -1    0    0  503    0 -0.00000000000E+00 -0.00000000000E+00 -0.18404759526E+04  0.18404759526E+04  0.00000000000E+00 0. -1.
         21    1    1    2  503  504 -0.46100253023E+02  0.78257629680E+01 -0.37091969984E+03  0.37385545285E+03  0.00000000000E+00 0. -1.
         21    1    1    2  504  505 -0.31283004450E+02 -0.10111363900E+03 -0.22415193321E+03  0.24788441565E+03  0.00000000000E+00 0. -1.
         21    1    1    2  505  502 -0.22423755027E+01  0.33296886492E+02  0.14683241418E+03  0.15057711895E+03  0.00000000000E+00 0.  1.
          2    1    1    2  501    0  0.79625632976E+02  0.59990989542E+02 -0.12281780199E+04  0.12322176791E+04  0.00000000000E+00 0. -1.
<scales pt_clust_3="47.60508" pt_clust_4="14000.00000" pt_clust_5="33.37231" pt_clust_6="83.37811"></scales>
<clustering>
<clus scale="   33.372">  1  5  2 -1</clus>
<clus scale="   47.605">  2  3  1 -1</clus>
<clus scale="   83.378">  2  6  1 -1</clus>
<clus scale="   33.372">  1  3  2 -1</clus>
</clustering>
</event>
<event>
 6    0  0.4340992E+002  0.8343183E+02  0.7546771E-02  0.1319585E+00
         21   -1    0    0  503  502  0.00000000000E+00  0.00000000000E+00  0.30973071594E+03  0.30973071594E+03  0.00000000000E+00 0.  1.
          2   -1    0    0  505    0 -0.00000000000E+00 -0.00000000000E+00 -0.22386317817E+04  0.22386317817E+04  0.00000000000E+00 0.  1.
         21    1    1    2  503  501 -0.56187650998E+02 -0.62984975055E+02 -0.37489429907E+02  0.92355923265E+02  0.00000000000E+00 0. -1.
         21    1    1    2  504  502 -0.18015476728E+02  0.84736519044E+02  0.27246571322E+03  0.28590627825E+03  0.00000000000E+00 0.  1.
         21    1    1    2  505  504 -0.11132729664E+02  0.49503993862E+02 -0.52070925122E+03  0.52317559900E+03  0.00000000000E+00 0. -1.
          2    1    1    2  501    0  0.85335857391E+02 -0.71255537852E+02 -0.16431680979E+04  0.16469246971E+04  0.00000000000E+00 0.  1.
<scales pt_clust_3="83.43183" pt_clust_4="14000.00000" pt_clust_5="50.74035" pt_clust_6="78.37438"></scales>
<clustering>
<clus scale="   50.740">  2  5  1 -1</clus>
<clus scale="   78.374">  2  6  1 -1</clus>
<clus scale="   83.432">  2  3  1 -1</clus>
<clus scale="   83.432">  1  3  2 -1</clus>
</clustering>
</event>
<event>
 6    0  0.4340992E+002  0.2177629E+03  0.7546771E-02  0.1135562E+00
          2   -1    0    0  505    0 -0.00000000000E+00  0.00000000000E+00  0.72186477744E+03  0.72186477744E+03  0.00000000000E+00 0.  1.
         21   -1    0    0  501  502  0.00000000000E+00 -0.00000000000E+00 -0.28471781830E+03  0.28471781830E+03  0.00000000000E+00 0.  1.
         21    1    1    2  503  502 -0.75847155491E+02  0.23261497728E+03 -0.17051605679E+03  0.29822515701E+03  0.00000000000E+00 0.  1.
         21    1    1    2  504  503 -0.12098431972E+02 -0.16129125132E+03  0.11379631967E+03  0.19776461306E+03  0.00000000000E+00 0.  1.
         21    1    1    2  505  504  0.33820741608E+02 -0.96856267260E+01  0.64593590647E+02  0.73552606212E+02  0.00000000000E+00 0.  1.
          2    1    1    2  501    0  0.54124845855E+02 -0.61638099235E+02  0.42927310561E+03  0.43704021945E+03  0.00000000000E+00 0.  1.
<scales pt_clust_3="14000.00000" pt_clust_4="217.76286" pt_clust_5="35.18031" pt_clust_6="102.44635"></scales>
<clustering>
<clus scale="   35.180">  1  5  2 -1</clus>
<clus scale="  102.446">  1  6  2 -1</clus>
<clus scale="  217.763">  1  4  2 -1</clus>
<clus scale="  217.763">  2  3  1 -1</clus>
</clustering>
</event>
<event>
 6    0  0.4340992E+002  0.1924239E+03  0.7546771E-02  0.1156293E+00
          1   -1    0    0  503    0 -0.00000000000E+00  0.00000000000E+00  0.14494237385E+04  0.14494237385E+04  0.00000000000E+00 0. -1.
         21   -1    0    0  505  502  0.00000000000E+00 -0.00000000000E+00 -0.14930030325E+03  0.14930030325E+03  0.00000000000E+00 0. -1.
         21    1    1    2  503  504  0.73757148820E+02 -0.59260330122E+02 -0.35643205692E+02  0.10110559747E+03  0.00000000000E+00 0. -1.
         21    1    1    2  504  502  0.39743948630E+02 -0.81158613189E+02 -0.46771225367E+02  0.10175386710E+03  0.00000000000E+00 0.  1.
         21    1    1    2  505  501 -0.34739160954E+02  0.44800339392E+02  0.69074655693E+03  0.69306903381E+03  0.00000000000E+00 0.  1.
          1    1    1    2  501    0 -0.78761936496E+02  0.95618603919E+02  0.69179130934E+03  0.70279554333E+03  0.00000000000E+00 0. -1.
<scales pt_clust_3="185.36403" pt_clust_4="40.99819" pt_clust_5="45.01012" pt_clust_6="45.01012"></scales>
<clustering>
<clus scale="   40.998">  3  4 -1 -1</clus>
<clus scale="   45.010">  5  6 -1 -1</clus>
<clus scale="  185.364">  2  3  1 -1</clus>
<clus scale="  185.364">  2  3  1 -1</clus>
</clustering>
</event>
<event>
 6    0  0.4340992E+002  0.4312188E+03  0.7546771E-02  0.1033476E+00
         21   -1    0    0  504  502  0.00000000000E+00  0.00000000000E+00  0.61999293022E+03  0.61999293022E+03  0.00000000000E+00 0.  1.
          1   -1    0    0  505    0 -0.00000000000E+00 -0.00000000000E+00 -0.14481804695E+04  0.14481804695E+04  0.00000000000E+00 0.  1.
         21    1    1    2  503  501  0.15417247382E+03 -0.59403592749E+02 -0.41015721385E+03  0.44218421341E+03  0.00000000000E+00 0.  1.
         21    1    1    2  504  503 -0.20627790138E+02 -0.27602785501E+02  0.39873757182E+03  0.40022377575E+03  0.00000000000E+00 0.  1.
         21    1    1    2  505  502 -0.40142181449E+03  0.79744360639E+02 -0.48532254042E+02  0.41213349280E+03  0.00000000000E+00 0. -1.
          1    1    1    2  501    0  0.26787713081E+03  0.72620176097E+01 -0.76823564320E+03  0.81363191775E+03  0.00000000000E+00 0.  1.
<scales pt_clust_3="68.68572" pt_clust_4="34.45895" pt_clust_5="422.29116" pt_clust_6="68.68572"></scales>
<clustering>
<clus scale="   34.459">  1  4  2 -1</clus>
<clus scale="   68.686">  3  6 -1 -1</clus>
<clus scale="  422.291">  1  5  2 -1</clus>
<clus scale="   34.459">  1  3  2 -1</clus>
</clustering>
</event>
<event>
 6    0  0.4340992E+002  0.7997641E+02  0.7546771E-02  0.1329118E+00
          1   -1    0    0  505    0 -0.00000000000E+00  0.00000000000E+00  0.32858599303E+03  0.32858599303E+03  0.00000000000E+00 0.  1.
         21   -1    0    0  504  502  0.00000000000E+00 -0.00000000000E+00 -0.23827986055E+03  0.23827986055E+03  0.00000000000E+00 0. -1.
         21    1    1    2  503  502 -0.44399061570E+02  0.62807186342E+02 -0.13951555569E+03  0.15931292981E+03  0.00000000000E+00 0. -1.
         21    1    1    2  504  501  0.77388899332E+02 -0.52729046018E+02 -0.41669725032E+02  0.10249760982E+03  0.00000000000E+00 0. -1.
         21    1    1    2  505  503  0.28735746621E+01  0.58208511883E+02  0.83227022840E+02  0.10160327562E+03  0.00000000000E+00 0.  1.
          1    1    1    2  501    0 -0.35863412425E+02 -0.68286652207E+02  0.18826439037E+03  0.20345203833E+03  0.00000000000E+00 0.  1.
<scales pt_clust_3="79.97641" pt_clust_4="14000.00000" pt_clust_5="58.27940" pt_clust_6="39.00627"></scales>
<clustering>
<clus scale="   58.279">  1  5  2 -1</clus>
<clus scale="   39.006">  1  6  2 -1</clus>
<clus scale="   79.976">  2  3  1 -1</clus>
<clus scale="   79.976">  2  3  1 -1</clus>
</clustering>
</event>
<event>
 6    0  0.4340992E+002  0.2669936E+03  0.7546771E-02  0.1103013E+00
          1   -1    0    0  502    0 -0.00000000000E+00  0.00000000000E+00  0.17995347894E+04  0.17995347894E+04  0.00000000000E+00 0. -1.
         21   -1    0    0  503  502  0.00000000000E+00 -0.00000000000E+00 -0.12093814340E+03  0.12093814340E+03  0.00000000000E+00 0.  1.
         21    1    1    2  503  504  0.39723348559E+02  0.12284876943E+02 -0.27910771846E+02  0.50078676173E+02  0.00000000000E+00 0.  1.
         21    1    1    2  504  505  0.15820243343E+03  0.16850357987E+03  0.11947380727E+03  0.26018350639E+03  0.00000000000E+00 0.  1.
         21    1    1    2  505  501 -0.67507170975E+02 -0.90903725940E+02  0.71471671662E+03  0.72363021671E+03  0.00000000000E+00 0.  1.
          1    1    1    2  501    0 -0.13041861102E+03 -0.89884730872E+02  0.87231689393E+03  0.88658053350E+03  0.00000000000E+00 0. -1.
<scales pt_clust_3="41.57959" pt_clust_4="262.75784" pt_clust_5="40.05086" pt_clust_6="40.05086"></scales>
<clustering>
<clus scale="   40.051">  5  6 -1 -1</clus>
<clus scale="   41.580">  2  3  1 -1</clus>
<clus scale="  262.758">  2  4  1 -1</clus>
<clus scale="   41.580">  2  3  1 -1</clus>
</clustering>
</event>
<event>
 6    0  0.4340992E+002  0.9019173E+02  0.7546771E-02  0.1302388E+00
         21   -1    0    0  501  502  0.00000000000E+00  0.00000000000E+00  0.20703150709E+03  0.20703150709E+03  0.00000000000E+00 0. -1.
          2   -1    0    0  505    0 -0.00000000000E+00 -0.00000000000E+00 -0.11002019651E+03  0.11002019651E+03  0.00000000000E+00 0.  1.
         21    1    1    2  503  502 -0.35624464358E+01 -0.30872843454E+02  0.37467695876E+02  0.48679068621E+02  0.00000000000E+00 0. -1.
         21    1    1    2  504  503 -0.98291811823E+02 -0.44591789027E+02 -0.14497082656E+02  0.10890304553E+03  0.00000000000E+00 0. -1.
         21    1    1    2  505  504  0.28336301685E+02  0.12893721129E+02 -0.86991434990E+01  0.32324435576E+02  0.00000000000E+00 0.  1.
          2    1    1    2  501    0  0.73517956574E+02  0.62570911352E+02  0.82739840862E+02  0.12714515387E+03  0.00000000000E+00 0.  1.
<scales pt_clust_3="31.07770" pt_clust_4="14000.00000" pt_clust_5="30.03836" pt_clust_6="90.19173"></scales>
<clustering>
<clus scale="   31.078">  1  3  2 -1</clus>
<clus scale="   30.038">  2  5  1 -1</clus>
<clus scale="   90.192">  1  6  2 -1</clus>
<clus scale="   31.078">  1  3  2 -1</clus>
</clustering>
</event>
<event>
 6    0  0.4340992E+002  0.1502819E+03  0.7546771E-02  0.1200127E+00
          4   -1    0    0  504    0 -0.00000000000E+00  0.00000000000E+00  0.73009382986E+03  0.73009382986E+03  0.00000000000E+00 0.  1.
         21   -1    0    0  505  502  0.00000000000E+00 -0.00000000000E+00 -0.89838428410E+02  0.89838428410E+02  0.00000000000E+00 0.  1.
         21    1    1    2  503  501 -0.10319392305E+03  0.36513307020E+02  0.46094650656E+03  0.47376564803E+03  0.00000000000E+00 0.  1.
         21    1    1    2  504  502  0.14795338444E+03 -0.41640699526E+02  0.17873382209E+02  0.15473722764E+03  0.00000000000E+00 0.  1.
         21    1    1    2  505  503 -0.12706182821E+02  0.27561506936E+02  0.57323181649E+01  0.30885971217E+02  0.00000000000E+00 0.  1.
          4    1    1    2  501    0 -0.32053278572E+02 -0.22434114430E+02  0.15570319452E+03  0.16054341139E+03  0.00000000000E+00 0.  1.
<scales pt_clust_3="35.51760" pt_clust_4="137.78076" pt_clust_5="30.34936" pt_clust_6="35.51760"></scales>
<clustering>
<clus scale="   30.349">  2  5  1 -1</clus>
<clus scale="   35.518">  3  6 -1 -1</clus>
<clus scale="  137.781">  2  4  1 -1</clus>
<clus scale="   30.349">  2  3  1 -1</clus>
</clustering>
</event>
<event>
 6    0  0.4340992E+002  0.2805924E+03  0.7546771E-02  0.1095366E+00
         -1   -1    0    0    0  501 -0.00000000000E+00  0.00000000000E+00  0.16772292327E+04  0.16772292327E+04  0.00000000000E+00 0.  1.
         21   -1    0    0  503  502  0.00000000000E+00 -0.00000000000E+00 -0.78298162014E+03  0.78298162014E+03  0.00000000000E+00 0. -1.
         21    1    1    2  503  504  0.62033004101E+00  0.35366773034E+02 -0.48738923393E+03  0.48867111517E+03  0.00000000000E+00 0. -1.
         21    1    1    2  504  501  0.24421941010E+03 -0.15810355133E+03 -0.20787262655E+03  0.35756241704E+03  0.00000000000E+00 0. -1.
         21    1    1    2  505  502 -0.76578405553E+02  0.26475752655E+02  0.62051992568E+03  0.62578766035E+03  0.00000000000E+00 0. -1.
         -1    1    1    2    0  505 -0.16826133459E+03  0.96261025642E+02  0.96898954734E+03  0.98818966025E+03  0.00000000000E+00 0.  1.
<scales pt_clust_3="35.37221" pt_clust_4="274.51860" pt_clust_5="37.50927" pt_clust_6="37.50927"></scales>
<clustering>
<clus scale="   35.372">  2  3  1 -1</clus>
<clus scale="   37.509">  5  6 -1 -1</clus>
<clus scale="  274.519">  2  4  1 -1</clus>
<clus scale="   35.372">  2  3  1 -1</clus>
</clustering>
</event>
<event>
 6    0  0.4340992E+002  0.1051659E+03  0.7546771E-02  0.1269793E+00
          2   -1    0    0  503    0 -0.00000000000E+00  0.00000000000E+00  0.37514137744E+04  0.37514137744E+04  0.00000000000E+00 0. -1.
         21   -1    0    0  505  502  0.00000000000E+00 -0.00000000000E+00 -0.19340317124E+03  0.19340317124E+03  0.00000000000E+00 0. -1.
         21    1    1    2  503  504 -0.19196466890E+02 -0.78665702100E+02  0.98108023171E+03  0.98441618134E+03  0.00000000000E+00 0.  1.
         21    1    1    2  504  502 -0.67540129015E+02  0.74028355672E+02 -0.11422203976E+03  0.15194913899E+03  0.00000000000E+00 0. -1.
         21    1    1    2  505  501  0.42491951038E+02  0.29704680555E+02 -0.46909610883E+02  0.69917419453E+02  0.00000000000E+00 0. -1.
          2    1    1    2  501    0  0.44244644867E+02 -0.25067334126E+02  0.27380620221E+04  0.27385342058E+04  0.00000000000E+00 0. -1.
<scales pt_clust_3="105.16585" pt_clust_4="14000.00000" pt_clust_5="52.09657" pt_clust_6="50.85233"></scales>
<clustering>
<clus scale="   50.852">  1  6  2 -1</clus>
<clus scale="   52.097">  2  5  1 -1</clus>
<clus scale="  105.166">  1  3  2 -1</clus>
<clus scale="   52.097">  2  3  1 -1</clus>
</clustering>
</event>
<event>
 6    0  0.4340992E+002  0.9569402E+02  0.7546771E-02  0.1289621E+00
         -1   -1    0    0    0  501 -0.00000000000E+00  0.00000000000E+00  0.12354941992E+04  0.12354941992E+04  0.00000000000E+00 0. -1.
         21   -1    0    0  503  502  0.00000000000E+00 -0.00000000000E+00 -0.13078984372E+03  0.13078984372E+03  0.00000000000E+00 0. -1.
         21    1    1    2  503  504 -0.63217050006E+02 -0.73572164554E+02 -0.83872190591E+02  0.12823339332E+03  0.00000000000E+00 0. -1.
         21    1    1    2  504  501  0.26789447614E+02  0.47250031113E+02  0.23451732234E+03  0.24072518444E+03  0.00000000000E+00 0. -1.
         21    1    1    2  505  502  0.91821172276E+02  0.35806440163E+02  0.96520686636E+02  0.13794735149E+03  0.00000000000E+00 0. -1.
         -1    1    1    2    0  505 -0.55393569885E+02 -0.94843067210E+01  0.85753853706E+03  0.85937811364E+03  0.00000000000E+00 0. -1.
<scales pt_clust_3="14000.00000" pt_clust_4="54.31611" pt_clust_5="95.69402" pt_clust_6="44.91703"></scales>
<clustering>
<clus scale="   54.316">  1  4  2 -1</clus>
<clus scale="   44.917">  1  6  2 -1</clus>
<clus scale="   95.694">  1  5  2 -1</clus>
<clus scale="   95.694">  2  3  1 -1</clus>
</clustering>
</event>
<event>
 6    0  0.4340992E+002  0.1729723E+03  0.7546771E-02  0.1174783E+00
          2   -1    0    0  503    0 -0.00000000000E+00  0.00000000000E+00  0.53152014964E+03  0.53152014964E+03  0.00000000000E+00 0.  1.
         21   -1    0    0  501  502  0.00000000000E+00 -0.00000000000E+00 -0.96517095489E+03  0.96517095489E+03  0.00000000000E+00 0. -1.
         21    1    1    2  503  504  0.60925486165E+01  0.45019324317E+02  0.13405431510E+03  0.14154299032E+03  0.00000000000E+00 0.  1.
         21    1    1    2  504  505 -0.20243947797E+03 -0.28645729971E+02 -0.45007837719E+03  0.49434083960E+03  0.00000000000E+00 0. -1.
         21    1    1    2  505  502  0.15261354356E+03 -0.54132507851E+02 -0.47342286467E+03  0.50035030816E+03  0.00000000000E+00 0. -1.
          2    1    1    2  501    0  0.43733385791E+02  0.37758913505E+02  0.35579612151E+03  0.36045696645E+03  0.00000000000E+00 0.  1.
<scales pt_clust_3="45.42971" pt_clust_4="172.97226" pt_clust_5="14000.00000" pt_clust_6="92.86021"></scales>
<clustering>
<clus scale="   45.430">  1  3  2 -1</clus>
<clus scale="   92.860">  1  6  2 -1</clus>
<clus scale="  172.972">  1  4  2 -1</clus>
<clus scale="  172.972">  2  3  1 -1</clus>
</clustering>
</event>
<event>
 6    0  0.4340992E+002  0.1217186E+03  0.7546771E-02  0.1240289E+00
         21   -1    0    0  505  502  0.00000000000E+00  0.00000000000E+00  0.28869928883E+03  0.28869928883E+03  0.00000000000E+00 0.  1.
          1   -1    0    0  502    0 -0.00000000000E+00 -0.00000000000E+00 -0.87546432162E+03  0.87546432162E+03  0.00000000000E+00 0.  1.
         21    1    1    2  503  504  0.29574755173E+02  0.12247273524E+03 -0.43449138267E+02  0.13327439603E+03  0.00000000000E+00 0. -1.
         21    1    1    2  504  501 -0.22716669599E+02 -0.50141270256E+02 -0.26174523306E+03  0.26747104720E+03  0.00000000000E+00 0.  1.
         21    1    1    2  505  503  0.26507604085E+02 -0.20762858936E+02  0.23792919985E+03  0.24029992411E+03  0.00000000000E+00 0.  1.
          1    1    1    2  501    0 -0.33365689659E+02 -0.51568606051E+02 -0.51949986131E+03  0.52311824312E+03  0.00000000000E+00 0.  1.
<scales pt_clust_3="116.69623" pt_clust_4="32.75873" pt_clust_5="33.67120" pt_clust_6="32.75873"></scales>
<clustering>
<clus scale="   32.759">  4  6 -1 -1</clus>
<clus scale="   33.671">  1  5  2 -1</clus>
<clus scale="  116.696">  1  3  2 -1</clus>
<clus scale="   33.671">  1  3  2 -1</clus>
</clustering>
</event>
<event>
 6    0  0.4340992E+002  0.1088143E+03  0.7546771E-02  0.1262782E+00
         21   -1    0    0  504  502  0.00000000000E+00  0.00000000000E+00  0.29843225140E+03  0.29843225140E+03  0.00000000000E+00 0.  1.
          2   -1    0    0  505    0 -0.00000000000E+00 -0.00000000000E+00 -0.35923105910E+03  0.35923105910E+03  0.00000000000E+00 0.  1.
         21    1    1    2  503  501  0.11065284612E+03  0.19798280063E+01 -0.61198037190E+02  0.12646411281E+03  0.00000000000E+00 0.  1.
         21    1    1    2  504  503  0.14576827993E+02 -0.29593845033E+02  0.21813897801E+03  0.22061934028E+03  0.00000000000E+00 0.  1.
         21    1    1    2  505  502 -0.46800740908E+02 -0.70996763288E+02 -0.43380609385E+02  0.95460604532E+02  0.00000000000E+00 0.  1.
          2    1    1    2  501    0 -0.78428933204E+02  0.98610780315E+02 -0.17435913914E+03  0.21511925288E+03  0.00000000000E+00 0.  1.
<scales pt_clust_3="14000.00000" pt_clust_4="32.98908" pt_clust_5="91.01469" pt_clust_6="108.81429"></scales>
<clustering>
<clus scale="   32.989">  1  4  2 -1</clus>
<clus scale="   91.015">  1  5  2 -1</clus>
<clus scale="  108.814">  2  6  1 -1</clus>
<clus scale="   32.989">  1  3  2 -1</clus>
</clustering>
</event>
<event>
 6    0  0.4340992E+002  0.1091396E+03  0.7546771E-02  0.1262172E+00
          4   -1    0    0  503    0 -0.00000000000E+00  0.00000000000E+00  0.18430557483E+04  0.18430557483E+04  0.00000000000E+00 0.  1.
         21   -1    0    0  504  502  0.00000000000E+00 -0.00000000000E+00 -0.48352825667E+02  0.48352825667E+02  0.00000000000E+00 0. -1.
         21    1    1    2  503  505  0.24348927618E+02  0.24116782636E+02  0.43798977317E+03  0.43932849997E+03  0.00000000000E+00 0.  1.
         21    1    1    2  504  501 -0.75545018211E+02  0.68033521532E+02  0.44055957080E+03  0.45213752914E+03  0.00000000000E+00 0. -1.
         21    1    1    2  505  502 -0.29913838278E+02 -0.13641252483E+02 -0.31534050075E+02  0.45555656114E+02  0.00000000000E+00 0. -1.
          4    1    1    2  501    0  0.81109928871E+02 -0.78509051685E+02  0.94768762873E+03  0.95438688874E+03  0.00000000000E+00 0.  1.
<scales pt_clust_3="32.17455" pt_clust_4="14000.00000" pt_clust_5="32.87737" pt_clust_6="109.13958"></scales>
<clustering>
<clus scale="   32.877">  2  5  1 -1</clus>
<clus scale="   32.175">  1  3  2 -1</clus>
<clus scale="  109.140">  1  6  2 -1</clus>
<clus scale="   32.877">  2  3  1 -1</clus>
</clustering>
</event>
<event>
 6    0  0.4340992E+002  0.1692292E+03  0.7546771E-02  0.1178654E+00
         21   -1    0    0  503  502  0.00000000000E+00  0.00000000000E+00  0.11648597652E+03  0.11648597652E+03  0.00000000000E+00 0. -1.
          2   -1    0    0  505    0 -0.00000000000E+00 -0.00000000000E+00 -0.16477377662E+04  0.16477377662E+04  0.00000000000E+00 0. -1.
         21    1    1    2  503  501  0.67840180443E+01  0.18737092914E+03 -0.36189482234E+03  0.40758036069E+03  0.00000000000E+00 0. -1.
         21    1    1    2  504  502  0.94125593217E+02 -0.14325450249E+03  0.72595549532E+01  0.17156392663E+03  0.00000000000E+00 0. -1.
         21    1    1    2  505  504 -0.50624683429E+02  0.18258929716E+02 -0.67096047037E+03  0.67311529464E+03  0.00000000000E+00 0. -1.
          2    1    1    2  501    0 -0.50284927832E+02 -0.62375356362E+02 -0.50565605191E+03  0.51196416074E+03  0.00000000000E+00 0. -1.
<scales pt_clust_3="14000.00000" pt_clust_4="169.22919" pt_clust_5="53.81679" pt_clust_6="93.13467"></scales>
<clustering>
<clus scale="   53.817">  2  5  1 -1</clus>
<clus scale="   93.135">  2  6  1 -1</clus>
<clus scale="  169.229">  1  4  2 -1</clus>
<clus scale="  169.229">  1  3  2 -1</clus>
</clustering>
</event>
<event>
 6    0  0.4340992E+002  0.7458612E+02  0.7546771E-02  0.1345157E+00
         21   -1    0    0  505  502  0.00000000000E+00  0.00000000000E+00  0.50341749469E+03  0.50341749469E+03  0.00000000000E+00 0. -1.
          1   -1    0    0  504    0 -0.00000000000E+00 -0.00000000000E+00 -0.31111845175E+03  0.31111845175E+03  0.00000000000E+00 0. -1.
         21    1    1    2  503  502  0.10210479633E+03  0.33775662957E+02  0.14042242457E+03  0.17687465099E+03  0.00000000000E+00 0.  1.
         21    1    1    2  504  503 -0.67305942599E+02 -0.21711225701E+02 -0.19630877730E+03  0.20865905989E+03  0.00000000000E+00 0.  1.
         21    1    1    2  505  501 -0.52973835000E+02  0.21783507010E+02  0.33194576022E+03  0.33685120766E+03  0.00000000000E+00 0. -1.
          1    1    1    2  501    0  0.18174981267E+02 -0.33847944267E+02 -0.83760364541E+02  0.92151027901E+02  0.00000000000E+00 0. -1.
<scales pt_clust_3="74.58612" pt_clust_4="14000.00000" pt_clust_5="56.95222" pt_clust_6="38.41892"></scales>
<clustering>
<clus scale="   38.419">  2  6  1 -1</clus>
<clus scale="   56.952">  1  5  2 -1</clus>
<clus scale="   74.586">  1  3  2 -1</clus>
<clus scale="   56.952">  1  3  2 -1</clus>
</clustering>
</event>
<event>
 6    0  0.4340992E+002  0.7883036E+02  0.7546771E-02  0.1332404E+00
          2   -1    0    0  504    0 -0.00000000000E+00  0.00000000000E+00  0.11382360496E+04  0.11382360496E+04  0.00000000000E+00 0.  1.
         21   -1    0    0  505  502  0.00000000000E+00 -0.00000000000E+00 -0.43478510709E+03  0.43478510709E+03  0.00000000000E+00 0. -1.
         21    1    1    2  503  502  0.24929546496E+02  0.10678407278E+03 -0.14428843293E+03  0.18122768101E+03  0.00000000000E+00 0. -1.
         21    1    1    2  504  503  0.17595024166E+02 -0.35391193308E+02  0.82399812122E+02  0.91388459211E+02  0.00000000000E+00 0. -1.
         21    1    1    2  505  501 -0.61117715769E+02 -0.44357333681E+02 -0.26193635434E+03  0.27260521264E+03  0.00000000000E+00 0. -1.
          2    1    1    2  501    0  0.18593145107E+02 -0.27035545787E+02  0.10272759176E+04  0.10277998038E+04  0.00000000000E+00 0.  1.
<scales pt_clust_3="78.83036" pt_clust_4="65.12482" pt_clust_5="14000.00000" pt_clust_6="32.81198"></scales>
<clustering>
<clus scale="   32.812">  1  6  2 -1</clus>
<clus scale="   65.125">  1  4  2 -1</clus>
<clus scale="   78.830">  1  3  2 -1</clus>
<clus scale="   78.830">  2  3  1 -1</clus>
</clustering>
</event>
<event>
 6    0  0.4340992E+002  0.1277844E+03  0.7546771E-02  0.1230781E+00
          1   -1    0    0  504    0 -0.00000000000E+00  0.00000000000E+00  0.18594253580E+03  0.18594253580E+03  0.00000000000E+00 0. -1.
         21   -1    0    0  505  502  0.00000000000E+00 -0.00000000000E+00 -0.14814974185E+04  0.14814974185E+04  0.00000000000E+00 0.  1.
         21    1    1    2  503  502 -0.47724017335E+02  0.29818871285E+02 -0.12450463409E+04  0.12463174306E+04  0.00000000000E+00 0.  1.
         21    1    1    2  504  503 -0.87223532357E+02  0.46349707610E+02 -0.12792282836E+03  0.16161834676E+03  0.00000000000E+00 0. -1.
         21    1    1    2  505  501  0.97437949149E+01 -0.30269954156E+02 -0.60072616890E+02  0.67970074032E+02  0.00000000000E+00 0.  1.
          1    1    1    2  501    0  0.12520375478E+03 -0.45898624740E+02  0.13748690342E+03  0.19153410291E+03  0.00000000000E+00 0. -1.
<scales pt_clust_3="39.29310" pt_clust_4="127.78438" pt_clust_5="31.79955" pt_clust_6="14000.00000"></scales>
<clustering>
<clus scale="   31.800">  2  5  1 -1</clus>
<clus scale="   39.293">  2  3  1 -1</clus>
<clus scale="  127.784">  2  4  1 -1</clus>
<clus scale="   31.800">  2  3  1 -1</clus>
</clustering>
</event>
<event>
 6    0  0.4340992E+002  0.1046114E+03  0.7546771E-02  0.1270887E+00
          1   -1    0    0  503    0 -0.00000000000E+00  0.00000000000E+00  0.63126182352E+03  0.63126182352E+03  0.00000000000E+00 0. -1.
         21   -1    0    0  505  502  0.00000000000E+00 -0.00000000000E+00 -0.67415943498E+03  0.67415943498E+03  0.00000000000E+00 0. -1.
         21    1    1    2  503  504 -0.43445954967E+02 -0.82127416368E+00  0.21231238712E+03  0.21671357876E+03  0.00000000000E+00 0.  1.
         21    1    1    2  504  502  0.10472388492E+02  0.32093025891E+02 -0.54120203375E+03  0.54225388387E+03  0.00000000000E+00 0. -1.
         21    1    1    2  505  501  0.59945309556E+02 -0.11052397103E+03 -0.94229745370E+02  0.15712489689E+03  0.00000000000E+00 0. -1.
          1    1    1    2  501    0 -0.26971743081E+02  0.79252219298E+02  0.38022178054E+03  0.38932889899E+03  0.00000000000E+00 0. -1.
<scales pt_clust_3="43.27290" pt_clust_4="33.75845" pt_clust_5="14000.00000" pt_clust_6="104.61140"></scales>
<clustering>
<clus scale="   33.758">  2  4  1 -1</clus>
<clus scale="   43.273">  1  3  2 -1</clus>
<clus scale="  104.611">  1  6  2 -1</clus>
<clus scale="   33.758">  2  3  1 -1</clus>
</clustering>
</event>
<event>
 6    0  0.4340992E+002  0.1296462E+03  0.7546771E-02  0.1227982E+00
          2   -1    0    0  503    0 -0.00000000000E+00  0.00000000000E+00  0.24495744698E+04  0.24495744698E+04  0.00000000000E+00 0. -1.
         21   -1    0    0  504  502  0.00000000000E+00 -0.00000000000E+00 -0.83353638596E+03  0.83353638596E+03  0.00000000000E+00 0. -1.
         21    1    1    2  503  502  0.11122654695E+03 -0.24021828094E+02  0.80221535457E+02  0.13922603105E+03  0.00000000000E+00 0. -1.
         21    1    1    2  504  505 -0.72281501068E+01 -0.36838082128E+02 -0.80178081513E+03  0.80265918419E+03  0.00000000000E+00 0. -1.
         21    1    1    2  505  501 -0.30662468663E+02  0.37332574506E+02  0.60890724796E+03  0.61082071406E+03  0.00000000000E+00 0. -1.
          2    1    1    2  501    0 -0.73335928180E+02  0.23527335716E+02  0.17286901156E+04  0.17304049265E+04  0.00000000000E+00 0. -1.
<scales pt_clust_3="119.79844" pt_clust_4="37.54052" pt_clust_5="38.98827" pt_clust_6="38.98827"></scales>
<clustering>
<clus scale="   37.541">  2  4  1 -1</clus>
<clus scale="   38.988">  5  6 -1 -1</clus>
<clus scale="  119.798">  2  3  1 -1</clus>
<clus scale="   37.541">  2  3  1 -1</clus>
</clustering>
</event>
<event>
 6    0  0.4340992E+002  0.1395723E+03  0.7546771E-02  0.1213906E+00
         21   -1    0    0  505  502  0.00000000000E+00  0.00000000000E+00  0.27423475018E+03  0.27423475018E+03  0.00000000000E+00 0. -1.
          1   -1    0    0  504    0 -0.00000000000E+00 -0.00000000000E+00 -0.41777665734E+03  0.41777665734E+03  0.00000000000E+00 0.  1.
         21    1    1    2  503  502  0.15379132437E+03  0.20395967926E+01  0.16639624770E+03  0.22659135608E+03  0.00000000000E+00 0. -1.
         21    1    1    2  504  503  0.10319340798E+02  0.77961209873E+02 -0.62902433696E+02  0.10070330285E+03  0.00000000000E+00 0.  1.
         21    1    1    2  505  501 -0.21591950528E+02  0.21322189924E+02  0.26350466076E+02  0.40189490830E+02  0.00000000000E+00 0.  1.
          1    1    1    2  501    0 -0.14251871464E+03 -0.10132299659E+03 -0.27338618723E+03  0.32452725776E+03  0.00000000000E+00 0.  1.
<scales pt_clust_3="139.57235" pt_clust_4="80.09945" pt_clust_5="30.34548" pt_clust_6="14000.00000"></scales>
<clustering>
<clus scale="   30.345">  1  5  2 -1</clus>
<clus scale="   80.099">  2  4  1 -1</clus>
<clus scale="  139.572">  1  3  2 -1</clus>
<clus scale="   30.345">  1  3  2 -1</clus>
</clustering>
</event>
<event>
 6    0  0.4340992E+002  0.9904844E+02  0.7546771E-02  0.1282310E+00
          2   -1    0    0  503    0 -0.00000000000E+00  0.00000000000E+00  0.35828526798E+04  0.35828526798E+04  0.00000000000E+00 0. -1.
         21   -1    0    0  504  502  0.00000000000E+00 -0.00000000000E+00 -0.30117520637E+02  0.30117520637E+02  0.00000000000E+00 0. -1.
         21    1    1    2  503  505  0.18588329247E+02  0.26400694345E+02  0.32669424450E+03  0.32828593030E+03  0.00000000000E+00 0. -1.
         21    1    1    2  504  501 -0.55928114859E+02  0.78622728650E+02  0.98428443484E+02  0.13783194832E+03  0.00000000000E+00 0. -1.
         21    1    1    2  505  502 -0.31894828009E+02 -0.30534147601E+02  0.46726047498E+02  0.64287928402E+02  0.00000000000E+00 0. -1.
          2    1    1    2  501    0  0.69234613621E+02 -0.74489275394E+02  0.30808864237E+04  0.30825643934E+04  0.00000000000E+00 0. -1.
<scales pt_clust_3="32.28812" pt_clust_4="99.04844" pt_clust_5="43.61432" pt_clust_6="14000.00000"></scales>
<clustering>
<clus scale="   32.288">  1  3  2 -1</clus>
<clus scale="   43.614">  2  5  1 -1</clus>
<clus scale="   99.048">  2  4  1 -1</clus>
<clus scale="   43.614">  2  3  1 -1</clus>
</clustering>
</event>
<event>
 6    0  0.4340992E+002  0.6128605E+02  0.7546771E-02  0.1392513E+00
         21   -1    0    0  504  502  0.00000000000E+00  0.00000000000E+00  0.47025355257E+03  0.47025355257E+03  0.00000000000E+00 0.  1.
          4   -1    0    0  503    0 -0.00000000000E+00 -0.00000000000E+00 -0.46859709775E+02  0.46859709775E+02  0.00000000000E+00 0.  1.
         21    1    1    2  503  505 -0.31636018996E+02 -0.43880635196E+02  0.14353040216E+02  0.55967469181E+02  0.00000000000E+00 0.  1.
         21    1    1    2  504  501  0.93762944502E+02  0.18670051313E+02  0.18807268483E+03  0.21097723895E+03  0.00000000000E+00 0.  1.
         21    1    1    2  505  502 -0.35560378938E+02 -0.34649725952E+02  0.11946325916E+03  0.12937006743E+03  0.00000000000E+00 0.  1.
          4    1    1    2  501    0 -0.26566546568E+02  0.59860309835E+02  0.10150485859E+03  0.12079848678E+03  0.00000000000E+00 0.  1.
<scales pt_clust_3="59.07400" pt_clust_4="61.28605" pt_clust_5="49.65022" pt_clust_6="14000.00000"></scales>
<clustering>
<clus scale="   49.650">  1  5  2 -1</clus>
<clus scale="   59.074">  2  3  1 -1</clus>
<clus scale="   61.286">  1  4  2 -1</clus>
<clus scale="   49.650">  1  3  2 -1</clus>
</clustering>
</event>
<event>
 6    0  0.4340992E+002  0.2790061E+03  0.7546771E-02  0.1096233E+00
          1   -1    0    0  504    0 -0.00000000000E+00  0.00000000000E+00  0.88694031664E+03  0.88694031664E+03  0.00000000000E+00 0. -1.
         21   -1    0    0  503  502  0.00000000000E+00 -0.00000000000E+00 -0.20963251989E+03  0.20963251989E+03  0.00000000000E+00 0. -1.
         21    1    1    2  503  505 -0.33894270238E+02  0.50664838874E+02  0.33524184728E+02  0.69567366018E+02  0.00000000000E+00 0. -1.
         21    1    1    2  504  502 -0.24184533850E+03 -0.11163257524E+03  0.13601908052E+02  0.26671335083E+03  0.00000000000E+00 0. -1.
         21    1    1    2  505  501 -0.13969495300E+02  0.11776337785E+03  0.10781979240E+03  0.16027622280E+03  0.00000000000E+00 0. -1.
          1    1    1    2  501    0  0.28970910404E+03 -0.56795641492E+02  0.52236191157E+03  0.60001589688E+03  0.00000000000E+00 0. -1.
<scales pt_clust_3="33.55874" pt_clust_4="279.00609" pt_clust_5="181.24557" pt_clust_6="14000.00000"></scales>
<clustering>
<clus scale="   33.559">  3  5 -1 -1</clus>
<clus scale="  181.246">  2  3  1 -1</clus>
<clus scale="  279.006">  2  4  1 -1</clus>
<clus scale="  181.246">  2  3  1 -1</clus>
</clustering>
</event>
<event>
 6    0  0.4340992E+002  0.6942449E+02  0.7546771E-02  0.1362061E+00
         21   -1    0    0  504  502  0.00000000000E+00  0.00000000000E+00  0.79496750894E+02  0.79496750894E+02  0.00000000000E+00 0. -1.
          2   -1    0    0  505    0 -0.00000000000E+00 -0.00000000000E+00 -0.18188729514E+04  0.18188729514E+04  0.00000000000E+00 0. -1.
         21    1    1    2  503  502  0.41293904432E+02  0.26367687362E+02  0.53336550349E+02  0.72423953794E+02  0.00000000000E+00 0. -1.
         21    1    1    2  504  501  0.54997791836E+02  0.16910728322E+02 -0.40639955156E+03  0.41045258599E+03  0.00000000000E+00 0. -1.
         21    1    1    2  505  503 -0.10424876143E+03  0.46188400450E+01 -0.17893984879E+03  0.20714392926E+03  0.00000000000E+00 0. -1.
          2    1    1    2  501    0  0.79570651593E+01 -0.47897255729E+02 -0.12073733505E+04  0.12083492332E+04  0.00000000000E+00 0. -1.
<scales pt_clust_3="48.70142" pt_clust_4="14000.00000" pt_clust_5="69.42449" pt_clust_6="48.55370"></scales>
<clustering>
<clus scale="   48.554">  2  6  1 -1</clus>
<clus scale="   48.701">  1  3  2 -1</clus>
<clus scale="   69.424">  1  5  2 -1</clus>
<clus scale="   48.701">  1  3  2 -1</clus>
</clustering>
</event>
<event>
 6    0  0.4340992E+002  0.1430609E+03  0.7546771E-02  0.1209269E+00
          2   -1    0    0  505    0 -0.00000000000E+00  0.00000000000E+00  0.24432204437E+04  0.24432204437E+04  0.00000000000E+00 0. -1.
         21   -1    0    0  503  502  0.00000000000E+00 -0.00000000000E+00 -0.11270713337E+03  0.11270713337E+03  0.00000000000E+00 0.  1.
         21    1    1    2  503  504 -0.56492393311E+02 -0.22071083241E+02 -0.45936730756E+02  0.76083549142E+02  0.00000000000E+00 0.  1.
         21    1    1    2  504  501  0.72502172967E+02 -0.96222309673E+02  0.60758261888E+03  0.61941257392E+03  0.00000000000E+00 0.  1.
         21    1    1    2  505  502  0.35222609508E+02 -0.32140172110E+02 -0.28831833888E+02  0.55721607381E+02  0.00000000000E+00 0.  1.
          2    1    1    2  501    0 -0.51232389164E+02  0.15043356502E+03  0.17976992560E+04  0.18047098466E+04  0.00000000000E+00 0. -1.
<scales pt_clust_3="56.26950" pt_clust_4="14000.00000" pt_clust_5="47.68252" pt_clust_6="143.06087"></scales>
<clustering>
<clus scale="   47.683">  2  5  1 -1</clus>
<clus scale="   56.270">  2  3  1 -1</clus>
<clus scale="  143.061">  1  6  2 -1</clus>
<clus scale="   47.683">  2  3  1 -1</clus>
</clustering>
</event>
<event>
 6    0  0.4340992E+002  0.7193433E+02  0.7546771E-02  0.1353636E+00
          3   -1    0    0  504    0 -0.00000000000E+00  0.00000000000E+00  0.88053991285E+02  0.88053991285E+02  0.00000000000E+00 0.  1.
         21   -1    0    0  505  502  0.00000000000E+00 -0.00000000000E+00 -0.33889953365E+03  0.33889953365E+03  0.00000000000E+00 0. -1.
         21    1    1    2  503  501  0.13393645025E+02  0.76344990717E+02 -0.52156245935E+02  0.93424950226E+02  0.00000000000E+00 0.  1.
         21    1    1    2  504  502 -0.11990099191E+02 -0.86346771141E+02 -0.35942669699E+02  0.94294235615E+02  0.00000000000E+00 0.  1.
         21    1    1    2  505  503 -0.22897414000E+02 -0.33364705868E+02 -0.18251872567E+03  0.18695074321E+03  0.00000000000E+00 0. -1.
          3    1    1    2  501    0  0.21493868166E+02  0.43366486292E+02  0.19772098941E+02  0.52283595884E+02  0.00000000000E+00 0.  1.
<scales pt_clust_3="71.93433" pt_clust_4="14000.00000" pt_clust_5="40.46598" pt_clust_6="44.18053"></scales>
<clustering>
<clus scale="   40.466">  2  5  1 -1</clus>
<clus scale="   44.181">  1  6  2 -1</clus>
<clus scale="   71.934">  2  3  1 -1</clus>
<clus scale="   40.466">  2  3  1 -1</clus>
</clustering>
</event>
<event>
 6    0  0.4340992E+002  0.9259375E+02  0.7546771E-02  0.1296689E+00
         21   -1    0    0  505  502  0.00000000000E+00  0.00000000000E+00  0.18155910529E+04  0.18155910529E+04  0.00000000000E+00 0.  1.
         -1   -1    0    0    0  501 -0.00000000000E+00 -0.00000000000E+00 -0.37930340201E+03  0.37930340201E+03  0.00000000000E+00 0.  1.
         21    1    1    2  503  504 -0.82960876898E+02 -0.89565268420E+02  0.53302671352E+02  0.13321268399E+03  0.00000000000E+00 0. -1.
         21    1    1    2  504  502  0.55355571120E+02  0.81533780670E+02  0.14578379642E+04  0.14611651263E+04  0.00000000000E+00 0.  1.
         21    1    1    2  505  501 -0.64309679018E+02 -0.20484859968E+01  0.25238921762E+03  0.26046160616E+03  0.00000000000E+00 0.  1.
         -1    1    1    2    0  503  0.91914984796E+02  0.10079973746E+02 -0.32724220219E+03  0.34005503848E+03  0.00000000000E+00 0.  1.
<scales pt_clust_3="92.59375" pt_clust_4="79.76342" pt_clust_5="64.34230" pt_clust_6="14000.00000"></scales>
<clustering>
<clus scale="   64.342">  1  5  2 -1</clus>
<clus scale="   79.763">  1  4  2 -1</clus>
<clus scale="   92.594">  1  3  2 -1</clus>
<clus scale="   64.342">  1  3  2 -1</clus>
</clustering>
</event>
<event>
 6    0  0.4340992E+002  0.8041018E+02  0.7546771E-02  0.1327891E+00
         21   -1    0    0  503  502  0.00000000000E+00  0.00000000000E+00  0.11885231142E+04  0.11885231142E+04  0.00000000000E+00 0.  1.
          2   -1    0    0  504    0 -0.00000000000E+00 -0.00000000000E+00 -0.57947969864E+02  0.57947969864E+02  0.00000000000E+00 0.  1.
         21    1    1    2  503  501  0.66365319341E+02  0.96351179695E+02  0.24301614869E+03  0.26971235412E+03  0.00000000000E+00 0.  1.
         21    1    1    2  504  505  0.63966390326E+01 -0.37933072299E+02  0.22526035089E+02  0.44578663302E+02  0.00000000000E+00 0.  1.
         21    1    1    2  505  502 -0.76569564393E+02 -0.18992756388E+02  0.88452417143E+03  0.88803526553E+03  0.00000000000E+00 0.  1.
          2    1    1    2  501    0  0.38076060198E+01 -0.39425351008E+02 -0.19491210858E+02  0.44144801126E+02  0.00000000000E+00 0.  1.
<scales pt_clust_3="80.41018" pt_clust_4="38.46862" pt_clust_5="14000.00000" pt_clust_6="65.65533"></scales>
<clustering>
<clus scale="   38.469">  2  4  1 -1</clus>
<clus scale="   65.655">  2  6  1 -1</clus>
<clus scale="   80.410">  2  3  1 -1</clus>
<clus scale="   80.410">  1  3  2 -1</clus>
</clustering>
</event>
<event>
 6    0  0.4340992E+002  0.8481484E+02  0.7546771E-02  0.1315917E+00
          1   -1    0    0  505    0 -0.00000000000E+00  0.00000000000E+00  0.86525369205E+03  0.86525369205E+03  0.00000000000E+00 0. -1.
         21   -1    0    0  503  502  0.00000000000E+00 -0.00000000000E+00 -0.47184629683E+03  0.47184629683E+03  0.00000000000E+00 0. -1.
         21    1    1    2  503  501 -0.47935895843E+02  0.67725914203E+02 -0.43076301021E+03  0.43868145679E+03  0.00000000000E+00 0. -1.
         21    1    1    2  504  502 -0.24597325598E+02 -0.23263629469E+02 -0.86910066269E+01  0.34953661880E+02  0.00000000000E+00 0. -1.
         21    1    1    2  505  504 -0.40254371526E+02 -0.63226699166E+02  0.11994893728E+03  0.14144178120E+03  0.00000000000E+00 0. -1.
          1    1    1    2  501    0  0.11278759297E+03  0.18764414432E+02  0.71291247478E+03  0.72202308901E+03  0.00000000000E+00 0. -1.
<scales pt_clust_3="84.81484" pt_clust_4="33.85594" pt_clust_5="75.73784" pt_clust_6="14000.00000"></scales>
<clustering>
<clus scale="   33.856">  2  4  1 -1</clus>
<clus scale="   75.738">  1  5  2 -1</clus>
<clus scale="   84.815">  2  3  1 -1</clus>
<clus scale="   33.856">  2  3  1 -1</clus>
</clustering>
</event>
<event>
 6    0  0.4340992E+002  0.1853481E+03  0.7546771E-02  0.1162725E+00
          2   -1    0    0  503    0 -0.00000000000E+00  0.00000000000E+00  0.13576198813E+04  0.13576198813E+04  0.00000000000E+00 0. -1.
         21   -1    0    0  504  502  0.00000000000E+00 -0.00000000000E+00 -0.25332117540E+03  0.25332117540E+03  0.00000000000E+00 0.  1.
         21    1    1    2  503  505 -0.49107634657E+00 -0.22545201575E+03  0.19194884221E+02  0.22626819516E+03  0.00000000000E+00 0.  1.
         21    1    1    2  504  501 -0.11647052702E+03  0.13757831871E+03  0.23893921202E+03  0.29930774210E+03  0.00000000000E+00 0.  1.
         21    1    1    2  505  502  0.18891296353E+01 -0.57860193449E+02 -0.10302896384E+03  0.11817926293E+03  0.00000000000E+00 0.  1.
          2    1    1    2  501    0  0.11507247373E+03  0.14573389049E+03  0.94919357355E+03  0.96718585655E+03  0.00000000000E+00 0. -1.
<scales pt_clust_3="14000.00000" pt_clust_4="170.82989" pt_clust_5="57.89103" pt_clust_6="185.34814"></scales>
<clustering>
<clus scale="   57.891">  2  5  1 -1</clus>
<clus scale="  170.830">  2  4  1 -1</clus>
<clus scale="  185.348">  1  6  2 -1</clus>
<clus scale="   57.891">  2  3  1 -1</clus>
</clustering>
</event>
<event>
 6    0  0.4340992E+002  0.1176370E+03  0.7546771E-02  0.1247047E+00
          2   -1    0    0  503    0 -0.00000000000E+00  0.00000000000E+00  0.18634495707E+04  0.18634495707E+04  0.00000000000E+00 0. -1.
         21   -1    0    0  505  502  0.00000000000E+00 -0.00000000000E+00 -0.22857125741E+04  0.22857125741E+04  0.00000000000E+00 0.  1.
         21    1    1    2  503  502 -0.61978289322E+02  0.24516020271E+01  0.21674903473E+03  0.22544946830E+03  0.00000000000E+00 0.  1.
         21    1    1    2  504  501  0.63164095026E+02  0.40223368283E+02 -0.19282879591E+03  0.20685880883E+03  0.00000000000E+00 0.  1.
         21    1    1    2  505  504  0.12137606467E+02  0.52514953561E+02 -0.20797567498E+04  0.20804550656E+04  0.00000000000E+00 0.  1.
          2    1    1    2  501    0 -0.13323412171E+02 -0.95189923871E+02  0.16335735076E+04  0.16363988021E+04  0.00000000000E+00 0. -1.
<scales pt_clust_3="61.82422" pt_clust_4="117.63702" pt_clust_5="53.89937" pt_clust_6="14000.00000"></scales>
<clustering>
<clus scale="   53.899">  2  5  1 -1</clus>
<clus scale="   61.824">  1  3  2 -1</clus>
<clus scale="  117.637">  2  4  1 -1</clus>
<clus scale="   53.899">  2  3  1 -1</clus>
</clustering>
</event>
<event>
 6    0  0.4340992E+002  0.1153012E+03  0.7546771E-02  0.1251056E+00
          2   -1    0    0  504    0 -0.00000000000E+00  0.00000000000E+00  0.15910228988E+04  0.15910228988E+04  0.00000000000E+00 0.  1.
         21   -1    0    0  501  502  0.00000000000E+00 -0.00000000000E+00 -0.61731721032E+03  0.61731721032E+03  0.00000000000E+00 0.  1.
         21    1    1    2  503  505  0.87906989462E+02  0.11179858141E+02  0.16375490839E+02  0.90115396712E+02  0.00000000000E+00 0.  1.
         21    1    1    2  504  503 -0.22423654879E+02  0.31258001739E+02  0.84953090964E+03  0.85040146366E+03  0.00000000000E+00 0.  1.
         21    1    1    2  505  502 -0.92986112273E+01 -0.11532688930E+03 -0.57110627347E+03  0.58270844439E+03  0.00000000000E+00 0.  1.
          2    1    1    2  501    0 -0.56184723356E+02  0.72889029415E+02  0.67890556147E+03  0.68511480435E+03  0.00000000000E+00 0.  1.
<scales pt_clust_3="87.33397" pt_clust_4="38.46925" pt_clust_5="115.30117" pt_clust_6="14000.00000"></scales>
<clustering>
<clus scale="   38.469">  1  4  2 -1</clus>
<clus scale="   87.334">  1  3  2 -1</clus>
<clus scale="  115.301">  2  5  1 -1</clus>
<clus scale="  115.301">  2  3  1 -1</clus>
</clustering>
</event>
<event>
 6    0  0.4340992E+002  0.1443246E+03  0.7546771E-02  0.1207625E+00
          2   -1    0    0  503    0 -0.00000000000E+00  0.00000000000E+00  0.10510102032E+04  0.10510102032E+04  0.00000000000E+00 0.  1.
         21   -1    0    0  504  502  0.00000000000E+00 -0.00000000000E+00 -0.22393797898E+03  0.22393797898E+03  0.00000000000E+00 0.  1.
         21    1    1    2  503  502 -0.41853876408E+02  0.33026203944E+02  0.13780204209E+03  0.14775615019E+03  0.00000000000E+00 0.  1.
         21    1    1    2  504  505  0.26736297093E+02  0.18134078373E+02 -0.54485475407E+02  0.63343045483E+02  0.00000000000E+00 0. -1.
         21    1    1    2  505  501  0.83989985748E+02 -0.11482868305E+03 -0.12540156893E+03  0.18964571613E+03  0.00000000000E+00 0.  1.
          2    1    1    2  501    0 -0.68872406433E+02  0.63668400730E+02  0.86915722646E+03  0.87420327037E+03  0.00000000000E+00 0.  1.
<scales pt_clust_3="53.02880" pt_clust_4="32.30595" pt_clust_5="144.32465" pt_clust_6="14000.00000"></scales>
<clustering>
<clus scale="   32.306">  2  4  1 -1</clus>
<clus scale="   53.029">  1  3  2 -1</clus>
<clus scale="  144.325">  2  5  1 -1</clus>
<clus scale="   32.306">  2  3  1 -1</clus>
</clustering>
</event>
<event>
 6    0  0.4340992E+002  0.7152254E+02  0.7546771E-02  0.1354991E+00
         21   -1    0    0  505  502  0.00000000000E+00  0.00000000000E+00  0.12232691054E+02  0.12232691054E+02  0.00000000000E+00 0.  1.
          2   -1    0    0  504    0 -0.00000000000E+00 -0.00000000000E+00 -0.30637640047E+04  0.30637640047E+04  0.00000000000E+00 0.  1.
         21    1    1    2  503  502 -0.10395451468E+02  0.44920163398E+02 -0.90398415126E+02  0.10147787911E+03  0.00000000000E+00 0.  1.
         21    1    1    2  504  503  0.74774384617E+02 -0.18487176260E+02 -0.46720345429E+03  0.47351035045E+03  0.00000000000E+00 0.  1.
         21    1    1    2  505  501 -0.47035876054E+02  0.50627683207E+02 -0.42580830399E+03  0.43137947064E+03  0.00000000000E+00 0.  1.
          2    1    1    2  501    0 -0.17343057095E+02 -0.77060670346E+02 -0.20681211402E+04  0.20696289956E+04  0.00000000000E+00 0.  1.
<scales pt_clust_3="46.10734" pt_clust_4="69.92775" pt_clust_5="14000.00000" pt_clust_6="71.52254"></scales>
<clustering>
<clus scale="   46.107">  1  3  2 -1</clus>
<clus scale="   69.928">  1  4  2 -1</clus>
<clus scale="   71.523">  2  6  1 -1</clus>
<clus scale="   46.107">  1  3  2 -1</clus>
</clustering>
</event>
<event>
 6    0  0.4340992E+002  0.1638044E+03  0.7546771E-02  0.1184467E+00
         21   -1    0    0  504  502  0.00000000000E+00  0.00000000000E+00  0.65342323154E+02  0.65342323154E+02  0.00000000000E+00 0.  1.
          1   -1    0    0  505    0 -0.00000000000E+00 -0.00000000000E+00 -0.91293195191E+03  0.91293195191E+03  0.00000000000E+00 0. -1.
         21    1    1    2  503  501  0.26492104907E+02 -0.10141602540E+03 -0.69868891322E+02  0.12597104352E+03  0.00000000000E+00 0.  1.
         21    1    1    2  504  503 -0.24964978867E+02 -0.53939152222E+02 -0.41897093505E+01  0.59583856678E+02  0.00000000000E+00 0.  1.
         21    1    1    2  505  502 -0.10557817666E+02  0.43507562170E+02 -0.95593393857E+02  0.10555791031E+03  0.00000000000E+00 0. -1.
          1    1    1    2  501    0  0.90306916259E+01  0.11184761545E+03 -0.67793763423E+03  0.68716146456E+03  0.00000000000E+00 0. -1.
<scales pt_clust_3="52.99494" pt_clust_4="52.99494" pt_clust_5="44.77025" pt_clust_6="148.40317"></scales>
<clustering>
<clus scale="   44.770">  2  5  1 -1</clus>
<clus scale="   52.995">  3  4 -1 -1</clus>
<clus scale="  148.403">  2  6  1 -1</clus>
<clus scale="  163.804">  1  3  2 -1</clus>
</clustering>
</event>
<event>
 6    0  0.4340992E+002  0.1564918E+03  0.7546771E-02  0.1192715E+00
          1   -1    0    0  505    0 -0.00000000000E+00  0.00000000000E+00  0.11508423802E+04  0.11508423802E+04  0.00000000000E+00 0. -1.
         21   -1    0    0  504  502  0.00000000000E+00 -0.00000000000E+00 -0.11763154058E+03  0.11763154058E+03  0.00000000000E+00 0.  1.
         21    1    1    2  503  501 -0.15819218835E+02  0.41257788921E+02  0.20349344157E+03  0.20823552433E+03  0.00000000000E+00 0. -1.
         21    1    1    2  504  503  0.11690826347E+03 -0.10350687934E+03 -0.48214861701E+02  0.16341936552E+03  0.00000000000E+00 0.  1.
         21    1    1    2  505  502 -0.92970962566E+02 -0.50949712175E+01  0.28053726852E+03  0.29558538130E+03  0.00000000000E+00 0. -1.
          1    1    1    2  501    0 -0.81180820724E+01  0.67344061632E+02  0.59739499126E+03  0.60123364966E+03  0.00000000000E+00 0. -1.
<scales pt_clust_3="30.74105" pt_clust_4="151.78591" pt_clust_5="93.11046" pt_clust_6="30.74105"></scales>
<clustering>
<clus scale="   30.741">  3  6 -1 -1</clus>
<clus scale="   93.110">  1  5  2 -1</clus>
<clus scale="  151.786">  2  4  1 -1</clus>
<clus scale="  151.786">  2  3  1 -1</clus>
</clustering>
</event>
<event>
 6    0  0.4340992E+002  0.1021649E+03  0.7546771E-02  0.1275808E+00
          2   -1    0    0  503    0 -0.00000000000E+00  0.00000000000E+00  0.85540894262E+03  0.85540894262E+03  0.00000000000E+00 0. -1.
         21   -1    0    0  505  502  0.00000000000E+00 -0.00000000000E+00 -0.53675014619E+02  0.53675014619E+02  0.00000000000E+00 0.  1.
         21    1    1    2  503  502  0.32540809613E+02  0.10146190853E+02  0.12940135800E+03  0.13381539871E+03  0.00000000000E+00 0. -1.
         21    1    1    2  504  501  0.68403914189E+01 -0.75954677258E+02  0.54864016840E+02  0.93946603429E+02  0.00000000000E+00 0.  1.
         21    1    1    2  505  504 -0.42684307177E+02 -0.34721725380E+02 -0.69601324690E+00  0.55027563338E+02  0.00000000000E+00 0.  1.
          2    1    1    2  501    0  0.33031061449E+01  0.10053021178E+03  0.61816456640E+03  0.62629439176E+03  0.00000000000E+00 0. -1.
<scales pt_clust_3="34.08591" pt_clust_4="14000.00000" pt_clust_5="53.83751" pt_clust_6="102.16487"></scales>
<clustering>
<clus scale="   34.086">  1  3  2 -1</clus>
<clus scale="   53.838">  2  5  1 -1</clus>
<clus scale="  102.165">  1  6  2 -1</clus>
<clus scale="   53.838">  2  3  1 -1</clus>
</clustering>
</event>
<event>
 6    0  0.4340992E+002  0.7445756E+02  0.7546771E-02  0.1345559E+00
         21   -1    0    0  504  502  0.00000000000E+00  0.00000000000E+00  0.80182947039E+02  0.80182947039E+02  0.00000000000E+00 0. -1.
          2   -1    0    0  505    0 -0.00000000000E+00 -0.00000000000E+00 -0.95938961820E+03  0.95938961820E+03  0.00000000000E+00 0. -1.
         21    1    1    2  503  502 -0.16334973792E+02 -0.32603779172E+02  0.31293174769E+02  0.48053101588E+02  0.00000000000E+00 0. -1.
         21    1    1    2  504  501  0.38977804989E+02 -0.43141150662E+02 -0.16208123261E+02  0.60358358343E+02  0.00000000000E+00 0. -1.
         21    1    1    2  505  503 -0.78115521762E+02  0.65424954919E+02 -0.13184800117E+03  0.16663239445E+03  0.00000000000E+00 0. -1.
          2    1    1    2  501    0  0.55472690565E+02  0.10319974915E+02 -0.76244372150E+03  0.76452871086E+03  0.00000000000E+00 0. -1.
<scales pt_clust_3="36.46694" pt_clust_4="74.45756" pt_clust_5="14000.00000" pt_clust_6="55.86274"></scales>
<clustering>
<clus scale="   36.467">  1  3  2 -1</clus>
<clus scale="   55.863">  2  6  1 -1</clus>
<clus scale="   74.458">  1  4  2 -1</clus>
<clus scale="   36.467">  1  3  2 -1</clus>
</clustering>
</event>
<event>
 6    0  0.4340992E+002  0.1871867E+03  0.7546771E-02  0.1161023E+00
         -2   -1    0    0    0  501 -0.00000000000E+00  0.00000000000E+00  0.22511749824E+03  0.22511749824E+03  0.00000000000E+00 0. -1.
         21   -1    0    0  504  502  0.00000000000E+00 -0.00000000000E+00 -0.56145662078E+03  0.56145662078E+03  0.00000000000E+00 0. -1.
         21    1    1    2  503  505  0.58600506958E+02  0.10581524830E+03 -0.14248861981E+03  0.18690610735E+03  0.00000000000E+00 0. -1.
         21    1    1    2  504  501  0.12426284671E+03 -0.55595590788E+02 -0.14091429636E+03  0.19593101772E+03  0.00000000000E+00 0. -1.
         21    1    1    2  505  502  0.28788033399E+02 -0.27691229015E+02 -0.16040064084E+03  0.16529948764E+03  0.00000000000E+00 0. -1.
         -2    1    1    2    0  503 -0.21165138707E+03 -0.22528428493E+02  0.10746443448E+03  0.23843750631E+03  0.00000000000E+00 0. -1.
<scales pt_clust_3="117.79632" pt_clust_4="187.18675" pt_clust_5="39.94440" pt_clust_6="14000.00000"></scales>
<clustering>
<clus scale="   39.944">  2  5  1 -1</clus>
<clus scale="  117.796">  2  3  1 -1</clus>
<clus scale="  187.187">  2  4  1 -1</clus>
<clus scale="   39.944">  2  3  1 -1</clus>
</clustering>
</event>
<event>
 6    0  0.4340992E+002  0.6918994E+02  0.7546771E-02  0.1362870E+00
          2   -1    0    0  503    0 -0.00000000000E+00  0.00000000000E+00  0.16069084017E+04  0.16069084017E+04  0.00000000000E+00 0.  1.
         21   -1    0    0  505  502  0.00000000000E+00 -0.00000000000E+00 -0.63393627483E+03  0.63393627483E+03  0.00000000000E+00 0. -1.
         21    1    1    2  503  504 -0.69778928684E+01 -0.90454447176E+02 -0.27288309603E+02  0.94738322994E+02  0.00000000000E+00 0. -1.
         21    1    1    2  504  502  0.37602574295E+02  0.57276100602E+02 -0.56900048435E+03  0.57311085881E+03  0.00000000000E+00 0. -1.
         21    1    1    2  505  501 -0.54086585416E+02 -0.79547710023E+01  0.57070733158E+03  0.57331971484E+03  0.00000000000E+00 0. -1.
          2    1    1    2  501    0  0.23461903990E+02  0.41133117576E+02  0.99855358925E+03  0.99967577990E+03  0.00000000000E+00 0.  1.
<scales pt_clust_3="69.18994" pt_clust_4="14000.00000" pt_clust_5="44.38875" pt_clust_6="47.35393"></scales>
<clustering>
<clus scale="   47.354">  1  6  2 -1</clus>
<clus scale="   44.389">  1  5  2 -1</clus>
<clus scale="   69.190">  1  3  2 -1</clus>
<clus scale="   69.190">  2  3  1 -1</clus>
</clustering>
</event>
<event>
 6    0  0.4340992E+002  0.7816068E+02  0.7546771E-02  0.1334354E+00
         21   -1    0    0  505  502  0.00000000000E+00  0.00000000000E+00  0.19398797781E+02  0.19398797781E+02  0.00000000000E+00 0. -1.
          2   -1    0    0  504    0 -0.00000000000E+00 -0.00000000000E+00 -0.16247497691E+04  0.16247497691E+04  0.00000000000E+00 0.  1.
         21    1    1    2  503  501 -0.46956716337E+02  0.34199231378E+02 -0.28654658197E+03  0.29237555348E+03  0.00000000000E+00 0. -1.
         21    1    1    2  504  502  0.47395747369E+02 -0.88880509322E+01 -0.10910952473E+03  0.11929058095E+03  0.00000000000E+00 0.  1.
         21    1    1    2  505  503 -0.69653804158E+02  0.35380603040E+02 -0.15306117457E+03  0.17184633445E+03  0.00000000000E+00 0. -1.
          2    1    1    2  501    0  0.69214773126E+02 -0.60691783486E+02 -0.10566336901E+04  0.10606360980E+04  0.00000000000E+00 0.  1.
<scales pt_clust_3="14000.00000" pt_clust_4="48.22193" pt_clust_5="48.56327" pt_clust_6="78.16068"></scales>
<clustering>
<clus scale="   48.222">  1  4  2 -1</clus>
<clus scale="   48.563">  1  5  2 -1</clus>
<clus scale="   78.161">  2  6  1 -1</clus>
<clus scale="   48.222">  1  3  2 -1</clus>
</clustering>
</event>
<event>
 6    0  0.4340992E+002  0.1148690E+03  0.7546771E-02  0.1251810E+00
         21   -1    0    0  505  502  0.00000000000E+00  0.00000000000E+00  0.25094909058E+03  0.25094909058E+03  0.00000000000E+00 0. -1.
          2   -1    0    0  503    0 -0.00000000000E+00 -0.00000000000E+00 -0.79606069112E+03  0.79606069112E+03  0.00000000000E+00 0. -1.
         21    1    1    2  503  504 -0.45353998894E+01  0.43943944246E+02 -0.58892320908E+02  0.73620279475E+02  0.00000000000E+00 0. -1.
         21    1    1    2  504  502 -0.12189573913E+03  0.65015938891E+02  0.94877256386E+02  0.16759277224E+03  0.00000000000E+00 0. -1.
         21    1    1    2  505  501  0.39261061802E+02 -0.10359982986E+03  0.81456860346E+02  0.13751209335E+03  0.00000000000E+00 0. -1.
          2    1    1    2  501    0  0.87170077218E+02 -0.53600532818E+01 -0.66255339637E+03  0.66828463664E+03  0.00000000000E+00 0. -1.
<scales pt_clust_3="44.17737" pt_clust_4="114.86898" pt_clust_5="14000.00000" pt_clust_6="89.99643"></scales>
<clustering>
<clus scale="   44.177">  2  3  1 -1</clus>
<clus scale="   89.996">  2  6  1 -1</clus>
<clus scale="  114.869">  2  4  1 -1</clus>
<clus scale="  114.869">  1  3  2 -1</clus>
</clustering>
</event>
<event>
 6    0  0.4340992E+002  0.6619777E+02  0.7546771E-02  0.1373522E+00
          2   -1    0    0  503    0 -0.00000000000E+00  0.00000000000E+00  0.10695326852E+04  0.10695326852E+04  0.00000000000E+00 0.  1.
         21   -1    0    0  505  502  0.00000000000E+00 -0.00000000000E+00 -0.29417358436E+03  0.29417358436E+03  0.00000000000E+00 0. -1.
         21    1    1    2  503  502  0.14674130312E+02  0.53543209731E+02  0.71797252632E+02  0.90758200148E+02  0.00000000000E+00 0. -1.
         21    1    1    2  504  501 -0.38953395674E+02 -0.11976319094E+03 -0.28900865159E+02  0.12921241792E+03  0.00000000000E+00 0. -1.
         21    1    1    2  505  504 -0.23727545554E+02  0.21578662760E+02 -0.20323209968E+03  0.20574722706E+03  0.00000000000E+00 0. -1.
          2    1    1    2  501    0  0.48006810916E+02  0.44641318451E+02  0.93569481304E+03  0.93798842443E+03  0.00000000000E+00 0.  1.
<scales pt_clust_3="57.13458" pt_clust_4="66.19777" pt_clust_5="32.07234" pt_clust_6="14000.00000"></scales>
<clustering>
<clus scale="   32.072">  2  5  1 -1</clus>
<clus scale="   57.135">  2  3  1 -1</clus>
<clus scale="   66.198">  2  4  1 -1</clus>
<clus scale="   32.072">  2  3  1 -1</clus>
</clustering>
</event>
<event>
 6    0  0.4340992E+002  0.9309917E+02  0.7546771E-02  0.1295516E+00
         21   -1    0    0  504  502  0.00000000000E+00  0.00000000000E+00  0.22923706455E+03  0.22923706455E+03  0.00000000000E+00 0.  1.
          2   -1    0    0  505    0 -0.00000000000E+00 -0.00000000000E+00 -0.29946084520E+03  0.29946084520E+03  0.00000000000E+00 0.  1.
         21    1    1    2  503  502  0.28551155889E+02 -0.11400277979E+02  0.90266332389E+02  0.95357986574E+02  0.00000000000E+00 0.  1.
         21    1    1    2  504  501 -0.42694848473E+02  0.10540091549E+03  0.91338430374E+02  0.14585921958E+03  0.00000000000E+00 0.  1.
         21    1    1    2  505  503 -0.40311407401E+02 -0.45225980582E+02 -0.76951971853E+02  0.97938781176E+02  0.00000000000E+00 0.  1.
          2    1    1    2  501    0  0.54455099985E+02 -0.48774656932E+02 -0.17487657156E+03  0.18954192242E+03  0.00000000000E+00 0.  1.
<scales pt_clust_3="30.74305" pt_clust_4="14000.00000" pt_clust_5="59.81849" pt_clust_6="93.09917"></scales>
<clustering>
<clus scale="   30.743">  1  3  2 -1</clus>
<clus scale="   59.818">  2  5  1 -1</clus>
<clus scale="   93.099">  2  6  1 -1</clus>
<clus scale="   30.743">  1  3  2 -1</clus>
</clustering>
</event>
<event>
 6    0  0.4340992E+002  0.1021226E+03  0.7546771E-02  0.1275895E+00
         21   -1    0    0  504  502  0.00000000000E+00  0.00000000000E+00  0.16531231950E+04  0.16531231950E+04  0.00000000000E+00 0.  1.
          2   -1    0    0  502    0 -0.00000000000E+00 -0.00000000000E+00 -0.12542501694E+04  0.12542501694E+04  0.00000000000E+00 0. -1.
         21    1    1    2  503  501  0.18491541018E+02  0.33714756397E+02 -0.56635368542E+03  0.56765757185E+03  0.00000000000E+00 0. -1.
         21    1    1    2  504  505  0.14529020938E+02  0.45518229748E+02  0.93979494055E+03  0.94100878422E+03  0.00000000000E+00 0.  1.
         21    1    1    2  505  503 -0.12917811273E+02 -0.13835991916E+03  0.70384185834E+03  0.71742853208E+03  0.00000000000E+00 0.  1.
          2    1    1    2  501    0 -0.20102750684E+02  0.59126933016E+02 -0.67841008789E+03  0.68127847621E+03  0.00000000000E+00 0. -1.
<scales pt_clust_3="33.12655" pt_clust_4="47.78077" pt_clust_5="92.98815" pt_clust_6="33.12655"></scales>
<clustering>
<clus scale="   33.127">  3  6 -1 -1</clus>
<clus scale="   47.781">  1  4  2 -1</clus>
<clus scale="   92.988">  1  5  2 -1</clus>
<clus scale="   47.781">  1  3  2 -1</clus>
</clustering>
</event>
<event>
 6    0  0.4340992E+002  0.8096341E+02  0.7546771E-02  0.1326339E+00
          2   -1    0    0  505    0 -0.00000000000E+00  0.00000000000E+00  0.39270433331E+04  0.39270433331E+04  0.00000000000E+00 0.  1.
         21   -1    0    0  504  502  0.00000000000E+00 -0.00000000000E+00 -0.23047793622E+02  0.23047793622E+02  0.00000000000E+00 0. -1.
         21    1    1    2  503  501  0.66379972067E+02 -0.32735139828E+02  0.14695262749E+04  0.14713889230E+04  0.00000000000E+00 0.  1.
         21    1    1    2  504  503  0.12731873890E+02  0.81338082438E+02  0.99108642594E+02  0.12884295597E+03  0.00000000000E+00 0. -1.
         21    1    1    2  505  502 -0.34540498723E+02  0.17663188734E+01  0.37497598650E+02  0.51012114629E+02  0.00000000000E+00 0. -1.
          2    1    1    2  501    0 -0.44571347235E+02 -0.50369261483E+02  0.22978630233E+04  0.22988471331E+04  0.00000000000E+00 0.  1.
<scales pt_clust_3="14000.00000" pt_clust_4="80.96341" pt_clust_5="34.58563" pt_clust_6="67.91455"></scales>
<clustering>
<clus scale="   34.586">  2  5  1 -1</clus>
<clus scale="   67.915">  1  6  2 -1</clus>
<clus scale="   80.963">  2  4  1 -1</clus>
<clus scale="   34.586">  2  3  1 -1</clus>
</clustering>
</event>
<event>
 6    0  0.4340992E+002  0.8174148E+02  0.7546771E-02  0.1324181E+00
          2   -1    0    0  503    0 -0.00000000000E+00  0.00000000000E+00  0.60819710868E+03  0.60819710868E+03  0.00000000000E+00 0. -1.
         21   -1    0    0  504  502  0.00000000000E+00 -0.00000000000E+00 -0.12651325168E+03  0.12651325168E+03  0.00000000000E+00 0. -1.
         21    1    1    2  503  505 -0.26656389799E+02 -0.10893085975E+03 -0.45509119844E+02  0.12102716766E+03  0.00000000000E+00 0. -1.
         21    1    1    2  504  501  0.71747945703E+02  0.31330814853E+02  0.38332284576E+02  0.87170819159E+02  0.00000000000E+00 0. -1.
         21    1    1    2  505  502 -0.57435596579E+02 -0.19028844327E+01  0.38852297093E+02  0.69368362479E+02  0.00000000000E+00 0.  1.
          2    1    1    2  501    0  0.12344040674E+02  0.79502929334E+02  0.45000839518E+03  0.45714401105E+03  0.00000000000E+00 0. -1.
<scales pt_clust_3="14000.00000" pt_clust_4="66.73333" pt_clust_5="57.46711" pt_clust_6="81.74148"></scales>
<clustering>
<clus scale="   57.467">  2  5  1 -1</clus>
<clus scale="   66.733">  2  4  1 -1</clus>
<clus scale="   81.741">  1  6  2 -1</clus>
<clus scale="   57.467">  2  3  1 -1</clus>
</clustering>
</event>
<event>
 6    0  0.4340992E+002  0.8266713E+02  0.7546771E-02  0.1321648E+00
          1   -1    0    0  504    0 -0.00000000000E+00  0.00000000000E+00  0.14295647385E+04  0.14295647385E+04  0.00000000000E+00 0.  1.
         21   -1    0    0  503  502  0.00000000000E+00 -0.00000000000E+00 -0.72021236166E+02  0.72021236166E+02  0.00000000000E+00 0.  1.
         21    1    1    2  503  505  0.33601754857E+02 -0.61963859292E+01 -0.58524569042E+02  0.67768711879E+02  0.00000000000E+00 0.  1.
         21    1    1    2  504  502  0.56141583993E+02 -0.36214383150E+02  0.50218482211E+03  0.50660927208E+03  0.00000000000E+00 0.  1.
         21    1    1    2  505  501 -0.11159470680E+03  0.10252904563E+02  0.55329519325E+03  0.56452995625E+03  0.00000000000E+00 0.  1.
          1    1    1    2  501    0  0.21851367949E+02  0.32157864517E+02  0.36058805600E+03  0.36267803443E+03  0.00000000000E+00 0.  1.
<scales pt_clust_3="34.16831" pt_clust_4="14000.00000" pt_clust_5="82.66713" pt_clust_6="40.66678"></scales>
<clustering>
<clus scale="   34.168">  2  3  1 -1</clus>
<clus scale="   40.667">  1  6  2 -1</clus>
<clus scale="   82.667">  2  5  1 -1</clus>
<clus scale="   34.168">  2  3  1 -1</clus>
</clustering>
</event>
<event>
 6    0  0.4340992E+002  0.1007400E+03  0.7546771E-02  0.1278748E+00
          2   -1    0    0  503    0 -0.00000000000E+00  0.00000000000E+00  0.33655317923E+04  0.33655317923E+04  0.00000000000E+00 0. -1.
         21   -1    0    0  504  502  0.00000000000E+00 -0.00000000000E+00 -0.18133101936E+02  0.18133101936E+02  0.00000000000E+00 0. -1.
         21    1    1    2  503  505 -0.41791392128E+02 -0.61175691615E+01  0.63271588219E+03  0.63412406726E+03  0.00000000000E+00 0. -1.
         21    1    1    2  504  501 -0.25395881964E+02  0.13135699501E+03  0.94061775271E+03  0.95008492656E+03  0.00000000000E+00 0. -1.
         21    1    1    2  505  502  0.74284610684E+02 -0.64678374048E+02  0.18817684538E+03  0.21239590530E+03  0.00000000000E+00 0. -1.
          2    1    1    2  501    0 -0.70973365922E+01 -0.60561051800E+02  0.15858882101E+04  0.15870599952E+04  0.00000000000E+00 0. -1.
<scales pt_clust_3="42.23677" pt_clust_4="14000.00000" pt_clust_5="100.73997" pt_clust_6="71.37413"></scales>
<clustering>
<clus scale="   42.237">  1  3  2 -1</clus>
<clus scale="   71.374">  1  6  2 -1</clus>
<clus scale="  100.740">  2  5  1 -1</clus>
<clus scale="  100.740">  2  3  1 -1</clus>
</clustering>
</event>
<event>
 6    0  0.4340992E+002  0.9941900E+02  0.7546771E-02  0.1281522E+00
          2   -1    0    0  504    0 -0.00000000000E+00  0.00000000000E+00  0.22115559644E+04  0.22115559644E+04  0.00000000000E+00 0. -1.
         21   -1    0    0  503  502  0.00000000000E+00 -0.00000000000E+00 -0.96756052321E+02  0.96756052321E+02  0.00000000000E+00 0.  1.
         21    1    1    2  503  501 -0.47651970762E+02 -0.71061815917E+02  0.25737609097E+03  0.27122489599E+03  0.00000000000E+00 0.  1.
         21    1    1    2  504  505  0.53521291730E+02 -0.15200384430E+02  0.29806793014E+03  0.30321621218E+03  0.00000000000E+00 0. -1.
         21    1    1    2  505  502 -0.48642097842E+02 -0.72903820881E+01 -0.78582220596E+02  0.92705818303E+02  0.00000000000E+00 0.  1.
          2    1    1    2  501    0  0.42772776874E+02  0.93552582435E+02  0.16379381115E+04  0.16411650902E+04  0.00000000000E+00 0. -1.
<scales pt_clust_3="99.41900" pt_clust_4="45.50360" pt_clust_5="49.18540" pt_clust_6="14000.00000"></scales>
<clustering>
<clus scale="   49.185">  2  5  1 -1</clus>
<clus scale="   45.504">  2  4  1 -1</clus>
<clus scale="   99.419">  2  3  1 -1</clus>
<clus scale="   49.185">  2  3  1 -1</clus>
</clustering>
</event>
<event>
 6    0  0.4340992E+002  0.1475076E+03  0.7546771E-02  0.1203570E+00
          1   -1    0    0  504    0 -0.00000000000E+00  0.00000000000E+00  0.10635748662E+04  0.10635748662E+04  0.00000000000E+00 0.  1.
         21   -1    0    0  503  502  0.00000000000E+00 -0.00000000000E+00 -0.28215910562E+03  0.28215910562E+03  0.00000000000E+00 0. -1.
         21    1    1    2  503  501  0.18118191682E+03 -0.23934732200E+02  0.12659015408E+03  0.22231694829E+03  0.00000000000E+00 0. -1.
         21    1    1    2  504  505 -0.26890151326E+02  0.26040632641E+02  0.36736556803E+02  0.52447777765E+02  0.00000000000E+00 0. -1.
         21    1    1    2  505  502 -0.14397555947E+02  0.33787472561E+02 -0.21872317054E+03  0.22178527510E+03  0.00000000000E+00 0. -1.
          1    1    1    2  501    0 -0.13989420955E+03 -0.35893373003E+02  0.83681222023E+03  0.84918397066E+03  0.00000000000E+00 0.  1.
<scales pt_clust_3="147.50759" pt_clust_4="41.76692" pt_clust_5="36.72714" pt_clust_6="14000.00000"></scales>
<clustering>
<clus scale="   36.727">  2  5  1 -1</clus>
<clus scale="   41.767">  2  4  1 -1</clus>
<clus scale="  147.508">  2  3  1 -1</clus>
<clus scale="   36.727">  2  3  1 -1</clus>
</clustering>
</event>
<event>
 6    0  0.4340992E+002  0.6460825E+02  0.7546771E-02  0.1379451E+00
          1   -1    0    0  503    0 -0.00000000000E+00  0.00000000000E+00  0.63328194750E+03  0.63328194750E+03  0.00000000000E+00 0. -1.
         21   -1    0    0  505  502  0.00000000000E+00 -0.00000000000E+00 -0.50386335410E+02  0.50386335410E+02  0.00000000000E+00 0. -1.
         21    1    1    2  503  502  0.89637123767E+01 -0.42022114626E+02  0.14782027596E+03  0.15393843004E+03  0.00000000000E+00 0. -1.
         21    1    1    2  504  501 -0.63389530326E+02 -0.65111248785E+02  0.52986856588E+02  0.10519179742E+03  0.00000000000E+00 0. -1.
         21    1    1    2  505  504  0.30573786791E+02  0.42370193127E+02  0.20024714349E+02  0.55955150694E+02  0.00000000000E+00 0. -1.
          1    1    1    2  501    0  0.23852031158E+02  0.64763170283E+02  0.36206376519E+03  0.36858290475E+03  0.00000000000E+00 0. -1.
<scales pt_clust_3="42.96750" pt_clust_4="14000.00000" pt_clust_5="64.60825" pt_clust_6="44.98730"></scales>
<clustering>
<clus scale="   42.968">  1  3  2 -1</clus>
<clus scale="   44.987">  1  6  2 -1</clus>
<clus scale="   64.608">  2  5  1 -1</clus>
<clus scale="   64.608">  2  3  1 -1</clus>
</clustering>
</event>
<event>
 6    0  0.4340992E+002  0.8776461E+02  0.7546771E-02  0.1308357E+00
         21   -1    0    0  505  502  0.00000000000E+00  0.00000000000E+00  0.15711255195E+03  0.15711255195E+03  0.00000000000E+00 0. -1.
          1   -1    0    0  503    0 -0.00000000000E+00 -0.00000000000E+00 -0.27119221473E+04  0.27119221473E+04  0.00000000000E+00 0. -1.
         21    1    1    2  503  504  0.71540570150E+02  0.39729621688E+02 -0.19393697906E+04  0.19410954847E+04  0.00000000000E+00 0. -1.
         21    1    1    2  504  502 -0.42657438841E+02  0.15951598881E+02  0.12749168571E+03  0.13538183231E+03  0.00000000000E+00 0. -1.
         21    1    1    2  505  501 -0.10039229313E+02 -0.87891309371E+02 -0.56183515948E+02  0.10479625877E+03  0.00000000000E+00 0.  1.
          1    1    1    2  501    0 -0.18843901996E+02  0.32210088802E+02 -0.68674797447E+03  0.68776112343E+03  0.00000000000E+00 0. -1.
<scales pt_clust_3="14000.00000" pt_clust_4="45.59880" pt_clust_5="87.76461" pt_clust_6="37.31732"></scales>
<clustering>
<clus scale="   37.317">  2  6  1 -1</clus>
<clus scale="   45.599">  1  4  2 -1</clus>
<clus scale="   87.765">  1  5  2 -1</clus>
<clus scale="   45.599">  1  3  2 -1</clus>
</clustering>
</event>
<event>
 6    0  0.4340992E+002  0.8280518E+02  0.7546771E-02  0.1321274E+00
         21   -1    0    0  505  502  0.00000000000E+00  0.00000000000E+00  0.10734158681E+04  0.10734158681E+04  0.00000000000E+00 0. -1.
         -4   -1    0    0    0  501 -0.00000000000E+00 -0.00000000000E+00 -0.50164367988E+03  0.50164367988E+03  0.00000000000E+00 0. -1.
         21    1    1    2  503  504  0.11141546174E+03 -0.73498545199E+02  0.47015651085E+03  0.48873570153E+03  0.00000000000E+00 0. -1.
         21    1    1    2  504  501 -0.19646794572E+02  0.32325663906E+02 -0.22461724427E+03  0.22778027023E+03  0.00000000000E+00 0. -1.
         21    1    1    2  505  503 -0.55356256277E+02  0.44793490664E+02  0.58897577437E+03  0.59326489422E+03  0.00000000000E+00 0. -1.
         -4    1    1    2    0  502 -0.36412410891E+02 -0.36206093709E+01 -0.26274285272E+03  0.26527868202E+03  0.00000000000E+00 0. -1.
<scales pt_clust_3="82.80518" pt_clust_4="61.50837" pt_clust_5="14000.00000" pt_clust_6="36.59197"></scales>
<clustering>
<clus scale="   36.592">  2  6  1 -1</clus>
<clus scale="   61.508">  2  4  1 -1</clus>
<clus scale="   82.805">  2  3  1 -1</clus>
<clus scale="   82.805">  1  3  2 -1</clus>
</clustering>
</event>
<event>
 6    0  0.4340992E+002  0.1443695E+03  0.7546771E-02  0.1207568E+00
          2   -1    0    0  504    0 -0.00000000000E+00  0.00000000000E+00  0.74498077207E+03  0.74498077207E+03  0.00000000000E+00 0. -1.
         21   -1    0    0  505  502  0.00000000000E+00 -0.00000000000E+00 -0.14377359580E+03  0.14377359580E+03  0.00000000000E+00 0. -1.
         21    1    1    2  503  502 -0.38548592504E+02  0.14073237252E+03 -0.37478965889E+01  0.14596452099E+03  0.00000000000E+00 0.  1.
         21    1    1    2  504  503  0.43951403667E+02 -0.11296722587E+02  0.64075575159E+02  0.78517648700E+02  0.00000000000E+00 0.  1.
         21    1    1    2  505  501 -0.68435094930E+02 -0.30807177219E+02 -0.30512061788E+02  0.81015000467E+02  0.00000000000E+00 0. -1.
          2    1    1    2  501    0  0.63032283766E+02 -0.98628472717E+02  0.57139155949E+03  0.58325719771E+03  0.00000000000E+00 0. -1.
<scales pt_clust_3="14000.00000" pt_clust_4="45.37997" pt_clust_5="73.72886" pt_clust_6="144.36950"></scales>
<clustering>
<clus scale="   45.380">  1  4  2 -1</clus>
<clus scale="   73.729">  2  5  1 -1</clus>
<clus scale="  144.370">  1  6  2 -1</clus>
<clus scale="   73.729">  2  3  1 -1</clus>
</clustering>
</event>
<event>
 6    0  0.4340992E+002  0.1349162E+03  0.7546771E-02  0.1220338E+00
          3   -1    0    0  505    0 -0.00000000000E+00  0.00000000000E+00  0.12064449749E+03  0.12064449749E+03  0.00000000000E+00 0. -1.
         21   -1    0    0  501  502  0.00000000000E+00 -0.00000000000E+00 -0.24462559686E+04  0.24462559686E+04  0.00000000000E+00 0.  1.
         21    1    1    2  503  504 -0.90449807848E+02  0.26186282796E+02 -0.50357426701E+02  0.10678370461E+03  0.00000000000E+00 0.  1.
         21    1    1    2  504  502  0.67833476799E+02 -0.11851700748E+03 -0.23110017616E+04  0.23150327868E+04  0.00000000000E+00 0.  1.
         21    1    1    2  505  503  0.29448259166E+02  0.18245454417E+02 -0.29976740594E+02  0.45811587524E+02  0.00000000000E+00 0. -1.
          3    1    1    2  501    0 -0.68319281177E+01  0.74085270267E+02  0.65724457779E+02  0.99272387211E+02  0.00000000000E+00 0. -1.
<scales pt_clust_3="88.58861" pt_clust_4="14000.00000" pt_clust_5="34.64241" pt_clust_6="134.91615"></scales>
<clustering>
<clus scale="   34.642">  1  5  2 -1</clus>
<clus scale="   88.589">  1  3  2 -1</clus>
<clus scale="  134.916">  1  6  2 -1</clus>
<clus scale="  134.916">  2  3  1 -1</clus>
</clustering>
</event>
<event>
 6    0  0.4340992E+002  0.1777551E+03  0.7546771E-02  0.1169994E+00
         -1   -1    0    0    0  501 -0.00000000000E+00  0.00000000000E+00  0.70632365849E+03  0.70632365849E+03  0.00000000000E+00 0. -1.
         21   -1    0    0  504  502  0.00000000000E+00 -0.00000000000E+00 -0.76442609453E+02  0.76442609453E+02  0.00000000000E+00 0.  1.
         21    1    1    2  503  502  0.10015099716E+03 -0.51969424982E+02  0.35749800575E+03  0.37488113780E+03  0.00000000000E+00 0. -1.
         21    1    1    2  504  505  0.65393494652E+01  0.47354799848E+02  0.60113750586E+01  0.48180668220E+02  0.00000000000E+00 0.  1.
         21    1    1    2  505  501 -0.12160351377E+03  0.74155417568E+02  0.87373933104E+02  0.16709471776E+03  0.00000000000E+00 0.  1.
         -1    1    1    2    0  503  0.14913167147E+02 -0.69540792435E+02  0.17899773513E+03  0.19260974416E+03  0.00000000000E+00 0. -1.
<scales pt_clust_3="60.73688" pt_clust_4="47.80419" pt_clust_5="159.32092" pt_clust_6="60.73688"></scales>
<clustering>
<clus scale="   47.804">  2  4  1 -1</clus>
<clus scale="   60.737">  3  6 -1 -1</clus>
<clus scale="  159.321">  2  5  1 -1</clus>
<clus scale="   47.804">  2  3  1 -1</clus>
</clustering>
</event>
<event>
 6    0  0.4340992E+002  0.1310774E+03  0.7546771E-02  0.1225866E+00
         21   -1    0    0  503  502  0.00000000000E+00  0.00000000000E+00  0.22129785893E+03  0.22129785893E+03  0.00000000000E+00 0.  1.
         -3   -1    0    0    0  501 -0.00000000000E+00 -0.00000000000E+00 -0.28643393618E+03  0.28643393618E+03  0.00000000000E+00 0. -1.
         21    1    1    2  503  504 -0.14087342044E+02  0.39546641662E+02  0.25711038875E+02  0.49228524177E+02  0.00000000000E+00 0.  1.
         21    1    1    2  504  501  0.14154714798E+02  0.51936018981E+02  0.68689392343E+00  0.53834727099E+02  0.00000000000E+00 0.  1.
         21    1    1    2  505  502 -0.13131318201E+02  0.42596655977E+02  0.13441208616E+03  0.14161043579E+03  0.00000000000E+00 0.  1.
         -3    1    1    2    0  505  0.13063945447E+02 -0.13407931662E+03 -0.22594609621E+03  0.26305810805E+03  0.00000000000E+00 0. -1.
<scales pt_clust_3="34.83621" pt_clust_4="34.83621" pt_clust_5="44.57473" pt_clust_6="125.00073"></scales>
<clustering>
<clus scale="   34.836">  3  4 -1 -1</clus>
<clus scale="   44.575">  1  5  2 -1</clus>
<clus scale="  125.001">  2  6  1 -1</clus>
<clus scale="   44.575">  1  3  2 -1</clus>
</clustering>
</event>
<event>
 6    0  0.4340992E+002  0.1034893E+03  0.7546771E-02  0.1273125E+00
         21   -1    0    0  505  502  0.00000000000E+00  0.00000000000E+00  0.33521954333E+02  0.33521954333E+02  0.00000000000E+00 0.  1.
          2   -1    0    0  503    0 -0.00000000000E+00 -0.00000000000E+00 -0.10382911561E+04  0.10382911561E+04  0.00000000000E+00 0. -1.
         21    1    1    2  503  502  0.11486111372E+03  0.55742234902E+02 -0.12880074737E+03  0.18135574079E+03  0.00000000000E+00 0.  1.
         21    1    1    2  504  501 -0.31895789122E+02 -0.38651737148E+02 -0.29015670675E+03  0.29445239448E+03  0.00000000000E+00 0.  1.
         21    1    1    2  505  504 -0.40961988285E+02  0.10339146982E+01 -0.10035874956E+03  0.10840125496E+03  0.00000000000E+00 0. -1.
          2    1    1    2  501    0 -0.42003336313E+02 -0.18124412453E+02 -0.48545299812E+03  0.48760372022E+03  0.00000000000E+00 0. -1.
<scales pt_clust_3="96.71241" pt_clust_4="35.19285" pt_clust_5="40.97503" pt_clust_6="35.19285"></scales>
<clustering>
<clus scale="   35.193">  4  6 -1 -1</clus>
<clus scale="   40.975">  1  5  2 -1</clus>
<clus scale="   96.712">  1  3  2 -1</clus>
<clus scale="   40.975">  1  3  2 -1</clus>
</clustering>
</event>
<event>
 6    0  0.4340992E+002  0.1253963E+03  0.7546771E-02  0.1234451E+00
          2   -1    0    0  505    0 -0.00000000000E+00  0.00000000000E+00  0.66223742564E+03  0.66223742564E+03  0.00000000000E+00 0.  1.
         21   -1    0    0  503  502  0.00000000000E+00 -0.00000000000E+00 -0.16473567062E+03  0.16473567062E+03  0.00000000000E+00 0. -1.
         21    1    1    2  503  501 -0.11316244037E-01  0.10601251333E+03 -0.66397401939E+02  0.12508904067E+03  0.00000000000E+00 0. -1.
         21    1    1    2  504  502 -0.21120450982E+02  0.23680970454E+02 -0.56153924450E+02  0.64499031330E+02  0.00000000000E+00 0. -1.
         21    1    1    2  505  504  0.51142521347E+01 -0.44791850764E+02  0.93624682912E+02  0.10391365031E+03  0.00000000000E+00 0. -1.
          2    1    1    2  501    0  0.16017515091E+02 -0.84901633019E+02  0.52642839850E+03  0.53347137395E+03  0.00000000000E+00 0.  1.
<scales pt_clust_3="14000.00000" pt_clust_4="31.73109" pt_clust_5="43.81481" pt_clust_6="125.39635"></scales>
<clustering>
<clus scale="   31.731">  2  4  1 -1</clus>
<clus scale="   43.815">  1  5  2 -1</clus>
<clus scale="  125.396">  1  6  2 -1</clus>
<clus scale="   31.731">  2  3  1 -1</clus>
</clustering>
</event>
<event>
 6    0  0.4340992E+002  0.1632679E+03  0.7546771E-02  0.1185056E+00
         21   -1    0    0  505  502  0.00000000000E+00  0.00000000000E+00  0.19535491174E+03  0.19535491174E+03  0.00000000000E+00 0.  1.
          1   -1    0    0  502    0 -0.00000000000E+00 -0.00000000000E+00 -0.39494131596E+03  0.39494131596E+03  0.00000000000E+00 0.  1.
         21    1    1    2  503  504  0.13184197923E+03 -0.35940287047E+02  0.11101381687E+03  0.17606271399E+03  0.00000000000E+00 0.  1.
         21    1    1    2  504  501 -0.48159981923E+02  0.18012761851E+02 -0.65676763901E+02  0.83410315697E+02  0.00000000000E+00 0.  1.
         21    1    1    2  505  503  0.77096761556E+01 -0.43332417617E+02  0.16646367690E+02  0.47055701889E+02  0.00000000000E+00 0.  1.
          1    1    1    2  501    0 -0.91391673460E+02  0.61259942813E+02 -0.26156982488E+03  0.28376749613E+03  0.00000000000E+00 0.  1.
<scales pt_clust_3="157.11789" pt_clust_4="30.34533" pt_clust_5="44.01292" pt_clust_6="30.34533"></scales>
<clustering>
<clus scale="   30.345">  4  6 -1 -1</clus>
<clus scale="   44.013">  1  5  2 -1</clus>
<clus scale="  157.118">  1  3  2 -1</clus>
<clus scale="   44.013">  1  3  2 -1</clus>
</clustering>
</event>
<event>
 6    0  0.4340992E+002  0.6164528E+02  0.7546771E-02  0.1391054E+00
         21   -1    0    0  504  502  0.00000000000E+00  0.00000000000E+00  0.69526302364E+02  0.69526302364E+02  0.00000000000E+00 0.  1.
          1   -1    0    0  503    0 -0.00000000000E+00 -0.00000000000E+00 -0.10433793527E+04  0.10433793527E+04  0.00000000000E+00 0.  1.
         21    1    1    2  503  505 -0.21090794250E+02 -0.83553563619E+02 -0.60798403478E+03  0.61406075118E+03  0.00000000000E+00 0.  1.
         21    1    1    2  504  501  0.48023734250E+02  0.54670166884E+02  0.29614583319E+02  0.78562903101E+02  0.00000000000E+00 0.  1.
         21    1    1    2  505  502 -0.59555961704E+02  0.34865720474E+01 -0.69098902007E+02  0.91289249190E+02  0.00000000000E+00 0.  1.
          1    1    1    2  501    0  0.32623021704E+02  0.25396824687E+02 -0.32638469685E+03  0.32899275157E+03  0.00000000000E+00 0.  1.
<scales pt_clust_3="61.64528" pt_clust_4="14000.00000" pt_clust_5="56.25802" pt_clust_6="41.34320"></scales>
<clustering>
<clus scale="   41.343">  2  6  1 -1</clus>
<clus scale="   56.258">  1  5  2 -1</clus>
<clus scale="   61.645">  2  3  1 -1</clus>
<clus scale="   56.258">  1  3  2 -1</clus>
</clustering>
</event>
<event>
 6    0  0.5002302E+002  0.1725859E+03  0.7546771E-02  0.1175178E+00
         -1   -1    0    0    0  501 -0.00000000000E+00  0.00000000000E+00  0.12674713168E+04  0.12674713168E+04  0.00000000000E+00 0.  1.
         21   -1    0    0  503  502  0.00000000000E+00 -0.00000000000E+00 -0.45713194751E+03  0.45713194751E+03  0.00000000000E+00 0. -1.
         21    1    1    2  503  504  0.52488245184E+02 -0.16647960686E+03 -0.41614096356E+03  0.45126907376E+03  0.00000000000E+00 0. -1.
         21    1    1    2  504  505  0.25436464297E+01  0.59668696165E+02  0.28480099182E+02  0.66165999491E+02  0.00000000000E+00 0.  1.
         21    1    1    2  505  501 -0.15213272783E+02  0.53576708100E+02  0.22103634204E+03  0.22794510704E+03  0.00000000000E+00 0.  1.
         -1    1    1    2    0  502 -0.39818618831E+02  0.53234202600E+02  0.97696389164E+03  0.97922308404E+03  0.00000000000E+00 0.  1.
<scales pt_clust_3="14000.00000" pt_clust_4="62.12728" pt_clust_5="55.69477" pt_clust_6="172.58590"></scales>
<clustering>
<clus scale="   55.695">  1  5  2 -1</clus>
<clus scale="   62.127">  1  4  2 -1</clus>
<clus scale="  172.586">  1  6  2 -1</clus>
<clus scale="  172.586">  2  3  1 -1</clus>
</clustering>
</event>
<event>
 6    0  0.4340992E+002  0.9572401E+02  0.7546771E-02  0.1289554E+00
          2   -1    0    0  505    0 -0.00000000000E+00  0.00000000000E+00  0.28326336337E+04  0.28326336337E+04  0.00000000000E+00 0. -1.
         21   -1    0    0  503  502  0.00000000000E+00 -0.00000000000E+00 -0.11534107672E+03  0.11534107672E+03  0.00000000000E+00 0. -1.
         21    1    1    2  503  501  0.10574032990E+03  0.71473815712E+02 -0.63372258679E+02  0.14249760303E+03  0.00000000000E+00 0. -1.
         21    1    1    2  504  502 -0.67020250690E+02  0.17339223011E+02  0.97524311439E+02  0.11959663030E+03  0.00000000000E+00 0. -1.
         21    1    1    2  505  504 -0.36718597740E+02 -0.57296706456E+01  0.67692746176E+03  0.67794680693E+03  0.00000000000E+00 0. -1.
          2    1    1    2  501    0 -0.20014814683E+01 -0.83083368078E+02  0.20062130424E+04  0.20079336701E+04  0.00000000000E+00 0. -1.
<scales pt_clust_3="14000.00000" pt_clust_4="70.94911" pt_clust_5="37.16295" pt_clust_6="95.72401"></scales>
<clustering>
<clus scale="   37.163">  1  5  2 -1</clus>
<clus scale="   70.949">  2  4  1 -1</clus>
<clus scale="   95.724">  1  6  2 -1</clus>
<clus scale="   70.949">  2  3  1 -1</clus>
</clustering>
</event>
<event>
 6    0  0.4340992E+002  0.1299561E+03  0.7546771E-02  0.1227521E+00
         21   -1    0    0  503  502  0.00000000000E+00  0.00000000000E+00  0.10740431343E+04  0.10740431343E+04  0.00000000000E+00 0.  1.
          2   -1    0    0  505    0 -0.00000000000E+00 -0.00000000000E+00 -0.71028933111E+02  0.71028933111E+02  0.00000000000E+00 0. -1.
         21    1    1    2  503  501  0.31776083001E+02 -0.45552262415E+02  0.12203395848E+03  0.13407839157E+03  0.00000000000E+00 0.  1.
         21    1    1    2  504  502  0.18161189815E+02 -0.87989959325E+02  0.83512415824E+03  0.83994310607E+03  0.00000000000E+00 0.  1.
         21    1    1    2  505  504 -0.40215744320E+02  0.26068475946E+02  0.40931284690E+02  0.63025721699E+02  0.00000000000E+00 0.  1.
          2    1    1    2  501    0 -0.97215284956E+01  0.10747374579E+03  0.49247997868E+01  0.10802484809E+03  0.00000000000E+00 0. -1.
<scales pt_clust_3="51.11584" pt_clust_4="129.95609" pt_clust_5="47.92569" pt_clust_6="14000.00000"></scales>
<clustering>
<clus scale="   47.926">  2  5  1 -1</clus>
<clus scale="   51.116">  1  3  2 -1</clus>
<clus scale="  129.956">  1  4  2 -1</clus>
<clus scale="   51.116">  1  3  2 -1</clus>
</clustering>
</event>
<event>
 6    0  0.4340992E+002  0.1469297E+03  0.7546771E-02  0.1204297E+00
         21   -1    0    0  503  502  0.00000000000E+00  0.00000000000E+00  0.16520702170E+04  0.16520702170E+04  0.00000000000E+00 0.  1.
         -2   -1    0    0    0  501 -0.00000000000E+00 -0.00000000000E+00 -0.81928414733E+02  0.81928414733E+02  0.00000000000E+00 0. -1.
         21    1    1    2  503  505  0.11846438429E+03  0.49704930776E+02  0.77618173617E+03  0.78674168445E+03  0.00000000000E+00 0.  1.
         21    1    1    2  504  502  0.23902012431E+02  0.19815583130E+02  0.74816130660E+03  0.74880525121E+03  0.00000000000E+00 0.  1.
         21    1    1    2  505  501 -0.50786838434E+02 -0.47727520153E+02  0.72535734898E+02  0.10059151045E+03  0.00000000000E+00 0. -1.
         -2    1    1    2    0  504 -0.91579558288E+02 -0.21792993753E+02 -0.26736975419E+02  0.97860185609E+02  0.00000000000E+00 0. -1.
<scales pt_clust_3="146.92966" pt_clust_4="31.04776" pt_clust_5="66.72538" pt_clust_6="14000.00000"></scales>
<clustering>
<clus scale="   31.048">  1  4  2 -1</clus>
<clus scale="   66.725">  2  5  1 -1</clus>
<clus scale="  146.930">  1  3  2 -1</clus>
<clus scale="   31.048">  1  3  2 -1</clus>
</clustering>
</event>
<event>
 6    0  0.4340992E+002  0.6637564E+02  0.7546771E-02  0.1372870E+00
          1   -1    0    0  505    0 -0.00000000000E+00  0.00000000000E+00  0.10061590573E+04  0.10061590573E+04  0.00000000000E+00 0.  1.
         21   -1    0    0  503  502  0.00000000000E+00 -0.00000000000E+00 -0.29911378918E+02  0.29911378918E+02  0.00000000000E+00 0.  1.
         21    1    1    2  503  504  0.37066068189E+02 -0.79630851413E+02  0.11676853263E+03  0.14611589961E+03  0.00000000000E+00 0.  1.
         21    1    1    2  504  501 -0.75870194691E+02 -0.19192826560E+02  0.41043959931E+03  0.41783407678E+03  0.00000000000E+00 0.  1.
         21    1    1    2  505  502  0.79088899910E+01  0.37253745300E+02  0.32927545957E+02  0.50344963626E+02  0.00000000000E+00 0.  1.
          1    1    1    2  501    0  0.30895236511E+02  0.61569932673E+02  0.41611200050E+03  0.42177549622E+03  0.00000000000E+00 0.  1.
<scales pt_clust_3="68.62434" pt_clust_4="14000.00000" pt_clust_5="38.08401" pt_clust_6="66.37564"></scales>
<clustering>
<clus scale="   38.084">  2  5  1 -1</clus>
<clus scale="   68.624">  2  3  1 -1</clus>
<clus scale="   66.376">  1  6  2 -1</clus>
<clus scale="   38.084">  2  3  1 -1</clus>
</clustering>
</event>
<event>
 6    0  0.4340992E+002  0.7613377E+02  0.7546771E-02  0.1340396E+00
         21   -1    0    0  503  502  0.00000000000E+00  0.00000000000E+00  0.18893083178E+03  0.18893083178E+03  0.00000000000E+00 0. -1.
          1   -1    0    0  504    0 -0.00000000000E+00 -0.00000000000E+00 -0.31637670758E+03  0.31637670758E+03  0.00000000000E+00 0. -1.
         21    1    1    2  503  501 -0.16450275988E+02 -0.34572395863E+02  0.60388790130E+00  0.38291341271E+02  0.00000000000E+00 0. -1.
         21    1    1    2  504  505  0.53101209025E+02  0.95214290547E+02 -0.19216366908E+03  0.22093522860E+03  0.00000000000E+00 0. -1.
         21    1    1    2  505  502  0.25624696500E+02 -0.44536518673E+02  0.13850950648E+03  0.14773290071E+03  0.00000000000E+00 0. -1.
          1    1    1    2  501    0 -0.62275629537E+02 -0.16105376011E+02 -0.74395601098E+02  0.98348068783E+02  0.00000000000E+00 0. -1.
<scales pt_clust_3="38.28658" pt_clust_4="76.13377" pt_clust_5="14000.00000" pt_clust_6="66.09410"></scales>
<clustering>
<clus scale="   38.287">  1  3  2 -1</clus>
<clus scale="   66.094">  2  6  1 -1</clus>
<clus scale="   76.134">  2  4  1 -1</clus>
<clus scale="   38.287">  1  3  2 -1</clus>
</clustering>
</event>
<event>
 6    0  0.4340992E+002  0.1292047E+03  0.7546771E-02  0.1228641E+00
         21   -1    0    0  504  502  0.00000000000E+00  0.00000000000E+00  0.14349811116E+03  0.14349811116E+03  0.00000000000E+00 0.  1.
         -2   -1    0    0    0  501 -0.00000000000E+00 -0.00000000000E+00 -0.30587166909E+03  0.30587166909E+03  0.00000000000E+00 0.  1.
         21    1    1    2  503  505  0.35530741282E+02  0.13325914695E+01 -0.17016705259E+02  0.39417986173E+02  0.00000000000E+00 0.  1.
         21    1    1    2  504  503  0.87850787846E+02  0.91926057366E+02  0.60630456326E+02  0.14086948989E+03  0.00000000000E+00 0.  1.
         21    1    1    2  505  501 -0.31056086585E+02  0.11294102687E+02 -0.31045437569E+02  0.45341553385E+02  0.00000000000E+00 0. -1.
         -2    1    1    2    0  502 -0.92325442543E+02 -0.10455275152E+03 -0.17494187143E+03  0.22374075080E+03  0.00000000000E+00 0.  1.
<scales pt_clust_3="32.35549" pt_clust_4="129.20471" pt_clust_5="33.04599" pt_clust_6="14000.00000"></scales>
<clustering>
<clus scale="   33.046">  2  5  1 -1</clus>
<clus scale="   32.355">  2  3  1 -1</clus>
<clus scale="  129.205">  1  4  2 -1</clus>
<clus scale="  129.205">  1  3  2 -1</clus>
</clustering>
</event>
<event>
 6    0  0.4340992E+002  0.8932628E+02  0.7546771E-02  0.1304491E+00
          1   -1    0    0  504    0 -0.00000000000E+00  0.00000000000E+00  0.74822850868E+03  0.74822850868E+03  0.00000000000E+00 0. -1.
         21   -1    0    0  503  502  0.00000000000E+00 -0.00000000000E+00 -0.82738327583E+03  0.82738327583E+03  0.00000000000E+00 0. -1.
         21    1    1    2  503  505  0.10720825544E+01 -0.48200772545E+02 -0.46517597063E+03  0.46766777469E+03  0.00000000000E+00 0. -1.
         21    1    1    2  504  502 -0.10904691752E+02  0.43385377907E+02  0.17121625285E+02  0.47899408877E+02  0.00000000000E+00 0. -1.
         21    1    1    2  505  501  0.49285053049E+02  0.11887142258E+03 -0.32822555446E+03  0.35254992010E+03  0.00000000000E+00 0.  1.
          1    1    1    2  501    0 -0.39452443851E+02 -0.11405602794E+03  0.69712513266E+03  0.70749468084E+03  0.00000000000E+00 0. -1.
<scales pt_clust_3="48.13677" pt_clust_4="44.73481" pt_clust_5="89.32628" pt_clust_6="14000.00000"></scales>
<clustering>
<clus scale="   44.735">  1  4  2 -1</clus>
<clus scale="   48.137">  2  3  1 -1</clus>
<clus scale="   89.326">  2  5  1 -1</clus>
<clus scale="   48.137">  2  3  1 -1</clus>
</clustering>
</event>
<event>
 6    0  0.4340992E+002  0.9216141E+02  0.7546771E-02  0.1297700E+00
         21   -1    0    0  501  502  0.00000000000E+00  0.00000000000E+00  0.51224385841E+03  0.51224385841E+03  0.00000000000E+00 0. -1.
          2   -1    0    0  503    0 -0.00000000000E+00 -0.00000000000E+00 -0.24956038836E+04  0.24956038836E+04  0.00000000000E+00 0. -1.
         21    1    1    2  503  504 -0.47467851579E+02  0.28126624212E+01 -0.55336431084E+03  0.55540360866E+03  0.00000000000E+00 0. -1.
         21    1    1    2  504  505  0.77445115156E+00 -0.61189870203E+02 -0.10129261063E+04  0.10147729287E+04  0.00000000000E+00 0. -1.
         21    1    1    2  505  502  0.72916161669E+02 -0.56372633435E+02  0.50235636021E+03  0.51074118012E+03  0.00000000000E+00 0. -1.
          2    1    1    2  501    0 -0.26222761242E+02  0.11474984122E+03 -0.91942596829E+03  0.92693002456E+03  0.00000000000E+00 0. -1.
<scales pt_clust_3="47.55111" pt_clust_4="64.36918" pt_clust_5="14000.00000" pt_clust_6="92.16141"></scales>
<clustering>
<clus scale="   47.551">  2  3  1 -1</clus>
<clus scale="   64.369">  2  4  1 -1</clus>
<clus scale="   92.161">  2  6  1 -1</clus>
<clus scale="   92.161">  1  3  2 -1</clus>
</clustering>
</event>
<event>
 6    0  0.4340992E+002  0.1886628E+03  0.7546771E-02  0.1159673E+00
         21   -1    0    0  505  502  0.00000000000E+00  0.00000000000E+00  0.26438100152E+03  0.26438100152E+03  0.00000000000E+00 0. -1.
          1   -1    0    0  503    0 -0.00000000000E+00 -0.00000000000E+00 -0.11635604376E+04  0.11635604376E+04  0.00000000000E+00 0. -1.
         21    1    1    2  503  502 -0.45048250199E+02  0.55252400495E+02  0.22023627278E+03  0.23148690774E+03  0.00000000000E+00 0. -1.
         21    1    1    2  504  501  0.71413806477E+02  0.26903641717E+02 -0.26784957614E+03  0.27850876671E+03  0.00000000000E+00 0. -1.
         21    1    1    2  505  504 -0.90067420408E+02 -0.16946464884E+03 -0.30175046214E+03  0.35760837354E+03  0.00000000000E+00 0. -1.
          1    1    1    2  501    0  0.63701864130E+02  0.87308606632E+02 -0.54981567057E+03  0.56033739113E+03  0.00000000000E+00 0. -1.
<scales pt_clust_3="71.28936" pt_clust_4="51.70212" pt_clust_5="178.34769" pt_clust_6="51.70212"></scales>
<clustering>
<clus scale="   51.702">  4  6 -1 -1</clus>
<clus scale="   71.289">  1  3  2 -1</clus>
<clus scale="  178.348">  1  5  2 -1</clus>
<clus scale="   71.289">  1  3  2 -1</clus>
</clustering>
</event>
<event>
 6    0  0.4340992E+002  0.1071929E+03  0.7546771E-02  0.1265858E+00
          2   -1    0    0  502    0 -0.00000000000E+00  0.00000000000E+00  0.15459323099E+04  0.15459323099E+04  0.00000000000E+00 0. -1.
         21   -1    0    0  505  502  0.00000000000E+00 -0.00000000000E+00 -0.64500407902E+02  0.64500407902E+02  0.00000000000E+00 0.  1.
         21    1    1    2  503  501 -0.62914928203E+02 -0.61818180293E+02  0.66746936747E+03  0.67327196000E+03  0.00000000000E+00 0.  1.
         21    1    1    2  504  503  0.93141688607E+02  0.22963372300E+02  0.84362743982E+02  0.12774882855E+03  0.00000000000E+00 0.  1.
         21    1    1    2  505  504  0.28106789046E+02 -0.12049328868E+02 -0.31781254258E+02  0.44104716741E+02  0.00000000000E+00 0.  1.
          2    1    1    2  501    0 -0.58333549449E+02  0.50904136861E+02  0.76138104484E+03  0.76530721255E+03  0.00000000000E+00 0. -1.
<scales pt_clust_3="107.19291" pt_clust_4="14000.00000" pt_clust_5="30.58068" pt_clust_6="75.27335"></scales>
<clustering>
<clus scale="   30.581">  2  5  1 -1</clus>
<clus scale="   75.273">  1  6  2 -1</clus>
<clus scale="  107.193">  1  3  2 -1</clus>
<clus scale="   30.581">  2  3  1 -1</clus>
</clustering>
</event>
<event>
 6    0  0.4340992E+002  0.2043462E+03  0.7546771E-02  0.1146123E+00
          2   -1    0    0  505    0 -0.00000000000E+00  0.00000000000E+00  0.21162532809E+04  0.21162532809E+04  0.00000000000E+00 0. -1.
         21   -1    0    0  503  502  0.00000000000E+00 -0.00000000000E+00 -0.24248534349E+03  0.24248534349E+03  0.00000000000E+00 0. -1.
         21    1    1    2  503  504  0.16289872643E+02  0.14053267102E+03 -0.18502454119E+03  0.23291387339E+03  0.00000000000E+00 0. -1.
         21    1    1    2  504  501  0.19204860992E+02 -0.80860629266E+02  0.52829349395E+03  0.53479087857E+03  0.00000000000E+00 0. -1.
         21    1    1    2  505  502 -0.38195687623E+02  0.47380282439E+02  0.42223535749E+01  0.61005163607E+02  0.00000000000E+00 0. -1.
          2    1    1    2  501    0  0.27009539875E+01 -0.10705232419E+03  0.15262766311E+04  0.15300287089E+04  0.00000000000E+00 0. -1.
<scales pt_clust_3="187.95471" pt_clust_4="70.42898" pt_clust_5="60.85887" pt_clust_6="70.42898"></scales>
<clustering>
<clus scale="   60.859">  2  5  1 -1</clus>
<clus scale="   70.429">  4  6 -1 -1</clus>
<clus scale="  187.955">  2  3  1 -1</clus>
<clus scale="   60.859">  2  3  1 -1</clus>
</clustering>
</event>
<event>
 6    0  0.7479152E+002  0.1196028E+03  0.7546771E-02  0.1243754E+00
         21   -1    0    0  501  502  0.00000000000E+00  0.00000000000E+00  0.37712191358E+03  0.37712191358E+03  0.00000000000E+00 0.  1.
          2   -1    0    0  504    0 -0.00000000000E+00 -0.00000000000E+00 -0.25826431445E+04  0.25826431445E+04  0.00000000000E+00 0.  1.
         21    1    1    2  503  502  0.10488305808E+03 -0.58288328551E+02  0.35806640482E+03  0.37763677705E+03  0.00000000000E+00 0.  1.
         21    1    1    2  504  505 -0.37676704541E+02  0.11715117794E+02 -0.54544826933E+03  0.54687347035E+03  0.00000000000E+00 0. -1.
         21    1    1    2  505  503 -0.45011346842E+02  0.10696160260E+01 -0.53334648925E+02  0.69797924030E+02  0.00000000000E+00 0. -1.
          2    1    1    2  501    0 -0.22195006697E+02  0.45503594730E+02 -0.19648047175E+04  0.19654568867E+04  0.00000000000E+00 0.  1.
<scales pt_clust_3="119.60281" pt_clust_4="39.45603" pt_clust_5="46.17233" pt_clust_6="14000.00000"></scales>
<clustering>
<clus scale="   39.456">  2  4  1 -1</clus>
<clus scale="   46.172">  2  5  1 -1</clus>
<clus scale="  119.603">  1  3  2 -1</clus>
<clus scale="  119.603">  1  3  2 -1</clus>
</clustering>
</event>
<event>
 6    0  0.4340992E+002  0.8097154E+02  0.7546771E-02  0.1326317E+00
          1   -1    0    0  505    0 -0.00000000000E+00  0.00000000000E+00  0.16470168424E+04  0.16470168424E+04  0.00000000000E+00 0.  1.
         21   -1    0    0  503  502  0.00000000000E+00 -0.00000000000E+00 -0.52621752797E+02  0.52621752797E+02  0.00000000000E+00 0. -1.
         21    1    1    2  503  504  0.25650885435E+02  0.29644773616E+02 -0.24520273780E+02  0.46238775423E+02  0.00000000000E+00 0. -1.
         21    1    1    2  504  501  0.13962495874E+02  0.47333291313E+02  0.39299377670E+02  0.63085916359E+02  0.00000000000E+00 0. -1.
         21    1    1    2  505  502 -0.40433678960E+01  0.50903415816E+02  0.48418425326E+03  0.48686948731E+03  0.00000000000E+00 0.  1.
          1    1    1    2  501    0 -0.35570013413E+02 -0.12788148075E+03  0.10954317324E+04  0.11034444161E+04  0.00000000000E+00 0.  1.
<scales pt_clust_3="39.20179" pt_clust_4="14000.00000" pt_clust_5="53.25111" pt_clust_6="80.97154"></scales>
<clustering>
<clus scale="   39.202">  2  3  1 -1</clus>
<clus scale="   53.251">  1  5  2 -1</clus>
<clus scale="   80.972">  1  6  2 -1</clus>
<clus scale="   39.202">  2  3  1 -1</clus>
</clustering>
</event>
<event>
 6    0  0.4340992E+002  0.1408017E+03  0.7546771E-02  0.1212254E+00
         -2   -1    0    0    0  501 -0.00000000000E+00  0.00000000000E+00  0.34323656332E+03  0.34323656332E+03  0.00000000000E+00 0. -1.
         21   -1    0    0  504  502  0.00000000000E+00 -0.00000000000E+00 -0.46855886245E+03  0.46855886245E+03  0.00000000000E+00 0.  1.
         21    1    1    2  503  501 -0.38813730517E+02 -0.15886667052E+02  0.20993546806E+02  0.46900115929E+02  0.00000000000E+00 0.  1.
         21    1    1    2  504  503 -0.40407719287E+02  0.12399464071E+03 -0.42854261805E+03  0.44794668230E+03  0.00000000000E+00 0.  1.
         21    1    1    2  505  502  0.11638662966E+01 -0.41361414883E+02  0.74513094699E+02  0.85230994993E+02  0.00000000000E+00 0.  1.
         -2    1    1    2    0  505  0.78057583508E+02 -0.66746558770E+02  0.20771367741E+03  0.23171763254E+03  0.00000000000E+00 0. -1.
<scales pt_clust_3="41.93914" pt_clust_4="130.32267" pt_clust_5="33.83251" pt_clust_6="33.83251"></scales>
<clustering>
<clus scale="   33.833">  5  6 -1 -1</clus>
<clus scale="   41.939">  1  3  2 -1</clus>
<clus scale="  130.323">  2  4  1 -1</clus>
<clus scale="  130.323">  2  3  1 -1</clus>
</clustering>
</event>
<event>
 6    0  0.4340992E+002  0.8432530E+02  0.7546771E-02  0.1317206E+00
         21   -1    0    0  504  502  0.00000000000E+00  0.00000000000E+00  0.64601362685E+03  0.64601362685E+03  0.00000000000E+00 0.  1.
          2   -1    0    0  503    0 -0.00000000000E+00 -0.00000000000E+00 -0.22899663384E+03  0.22899663384E+03  0.00000000000E+00 0. -1.
         21    1    1    2  503  502  0.20417635549E+00  0.32047402230E+02  0.20094482949E+02  0.37826788427E+02  0.00000000000E+00 0.  1.
         21    1    1    2  504  505 -0.25662181184E+02 -0.35391975185E+02  0.11507352580E+03  0.12309774892E+03  0.00000000000E+00 0. -1.
         21    1    1    2  505  501  0.32691457367E+02  0.87264790500E+02  0.48515393515E+03  0.49402248515E+03  0.00000000000E+00 0.  1.
          2    1    1    2  501    0 -0.72334525383E+01 -0.83920217545E+02 -0.20330495088E+03  0.22006323819E+03  0.00000000000E+00 0. -1.
<scales pt_clust_3="32.04805" pt_clust_4="38.85334" pt_clust_5="14000.00000" pt_clust_6="84.32530"></scales>
<clustering>
<clus scale="   32.048">  1  3  2 -1</clus>
<clus scale="   38.853">  1  4  2 -1</clus>
<clus scale="   84.325">  2  6  1 -1</clus>
<clus scale="   32.048">  1  3  2 -1</clus>
</clustering>
</event>
<event>
 6    0  0.4340992E+002  0.8868926E+02  0.7546771E-02  0.1306057E+00
          1   -1    0    0  504    0 -0.00000000000E+00  0.00000000000E+00  0.13574293038E+04  0.13574293038E+04  0.00000000000E+00 0.  1.
         21   -1    0    0  505  502  0.00000000000E+00 -0.00000000000E+00 -0.13606708449E+03  0.13606708449E+03  0.00000000000E+00 0.  1.
         21    1    1    2  503  502 -0.41241313363E+02 -0.35903436379E+02 -0.11916474688E+03  0.13111117256E+03  0.00000000000E+00 0.  1.
         21    1    1    2  504  503  0.24666911977E+02  0.26429837637E+02  0.70829845058E+02  0.79522699998E+02  0.00000000000E+00 0. -1.
         21    1    1    2  505  501 -0.21607914315E+02 -0.71213596844E+02  0.30108633747E+03  0.31014716015E+03  0.00000000000E+00 0. -1.
          1    1    1    2  501    0  0.38182315701E+02  0.80687195586E+02  0.96861078367E+03  0.97271535559E+03  0.00000000000E+00 0.  1.
<scales pt_clust_3="54.51250" pt_clust_4="36.15236" pt_clust_5="88.68926" pt_clust_6="14000.00000"></scales>
<clustering>
<clus scale="   36.152">  1  4  2 -1</clus>
<clus scale="   54.512">  2  3  1 -1</clus>
<clus scale="   88.689">  2  5  1 -1</clus>
<clus scale="   54.512">  2  3  1 -1</clus>
</clustering>
</event>
<event>
 6    0  0.4340992E+002  0.7970373E+02  0.7546771E-02  0.1329894E+00
          2   -1    0    0  505    0 -0.00000000000E+00  0.00000000000E+00  0.16891812752E+04  0.16891812752E+04  0.00000000000E+00 0.  1.
         21   -1    0    0  504  502  0.00000000000E+00 -0.00000000000E+00 -0.58375974730E+03  0.58375974730E+03  0.00000000000E+00 0.  1.
         21    1    1    2  503  502 -0.10565796205E+03 -0.57951024927E+02  0.20203241464E+03  0.23524247661E+03  0.00000000000E+00 0. -1.
         21    1    1    2  504  501  0.35539351435E+02  0.71059930488E+02 -0.56293845756E+03  0.56851760414E+03  0.00000000000E+00 0.  1.
         21    1    1    2  505  503  0.34385150367E+02  0.67433313672E+01  0.11037956940E+04  0.11043517307E+04  0.00000000000E+00 0.  1.
          2    1    1    2  501    0  0.35733460250E+02 -0.19852236929E+02  0.36253187680E+03  0.36482921098E+03  0.00000000000E+00 0.  1.
<scales pt_clust_3="79.70373" pt_clust_4="14000.00000" pt_clust_5="35.04014" pt_clust_6="59.21446"></scales>
<clustering>
<clus scale="   35.040">  1  5  2 -1</clus>
<clus scale="   59.214">  1  6  2 -1</clus>
<clus scale="   79.704">  1  3  2 -1</clus>
<clus scale="   79.704">  2  3  1 -1</clus>
</clustering>
</event>
<event>
 6    0  0.4340992E+002  0.1673845E+03  0.7546771E-02  0.1180603E+00
          1   -1    0    0  505    0 -0.00000000000E+00  0.00000000000E+00  0.91092572558E+03  0.91092572558E+03  0.00000000000E+00 0.  1.
         21   -1    0    0  504  502  0.00000000000E+00 -0.00000000000E+00 -0.75472335986E+03  0.75472335986E+03  0.00000000000E+00 0.  1.
         21    1    1    2  503  502  0.24254880186E+02 -0.14045148941E+03 -0.39369715065E+03  0.41870319622E+03  0.00000000000E+00 0.  1.
         21    1    1    2  504  501 -0.11507567784E+03  0.27443788204E+03 -0.26798460992E+03  0.40046761902E+03  0.00000000000E+00 0.  1.
         21    1    1    2  505  503  0.31051989860E+02  0.25741993367E+02  0.86033518649E+02  0.95019169792E+02  0.00000000000E+00 0. -1.
          1    1    1    2  501    0  0.59768807797E+02 -0.15972838600E+03  0.73185060765E+03  0.75145910041E+03  0.00000000000E+00 0.  1.
<scales pt_clust_3="142.22536" pt_clust_4="167.38450" pt_clust_5="40.33455" pt_clust_6="14000.00000"></scales>
<clustering>
<clus scale="   40.335">  1  5  2 -1</clus>
<clus scale="  142.225">  2  3  1 -1</clus>
<clus scale="  167.385">  2  4  1 -1</clus>
<clus scale="  142.225">  2  3  1 -1</clus>
</clustering>
</event>
<event>
 6    0  0.4340992E+002  0.2391587E+03  0.7546771E-02  0.1120355E+00
          2   -1    0    0  503    0 -0.00000000000E+00  0.00000000000E+00  0.64751077989E+03  0.64751077989E+03  0.00000000000E+00 0. -1.
         21   -1    0    0  505  502  0.00000000000E+00 -0.00000000000E+00 -0.11012715504E+04  0.11012715504E+04  0.00000000000E+00 0.  1.
         21    1    1    2  503  502  0.74919329043E+02 -0.10397651281E+03  0.51232131025E+02  0.13801721751E+03  0.00000000000E+00 0. -1.
         21    1    1    2  504  501 -0.19131893943E+03 -0.20458872206E+03 -0.88758781559E+03  0.93073713376E+03  0.00000000000E+00 0.  1.
         21    1    1    2  505  504 -0.60741460822E+01  0.74454209592E+02 -0.10298250227E+03  0.12722311249E+03  0.00000000000E+00 0.  1.
          2    1    1    2  501    0  0.12247375647E+03  0.23411102528E+03  0.48557741634E+03  0.55280486651E+03  0.00000000000E+00 0. -1.
<scales pt_clust_3="125.35354" pt_clust_4="14000.00000" pt_clust_5="74.70157" pt_clust_6="239.15873"></scales>
<clustering>
<clus scale="   74.702">  2  5  1 -1</clus>
<clus scale="  125.354">  1  3  2 -1</clus>
<clus scale="  239.159">  1  6  2 -1</clus>
<clus scale="   74.702">  2  3  1 -1</clus>
</clustering>
</event>
<event>
 6    0  0.4340992E+002  0.1580126E+03  0.7546771E-02  0.1190959E+00
         21   -1    0    0  504  502  0.00000000000E+00  0.00000000000E+00  0.18992365393E+03  0.18992365393E+03  0.00000000000E+00 0. -1.
          2   -1    0    0  505    0 -0.00000000000E+00 -0.00000000000E+00 -0.65751439396E+03  0.65751439396E+03  0.00000000000E+00 0.  1.
         21    1    1    2  503  501  0.61613291389E+01  0.41538719143E+02 -0.16329440952E+03  0.16860750679E+03  0.00000000000E+00 0.  1.
         21    1    1    2  504  503 -0.39073346913E+02 -0.30934850255E+02  0.14588303809E+03  0.15416079982E+03  0.00000000000E+00 0. -1.
         21    1    1    2  505  502 -0.73741316427E+02 -0.85752963008E+02 -0.99975439351E+02  0.15095178332E+03  0.00000000000E+00 0.  1.
          2    1    1    2  501    0  0.10665333420E+03  0.75149094120E+02 -0.35020392925E+03  0.37371795796E+03  0.00000000000E+00 0.  1.
<scales pt_clust_3="36.29649" pt_clust_4="49.83665" pt_clust_5="144.48120" pt_clust_6="36.29649"></scales>
<clustering>
<clus scale="   36.296">  3  6 -1 -1</clus>
<clus scale="   49.837">  1  4  2 -1</clus>
<clus scale="  144.481">  1  5  2 -1</clus>
<clus scale="   49.837">  1  3  2 -1</clus>
</clustering>
</event>
<event>
 6    0  0.4340992E+002  0.1707854E+03  0.7546771E-02  0.1177031E+00
          2   -1    0    0  505    0 -0.00000000000E+00  0.00000000000E+00  0.78868713706E+03  0.78868713706E+03  0.00000000000E+00 0.  1.
         21   -1    0    0  503  502  0.00000000000E+00 -0.00000000000E+00 -0.14831091215E+03  0.14831091215E+03  0.00000000000E+00 0.  1.
         21    1    1    2  503  504  0.30361156301E+02  0.13288977720E+02  0.27107256330E+02  0.42815885913E+02  0.00000000000E+00 0. -1.
         21    1    1    2  504  501  0.25804631376E+02  0.45266482940E+02  0.14276898302E+03  0.15197998549E+03  0.00000000000E+00 0.  1.
         21    1    1    2  505  502 -0.49652318795E+02 -0.17060154608E+03 -0.69405238943E+02  0.19075462637E+03  0.00000000000E+00 0.  1.
          2    1    1    2  501    0 -0.65134688822E+01  0.11204608542E+03  0.53990522451E+03  0.55144755144E+03  0.00000000000E+00 0.  1.
<scales pt_clust_3="33.14207" pt_clust_4="41.40236" pt_clust_5="159.75236" pt_clust_6="41.40236"></scales>
<clustering>
<clus scale="   33.142">  2  3  1 -1</clus>
<clus scale="   41.402">  4  6 -1 -1</clus>
<clus scale="  159.752">  2  5  1 -1</clus>
<clus scale="   33.142">  2  3  1 -1</clus>
</clustering>
</event>
<event>
 6    0  0.4852395E+002  0.9402417E+02  0.7546771E-02  0.1293389E+00
         -2   -1    0    0    0  501 -0.00000000000E+00  0.00000000000E+00  0.91850809446E+03  0.91850809446E+03  0.00000000000E+00 0.  1.
         21   -1    0    0  504  502  0.00000000000E+00 -0.00000000000E+00 -0.17578641959E+04  0.17578641959E+04  0.00000000000E+00 0.  1.
         21    1    1    2  503  502 -0.65436688854E+02 -0.37228859582E+02  0.36552899254E+02  0.83690278275E+02  0.00000000000E+00 0. -1.
         21    1    1    2  504  505  0.94637111732E+02 -0.14597079441E+01 -0.17297001216E+04  0.17322877429E+04  0.00000000000E+00 0.  1.
         21    1    1    2  505  501  0.31792055455E+02  0.25490072750E+02  0.23953033071E+03  0.24297172248E+03  0.00000000000E+00 0.  1.
         -2    1    1    2    0  503 -0.60992478334E+02  0.13198494776E+02  0.61426079023E+03  0.61742254663E+03  0.00000000000E+00 0.  1.
<scales pt_clust_3="14000.00000" pt_clust_4="94.02417" pt_clust_5="40.74897" pt_clust_6="48.50398"></scales>
<clustering>
<clus scale="   40.749">  1  5  2 -1</clus>
<clus scale="   48.504">  1  6  2 -1</clus>
<clus scale="   94.024">  2  4  1 -1</clus>
<clus scale="   94.024">  2  3  1 -1</clus>
</clustering>
</event>
<event>
 6    0  0.4340992E+002  0.1034186E+03  0.7546771E-02  0.1273267E+00
         21   -1    0    0  503  502  0.00000000000E+00  0.00000000000E+00  0.64762892883E+03  0.64762892883E+03  0.00000000000E+00 0. -1.
          2   -1    0    0  504    0 -0.00000000000E+00 -0.00000000000E+00 -0.32758248766E+03  0.32758248766E+03  0.00000000000E+00 0.  1.
         21    1    1    2  503  501 -0.26610329635E+02 -0.20710182038E+02  0.14502418360E+02  0.36706149643E+02  0.00000000000E+00 0. -1.
         21    1    1    2  504  505 -0.40366471644E+02 -0.90150550695E+02 -0.20529941509E+03  0.22782542365E+03  0.00000000000E+00 0.  1.
         21    1    1    2  505  502  0.38874981086E+02  0.95937257917E+02  0.60370656237E+03  0.61251680390E+03  0.00000000000E+00 0. -1.
          2    1    1    2  501    0  0.28101820193E+02  0.14923474815E+02 -0.92863124467E+02  0.98163039299E+02  0.00000000000E+00 0.  1.
<scales pt_clust_3="32.22143" pt_clust_4="103.41863" pt_clust_5="14000.00000" pt_clust_6="31.81859"></scales>
<clustering>
<clus scale="   31.819">  2  6  1 -1</clus>
<clus scale="   32.221">  2  3  1 -1</clus>
<clus scale="  103.419">  2  4  1 -1</clus>
<clus scale="  103.419">  1  3  2 -1</clus>
</clustering>
</event>
<event>
 6    0  0.4340992E+002  0.1780487E+03  0.7546771E-02  0.1169705E+00
          2   -1    0    0  503    0 -0.00000000000E+00  0.00000000000E+00  0.82057916469E+03  0.82057916469E+03  0.00000000000E+00 0.  1.
         21   -1    0    0  505  502  0.00000000000E+00 -0.00000000000E+00 -0.13349816700E+03  0.13349816700E+03  0.00000000000E+00 0. -1.
         21    1    1    2  503  504  0.25522792286E+02  0.37200246742E+02  0.63867226162E+02  0.78193950286E+02  0.00000000000E+00 0.  1.
         21    1    1    2  504  502  0.52888144388E+02 -0.26699367539E+01 -0.25011182785E+02  0.58564866971E+02  0.00000000000E+00 0.  1.
         21    1    1    2  505  501 -0.80055436747E+02 -0.17973097274E+03  0.51782356972E+02  0.20345394567E+03  0.00000000000E+00 0. -1.
          2    1    1    2  501    0  0.16445000727E+01  0.14520066276E+03  0.59644259735E+03  0.61386456876E+03  0.00000000000E+00 0.  1.
<scales pt_clust_3="45.11398" pt_clust_4="53.49097" pt_clust_5="178.04867" pt_clust_6="14000.00000"></scales>
<clustering>
<clus scale="   45.114">  1  3  2 -1</clus>
<clus scale="   53.491">  2  4  1 -1</clus>
<clus scale="  178.049">  2  5  1 -1</clus>
<clus scale="   53.491">  2  3  1 -1</clus>
</clustering>
</event>
<event>
 6    0  0.4340992E+002  0.9872430E+02  0.7546771E-02  0.1283002E+00
         21   -1    0    0  503  502  0.00000000000E+00  0.00000000000E+00  0.39421533492E+02  0.39421533492E+02  0.00000000000E+00 0. -1.
          2   -1    0    0  505    0 -0.00000000000E+00 -0.00000000000E+00 -0.22926217983E+04  0.22926217983E+04  0.00000000000E+00 0.  1.
         21    1    1    2  503  501 -0.27779599875E+02 -0.28214405600E+02 -0.53099557555E+02  0.66236861831E+02  0.00000000000E+00 0. -1.
         21    1    1    2  504  502  0.52377513624E+02 -0.72064150232E+02 -0.39299956381E+02  0.97371105846E+02  0.00000000000E+00 0. -1.
         21    1    1    2  505  504 -0.51620342157E+02  0.18402385037E+02 -0.26160642249E+03  0.26728491874E+03  0.00000000000E+00 0. -1.
          2    1    1    2  501    0  0.27022428409E+02  0.81876170796E+02 -0.18991943284E+04  0.19011504453E+04  0.00000000000E+00 0.  1.
<scales pt_clust_3="39.59493" pt_clust_4="98.72430" pt_clust_5="56.33057" pt_clust_6="14000.00000"></scales>
<clustering>
<clus scale="   39.595">  1  3  2 -1</clus>
<clus scale="   56.331">  2  5  1 -1</clus>
<clus scale="   98.724">  1  4  2 -1</clus>
<clus scale="   39.595">  1  3  2 -1</clus>
</clustering>
</event>
<event>
 6    0  0.4340992E+002  0.7829889E+02  0.7546771E-02  0.1333949E+00
         21   -1    0    0  501  502  0.00000000000E+00  0.00000000000E+00  0.42168829619E+02  0.42168829619E+02  0.00000000000E+00 0. -1.
          2   -1    0    0  503    0 -0.00000000000E+00 -0.00000000000E+00 -0.16086745753E+04  0.16086745753E+04  0.00000000000E+00 0.  1.
         21    1    1    2  503  505 -0.91225702208E+01  0.11495599914E+03 -0.86154721073E+03  0.86923052140E+03  0.00000000000E+00 0.  1.
         21    1    1    2  504  502  0.11632170272E+02 -0.29577409715E+02 -0.12657758459E+02  0.34210369771E+02  0.00000000000E+00 0. -1.
         21    1    1    2  505  504 -0.43923009921E+02 -0.32317081983E+02 -0.27774177007E+01  0.54601635850E+02  0.00000000000E+00 0. -1.
          2    1    1    2  501    0  0.41413409870E+02 -0.53061507439E+02 -0.68952335882E+03  0.69280087792E+03  0.00000000000E+00 0.  1.
<scales pt_clust_3="14000.00000" pt_clust_4="31.78255" pt_clust_5="66.30513" pt_clust_6="78.29889"></scales>
<clustering>
<clus scale="   31.783">  1  4  2 -1</clus>
<clus scale="   66.305">  1  5  2 -1</clus>
<clus scale="   78.299">  2  6  1 -1</clus>
<clus scale="   31.783">  1  3  2 -1</clus>
</clustering>
</event>
<event>
 6    0  0.4340992E+002  0.8100527E+02  0.7546771E-02  0.1326223E+00
          1   -1    0    0  505    0 -0.00000000000E+00  0.00000000000E+00  0.19873266229E+04  0.19873266229E+04  0.00000000000E+00 0. -1.
         21   -1    0    0  504  502  0.00000000000E+00 -0.00000000000E+00 -0.49473998510E+02  0.49473998510E+02  0.00000000000E+00 0. -1.
         21    1    1    2  503  502 -0.92797397084E+01  0.10816782147E+03  0.12561293647E+03  0.16602710917E+03  0.00000000000E+00 0. -1.
         21    1    1    2  504  501  0.32870610927E+02 -0.36750310006E+02  0.11351494920E+01  0.49318869742E+02  0.00000000000E+00 0. -1.
         21    1    1    2  505  503 -0.66001073382E+02  0.20737223401E+02  0.34637822613E+03  0.35321954881E+03  0.00000000000E+00 0.  1.
          1    1    1    2  501    0  0.42410202163E+02 -0.92154734869E+02  0.14647263123E+04  0.14682350937E+04  0.00000000000E+00 0. -1.
<scales pt_clust_3="81.00527" pt_clust_4="49.30580" pt_clust_5="63.56230" pt_clust_6="14000.00000"></scales>
<clustering>
<clus scale="   49.306">  2  4  1 -1</clus>
<clus scale="   63.562">  1  5  2 -1</clus>
<clus scale="   81.005">  2  3  1 -1</clus>
<clus scale="   49.306">  2  3  1 -1</clus>
</clustering>
</event>
<event>
 6    0  0.4340992E+002  0.1295102E+03  0.7546771E-02  0.1228184E+00
         -2   -1    0    0    0  501 -0.00000000000E+00  0.00000000000E+00  0.12668037722E+03  0.12668037722E+03  0.00000000000E+00 0. -1.
         21   -1    0    0  504  502  0.00000000000E+00 -0.00000000000E+00 -0.30095539075E+03  0.30095539075E+03  0.00000000000E+00 0. -1.
         21    1    1    2  503  502 -0.40646094367E+02 -0.64691704492E+02  0.10157002784E+02  0.77073252967E+02  0.00000000000E+00 0. -1.
         21    1    1    2  504  505  0.36497651076E+02 -0.16987529164E+02 -0.10737667326E+03  0.11467521372E+03  0.00000000000E+00 0. -1.
         21    1    1    2  505  501  0.37865632655E+02  0.11513186056E+03 -0.12094176633E+03  0.17121933972E+03  0.00000000000E+00 0. -1.
         -2    1    1    2    0  503 -0.33717189365E+02 -0.33452626900E+02  0.43886423269E+02  0.64667961562E+02  0.00000000000E+00 0. -1.
<scales pt_clust_3="35.32873" pt_clust_4="40.25736" pt_clust_5="121.51221" pt_clust_6="35.32873"></scales>
<clustering>
<clus scale="   35.329">  3  6 -1 -1</clus>
<clus scale="   40.257">  2  4  1 -1</clus>
<clus scale="  121.512">  2  5  1 -1</clus>
<clus scale="   40.257">  2  3  1 -1</clus>
</clustering>
</event>
<event>
 6    0  0.4340992E+002  0.1378330E+03  0.7546771E-02  0.1216275E+00
         21   -1    0    0  505  502  0.00000000000E+00  0.00000000000E+00  0.56105507013E+03  0.56105507013E+03  0.00000000000E+00 0.  1.
         -2   -1    0    0    0  501 -0.00000000000E+00 -0.00000000000E+00 -0.12486113733E+03  0.12486113733E+03  0.00000000000E+00 0.  1.
         21    1    1    2  503  502  0.33961721302E+02 -0.67424934221E+00  0.53050702683E+02  0.62993890030E+02  0.00000000000E+00 0.  1.
         21    1    1    2  504  503  0.10915110494E+03  0.18566462214E+02  0.43701892199E+03  0.45082614765E+03  0.00000000000E+00 0.  1.
         21    1    1    2  505  501 -0.66405923250E+02 -0.14660008638E+02 -0.65532436870E+02  0.94441319231E+02  0.00000000000E+00 0.  1.
         -2    1    1    2    0  504 -0.76706902992E+02 -0.32322042341E+01  0.11656744999E+02  0.77654850556E+02  0.00000000000E+00 0.  1.
<scales pt_clust_3="30.54655" pt_clust_4="30.54655" pt_clust_5="68.00487" pt_clust_6="126.31926"></scales>
<clustering>
<clus scale="   30.547">  3  4 -1 -1</clus>
<clus scale="   68.005">  2  5  1 -1</clus>
<clus scale="  126.319">  2  6  1 -1</clus>
<clus scale="  137.833">  1  3  2 -1</clus>
</clustering>
</event>
<event>
 6    0  0.4340992E+002  0.1641888E+03  0.7546771E-02  0.1184047E+00
          2   -1    0    0  504    0 -0.00000000000E+00  0.00000000000E+00  0.25288358242E+04  0.25288358242E+04  0.00000000000E+00 0.  1.
         21   -1    0    0  505  502  0.00000000000E+00 -0.00000000000E+00 -0.44735907261E+02  0.44735907261E+02  0.00000000000E+00 0. -1.
         21    1    1    2  503  501 -0.26205304703E+02 -0.46396091459E+02  0.78147955738E+03  0.78329407881E+03  0.00000000000E+00 0. -1.
         21    1    1    2  504  502  0.37485246628E+02 -0.79580746737E+02  0.71213860270E+02  0.11317973697E+03  0.00000000000E+00 0. -1.
         21    1    1    2  505  503 -0.29934209598E+02  0.22305595717E+03  0.59755723336E+03  0.63853321298E+03  0.00000000000E+00 0. -1.
          2    1    1    2  501    0  0.18654267672E+02 -0.97079118972E+02  0.10338492659E+04  0.10385647027E+04  0.00000000000E+00 0.  1.
<scales pt_clust_3="40.93372" pt_clust_4="87.96726" pt_clust_5="154.43266" pt_clust_6="40.93372"></scales>
<clustering>
<clus scale="   40.934">  3  6 -1 -1</clus>
<clus scale="   87.967">  2  4  1 -1</clus>
<clus scale="  154.433">  2  5  1 -1</clus>
<clus scale="   87.967">  2  3  1 -1</clus>
</clustering>
</event>
<event>
 6    0  0.4340992E+002  0.1021921E+03  0.7546771E-02  0.1275753E+00
         -2   -1    0    0    0  501 -0.00000000000E+00  0.00000000000E+00  0.59080684416E+03  0.59080684416E+03  0.00000000000E+00 0. -1.
         21   -1    0    0  503  502  0.00000000000E+00 -0.00000000000E+00 -0.33213538694E+03  0.33213538694E+03  0.00000000000E+00 0.  1.
         21    1    1    2  503  504  0.37221959203E+02  0.28696041997E+01 -0.11317349676E+03  0.11917193145E+03  0.00000000000E+00 0.  1.
         21    1    1    2  504  501 -0.27244633021E+02  0.35498024351E+02  0.92877510676E+02  0.10309515872E+03  0.00000000000E+00 0.  1.
         21    1    1    2  505  502 -0.14555390594E+02 -0.10412976135E+03 -0.19532370169E+03  0.22182473946E+03  0.00000000000E+00 0.  1.
         -2    1    1    2    0  505  0.45780644120E+01  0.65762132800E+02  0.47429114499E+03  0.47885040148E+03  0.00000000000E+00 0. -1.
<scales pt_clust_3="37.33241" pt_clust_4="44.27189" pt_clust_5="102.19210" pt_clust_6="14000.00000"></scales>
<clustering>
<clus scale="   37.332">  2  3  1 -1</clus>
<clus scale="   44.272">  1  4  2 -1</clus>
<clus scale="  102.192">  2  5  1 -1</clus>
<clus scale="   37.332">  2  3  1 -1</clus>
</clustering>
</event>
<event>
 6    0  0.4340992E+002  0.1432976E+03  0.7546771E-02  0.1208959E+00
         -4   -1    0    0    0  501 -0.00000000000E+00  0.00000000000E+00  0.29374685880E+03  0.29374685880E+03  0.00000000000E+00 0.  1.
         21   -1    0    0  505  502  0.00000000000E+00 -0.00000000000E+00 -0.13259445258E+04  0.13259445258E+04  0.00000000000E+00 0. -1.
         21    1    1    2  503  504 -0.43458713363E+02  0.48019379012E+02  0.11344464132E+03  0.13063003932E+03  0.00000000000E+00 0.  1.
         21    1    1    2  504  502  0.34039828437E+02 -0.13664440591E+02 -0.12525165602E+03  0.13051208447E+03  0.00000000000E+00 0. -1.
         21    1    1    2  505  501  0.85897001891E+02 -0.53378393914E+02 -0.11780009549E+04  0.11823340466E+04  0.00000000000E+00 0. -1.
         -4    1    1    2    0  503 -0.76478116965E+02  0.19023455493E+02  0.15761030263E+03  0.17621521424E+03  0.00000000000E+00 0.  1.
<scales pt_clust_3="38.49848" pt_clust_4="36.68006" pt_clust_5="136.85962" pt_clust_6="38.49848"></scales>
<clustering>
<clus scale="   36.680">  2  4  1 -1</clus>
<clus scale="   38.498">  3  6 -1 -1</clus>
<clus scale="  136.860">  2  5  1 -1</clus>
<clus scale="   36.680">  2  3  1 -1</clus>
</clustering>
</event>
<event>
 6    0  0.4340992E+002  0.1086925E+03  0.7546771E-02  0.1263011E+00
          1   -1    0    0  504    0 -0.00000000000E+00  0.00000000000E+00  0.14911487522E+04  0.14911487522E+04  0.00000000000E+00 0.  1.
         21   -1    0    0  501  502  0.00000000000E+00 -0.00000000000E+00 -0.22321240221E+02  0.22321240221E+02  0.00000000000E+00 0.  1.
         21    1    1    2  503  505 -0.13884412577E+03  0.24920906054E+01  0.56449138387E+03  0.58132127454E+03  0.00000000000E+00 0.  1.
         21    1    1    2  504  503  0.52701551626E+02 -0.63755229453E+02  0.40983562947E+03  0.41809977997E+03  0.00000000000E+00 0.  1.
         21    1    1    2  505  502  0.34355581095E+01  0.36297882009E+02  0.53998357087E+02  0.65154906691E+02  0.00000000000E+00 0. -1.
          1    1    1    2  501    0  0.82707016030E+02  0.24965256839E+02  0.44050214158E+03  0.44889403125E+03  0.00000000000E+00 0.  1.
<scales pt_clust_3="108.69248" pt_clust_4="76.61765" pt_clust_5="36.46011" pt_clust_6="14000.00000"></scales>
<clustering>
<clus scale="   36.460">  2  5  1 -1</clus>
<clus scale="   76.618">  1  4  2 -1</clus>
<clus scale="  108.692">  1  3  2 -1</clus>
<clus scale="   36.460">  2  3  1 -1</clus>
</clustering>
</event>
<event>
 6    0  0.4340992E+002  0.8267911E+02  0.7546771E-02  0.1321616E+00
          2   -1    0    0  505    0 -0.00000000000E+00  0.00000000000E+00  0.61386943944E+03  0.61386943944E+03  0.00000000000E+00 0. -1.
         21   -1    0    0  504  502  0.00000000000E+00 -0.00000000000E+00 -0.24357655187E+04  0.24357655187E+04  0.00000000000E+00 0. -1.
         21    1    1    2  503  502 -0.18512523721E+02  0.79627462768E+02 -0.22538885273E+04  0.22553706435E+04  0.00000000000E+00 0. -1.
         21    1    1    2  504  501 -0.13370031391E+02 -0.11159804326E+03 -0.15087455403E+03  0.18813827907E+03  0.00000000000E+00 0. -1.
         21    1    1    2  505  503 -0.23913914780E+02 -0.32783947879E+02  0.41462837767E+02  0.58015769186E+02  0.00000000000E+00 0.  1.
          2    1    1    2  501    0  0.55796469891E+02  0.64754528373E+02  0.54140416426E+03  0.54811026635E+03  0.00000000000E+00 0. -1.
<scales pt_clust_3="14000.00000" pt_clust_4="82.67911" pt_clust_5="40.57909" pt_clust_6="46.52860"></scales>
<clustering>
<clus scale="   40.579">  1  5  2 -1</clus>
<clus scale="   46.529">  1  6  2 -1</clus>
<clus scale="   82.679">  1  4  2 -1</clus>
<clus scale="   82.679">  2  3  1 -1</clus>
</clustering>
</event>
<event>
 6    0  0.4340992E+002  0.1581123E+03  0.7546771E-02  0.1190845E+00
          2   -1    0    0  504    0 -0.00000000000E+00  0.00000000000E+00  0.66268160378E+03  0.66268160378E+03  0.00000000000E+00 0. -1.
         21   -1    0    0  505  502  0.00000000000E+00 -0.00000000000E+00 -0.14592352953E+03  0.14592352953E+03  0.00000000000E+00 0. -1.
         21    1    1    2  503  502 -0.12459254154E+03  0.49224055893E+02  0.17935764986E+02  0.13515916821E+03  0.00000000000E+00 0. -1.
         21    1    1    2  504  503 -0.78018612775E+02  0.14793978215E+02  0.19812301862E+03  0.21344436333E+03  0.00000000000E+00 0. -1.
         21    1    1    2  505  501  0.22965626050E+03  0.14427664281E+02  0.11637806741E+03  0.25786432490E+03  0.00000000000E+00 0. -1.
          2    1    1    2  501    0 -0.27045106184E+02 -0.78445698389E+02  0.18432122323E+03  0.20213727686E+03  0.00000000000E+00 0. -1.
<scales pt_clust_3="14000.00000" pt_clust_4="79.40885" pt_clust_5="158.11228" pt_clust_6="93.89417"></scales>
<clustering>
<clus scale="   79.409">  1  4  2 -1</clus>
<clus scale="   93.894">  1  6  2 -1</clus>
<clus scale="  158.112">  1  5  2 -1</clus>
<clus scale="  158.112">  2  3  1 -1</clus>
</clustering>
</event>
<event>
 6    0  0.4340992E+002  0.8231869E+02  0.7546771E-02  0.1322597E+00
          1   -1    0    0  505    0 -0.00000000000E+00  0.00000000000E+00  0.59505768386E+03  0.59505768386E+03  0.00000000000E+00 0. -1.
         21   -1    0    0  503  502  0.00000000000E+00 -0.00000000000E+00 -0.93036719074E+03  0.93036719074E+03  0.00000000000E+00 0. -1.
         21    1    1    2  503  504 -0.33145428696E+02  0.17539056128E+02 -0.65896433951E+02  0.75819377080E+02  0.00000000000E+00 0. -1.
         21    1    1    2  504  501 -0.22946631510E+02  0.12012343880E+03  0.20490452609E+03  0.23862534078E+03  0.00000000000E+00 0. -1.
         21    1    1    2  505  502  0.20025774462E+02 -0.72612625792E+02 -0.83718577076E+03  0.84056745109E+03  0.00000000000E+00 0. -1.
          1    1    1    2  501    0  0.36066285744E+02 -0.65049869138E+02  0.36286817174E+03  0.37041270565E+03  0.00000000000E+00 0. -1.
<scales pt_clust_3="37.49984" pt_clust_4="82.31869" pt_clust_5="56.84656" pt_clust_6="14000.00000"></scales>
<clustering>
<clus scale="   37.500">  2  3  1 -1</clus>
<clus scale="   56.847">  2  5  1 -1</clus>
<clus scale="   82.319">  2  4  1 -1</clus>
<clus scale="   37.500">  2  3  1 -1</clus>
</clustering>
</event>
<event>
 6    0  0.4340992E+002  0.7458431E+02  0.7546771E-02  0.1345163E+00
         21   -1    0    0  505  502  0.00000000000E+00  0.00000000000E+00  0.25288001025E+02  0.25288001025E+02  0.00000000000E+00 0. -1.
          2   -1    0    0  504    0 -0.00000000000E+00 -0.00000000000E+00 -0.11808309502E+04  0.11808309502E+04  0.00000000000E+00 0. -1.
         21    1    1    2  503  502 -0.19912071179E+02 -0.49623109527E+02 -0.11634206587E+03  0.12804069614E+03  0.00000000000E+00 0. -1.
         21    1    1    2  504  503 -0.16867769677E+02 -0.44017733671E+02 -0.28302123078E+03  0.28692002301E+03  0.00000000000E+00 0.  1.
         21    1    1    2  505  501 -0.75039981237E+01  0.11236418979E+03 -0.17570990618E+03  0.20870072416E+03  0.00000000000E+00 0. -1.
          2    1    1    2  501    0  0.44283838980E+02 -0.18723346592E+02 -0.58046974635E+03  0.58245750792E+03  0.00000000000E+00 0. -1.
<scales pt_clust_3="14000.00000" pt_clust_4="47.13897" pt_clust_5="74.58431" pt_clust_6="57.86128"></scales>
<clustering>
<clus scale="   47.139">  2  4  1 -1</clus>
<clus scale="   57.861">  2  6  1 -1</clus>
<clus scale="   74.584">  2  5  1 -1</clus>
<clus scale="   74.584">  1  3  2 -1</clus>
</clustering>
</event>
<event>
 6    0  0.4340992E+002  0.1967376E+03  0.7546771E-02  0.1152521E+00
          2   -1    0    0  503    0 -0.00000000000E+00  0.00000000000E+00  0.20843215256E+04  0.20843215256E+04  0.00000000000E+00 0. -1.
         21   -1    0    0  504  502  0.00000000000E+00 -0.00000000000E+00 -0.52108267433E+02  0.52108267433E+02  0.00000000000E+00 0. -1.
         21    1    1    2  503  502  0.81415441423E+02 -0.60666918082E+02  0.11623764464E+03  0.15433774355E+03  0.00000000000E+00 0. -1.
         21    1    1    2  504  505 -0.64160751403E+02  0.23272791694E+03  0.51587265309E+03  0.56956428921E+03  0.00000000000E+00 0. -1.
         21    1    1    2  505  501  0.12395823463E+02 -0.36934466122E+02  0.53667876856E+03  0.53809098845E+03  0.00000000000E+00 0. -1.
          2    1    1    2  501    0 -0.29650513483E+02 -0.13512653273E+03  0.86342419183E+03  0.87443677178E+03  0.00000000000E+00 0. -1.
<scales pt_clust_3="101.53299" pt_clust_4="183.47212" pt_clust_5="37.68785" pt_clust_6="37.68785"></scales>
<clustering>
<clus scale="   37.688">  5  6 -1 -1</clus>
<clus scale="  101.533">  2  3  1 -1</clus>
<clus scale="  183.472">  2  4  1 -1</clus>
<clus scale="  101.533">  2  3  1 -1</clus>
</clustering>
</event>
<event>
 6    0  0.4340992E+002  0.1244375E+03  0.7546771E-02  0.1235951E+00
         21   -1    0    0  505  502  0.00000000000E+00  0.00000000000E+00  0.57477806983E+03  0.57477806983E+03  0.00000000000E+00 0. -1.
         -4   -1    0    0    0  501 -0.00000000000E+00 -0.00000000000E+00 -0.12663599731E+03  0.12663599731E+03  0.00000000000E+00 0.  1.
         21    1    1    2  503  502 -0.78089464827E+01  0.55012419257E+02 -0.13152988767E+02  0.57099448607E+02  0.00000000000E+00 0.  1.
         21    1    1    2  504  501  0.11629269692E+03  0.52654834843E+02  0.91685444985E+02  0.15717106544E+03  0.00000000000E+00 0.  1.
         21    1    1    2  505  504 -0.62581222020E+02 -0.11341876979E+03  0.40734343411E+03  0.42744461630E+03  0.00000000000E+00 0. -1.
         -4    1    1    2    0  503 -0.45902528418E+02  0.57515156850E+01 -0.37733817808E+02  0.59698936793E+02  0.00000000000E+00 0.  1.
<scales pt_clust_3="64.27064" pt_clust_4="124.43748" pt_clust_5="14000.00000" pt_clust_6="46.26145"></scales>
<clustering>
<clus scale="   46.261">  2  6  1 -1</clus>
<clus scale="   64.271">  2  3  1 -1</clus>
<clus scale="  124.437">  2  4  1 -1</clus>
<clus scale="  124.437">  1  3  2 -1</clus>
</clustering>
</event>
<event>
 6    0  0.4340992E+002  0.1320827E+03  0.7546771E-02  0.1224398E+00
         21   -1    0    0  504  502  0.00000000000E+00  0.00000000000E+00  0.19308677252E+03  0.19308677252E+03  0.00000000000E+00 0.  1.
          1   -1    0    0  503    0 -0.00000000000E+00 -0.00000000000E+00 -0.12014935910E+04  0.12014935910E+04  0.00000000000E+00 0.  1.
         21    1    1    2  503  505  0.32534573203E+02  0.28759524695E+02 -0.28383553459E+03  0.28713797974E+03  0.00000000000E+00 0. -1.
         21    1    1    2  504  501 -0.62103506981E+02 -0.14210372378E+02  0.30944136841E+02  0.70825982996E+02  0.00000000000E+00 0.  1.
         21    1    1    2  505  502 -0.66174497389E+02  0.57966120080E+02  0.12228290077E+03  0.15063944703E+03  0.00000000000E+00 0.  1.
          1    1    1    2  501    0  0.95743431167E+02 -0.72515272397E+02 -0.87779832149E+03  0.88597695374E+03  0.00000000000E+00 0.  1.
<scales pt_clust_3="43.42360" pt_clust_4="62.88012" pt_clust_5="14000.00000" pt_clust_6="132.08272"></scales>
<clustering>
<clus scale="   43.424">  2  3  1 -1</clus>
<clus scale="   62.880">  1  4  2 -1</clus>
<clus scale="  132.083">  2  6  1 -1</clus>
<clus scale="   62.880">  1  3  2 -1</clus>
</clustering>
</event>
<event>
 6    0  0.4340992E+002  0.9346180E+02  0.7546771E-02  0.1294679E+00
          2   -1    0    0  503    0 -0.00000000000E+00  0.00000000000E+00  0.20619849339E+04  0.20619849339E+04  0.00000000000E+00 0.  1.
         21   -1    0    0  501  502  0.00000000000E+00 -0.00000000000E+00 -0.11507321828E+03  0.11507321828E+03  0.00000000000E+00 0.  1.
         21    1    1    2  503  504 -0.67820734778E+02 -0.15451293758E+02  0.46771830286E+03  0.47286235351E+03  0.00000000000E+00 0.  1.
         21    1    1    2  504  505 -0.57276173470E+02 -0.77951550154E+02  0.11075973846E+03  0.14705347287E+03  0.00000000000E+00 0.  1.
         21    1    1    2  505  502  0.17282583880E+02  0.53743268939E+02 -0.83433125793E+02  0.10073784364E+03  0.00000000000E+00 0.  1.
          2    1    1    2  501    0  0.10781432437E+03  0.39659574973E+02  0.14518668001E+04  0.14564044822E+04  0.00000000000E+00 0.  1.
<scales pt_clust_3="14000.00000" pt_clust_4="56.26655" pt_clust_5="56.45376" pt_clust_6="93.46180"></scales>
<clustering>
<clus scale="   56.454">  2  5  1 -1</clus>
<clus scale="   56.267">  2  4  1 -1</clus>
<clus scale="   93.462">  1  6  2 -1</clus>
<clus scale="   56.454">  2  3  1 -1</clus>
</clustering>
</event>
<event>
 6    0  0.4340992E+002  0.1302633E+03  0.7546771E-02  0.1227066E+00
         21   -1    0    0  503  502  0.00000000000E+00  0.00000000000E+00  0.25910342292E+02  0.25910342292E+02  0.00000000000E+00 0. -1.
          2   -1    0    0  505    0 -0.00000000000E+00 -0.00000000000E+00 -0.28894631407E+04  0.28894631407E+04  0.00000000000E+00 0. -1.
         21    1    1    2  503  501  0.10778874445E+02  0.44736971002E+02 -0.16004930122E+03  0.16653335861E+03  0.00000000000E+00 0. -1.
         21    1    1    2  504  502  0.62439751147E+02 -0.21099427081E+02 -0.66948312324E+02  0.93946712925E+02  0.00000000000E+00 0. -1.
         21    1    1    2  505  504 -0.32187485966E+02  0.12365178595E+03 -0.17964385280E+04  0.18009767303E+04  0.00000000000E+00 0. -1.
          2    1    1    2  501    0 -0.41031139626E+02 -0.14728932987E+03 -0.84011665688E+03  0.85391668111E+03  0.00000000000E+00 0. -1.
<scales pt_clust_3="46.01718" pt_clust_4="69.08133" pt_clust_5="130.26329" pt_clust_6="14000.00000"></scales>
<clustering>
<clus scale="   46.017">  1  3  2 -1</clus>
<clus scale="   69.081">  1  4  2 -1</clus>
<clus scale="  130.263">  2  5  1 -1</clus>
<clus scale="   46.017">  1  3  2 -1</clus>
</clustering>
</event>
<event>
 6    0  0.4340992E+002  0.2461130E+03  0.7546771E-02  0.1115786E+00
          1   -1    0    0  505    0 -0.00000000000E+00  0.00000000000E+00  0.71631502232E+03  0.71631502232E+03  0.00000000000E+00 0. -1.
         21   -1    0    0  503  502  0.00000000000E+00 -0.00000000000E+00 -0.32890400845E+03  0.32890400845E+03  0.00000000000E+00 0.  1.
         21    1    1    2  503  501  0.35639883526E+02  0.13311993037E+02 -0.34698321419E+02  0.51491591213E+02  0.00000000000E+00 0. -1.
         21    1    1    2  504  502 -0.21387020250E+03  0.15711103428E+03 -0.19104137715E+03  0.32698799427E+03  0.00000000000E+00 0.  1.
         21    1    1    2  505  504 -0.32947935156E+01 -0.32426965625E+02  0.57037425310E+02  0.65693467331E+02  0.00000000000E+00 0. -1.
          1    1    1    2  501    0  0.18152511249E+03 -0.13799606169E+03  0.55611328712E+03  0.60104597796E+03  0.00000000000E+00 0. -1.
<scales pt_clust_3="37.86167" pt_clust_4="14000.00000" pt_clust_5="32.59392" pt_clust_6="246.11298"></scales>
<clustering>
<clus scale="   32.594">  1  5  2 -1</clus>
<clus scale="   37.862">  2  3  1 -1</clus>
<clus scale="  246.113">  1  6  2 -1</clus>
<clus scale="   37.862">  2  3  1 -1</clus>
</clustering>
</event>
<event>
 6    0  0.4340992E+002  0.3082306E+03  0.7546771E-02  0.1081197E+00
          2   -1    0    0  503    0 -0.00000000000E+00  0.00000000000E+00  0.34206009953E+04  0.34206009953E+04  0.00000000000E+00 0.  1.
         21   -1    0    0  505  502  0.00000000000E+00 -0.00000000000E+00 -0.68404026545E+02  0.68404026545E+02  0.00000000000E+00 0.  1.
         21    1    1    2  503  502 -0.68409276775E+02 -0.16152978839E+03  0.12829780351E+03  0.21732930790E+03  0.00000000000E+00 0.  1.
         21    1    1    2  504  501  0.18458368456E+02  0.77870704332E+02  0.48299220029E+03  0.48957739276E+03  0.00000000000E+00 0.  1.
         21    1    1    2  505  504 -0.12589362065E+02 -0.16152710834E+03  0.47007920353E+03  0.49721620685E+03  0.00000000000E+00 0.  1.
          2    1    1    2  501    0  0.62540270384E+02  0.24518619239E+03  0.22708277615E+04  0.22848821144E+04  0.00000000000E+00 0.  1.
<scales pt_clust_3="303.03706" pt_clust_4="31.68674" pt_clust_5="162.01697" pt_clust_6="31.68674"></scales>
<clustering>
<clus scale="   31.687">  4  6 -1 -1</clus>
<clus scale="  162.017">  2  5  1 -1</clus>
<clus scale="  303.037">  2  3  1 -1</clus>
<clus scale="  162.017">  2  3  1 -1</clus>
</clustering>
</event>
<event>
 6    0  0.4340992E+002  0.7374992E+02  0.7546771E-02  0.1347786E+00
          2   -1    0    0  505    0 -0.00000000000E+00  0.00000000000E+00  0.28352795504E+04  0.28352795504E+04  0.00000000000E+00 0. -1.
         21   -1    0    0  503  502  0.00000000000E+00 -0.00000000000E+00 -0.17593163267E+02  0.17593163267E+02  0.00000000000E+00 0. -1.
         21    1    1    2  503  501 -0.42182187261E+02 -0.38309741862E+02  0.44243965711E+03  0.44609396256E+03  0.00000000000E+00 0.  1.
         21    1    1    2  504  502  0.47209385630E+02  0.89345614024E+01  0.51550197708E+02  0.70469676903E+02  0.00000000000E+00 0. -1.
         21    1    1    2  505  504  0.58468083893E+02  0.64685884181E+02  0.33110617453E+03  0.34239462505E+03  0.00000000000E+00 0. -1.
          2    1    1    2  501    0 -0.63495282262E+02 -0.35310703721E+02  0.19925903578E+04  0.19939144492E+04  0.00000000000E+00 0. -1.
<scales pt_clust_3="48.11413" pt_clust_4="48.04740" pt_clust_5="73.74992" pt_clust_6="14000.00000"></scales>
<clustering>
<clus scale="   48.047">  2  4  1 -1</clus>
<clus scale="   48.114">  2  3  1 -1</clus>
<clus scale="   73.750">  2  5  1 -1</clus>
<clus scale="   48.047">  2  3  1 -1</clus>
</clustering>
</event>
<event>
 6    0  0.4340992E+002  0.1199396E+03  0.7546771E-02  0.1243197E+00
         21   -1    0    0  504  502  0.00000000000E+00  0.00000000000E+00  0.21419306803E+03  0.21419306803E+03  0.00000000000E+00 0.  1.
          2   -1    0    0  503    0 -0.00000000000E+00 -0.00000000000E+00 -0.11982285104E+04  0.11982285104E+04  0.00000000000E+00 0. -1.
         21    1    1    2  503  505  0.40885201687E+01  0.35095403841E+02 -0.18159690460E+03  0.18500226790E+03  0.00000000000E+00 0.  1.
         21    1    1    2  504  501  0.21743952898E+02  0.87947376254E+02  0.10179093428E+02  0.91165533074E+02  0.00000000000E+00 0. -1.
         21    1    1    2  505  502 -0.79739619564E+02 -0.12342852424E+03  0.12752596405E+03  0.19456587325E+03  0.00000000000E+00 0.  1.
          2    1    1    2  501    0  0.53907146498E+02  0.38574414787E+00 -0.94014359529E+03  0.94168790425E+03  0.00000000000E+00 0. -1.
<scales pt_clust_3="35.33275" pt_clust_4="119.93955" pt_clust_5="14000.00000" pt_clust_6="66.42929"></scales>
<clustering>
<clus scale="   35.333">  2  3  1 -1</clus>
<clus scale="   66.429">  2  6  1 -1</clus>
<clus scale="  119.940">  2  4  1 -1</clus>
<clus scale="  119.940">  1  3  2 -1</clus>
</clustering>
</event>
<event>
 6    0  0.4340992E+002  0.8709911E+02  0.7546771E-02  0.1310033E+00
         21   -1    0    0  505  502  0.00000000000E+00  0.00000000000E+00  0.30974913869E+02  0.30974913869E+02  0.00000000000E+00 0.  1.
          2   -1    0    0  504    0 -0.00000000000E+00 -0.00000000000E+00 -0.35137862416E+04  0.35137862416E+04  0.00000000000E+00 0. -1.
         21    1    1    2  503  501 -0.44045973966E+02 -0.80205533251E+02 -0.73527980898E+03  0.74095166704E+03  0.00000000000E+00 0. -1.
         21    1    1    2  504  502  0.38827096727E+02  0.17587159459E+01 -0.91713881036E+02  0.99609600425E+02  0.00000000000E+00 0. -1.
         21    1    1    2  505  503  0.48216167762E+02 -0.67919219086E+01 -0.20706609184E+01  0.48736194697E+02  0.00000000000E+00 0.  1.
          2    1    1    2  501    0 -0.42997290523E+02  0.85238739213E+02 -0.26537469768E+04  0.26554636933E+04  0.00000000000E+00 0. -1.
<scales pt_clust_3="87.09911" pt_clust_4="38.86691" pt_clust_5="81.90600" pt_clust_6="14000.00000"></scales>
<clustering>
<clus scale="   38.867">  1  4  2 -1</clus>
<clus scale="   81.906">  1  5  2 -1</clus>
<clus scale="   87.099">  1  3  2 -1</clus>
<clus scale="   38.867">  1  3  2 -1</clus>
</clustering>
</event>
<event>
 6    0  0.4340992E+002  0.1660446E+03  0.7546771E-02  0.1182037E+00
         21   -1    0    0  505  502  0.00000000000E+00  0.00000000000E+00  0.23820268934E+03  0.23820268934E+03  0.00000000000E+00 0. -1.
         -2   -1    0    0    0  501 -0.00000000000E+00 -0.00000000000E+00 -0.84362608106E+03  0.84362608106E+03  0.00000000000E+00 0. -1.
         21    1    1    2  503  504  0.34069822630E+01 -0.36594933328E+02 -0.91782239803E+02  0.98867467939E+02  0.00000000000E+00 0.  1.
         21    1    1    2  504  502 -0.36652572485E+02  0.14309353438E+02  0.10265037235E+03  0.10993301419E+03  0.00000000000E+00 0. -1.
         21    1    1    2  505  501  0.16968929569E+01  0.13933115554E+03  0.83746723698E+02  0.16257171980E+03  0.00000000000E+00 0. -1.
         -2    1    1    2    0  503  0.31548697266E+02 -0.11704557565E+03 -0.70003824796E+03  0.71045656847E+03  0.00000000000E+00 0. -1.
<scales pt_clust_3="31.14024" pt_clust_4="39.34677" pt_clust_5="156.11659" pt_clust_6="31.14024"></scales>
<clustering>
<clus scale="   31.140">  3  6 -1 -1</clus>
<clus scale="   39.347">  1  4  2 -1</clus>
<clus scale="  156.117">  1  5  2 -1</clus>
<clus scale="   39.347">  1  3  2 -1</clus>
</clustering>
</event>
<event>
 6    0  0.4340992E+002  0.1173777E+03  0.7546771E-02  0.1247487E+00
          2   -1    0    0  503    0 -0.00000000000E+00  0.00000000000E+00  0.65921188731E+03  0.65921188731E+03  0.00000000000E+00 0. -1.
         21   -1    0    0  504  502  0.00000000000E+00 -0.00000000000E+00 -0.15740327098E+03  0.15740327098E+03  0.00000000000E+00 0.  1.
         21    1    1    2  503  502  0.44559247707E+02  0.16857422698E+03  0.29502872525E+03  0.34270212325E+03  0.00000000000E+00 0. -1.
         21    1    1    2  504  505 -0.28427702462E+02 -0.55305729794E+02 -0.11173347100E+03  0.12787191465E+03  0.00000000000E+00 0.  1.
         21    1    1    2  505  501  0.12954153928E+02 -0.81986514332E+02  0.14243223808E+03  0.16485308939E+03  0.00000000000E+00 0. -1.
          2    1    1    2  501    0 -0.29085699172E+02 -0.31281982853E+02  0.17608112399E+03  0.18118803099E+03  0.00000000000E+00 0. -1.
<scales pt_clust_3="117.37773" pt_clust_4="62.87477" pt_clust_5="14000.00000" pt_clust_6="42.71464"></scales>
<clustering>
<clus scale="   42.715">  1  6  2 -1</clus>
<clus scale="   62.875">  2  4  1 -1</clus>
<clus scale="  117.378">  2  3  1 -1</clus>
<clus scale="   62.875">  2  3  1 -1</clus>
</clustering>
</event>
<event>
 6    0  0.4340992E+002  0.2289269E+03  0.7546771E-02  0.1127397E+00
         21   -1    0    0  505  502  0.00000000000E+00  0.00000000000E+00  0.12243580202E+04  0.12243580202E+04  0.00000000000E+00 0.  1.
          2   -1    0    0  503    0 -0.00000000000E+00 -0.00000000000E+00 -0.30984105952E+03  0.30984105952E+03  0.00000000000E+00 0.  1.
         21    1    1    2  503  502 -0.18223998675E+02  0.46453499630E+02 -0.19936333981E+03  0.20551346189E+03  0.00000000000E+00 0.  1.
         21    1    1    2  504  501 -0.46439211564E+01 -0.15262286235E+03  0.64225938001E+03  0.66016090109E+03  0.00000000000E+00 0.  1.
         21    1    1    2  505  504  0.54127282497E+02 -0.54068293848E+02  0.49739506506E+03  0.50324446729E+03  0.00000000000E+00 0.  1.
          2    1    1    2  501    0 -0.31259362665E+02  0.16023765657E+03 -0.25774144561E+02  0.16528024947E+03  0.00000000000E+00 0.  1.
<scales pt_clust_3="49.90032" pt_clust_4="69.40945" pt_clust_5="69.40945" pt_clust_6="207.06904"></scales>
<clustering>
<clus scale="   49.900">  2  3  1 -1</clus>
<clus scale="   69.409">  4  5 -1 -1</clus>
<clus scale="  207.069">  2  6  1 -1</clus>
<clus scale="  228.927">  1  3  2 -1</clus>
</clustering>
</event>
<event>
 6    0  0.4340992E+002  0.3937998E+03  0.7546771E-02  0.1045948E+00
         21   -1    0    0  503  502  0.00000000000E+00  0.00000000000E+00  0.17220921040E+04  0.17220921040E+04  0.00000000000E+00 0. -1.
          2   -1    0    0  504    0 -0.00000000000E+00 -0.00000000000E+00 -0.27477309108E+03  0.27477309108E+03  0.00000000000E+00 0. -1.
         21    1    1    2  503  505  0.67752267075E+02  0.42463946526E+02  0.69618688499E+03  0.70076368005E+03  0.00000000000E+00 0. -1.
         21    1    1    2  504  502  0.28959411192E+02  0.58970615115E+02  0.59985406819E+02  0.88963082090E+02  0.00000000000E+00 0.  1.
         21    1    1    2  505  501 -0.43499892188E+03 -0.16515177652E+03  0.72476139656E+03  0.86126549523E+03  0.00000000000E+00 0. -1.
          2    1    1    2  501    0  0.33828724362E+03  0.63717214874E+02 -0.33614675408E+02  0.34587293775E+03  0.00000000000E+00 0. -1.
<scales pt_clust_3="80.45137" pt_clust_4="65.69765" pt_clust_5="14000.00000" pt_clust_6="393.79980"></scales>
<clustering>
<clus scale="   65.698">  2  4  1 -1</clus>
<clus scale="   80.451">  1  3  2 -1</clus>
<clus scale="  393.800">  2  6  1 -1</clus>
<clus scale="   80.451">  1  3  2 -1</clus>
</clustering>
</event>
<event>
 6    0  0.4340992E+002  0.1113847E+03  0.7546771E-02  0.1258027E+00
          2   -1    0    0  503    0 -0.00000000000E+00  0.00000000000E+00  0.94861544761E+03  0.94861544761E+03  0.00000000000E+00 0.  1.
         21   -1    0    0  504  502  0.00000000000E+00 -0.00000000000E+00 -0.14494140911E+04  0.14494140911E+04  0.00000000000E+00 0. -1.
         21    1    1    2  503  505 -0.27747428681E+02 -0.44456926484E+02  0.76487419233E+01  0.52960753052E+02  0.00000000000E+00 0. -1.
         21    1    1    2  504  501 -0.39707300352E+02  0.54738548047E+02 -0.37634103884E+03  0.38236835101E+03  0.00000000000E+00 0. -1.
         21    1    1    2  505  502  0.14299355757E+03 -0.13207617712E+02 -0.10409045962E+04  0.10507635210E+04  0.00000000000E+00 0. -1.
          2    1    1    2  501    0 -0.75538828535E+02  0.29259961496E+01  0.90879824959E+03  0.91193691368E+03  0.00000000000E+00 0.  1.
<scales pt_clust_3="52.40552" pt_clust_4="67.55936" pt_clust_5="111.38470" pt_clust_6="14000.00000"></scales>
<clustering>
<clus scale="   52.406">  1  3  2 -1</clus>
<clus scale="   67.559">  2  4  1 -1</clus>
<clus scale="  111.385">  2  5  1 -1</clus>
<clus scale="   67.559">  2  3  1 -1</clus>
</clustering>
</event>
<event>
 6    0  0.4340992E+002  0.8185681E+02  0.7546771E-02  0.1323863E+00
          2   -1    0    0  503    0 -0.00000000000E+00  0.00000000000E+00  0.18239969410E+03  0.18239969410E+03  0.00000000000E+00 0. -1.
         21   -1    0    0  501  502  0.00000000000E+00 -0.00000000000E+00 -0.17902105084E+04  0.17902105084E+04  0.00000000000E+00 0.  1.
         21    1    1    2  503  505  0.32427243890E+02  0.47341143747E+02  0.14501056657E+02  0.59186068308E+02  0.00000000000E+00 0. -1.
         21    1    1    2  504  502 -0.39422761682E+02  0.57091221749E+01 -0.10759523157E+04  0.10766894324E+04  0.00000000000E+00 0.  1.
         21    1    1    2  505  504  0.41821468606E+02  0.44105107622E+02 -0.67165803862E+03  0.67440256271E+03  0.00000000000E+00 0.  1.
          2    1    1    2  501    0 -0.34825950814E+02 -0.97155373544E+02  0.12529848333E+03  0.16233213910E+03  0.00000000000E+00 0. -1.
<scales pt_clust_3="14000.00000" pt_clust_4="39.83401" pt_clust_5="49.70593" pt_clust_6="81.85681"></scales>
<clustering>
<clus scale="   39.834">  2  4  1 -1</clus>
<clus scale="   49.706">  2  5  1 -1</clus>
<clus scale="   81.857">  1  6  2 -1</clus>
<clus scale="   39.834">  2  3  1 -1</clus>
</clustering>
</event>
<event>
 6    0  0.4340992E+002  0.2029585E+03  0.7546771E-02  0.1147267E+00
          1   -1    0    0  505    0 -0.00000000000E+00  0.00000000000E+00  0.21165377674E+04  0.21165377674E+04  0.00000000000E+00 0. -1.
         21   -1    0    0  503  502  0.00000000000E+00 -0.00000000000E+00 -0.34527780337E+02  0.34527780337E+02  0.00000000000E+00 0. -1.
         21    1    1    2  503  501 -0.37447438099E+02 -0.97499424044E+02  0.89377522638E+03  0.89985699064E+03  0.00000000000E+00 0. -1.
         21    1    1    2  504  502  0.46808547851E+02  0.26885494687E+02  0.11385717318E+03  0.12600526124E+03  0.00000000000E+00 0. -1.
         21    1    1    2  505  504  0.48792365206E+02  0.13838789001E+03  0.20978595071E+03  0.25601181246E+03  0.00000000000E+00 0. -1.
          1    1    1    2  501    0 -0.58153474958E+02 -0.67773960655E+02  0.86459163675E+03  0.86919148335E+03  0.00000000000E+00 0. -1.
<scales pt_clust_3="32.34616" pt_clust_4="41.74597" pt_clust_5="41.74597" pt_clust_6="194.10945"></scales>
<clustering>
<clus scale="   32.346">  3  6 -1 -1</clus>
<clus scale="   41.746">  4  5 -1 -1</clus>
<clus scale="  194.109">  1  3  2 -1</clus>
<clus scale="  202.959">  2  3  1 -1</clus>
</clustering>
</event>
<event>
 6    0  0.4340992E+002  0.1368982E+03  0.7546771E-02  0.1217565E+00
         21   -1    0    0  504  502  0.00000000000E+00  0.00000000000E+00  0.45791107711E+02  0.45791107711E+02  0.00000000000E+00 0. -1.
         -1   -1    0    0    0  501 -0.00000000000E+00 -0.00000000000E+00 -0.66478856905E+03  0.66478856905E+03  0.00000000000E+00 0. -1.
         21    1    1    2  503  502  0.45133276296E+02 -0.55737990226E+02 -0.35776055581E+02  0.80147753160E+02  0.00000000000E+00 0. -1.
         21    1    1    2  504  505 -0.11461430383E+03  0.88093505279E+02 -0.39447746710E+03  0.42013018978E+03  0.00000000000E+00 0. -1.
         21    1    1    2  505  501  0.17582818227E+02 -0.28573602311E+02 -0.11672530956E+03  0.12145124181E+03  0.00000000000E+00 0. -1.
         -1    1    1    2    0  503  0.51898209307E+02 -0.37819127427E+01 -0.72018629099E+02  0.88850492011E+02  0.00000000000E+00 0. -1.
<scales pt_clust_3="53.98906" pt_clust_4="121.48306" pt_clust_5="33.55006" pt_clust_6="53.98906"></scales>
<clustering>
<clus scale="   33.550">  2  5  1 -1</clus>
<clus scale="   53.989">  3  6 -1 -1</clus>
<clus scale="  121.483">  2  4  1 -1</clus>
<clus scale="  136.898">  1  3  2 -1</clus>
</clustering>
</event>
<event>
 6    0  0.4340992E+002  0.4509556E+03  0.7546771E-02  0.1027437E+00
         21   -1    0    0  505  502  0.00000000000E+00  0.00000000000E+00  0.28014904955E+03  0.28014904955E+03  0.00000000000E+00 0.  1.
          2   -1    0    0  503    0 -0.00000000000E+00 -0.00000000000E+00 -0.35776695304E+04  0.35776695304E+04  0.00000000000E+00 0.  1.
         21    1    1    2  503  502  0.61535804684E+02 -0.59632282528E+02 -0.73850679519E+02  0.11312200159E+03  0.00000000000E+00 0. -1.
         21    1    1    2  504  501  0.64475178616E+02 -0.28438190025E+02 -0.36073144898E+03  0.36754993891E+03  0.00000000000E+00 0. -1.
         21    1    1    2  505  504 -0.49508667461E+03  0.13197872177E+03 -0.22896744462E+02  0.51288737485E+03  0.00000000000E+00 0.  1.
          2    1    1    2  501    0  0.36907569131E+03 -0.43908249220E+02 -0.28400416079E+04  0.28642592646E+04  0.00000000000E+00 0.  1.
<scales pt_clust_3="85.68935" pt_clust_4="34.94865" pt_clust_5="443.75530" pt_clust_6="34.94865"></scales>
<clustering>
<clus scale="   34.949">  4  6 -1 -1</clus>
<clus scale="   85.689">  1  3  2 -1</clus>
<clus scale="  443.755">  1  5  2 -1</clus>
<clus scale="   85.689">  1  3  2 -1</clus>
</clustering>
</event>
<event>
 6    0  0.4340992E+002  0.1206621E+03  0.7546771E-02  0.1242009E+00
         21   -1    0    0  503  502  0.00000000000E+00  0.00000000000E+00  0.86852110876E+03  0.86852110876E+03  0.00000000000E+00 0.  1.
          2   -1    0    0  504    0 -0.00000000000E+00 -0.00000000000E+00 -0.24148176526E+02  0.24148176526E+02  0.00000000000E+00 0.  1.
         21    1    1    2  503  505 -0.65903435078E+02 -0.10821542032E+03  0.44427368688E+03  0.46198803968E+03  0.00000000000E+00 0.  1.
         21    1    1    2  504  502 -0.12155967015E+02  0.29062584568E+02  0.17033285390E+03  0.17322148387E+03  0.00000000000E+00 0.  1.
         21    1    1    2  505  501  0.27020933205E+02  0.44067170022E+02  0.13160261270E+03  0.14139057244E+03  0.00000000000E+00 0.  1.
          2    1    1    2  501    0  0.51038468889E+02  0.35085665726E+02  0.98163778747E+02  0.11606918930E+03  0.00000000000E+00 0.  1.
<scales pt_clust_3="115.86567" pt_clust_4="31.50240" pt_clust_5="30.77118" pt_clust_6="30.77118"></scales>
<clustering>
<clus scale="   30.771">  5  6 -1 -1</clus>
<clus scale="   31.502">  1  4  2 -1</clus>
<clus scale="  115.866">  1  3  2 -1</clus>
<clus scale="   31.502">  1  3  2 -1</clus>
</clustering>
</event>
<event>
 6    0  0.4340992E+002  0.2105611E+03  0.7546771E-02  0.1141122E+00
         21   -1    0    0  504  502  0.00000000000E+00  0.00000000000E+00  0.18304566650E+04  0.18304566650E+04  0.00000000000E+00 0.  1.
         -1   -1    0    0    0  501 -0.00000000000E+00 -0.00000000000E+00 -0.15932618739E+03  0.15932618739E+03  0.00000000000E+00 0.  1.
         21    1    1    2  503  502  0.20038520251E+02  0.23022729223E+02  0.14637890088E+04  0.14641071855E+04  0.00000000000E+00 0.  1.
         21    1    1    2  504  501 -0.20386312463E+03 -0.11825687507E+03  0.37004258185E+02  0.23856692396E+03  0.00000000000E+00 0.  1.
         21    1    1    2  505  503  0.82926238698E+01  0.48815721989E+02  0.34335902215E+02  0.60255261222E+02  0.00000000000E+00 0.  1.
         -1    1    1    2    0  505  0.17553198051E+03  0.46418423860E+02  0.13600130834E+03  0.22685348163E+03  0.00000000000E+00 0.  1.
<scales pt_clust_3="30.52193" pt_clust_4="14000.00000" pt_clust_5="52.91691" pt_clust_6="210.56106"></scales>
<clustering>
<clus scale="   30.522">  1  3  2 -1</clus>
<clus scale="   52.917">  1  5  2 -1</clus>
<clus scale="  210.561">  1  6  2 -1</clus>
<clus scale="   30.522">  1  3  2 -1</clus>
</clustering>
</event>
<event>
 6    0  0.4340992E+002  0.1228042E+03  0.7546771E-02  0.1238541E+00
          1   -1    0    0  505    0 -0.00000000000E+00  0.00000000000E+00  0.14101603435E+04  0.14101603435E+04  0.00000000000E+00 0.  1.
         21   -1    0    0  504  502  0.00000000000E+00 -0.00000000000E+00 -0.18409358455E+03  0.18409358455E+03  0.00000000000E+00 0.  1.
         21    1    1    2  503  501  0.17893393182E+02  0.61816041266E+02  0.57628893448E+03  0.57987096192E+03  0.00000000000E+00 0.  1.
         21    1    1    2  504  503 -0.30009365685E+02 -0.11898011090E+03  0.93172133624E+02  0.15407100734E+03  0.00000000000E+00 0. -1.
         21    1    1    2  505  502  0.31089953049E+02  0.39931938178E+01 -0.14909619708E+03  0.15235552750E+03  0.00000000000E+00 0.  1.
          1    1    1    2  501    0 -0.18973980546E+02  0.53170875819E+02  0.70570188790E+03  0.70795643125E+03  0.00000000000E+00 0.  1.
<scales pt_clust_3="39.18440" pt_clust_4="115.34779" pt_clust_5="31.34535" pt_clust_6="39.18440"></scales>
<clustering>
<clus scale="   31.345">  2  5  1 -1</clus>
<clus scale="   39.184">  3  6 -1 -1</clus>
<clus scale="  115.348">  2  4  1 -1</clus>
<clus scale="   31.345">  2  3  1 -1</clus>
</clustering>
</event>
<event>
 6    0  0.4340992E+002  0.1006531E+03  0.7546771E-02  0.1278929E+00
         21   -1    0    0  503  502  0.00000000000E+00  0.00000000000E+00  0.60375078913E+02  0.60375078913E+02  0.00000000000E+00 0.  1.
          2   -1    0    0  504    0 -0.00000000000E+00 -0.00000000000E+00 -0.38995915852E+04  0.38995915852E+04  0.00000000000E+00 0.  1.
         21    1    1    2  503  501 -0.10481383014E+03  0.88014018767E+01 -0.17945780487E+02  0.10670264617E+03  0.00000000000E+00 0.  1.
         21    1    1    2  504  505  0.42516394025E+02 -0.49517064589E+02 -0.11998224874E+04  0.12015962653E+04  0.00000000000E+00 0.  1.
         21    1    1    2  505  502  0.99702947754E+01  0.33318429915E+02 -0.55292647012E+01  0.35215015520E+02  0.00000000000E+00 0.  1.
          2    1    1    2  501    0  0.52327141336E+02  0.73972327972E+01 -0.26159189737E+04  0.26164527372E+04  0.00000000000E+00 0.  1.
<scales pt_clust_3="100.65310" pt_clust_4="14000.00000" pt_clust_5="34.77822" pt_clust_6="52.93293"></scales>
<clustering>
<clus scale="   34.778">  1  5  2 -1</clus>
<clus scale="   52.933">  2  6  1 -1</clus>
<clus scale="  100.653">  1  3  2 -1</clus>
<clus scale="   34.778">  1  3  2 -1</clus>
</clustering>
</event>
<event>
 6    0  0.4340992E+002  0.2437024E+03  0.7546771E-02  0.1117351E+00
         21   -1    0    0  501  502  0.00000000000E+00  0.00000000000E+00  0.58758891949E+03  0.58758891949E+03  0.00000000000E+00 0.  1.
          1   -1    0    0  505    0 -0.00000000000E+00 -0.00000000000E+00 -0.17388721368E+04  0.17388721368E+04  0.00000000000E+00 0.  1.
         21    1    1    2  503  504  0.25058049723E+02 -0.24413084239E+03  0.31992339211E+03  0.40321055403E+03  0.00000000000E+00 0.  1.
         21    1    1    2  504  502 -0.11450172422E+03  0.12781644179E+02  0.19921962476E+03  0.23013577333E+03  0.00000000000E+00 0.  1.
         21    1    1    2  505  503  0.42156707245E+02  0.68797581304E+02 -0.25151685169E+03  0.26414204861E+03  0.00000000000E+00 0.  1.
          1    1    1    2  501    0  0.47286967254E+02  0.16255161690E+03 -0.14189093825E+04  0.14289726803E+04  0.00000000000E+00 0.  1.
<scales pt_clust_3="243.70237" pt_clust_4="114.85782" pt_clust_5="80.68640" pt_clust_6="14000.00000"></scales>
<clustering>
<clus scale="   80.686">  2  5  1 -1</clus>
<clus scale="  114.858">  1  4  2 -1</clus>
<clus scale="  243.702">  1  3  2 -1</clus>
<clus scale="  114.858">  1  3  2 -1</clus>
</clustering>
</event>
<event>
 6    0  0.4340992E+002  0.1412497E+03  0.7546771E-02  0.1211657E+00
         21   -1    0    0  505  502  0.00000000000E+00  0.00000000000E+00  0.83257910243E+02  0.83257910243E+02  0.00000000000E+00 0. -1.
         -1   -1    0    0    0  501 -0.00000000000E+00 -0.00000000000E+00 -0.20093865867E+04  0.20093865867E+04  0.00000000000E+00 0. -1.
         21    1    1    2  503  502 -0.10207833892E+02 -0.41930212086E+02 -0.12279854734E+03  0.13016076901E+03  0.00000000000E+00 0. -1.
         21    1    1    2  504  501  0.54220825214E+02  0.11214317959E+03 -0.14302370057E+04  0.14356510311E+04  0.00000000000E+00 0. -1.
         21    1    1    2  505  504  0.59579647089E+02 -0.17833318403E+02  0.55158202782E+02  0.83127546136E+02  0.00000000000E+00 0. -1.
         -1    1    1    2    0  503 -0.10359263841E+03 -0.52379649097E+02 -0.42825132616E+03  0.44370515067E+03  0.00000000000E+00 0. -1.
<scales pt_clust_3="37.69068" pt_clust_4="127.00493" pt_clust_5="62.19133" pt_clust_6="37.69068"></scales>
<clustering>
<clus scale="   37.691">  3  6 -1 -1</clus>
<clus scale="   62.191">  1  5  2 -1</clus>
<clus scale="  127.005">  2  4  1 -1</clus>
<clus scale="   62.191">  1  3  2 -1</clus>
</clustering>
</event>
<event>
 6    0  0.4340992E+002  0.1261210E+03  0.7546771E-02  0.1233328E+00
         21   -1    0    0  505  502  0.00000000000E+00  0.00000000000E+00  0.36567434368E+02  0.36567434368E+02  0.00000000000E+00 0.  1.
          2   -1    0    0  503    0 -0.00000000000E+00 -0.00000000000E+00 -0.24064498594E+04  0.24064498594E+04  0.00000000000E+00 0.  1.
         21    1    1    2  503  502 -0.62864395811E+02 -0.10190824192E+03 -0.35104903669E+03  0.37090787022E+03  0.00000000000E+00 0.  1.
         21    1    1    2  504  501  0.11652033693E+02  0.52075534320E+02 -0.54180928170E+03  0.54443083022E+03  0.00000000000E+00 0. -1.
         21    1    1    2  505  504  0.34234830851E+02 -0.98535308060E+01  0.11825714725E+02  0.37536159121E+02  0.00000000000E+00 0.  1.
          2    1    1    2  501    0  0.16977531267E+02  0.59686238402E+02 -0.14888498213E+04  0.14901424342E+04  0.00000000000E+00 0.  1.
<scales pt_clust_3="115.34672" pt_clust_4="47.25001" pt_clust_5="35.62465" pt_clust_6="47.25001"></scales>
<clustering>
<clus scale="   35.625">  1  5  2 -1</clus>
<clus scale="   47.250">  4  6 -1 -1</clus>
<clus scale="  115.347">  1  3  2 -1</clus>
<clus scale="   35.625">  1  3  2 -1</clus>
</clustering>
</event>
<event>
 6    0  0.4340992E+002  0.1826050E+03  0.7546771E-02  0.1165305E+00
          1   -1    0    0  505    0 -0.00000000000E+00  0.00000000000E+00  0.11769197825E+04  0.11769197825E+04  0.00000000000E+00 0. -1.
         21   -1    0    0  503  502  0.00000000000E+00 -0.00000000000E+00 -0.22893257721E+03  0.22893257721E+03  0.00000000000E+00 0. -1.
         21    1    1    2  503  501 -0.34516922634E+02  0.46220857535E+01 -0.35297902679E+02  0.49585517627E+02  0.00000000000E+00 0. -1.
         21    1    1    2  504  502  0.65723749528E+02 -0.57801867257E+02 -0.13347892884E+03  0.15961607549E+03  0.00000000000E+00 0. -1.
         21    1    1    2  505  504  0.11698034640E+03  0.15676151623E+03  0.28631953215E+03  0.34675272011E+03  0.00000000000E+00 0.  1.
          1    1    1    2  501    0 -0.14818717329E+03 -0.10358173472E+03  0.83044450470E+03  0.84989804652E+03  0.00000000000E+00 0. -1.
<scales pt_clust_3="34.82501" pt_clust_4="66.51547" pt_clust_5="182.60504" pt_clust_6="14000.00000"></scales>
<clustering>
<clus scale="   34.825">  2  3  1 -1</clus>
<clus scale="   66.515">  2  4  1 -1</clus>
<clus scale="  182.605">  2  5  1 -1</clus>
<clus scale="   34.825">  2  3  1 -1</clus>
</clustering>
</event>
<event>
 6    0  0.4340992E+002  0.6955619E+02  0.7546771E-02  0.1361609E+00
         21   -1    0    0  505  502  0.00000000000E+00  0.00000000000E+00  0.58454568431E+02  0.58454568431E+02  0.00000000000E+00 0. -1.
          2   -1    0    0  503    0 -0.00000000000E+00 -0.00000000000E+00 -0.64237667524E+03  0.64237667524E+03  0.00000000000E+00 0. -1.
         21    1    1    2  503  504  0.61344447165E+01 -0.30074046310E+02 -0.18067259104E+03  0.18326119291E+03  0.00000000000E+00 0. -1.
         21    1    1    2  504  502  0.10393069492E+03  0.41065082434E+02 -0.10566156329E+03  0.15379303072E+03  0.00000000000E+00 0. -1.
         21    1    1    2  505  501 -0.58533532969E+02 -0.14038242377E+02  0.15542131338E+01  0.60213472823E+02  0.00000000000E+00 0. -1.
          2    1    1    2  501    0 -0.51531606668E+02  0.30472062538E+01 -0.29914216561E+03  0.30356354722E+03  0.00000000000E+00 0. -1.
<scales pt_clust_3="30.69332" pt_clust_4="69.55619" pt_clust_5="14000.00000" pt_clust_6="50.34488"></scales>
<clustering>
<clus scale="   30.693">  2  3  1 -1</clus>
<clus scale="   50.345">  2  6  1 -1</clus>
<clus scale="   69.556">  2  4  1 -1</clus>
<clus scale="   69.556">  1  3  2 -1</clus>
</clustering>
</event>
<event>
 6    0  0.4340992E+002  0.1042208E+03  0.7546771E-02  0.1271662E+00
         21   -1    0    0  504  502  0.00000000000E+00  0.00000000000E+00  0.39472009710E+03  0.39472009710E+03  0.00000000000E+00 0.  1.
         -2   -1    0    0    0  501 -0.00000000000E+00 -0.00000000000E+00 -0.47153385604E+03  0.47153385604E+03  0.00000000000E+00 0.  1.
         21    1    1    2  503  502 -0.61805751837E+02 -0.14518867038E+01  0.47741789251E+02  0.78111057962E+02  0.00000000000E+00 0.  1.
         21    1    1    2  504  505  0.81960755885E+02  0.66394359645E+02  0.29435436094E+03  0.31268237287E+03  0.00000000000E+00 0.  1.
         21    1    1    2  505  501  0.94286285976E+02 -0.46238737008E+02 -0.24357992011E+03  0.26525290197E+03  0.00000000000E+00 0. -1.
         -2    1    1    2    0  503 -0.11444129002E+03 -0.18703735934E+02 -0.17532998903E+03  0.21020762035E+03  0.00000000000E+00 0.  1.
<scales pt_clust_3="61.82280" pt_clust_4="69.85622" pt_clust_5="14000.00000" pt_clust_6="104.22084"></scales>
<clustering>
<clus scale="   61.823">  1  3  2 -1</clus>
<clus scale="   69.856">  1  4  2 -1</clus>
<clus scale="  104.221">  1  6  2 -1</clus>
<clus scale="   61.823">  1  3  2 -1</clus>
</clustering>
</event>
<event>
 6    0  0.4340992E+002  0.1191483E+03  0.7546771E-02  0.1244509E+00
         21   -1    0    0  505  502  0.00000000000E+00  0.00000000000E+00  0.22421529895E+02  0.22421529895E+02  0.00000000000E+00 0.  1.
          2   -1    0    0  503    0 -0.00000000000E+00 -0.00000000000E+00 -0.40247249146E+04  0.40247249146E+04  0.00000000000E+00 0.  1.
         21    1    1    2  503  504  0.53024790306E+02  0.80152489124E+02 -0.13496498293E+04  0.13530671497E+04  0.00000000000E+00 0. -1.
         21    1    1    2  504  502 -0.14280009603E+02  0.10787303870E+03 -0.39642751464E+03  0.41109036174E+03  0.00000000000E+00 0.  1.
         21    1    1    2  505  501  0.35475067644E+02 -0.48423539686E+02 -0.75110184948E+02  0.96150192423E+02  0.00000000000E+00 0.  1.
          2    1    1    2  501    0 -0.74219848347E+02 -0.13960198813E+03 -0.21811158558E+04  0.21868387406E+04  0.00000000000E+00 0.  1.
<scales pt_clust_3="14000.00000" pt_clust_4="78.41035" pt_clust_5="60.02766" pt_clust_6="119.14835"></scales>
<clustering>
<clus scale="   60.028">  1  5  2 -1</clus>
<clus scale="   78.410">  1  4  2 -1</clus>
<clus scale="  119.148">  1  6  2 -1</clus>
<clus scale="   60.028">  1  3  2 -1</clus>
</clustering>
</event>
<event>
 6    0  0.4340992E+002  0.5286464E+02  0.7546771E-02  0.1430476E+00
          2   -1    0    0  505    0 -0.00000000000E+00  0.00000000000E+00  0.43575062281E+04  0.43575062281E+04  0.00000000000E+00 0.  1.
         21   -1    0    0  503  502  0.00000000000E+00 -0.00000000000E+00 -0.23458315638E+03  0.23458315638E+03  0.00000000000E+00 0. -1.
         21    1    1    2  503  501 -0.73756395607E+02  0.58119056158E+02  0.29924281797E+03  0.31363050663E+03  0.00000000000E+00 0.  1.
         21    1    1    2  504  502  0.34563132047E+02 -0.39481252815E+02 -0.22317294280E+03  0.22925867883E+03  0.00000000000E+00 0. -1.
         21    1    1    2  505  504  0.83791874121E+02 -0.21272772173E+02  0.32017668632E+04  0.32029337575E+04  0.00000000000E+00 0.  1.
          2    1    1    2  501    0 -0.44598610560E+02  0.26349688294E+01  0.84508633335E+03  0.84626644146E+03  0.00000000000E+00 0.  1.
<scales pt_clust_3="14000.00000" pt_clust_4="52.86464" pt_clust_5="47.07138" pt_clust_6="44.67638"></scales>
<clustering>
<clus scale="   44.676">  1  6  2 -1</clus>
<clus scale="   47.071">  1  5  2 -1</clus>
<clus scale="   52.865">  2  4  1 -1</clus>
<clus scale="   52.865">  2  3  1 -1</clus>
</clustering>
</event>
<event>
 6    0  0.4340992E+002  0.1398943E+03  0.7546771E-02  0.1213471E+00
         21   -1    0    0  503  502  0.00000000000E+00  0.00000000000E+00  0.21127631823E+03  0.21127631823E+03  0.00000000000E+00 0.  1.
         -1   -1    0    0    0  501 -0.00000000000E+00 -0.00000000000E+00 -0.52570237771E+03  0.52570237771E+03  0.00000000000E+00 0.  1.
         21    1    1    2  503  505  0.93221496153E+02 -0.14434753503E+03  0.10188564329E+03  0.19976772142E+03  0.00000000000E+00 0.  1.
         21    1    1    2  504  502  0.18058093408E+02  0.51584145965E+02  0.17525682187E+02  0.57394846359E+02  0.00000000000E+00 0.  1.
         21    1    1    2  505  501 -0.75359493059E+02  0.56925422404E+01 -0.66730623309E+02  0.10081881927E+03  0.00000000000E+00 0.  1.
         -1    1    1    2    0  504 -0.35920096502E+02  0.87070846822E+02 -0.36710676165E+03  0.37899730889E+03  0.00000000000E+00 0.  1.
<scales pt_clust_3="14000.00000" pt_clust_4="54.65363" pt_clust_5="74.36991" pt_clust_6="139.89428"></scales>
<clustering>
<clus scale="   54.654">  1  4  2 -1</clus>
<clus scale="   74.370">  2  5  1 -1</clus>
<clus scale="  139.894">  2  6  1 -1</clus>
<clus scale="   54.654">  1  3  2 -1</clus>
</clustering>
</event>
<event>
 6    0  0.4340992E+002  0.6904977E+02  0.7546771E-02  0.1363354E+00
          2   -1    0    0  504    0 -0.00000000000E+00  0.00000000000E+00  0.16250208683E+04  0.16250208683E+04  0.00000000000E+00 0. -1.
         21   -1    0    0  503  502  0.00000000000E+00 -0.00000000000E+00 -0.26216928726E+02  0.26216928726E+02  0.00000000000E+00 0. -1.
         21    1    1    2  503  501  0.15735616338E+02 -0.49954197785E+02  0.43342089685E+02  0.67982117032E+02  0.00000000000E+00 0. -1.
         21    1    1    2  504  505 -0.35385122043E+02  0.56697857574E+02  0.74705502641E+03  0.75003864327E+03  0.00000000000E+00 0. -1.
         21    1    1    2  505  502 -0.56077571309E+02 -0.19446682461E+02  0.74258598714E+02  0.95064225372E+02  0.00000000000E+00 0. -1.
          2    1    1    2  501    0  0.75727077014E+02  0.12703022673E+02  0.73414822481E+03  0.73815281139E+03  0.00000000000E+00 0. -1.
<scales pt_clust_3="52.37396" pt_clust_4="61.40632" pt_clust_5="14000.00000" pt_clust_6="69.04977"></scales>
<clustering>
<clus scale="   52.374">  2  3  1 -1</clus>
<clus scale="   61.406">  1  4  2 -1</clus>
<clus scale="   69.050">  1  6  2 -1</clus>
<clus scale="   52.374">  2  3  1 -1</clus>
</clustering>
</event>
<event>
 6    0  0.4340992E+002  0.1427863E+03  0.7546771E-02  0.1209628E+00
          4   -1    0    0  503    0 -0.00000000000E+00  0.00000000000E+00  0.62499202891E+03  0.62499202891E+03  0.00000000000E+00 0.  1.
         21   -1    0    0  504  502  0.00000000000E+00 -0.00000000000E+00 -0.57618430583E+03  0.57618430583E+03  0.00000000000E+00 0.  1.
         21    1    1    2  503  505 -0.19272181639E+02 -0.25405305570E+02  0.13352185761E+03  0.13727684800E+03  0.00000000000E+00 0.  1.
         21    1    1    2  504  501 -0.33724687283E+02 -0.17300102628E+02 -0.66271826439E+01  0.38478144876E+02  0.00000000000E+00 0. -1.
         21    1    1    2  505  502 -0.36147091100E+02  0.14262216712E+03 -0.53210349761E+03  0.55207049090E+03  0.00000000000E+00 0.  1.
          4    1    1    2  501    0  0.89143960022E+02 -0.99916758923E+02  0.45401654572E+03  0.47335085096E+03  0.00000000000E+00 0.  1.
<scales pt_clust_3="31.88803" pt_clust_4="38.84070" pt_clust_5="14000.00000" pt_clust_6="142.78628"></scales>
<clustering>
<clus scale="   31.888">  1  3  2 -1</clus>
<clus scale="   38.841">  2  4  1 -1</clus>
<clus scale="  142.786">  1  6  2 -1</clus>
<clus scale="   38.841">  2  3  1 -1</clus>
</clustering>
</event>
<event>
 6    0  0.4340992E+002  0.1061444E+03  0.7546771E-02  0.1267881E+00
          1   -1    0    0  505    0 -0.00000000000E+00  0.00000000000E+00  0.31341604008E+03  0.31341604008E+03  0.00000000000E+00 0.  1.
         21   -1    0    0  503  502  0.00000000000E+00 -0.00000000000E+00 -0.40931365552E+03  0.40931365552E+03  0.00000000000E+00 0.  1.
         21    1    1    2  503  501 -0.10579799179E+03  0.91023739329E+02 -0.35184373596E+03  0.37851360705E+03  0.00000000000E+00 0.  1.
         21    1    1    2  504  502  0.17992894123E+02 -0.32428184397E+02 -0.99752701910E+01  0.38403611778E+02  0.00000000000E+00 0.  1.
         21    1    1    2  505  504  0.29831579929E+02  0.19101763989E+02  0.18257217999E+02  0.39851305595E+02  0.00000000000E+00 0. -1.
          1    1    1    2  501    0  0.57973517733E+02 -0.77697318921E+02  0.24766417271E+03  0.26596117117E+03  0.00000000000E+00 0.  1.
<scales pt_clust_3="106.14440" pt_clust_4="37.01623" pt_clust_5="35.42316" pt_clust_6="14000.00000"></scales>
<clustering>
<clus scale="   35.423">  1  5  2 -1</clus>
<clus scale="   37.016">  2  4  1 -1</clus>
<clus scale="  106.144">  2  3  1 -1</clus>
<clus scale="   37.016">  2  3  1 -1</clus>
</clustering>
</event>
<event>
 6    0  0.4340992E+002  0.1046671E+03  0.7546771E-02  0.1270777E+00
         21   -1    0    0  504  502  0.00000000000E+00  0.00000000000E+00  0.30266558029E+03  0.30266558029E+03  0.00000000000E+00 0.  1.
          1   -1    0    0  505    0 -0.00000000000E+00 -0.00000000000E+00 -0.99273557329E+03  0.99273557329E+03  0.00000000000E+00 0. -1.
         21    1    1    2  503  502 -0.66332435382E+01 -0.54255084326E+02  0.22226260676E+03  0.22888486288E+03  0.00000000000E+00 0.  1.
         21    1    1    2  504  501 -0.24390534262E+02 -0.57370349685E+02  0.57837745111E+02  0.85037991181E+02  0.00000000000E+00 0.  1.
         21    1    1    2  505  503  0.52044360968E+02  0.52973183481E+02 -0.32845563863E+03  0.33674601738E+03  0.00000000000E+00 0.  1.
          1    1    1    2  501    0 -0.21020583168E+02  0.58652250530E+02 -0.64171470624E+03  0.64473228212E+03  0.00000000000E+00 0. -1.
<scales pt_clust_3="54.65907" pt_clust_4="104.66707" pt_clust_5="14000.00000" pt_clust_6="61.35140"></scales>
<clustering>
<clus scale="   54.659">  1  3  2 -1</clus>
<clus scale="   61.351">  2  6  1 -1</clus>
<clus scale="  104.667">  1  4  2 -1</clus>
<clus scale="   54.659">  1  3  2 -1</clus>
</clustering>
</event>
<event>
 6    0  0.4340992E+002  0.1875575E+03  0.7546771E-02  0.1160683E+00
          2   -1    0    0  502    0 -0.00000000000E+00  0.00000000000E+00  0.63527714906E+03  0.63527714906E+03  0.00000000000E+00 0. -1.
         21   -1    0    0  504  502  0.00000000000E+00 -0.00000000000E+00 -0.93880127347E+02  0.93880127347E+02  0.00000000000E+00 0. -1.
         21    1    1    2  503  501  0.77761024721E+02 -0.53769179013E+02  0.13768749551E+03  0.16702020236E+03  0.00000000000E+00 0. -1.
         21    1    1    2  504  505  0.26856933410E+02 -0.30748409984E+02 -0.14042536686E+02  0.43173515322E+02  0.00000000000E+00 0. -1.
         21    1    1    2  505  503 -0.13280745085E+03  0.14580132691E+03  0.16430856009E+03  0.25669660857E+03  0.00000000000E+00 0. -1.
          2    1    1    2  501    0  0.28189492724E+02 -0.61283737915E+02  0.25344350280E+03  0.26226695016E+03  0.00000000000E+00 0. -1.
<scales pt_clust_3="68.08780" pt_clust_4="40.82597" pt_clust_5="168.33452" pt_clust_6="68.08780"></scales>
<clustering>
<clus scale="   40.826">  2  4  1 -1</clus>
<clus scale="   68.088">  3  6 -1 -1</clus>
<clus scale="  168.335">  2  5  1 -1</clus>
<clus scale="   40.826">  2  3  1 -1</clus>
</clustering>
</event>
<event>
 6    0  0.4340992E+002  0.1719246E+03  0.7546771E-02  0.1175856E+00
         21   -1    0    0  501  502  0.00000000000E+00  0.00000000000E+00  0.19708536086E+03  0.19708536086E+03  0.00000000000E+00 0.  1.
          2   -1    0    0  504    0 -0.00000000000E+00 -0.00000000000E+00 -0.27926712400E+04  0.27926712400E+04  0.00000000000E+00 0.  1.
         21    1    1    2  503  505 -0.23096211771E+02 -0.35352389648E+02  0.37778652871E+02  0.56660860078E+02  0.00000000000E+00 0.  1.
         21    1    1    2  504  503  0.16750260834E+03  0.60895920318E+01 -0.76453958414E+03  0.78269724840E+03  0.00000000000E+00 0.  1.
         21    1    1    2  505  502  0.23681328580E+02 -0.26149604773E+02  0.13461250546E+03  0.13915866404E+03  0.00000000000E+00 0.  1.
          2    1    1    2  501    0 -0.16808772515E+03  0.55412402390E+02 -0.20034374534E+04  0.20112398284E+04  0.00000000000E+00 0.  1.
<scales pt_clust_3="56.04637" pt_clust_4="14000.00000" pt_clust_5="35.27899" pt_clust_6="171.92456"></scales>
<clustering>
<clus scale="   35.279">  1  5  2 -1</clus>
<clus scale="   56.046">  1  3  2 -1</clus>
<clus scale="  171.925">  2  6  1 -1</clus>
<clus scale="   35.279">  1  3  2 -1</clus>
</clustering>
</event>
<event>
 6    0  0.4340992E+002  0.1017596E+03  0.7546771E-02  0.1276639E+00
         21   -1    0    0  503  502  0.00000000000E+00  0.00000000000E+00  0.38128248142E+03  0.38128248142E+03  0.00000000000E+00 0.  1.
          1   -1    0    0  505    0 -0.00000000000E+00 -0.00000000000E+00 -0.55623406245E+03  0.55623406245E+03  0.00000000000E+00 0.  1.
         21    1    1    2  503  501  0.17129527112E+02 -0.41586255466E+02  0.31385047868E+03  0.31705671465E+03  0.00000000000E+00 0.  1.
         21    1    1    2  504  502 -0.35013382445E+02 -0.26043176547E+01  0.38988094108E+02  0.52467045875E+02  0.00000000000E+00 0. -1.
         21    1    1    2  505  504  0.73602992479E+02 -0.57841023749E+02 -0.23117944199E+03  0.24941314907E+03  0.00000000000E+00 0.  1.
          1    1    1    2  501    0 -0.55719137147E+02  0.10203159687E+03 -0.29661071182E+03  0.31857963427E+03  0.00000000000E+00 0.  1.
<scales pt_clust_3="46.77876" pt_clust_4="35.11010" pt_clust_5="14000.00000" pt_clust_6="101.75959"></scales>
<clustering>
<clus scale="   35.110">  1  4  2 -1</clus>
<clus scale="   46.779">  1  3  2 -1</clus>
<clus scale="  101.760">  1  6  2 -1</clus>
<clus scale="   35.110">  1  3  2 -1</clus>
</clustering>
</event>
<event>
 6    0  0.4340992E+002  0.7607494E+02  0.7546771E-02  0.1340574E+00
          2   -1    0    0  503    0 -0.00000000000E+00  0.00000000000E+00  0.20864772686E+04  0.20864772686E+04  0.00000000000E+00 0. -1.
         21   -1    0    0  504  502  0.00000000000E+00 -0.00000000000E+00 -0.24994429365E+02  0.24994429365E+02  0.00000000000E+00 0.  1.
         21    1    1    2  503  502 -0.65486221843E+02 -0.13146678518E+02  0.87164393699E+03  0.87419930983E+03  0.00000000000E+00 0. -1.
         21    1    1    2  504  505  0.74548712308E+02 -0.21522478146E+02  0.62973033342E+02  0.99931629130E+02  0.00000000000E+00 0.  1.
         21    1    1    2  505  501 -0.12436008392E+02  0.73848525247E+02  0.28876253902E+03  0.29831537495E+03  0.00000000000E+00 0.  1.
          2    1    1    2  501    0  0.33735179274E+01 -0.39179368583E+02  0.83810332991E+03  0.83902538410E+03  0.00000000000E+00 0. -1.
<scales pt_clust_3="76.07494" pt_clust_4="14000.00000" pt_clust_5="65.67283" pt_clust_6="39.32434"></scales>
<clustering>
<clus scale="   39.324">  1  6  2 -1</clus>
<clus scale="   65.673">  1  5  2 -1</clus>
<clus scale="   76.075">  1  3  2 -1</clus>
<clus scale="   76.075">  2  3  1 -1</clus>
</clustering>
</event>
<event>
 6    0  0.4340992E+002  0.8145916E+02  0.7546771E-02  0.1324961E+00
         21   -1    0    0  503  502  0.00000000000E+00  0.00000000000E+00  0.17538293721E+04  0.17538293721E+04  0.00000000000E+00 0.  1.
          1   -1    0    0  504    0 -0.00000000000E+00 -0.00000000000E+00 -0.76083157767E+03  0.76083157767E+03  0.00000000000E+00 0. -1.
         21    1    1    2  503  505 -0.29933736658E+02 -0.79070642057E+02  0.14347743531E+04  0.14372632463E+04  0.00000000000E+00 0.  1.
         21    1    1    2  504  502  0.26846329551E+02 -0.22673583246E+02 -0.34586029918E+02  0.49305276118E+02  0.00000000000E+00 0.  1.
         21    1    1    2  505  501 -0.39162921922E+02  0.80311386295E+02  0.30321651846E+03  0.31610743473E+03  0.00000000000E+00 0.  1.
          1    1    1    2  501    0  0.42250329029E+02  0.21432839008E+02 -0.71040704722E+03  0.71198499256E+03  0.00000000000E+00 0. -1.
<scales pt_clust_3="81.45916" pt_clust_4="35.13996" pt_clust_5="14000.00000" pt_clust_6="68.81672"></scales>
<clustering>
<clus scale="   35.140">  2  4  1 -1</clus>
<clus scale="   68.817">  2  6  1 -1</clus>
<clus scale="   81.459">  1  3  2 -1</clus>
<clus scale="   81.459">  1  3  2 -1</clus>
</clustering>
</event>
<event>
 6    0  0.4340992E+002  0.1221562E+03  0.7546771E-02  0.1239582E+00
          1   -1    0    0  504    0 -0.00000000000E+00  0.00000000000E+00  0.45265971303E+03  0.45265971303E+03  0.00000000000E+00 0. -1.
         21   -1    0    0  505  502  0.00000000000E+00 -0.00000000000E+00 -0.98490410255E+02  0.98490410255E+02  0.00000000000E+00 0. -1.
         21    1    1    2  503  502  0.29094803447E+02 -0.10501963892E+02 -0.12141154833E+01  0.30955983422E+02  0.00000000000E+00 0. -1.
         21    1    1    2  504  503  0.35619692788E+02  0.10383046543E+03 -0.31533845905E+02  0.11420994485E+03  0.00000000000E+00 0. -1.
         21    1    1    2  505  501 -0.23658395714E+02 -0.73515062095E+02  0.25257474448E+03  0.26411774948E+03  0.00000000000E+00 0. -1.
          1    1    1    2  501    0 -0.41056100521E+02 -0.19813439440E+02  0.13434251968E+03  0.14186644553E+03  0.00000000000E+00 0. -1.
<scales pt_clust_3="30.93217" pt_clust_4="112.70364" pt_clust_5="35.78585" pt_clust_6="35.78585"></scales>
<clustering>
<clus scale="   30.932">  2  3  1 -1</clus>
<clus scale="   35.786">  5  6 -1 -1</clus>
<clus scale="  112.704">  2  4  1 -1</clus>
<clus scale="   30.932">  2  3  1 -1</clus>
</clustering>
</event>
<event>
 6    0  0.6650428E+002  0.9580794E+02  0.7546771E-02  0.1289367E+00
         21   -1    0    0  504  502  0.00000000000E+00  0.00000000000E+00  0.87248313815E+03  0.87248313815E+03  0.00000000000E+00 0. -1.
          2   -1    0    0  503    0 -0.00000000000E+00 -0.00000000000E+00 -0.18331943764E+04  0.18331943764E+04  0.00000000000E+00 0. -1.
         21    1    1    2  503  502  0.25348777748E+02 -0.30082121929E+02 -0.65014675278E+03  0.65133577726E+03  0.00000000000E+00 0.  1.
         21    1    1    2  504  505 -0.76996572704E+02  0.62067805697E+02  0.83950888372E+03  0.84531417270E+03  0.00000000000E+00 0. -1.
         21    1    1    2  505  501  0.14760140780E+02 -0.66092180093E+02 -0.10715743074E+02  0.68562855650E+02  0.00000000000E+00 0. -1.
          2    1    1    2  501    0  0.36887654176E+02  0.34106496326E+02 -0.11393576261E+04  0.11404647089E+04  0.00000000000E+00 0. -1.
<scales pt_clust_3="39.33821" pt_clust_4="95.80794" pt_clust_5="14000.00000" pt_clust_6="61.53670"></scales>
<clustering>
<clus scale="   39.338">  2  3  1 -1</clus>
<clus scale="   61.537">  2  6  1 -1</clus>
<clus scale="   95.808">  1  4  2 -1</clus>
<clus scale="   95.808">  1  3  2 -1</clus>
</clustering>
</event>
<event>
 6    0  0.4340992E+002  0.1454703E+03  0.7546771E-02  0.1206152E+00
          1   -1    0    0  503    0 -0.00000000000E+00  0.00000000000E+00  0.27466005312E+04  0.27466005312E+04  0.00000000000E+00 0. -1.
         21   -1    0    0  504  502  0.00000000000E+00 -0.00000000000E+00 -0.22334273184E+03  0.22334273184E+03  0.00000000000E+00 0.  1.
         21    1    1    2  503  505  0.32474621416E+02  0.34052367945E+02  0.32919921721E+03  0.33254516898E+03  0.00000000000E+00 0.  1.
         21    1    1    2  504  501 -0.29883724625E+02 -0.27629062051E+02 -0.11289969756E+02  0.42235831759E+02  0.00000000000E+00 0.  1.
         21    1    1    2  505  502 -0.35671618164E+02 -0.10375944820E+03 -0.17826928941E+03  0.20932851449E+03  0.00000000000E+00 0.  1.
          1    1    1    2  501    0  0.33080721374E+02  0.97336142310E+02  0.23836178413E+04  0.23858337478E+04  0.00000000000E+00 0. -1.
<scales pt_clust_3="46.70924" pt_clust_4="40.69892" pt_clust_5="145.47028" pt_clust_6="14000.00000"></scales>
<clustering>
<clus scale="   40.699">  2  4  1 -1</clus>
<clus scale="   46.709">  1  3  2 -1</clus>
<clus scale="  145.470">  2  5  1 -1</clus>
<clus scale="   40.699">  2  3  1 -1</clus>
</clustering>
</event>
<event>
 6    0  0.4340992E+002  0.1201853E+03  0.7546771E-02  0.1242792E+00
         21   -1    0    0  503  502  0.00000000000E+00  0.00000000000E+00  0.34706303280E+03  0.34706303280E+03  0.00000000000E+00 0. -1.
          1   -1    0    0  504    0 -0.00000000000E+00 -0.00000000000E+00 -0.18370002926E+04  0.18370002926E+04  0.00000000000E+00 0.  1.
         21    1    1    2  503  501  0.46843279127E+02  0.51318275092E+02  0.30991620650E+03  0.31760968690E+03  0.00000000000E+00 0. -1.
         21    1    1    2  504  505  0.78592503475E+02  0.13847942753E+02 -0.96588894838E+03  0.96918006981E+03  0.00000000000E+00 0.  1.
         21    1    1    2  505  502  0.55406632065E+02  0.72239395174E+01 -0.18488196440E+02  0.58854851852E+02  0.00000000000E+00 0. -1.
          1    1    1    2  501    0 -0.18084241467E+03 -0.72390157363E+02 -0.81547632149E+03  0.83841871683E+03  0.00000000000E+00 0.  1.
<scales pt_clust_3="14000.00000" pt_clust_4="80.08418" pt_clust_5="55.87558" pt_clust_6="120.18531"></scales>
<clustering>
<clus scale="   55.876">  1  5  2 -1</clus>
<clus scale="   80.084">  2  4  1 -1</clus>
<clus scale="  120.185">  2  6  1 -1</clus>
<clus scale="   55.876">  1  3  2 -1</clus>
</clustering>
</event>
<event>
 6    0  0.4340992E+002  0.1634496E+03  0.7546771E-02  0.1184856E+00
          2   -1    0    0  504    0 -0.00000000000E+00  0.00000000000E+00  0.27022910578E+04  0.27022910578E+04  0.00000000000E+00 0. -1.
         21   -1    0    0  505  502  0.00000000000E+00 -0.00000000000E+00 -0.34716012407E+03  0.34716012407E+03  0.00000000000E+00 0.  1.
         21    1    1    2  503  502  0.39865632862E+02 -0.37266077502E+02  0.31186812995E+02  0.62854168681E+02  0.00000000000E+00 0.  1.
         21    1    1    2  504  503  0.77929263944E+02  0.14794642670E+03  0.24173654541E+04  0.24231419385E+04  0.00000000000E+00 0. -1.
         21    1    1    2  505  501 -0.10512031611E+03  0.32413995016E+02 -0.29561839937E+03  0.31542223444E+03  0.00000000000E+00 0.  1.
          2    1    1    2  501    0 -0.12674580697E+02 -0.14309434421E+03  0.20219706596E+03  0.24803284021E+03  0.00000000000E+00 0. -1.
<scales pt_clust_3="54.57132" pt_clust_4="163.44961" pt_clust_5="68.38750" pt_clust_6="14000.00000"></scales>
<clustering>
<clus scale="   54.571">  2  3  1 -1</clus>
<clus scale="   68.388">  2  5  1 -1</clus>
<clus scale="  163.450">  1  4  2 -1</clus>
<clus scale="   54.571">  2  3  1 -1</clus>
</clustering>
</event>
<event>
 6    0  0.4340992E+002  0.1124526E+03  0.7546771E-02  0.1256094E+00
         21   -1    0    0  501  502  0.00000000000E+00  0.00000000000E+00  0.80696423835E+02  0.80696423835E+02  0.00000000000E+00 0.  1.
          1   -1    0    0  504    0 -0.00000000000E+00 -0.00000000000E+00 -0.43129523490E+03  0.43129523490E+03  0.00000000000E+00 0.  1.
         21    1    1    2  503  502 -0.50881666995E+02  0.21328090448E+02 -0.30273988700E+01  0.55253928569E+02  0.00000000000E+00 0.  1.
         21    1    1    2  504  505  0.17812151389E+02 -0.31620270533E+02 -0.10679897225E+03  0.11279687371E+03  0.00000000000E+00 0. -1.
         21    1    1    2  505  503 -0.10469802996E+03  0.39451636054E+01 -0.13054714714E+03  0.16739115693E+03  0.00000000000E+00 0.  1.
          1    1    1    2  501    0  0.13776754556E+03  0.63470164790E+01 -0.11022529281E+03  0.17654969953E+03  0.00000000000E+00 0.  1.
<scales pt_clust_3="52.61273" pt_clust_4="36.29207" pt_clust_5="14000.00000" pt_clust_6="112.45264"></scales>
<clustering>
<clus scale="   36.292">  2  4  1 -1</clus>
<clus scale="   52.613">  1  3  2 -1</clus>
<clus scale="  112.453">  1  6  2 -1</clus>
<clus scale="   52.613">  1  3  2 -1</clus>
</clustering>
</event>
<event>
 6    0  0.4340992E+002  0.7316279E+02  0.7546771E-02  0.1349657E+00
         21   -1    0    0  503  502  0.00000000000E+00  0.00000000000E+00  0.25542477593E+03  0.25542477593E+03  0.00000000000E+00 0.  1.
          2   -1    0    0  504    0 -0.00000000000E+00 -0.00000000000E+00 -0.31765855883E+04  0.31765855883E+04  0.00000000000E+00 0.  1.
         21    1    1    2  503  501  0.59840958475E+02  0.43712383335E+02  0.10375922850E+03  0.12750564798E+03  0.00000000000E+00 0. -1.
         21    1    1    2  504  505  0.35145871946E+02  0.61976366775E+02 -0.28831914097E+04  0.28840716024E+04  0.00000000000E+00 0.  1.
         21    1    1    2  505  502 -0.19665554852E+02 -0.79382601612E+02  0.12089473701E+03  0.14595844930E+03  0.00000000000E+00 0.  1.
          2    1    1    2  501    0 -0.75321275570E+02 -0.26306148498E+02 -0.26262336817E+03  0.27447466461E+03  0.00000000000E+00 0.  1.
<scales pt_clust_3="73.16279" pt_clust_4="71.24817" pt_clust_5="14000.00000" pt_clust_6="52.80702"></scales>
<clustering>
<clus scale="   71.248">  2  4  1 -1</clus>
<clus scale="   52.807">  2  6  1 -1</clus>
<clus scale="   73.163">  1  3  2 -1</clus>
<clus scale="   73.163">  1  3  2 -1</clus>
</clustering>
</event>
<event>
 6    0  0.4340992E+002  0.2235193E+03  0.7546771E-02  0.1131286E+00
          2   -1    0    0  504    0 -0.00000000000E+00  0.00000000000E+00  0.23996295393E+04  0.23996295393E+04  0.00000000000E+00 0.  1.
         21   -1    0    0  505  502  0.00000000000E+00 -0.00000000000E+00 -0.61671709723E+02  0.61671709723E+02  0.00000000000E+00 0.  1.
         21    1    1    2  503  502 -0.83639189999E+02 -0.73065019688E+02  0.22430284271E+03  0.25029138310E+03  0.00000000000E+00 0.  1.
         21    1    1    2  504  503  0.81480957541E+02  0.28640689925E+03  0.55912437905E+03  0.63347306938E+03  0.00000000000E+00 0.  1.
         21    1    1    2  505  501  0.46877471630E+02 -0.19380748944E+03  0.93172554238E+03  0.95282282017E+03  0.00000000000E+00 0.  1.
          2    1    1    2  501    0 -0.44719239172E+02 -0.19534390114E+02  0.62280506547E+03  0.62471397641E+03  0.00000000000E+00 0.  1.
<scales pt_clust_3="117.29255" pt_clust_4="223.51935" pt_clust_5="14000.00000" pt_clust_6="48.79962"></scales>
<clustering>
<clus scale="   48.800">  1  6  2 -1</clus>
<clus scale="  117.293">  2  3  1 -1</clus>
<clus scale="  223.519">  2  4  1 -1</clus>
<clus scale="  117.293">  2  3  1 -1</clus>
</clustering>
</event>
<event>
 6    0  0.4340992E+002  0.1442683E+03  0.7546771E-02  0.1207698E+00
         21   -1    0    0  504  502  0.00000000000E+00  0.00000000000E+00  0.49491322547E+02  0.49491322547E+02  0.00000000000E+00 0.  1.
          1   -1    0    0  502    0 -0.00000000000E+00 -0.00000000000E+00 -0.27568968751E+04  0.27568968751E+04  0.00000000000E+00 0.  1.
         21    1    1    2  503  505 -0.25194693741E+02  0.35859993516E+02 -0.15407932995E+02  0.46455528486E+02  0.00000000000E+00 0.  1.
         21    1    1    2  504  503  0.36486947628E+02  0.89778829580E+02 -0.63670227419E+02  0.11595444557E+03  0.00000000000E+00 0.  1.
         21    1    1    2  505  501  0.28048160886E+02 -0.14782043389E+03 -0.74151785763E+03  0.75662825297E+03  0.00000000000E+00 0.  1.
          1    1    1    2  501    0 -0.39340414773E+02  0.22181610797E+02 -0.18868095345E+04  0.18873499706E+04  0.00000000000E+00 0.  1.
<scales pt_clust_3="43.63900" pt_clust_4="43.63900" pt_clust_5="128.84999" pt_clust_6="45.16295"></scales>
<clustering>
<clus scale="   43.639">  3  4 -1 -1</clus>
<clus scale="   45.163">  2  6  1 -1</clus>
<clus scale="  128.850">  2  5  1 -1</clus>
<clus scale="  144.268">  1  3  2 -1</clus>
</clustering>
</event>
<event>
 6    0  0.4340992E+002  0.8903487E+02  0.7546771E-02  0.1305206E+00
         21   -1    0    0  503  502  0.00000000000E+00  0.00000000000E+00  0.37609302093E+03  0.37609302093E+03  0.00000000000E+00 0. -1.
          2   -1    0    0  504    0 -0.00000000000E+00 -0.00000000000E+00 -0.13695806054E+04  0.13695806054E+04  0.00000000000E+00 0.  1.
         21    1    1    2  503  501 -0.86172158927E+02  0.10420955281E+02  0.69342204361E+01  0.87076522072E+02  0.00000000000E+00 0. -1.
         21    1    1    2  504  505  0.59663802745E+02 -0.23504284298E+02 -0.21595962233E+03  0.22527933597E+03  0.00000000000E+00 0. -1.
         21    1    1    2  505  502  0.14268455306E+02  0.61744253009E+02  0.32075851076E+03  0.32695865766E+03  0.00000000000E+00 0. -1.
          2    1    1    2  501    0  0.12239900876E+02 -0.48660923992E+02 -0.11052206934E+04  0.11063591107E+04  0.00000000000E+00 0.  1.
<scales pt_clust_3="89.03487" pt_clust_4="14000.00000" pt_clust_5="62.84724" pt_clust_6="50.17669"></scales>
<clustering>
<clus scale="   50.177">  2  6  1 -1</clus>
<clus scale="   62.847">  1  5  2 -1</clus>
<clus scale="   89.035">  1  3  2 -1</clus>
<clus scale="   62.847">  1  3  2 -1</clus>
</clustering>
</event>
<event>
 6    0  0.4340992E+002  0.2138013E+03  0.7546771E-02  0.1138591E+00
         21   -1    0    0  503  502  0.00000000000E+00  0.00000000000E+00  0.26405427278E+04  0.26405427278E+04  0.00000000000E+00 0.  1.
         -1   -1    0    0    0  501 -0.00000000000E+00 -0.00000000000E+00 -0.25663292015E+02  0.25663292015E+02  0.00000000000E+00 0.  1.
         21    1    1    2  503  501 -0.21353255773E+03 -0.55787046491E+02  0.16880510052E+04  0.17024172650E+04  0.00000000000E+00 0.  1.
         21    1    1    2  504  502  0.14626830314E+02  0.27484342389E+02  0.32923966805E+03  0.33070847020E+03  0.00000000000E+00 0. -1.
         21    1    1    2  505  504  0.52092641388E+02 -0.27078304313E+01  0.92734173076E+02  0.10639831995E+03  0.00000000000E+00 0. -1.
         -1    1    1    2    0  505  0.14681308603E+03  0.31010534534E+02  0.50485458937E+03  0.52668196465E+03  0.00000000000E+00 0.  1.
<scales pt_clust_3="205.90580" pt_clust_4="31.13412" pt_clust_5="33.62316" pt_clust_6="33.62316"></scales>
<clustering>
<clus scale="   31.134">  1  4  2 -1</clus>
<clus scale="   33.623">  5  6 -1 -1</clus>
<clus scale="  205.906">  1  3  2 -1</clus>
<clus scale="   31.134">  1  3  2 -1</clus>
</clustering>
</event>
<event>
 6    0  0.4340992E+002  0.7457511E+02  0.7546771E-02  0.1345192E+00
          1   -1    0    0  505    0 -0.00000000000E+00  0.00000000000E+00  0.11746009885E+04  0.11746009885E+04  0.00000000000E+00 0.  1.
         21   -1    0    0  504  502  0.00000000000E+00 -0.00000000000E+00 -0.22587524572E+03  0.22587524572E+03  0.00000000000E+00 0. -1.
         21    1    1    2  503  502  0.68213520568E-01  0.74575079134E+02  0.11497570557E+02  0.75456220484E+02  0.00000000000E+00 0. -1.
         21    1    1    2  504  501  0.67105213510E+02 -0.40663970015E+02 -0.16806938629E+03  0.18548311714E+03  0.00000000000E+00 0. -1.
         21    1    1    2  505  503 -0.63835945258E+02  0.41428040118E+02  0.76244799315E+02  0.10772455541E+03  0.00000000000E+00 0.  1.
          1    1    1    2  501    0 -0.33374817718E+01 -0.75339149237E+02  0.10290527592E+04  0.10318123412E+04  0.00000000000E+00 0.  1.
<scales pt_clust_3="74.57511" pt_clust_4="72.51349" pt_clust_5="14000.00000" pt_clust_6="72.63571"></scales>
<clustering>
<clus scale="   74.575">  2  3  1 -1</clus>
<clus scale="   72.513">  2  4  1 -1</clus>
<clus scale="   72.636">  1  6  2 -1</clus>
<clus scale="   74.575">  2  3  1 -1</clus>
</clustering>
</event>
<event>
 6    0  0.4340992E+002  0.1202942E+03  0.7546771E-02  0.1242613E+00
         21   -1    0    0  505  502  0.00000000000E+00  0.00000000000E+00  0.48883620200E+02  0.48883620200E+02  0.00000000000E+00 0.  1.
          3   -1    0    0  504    0 -0.00000000000E+00 -0.00000000000E+00 -0.13733747883E+04  0.13733747883E+04  0.00000000000E+00 0.  1.
         21    1    1    2  503  502 -0.33091903073E+02 -0.22403169998E+02 -0.14602628029E+02  0.42546595872E+02  0.00000000000E+00 0.  1.
         21    1    1    2  504  503 -0.99399218257E+02 -0.70307395882E+00 -0.11787507860E+03  0.15419219519E+03  0.00000000000E+00 0.  1.
         21    1    1    2  505  501  0.86291887556E+01  0.29710261016E+02 -0.41703225803E+01  0.31217849039E+02  0.00000000000E+00 0.  1.
          3    1    1    2  501    0  0.12386193257E+03 -0.66040170592E+01 -0.11878431389E+04  0.11943017684E+04  0.00000000000E+00 0.  1.
<scales pt_clust_3="31.53956" pt_clust_4="120.29419" pt_clust_5="30.93804" pt_clust_6="14000.00000"></scales>
<clustering>
<clus scale="   30.938">  1  5  2 -1</clus>
<clus scale="   31.540">  1  3  2 -1</clus>
<clus scale="  120.294">  1  4  2 -1</clus>
<clus scale="   30.938">  1  3  2 -1</clus>
</clustering>
</event>
<event>
 6    0  0.5475759E+002  0.1078018E+03  0.7546771E-02  0.1264696E+00
         21   -1    0    0  505  502  0.00000000000E+00  0.00000000000E+00  0.27692359818E+03  0.27692359818E+03  0.00000000000E+00 0. -1.
          2   -1    0    0  503    0 -0.00000000000E+00 -0.00000000000E+00 -0.27729497832E+04  0.27729497832E+04  0.00000000000E+00 0.  1.
         21    1    1    2  503  504 -0.24450850528E+02 -0.49101962513E+02 -0.27433899981E+03  0.27976907197E+03  0.00000000000E+00 0. -1.
         21    1    1    2  504  502  0.33034060840E+02 -0.25225009609E+02 -0.22094549581E+02  0.47071428771E+02  0.00000000000E+00 0. -1.
         21    1    1    2  505  501  0.17890743393E+02 -0.69896417079E+02  0.25451733877E+03  0.26454614636E+03  0.00000000000E+00 0. -1.
          2    1    1    2  501    0 -0.26473953704E+02  0.14422338920E+03 -0.24541099744E+04  0.24584867343E+04  0.00000000000E+00 0.  1.
<scales pt_clust_3="54.93521" pt_clust_4="41.56381" pt_clust_5="14000.00000" pt_clust_6="107.80183"></scales>
<clustering>
<clus scale="   41.564">  1  4  2 -1</clus>
<clus scale="   54.935">  2  3  1 -1</clus>
<clus scale="  107.802">  2  6  1 -1</clus>
<clus scale="   41.564">  1  3  2 -1</clus>
</clustering>
</event>
<event>
 6    0  0.4340992E+002  0.2227902E+03  0.7546771E-02  0.1131820E+00
          2   -1    0    0  505    0 -0.00000000000E+00  0.00000000000E+00  0.30812706994E+04  0.30812706994E+04  0.00000000000E+00 0.  1.
         21   -1    0    0  504  502  0.00000000000E+00 -0.00000000000E+00 -0.99966675261E+02  0.99966675261E+02  0.00000000000E+00 0.  1.
         21    1    1    2  503  501 -0.13082045897E+02  0.30689548645E+02  0.37850710980E+02  0.50454579996E+02  0.00000000000E+00 0.  1.
         21    1    1    2  504  503  0.28323329728E+02 -0.11258825410E+02  0.17697488131E+02  0.35244478187E+02  0.00000000000E+00 0.  1.
         21    1    1    2  505  502 -0.23677884675E+03 -0.32933416329E+02  0.96838089602E+02  0.25792721411E+03  0.00000000000E+00 0.  1.
          2    1    1    2  501    0  0.22153756292E+03  0.13502693093E+02  0.28289177354E+04  0.28376111024E+04  0.00000000000E+00 0.  1.
<scales pt_clust_3="31.91329" pt_clust_4="30.47904" pt_clust_5="222.79016" pt_clust_6="14000.00000"></scales>
<clustering>
<clus scale="   30.479">  2  4  1 -1</clus>
<clus scale="   31.913">  2  3  1 -1</clus>
<clus scale="  222.790">  2  5  1 -1</clus>
<clus scale="   30.479">  2  3  1 -1</clus>
</clustering>
</event>
<event>
 6    0  0.4340992E+002  0.1326988E+03  0.7546771E-02  0.1223505E+00
         21   -1    0    0  504  502  0.00000000000E+00  0.00000000000E+00  0.17252615536E+03  0.17252615536E+03  0.00000000000E+00 0. -1.
          2   -1    0    0  505    0 -0.00000000000E+00 -0.00000000000E+00 -0.67182427240E+03  0.67182427240E+03  0.00000000000E+00 0.  1.
         21    1    1    2  503  501  0.27958857222E+02  0.40160509552E+02 -0.18135393006E+03  0.18783985779E+03  0.00000000000E+00 0.  1.
         21    1    1    2  504  503 -0.11449393819E+03 -0.11049174824E+02 -0.22485405466E+02  0.11720298463E+03  0.00000000000E+00 0. -1.
         21    1    1    2  505  502  0.30310909435E+01 -0.42891778174E+02  0.11366260965E+03  0.12152399343E+03  0.00000000000E+00 0. -1.
          2    1    1    2  501    0  0.83503990024E+02  0.13780443446E+02 -0.40912139115E+03  0.41778359191E+03  0.00000000000E+00 0.  1.
<scales pt_clust_3="40.12854" pt_clust_4="121.75347" pt_clust_5="42.99875" pt_clust_6="40.12854"></scales>
<clustering>
<clus scale="   40.129">  3  6 -1 -1</clus>
<clus scale="   42.999">  1  5  2 -1</clus>
<clus scale="  121.753">  1  4  2 -1</clus>
<clus scale="   42.999">  1  3  2 -1</clus>
</clustering>
</event>
<event>
 6    0  0.4340992E+002  0.1028618E+03  0.7546771E-02  0.1274391E+00
         21   -1    0    0  503  502  0.00000000000E+00  0.00000000000E+00  0.88403848175E+02  0.88403848175E+02  0.00000000000E+00 0. -1.
          2   -1    0    0  505    0 -0.00000000000E+00 -0.00000000000E+00 -0.98561228062E+03  0.98561228062E+03  0.00000000000E+00 0.  1.
         21    1    1    2  503  504  0.21786147097E+02 -0.21670959834E+02 -0.19900155184E+02  0.36609874103E+02  0.00000000000E+00 0. -1.
         21    1    1    2  504  501 -0.20882778100E+02 -0.60821535372E+02 -0.18534129518E+02  0.66924312049E+02  0.00000000000E+00 0. -1.
         21    1    1    2  505  502 -0.47250355217E+02 -0.15128611620E+02  0.40926135643E+02  0.64315002420E+02  0.00000000000E+00 0. -1.
          2    1    1    2  501    0  0.46346986220E+02  0.97621106826E+02 -0.89970028339E+03  0.90616694022E+03  0.00000000000E+00 0.  1.
<scales pt_clust_3="30.72892" pt_clust_4="14000.00000" pt_clust_5="44.12671" pt_clust_6="102.86175"></scales>
<clustering>
<clus scale="   30.729">  1  3  2 -1</clus>
<clus scale="   44.127">  1  5  2 -1</clus>
<clus scale="  102.862">  2  6  1 -1</clus>
<clus scale="   30.729">  1  3  2 -1</clus>
</clustering>
</event>
<event>
 6    0  0.4340992E+002  0.2152039E+03  0.7546771E-02  0.1137510E+00
          2   -1    0    0  504    0 -0.00000000000E+00  0.00000000000E+00  0.19875427852E+04  0.19875427852E+04  0.00000000000E+00 0. -1.
         21   -1    0    0  501  502  0.00000000000E+00 -0.00000000000E+00 -0.42121921967E+03  0.42121921967E+03  0.00000000000E+00 0. -1.
         21    1    1    2  503  505 -0.17124952768E+02 -0.16110668289E+03  0.19787225351E+03  0.25573825680E+03  0.00000000000E+00 0. -1.
         21    1    1    2  504  503 -0.18110911468E+02  0.29488360891E+03  0.93000283656E+03  0.97580204136E+03  0.00000000000E+00 0. -1.
         21    1    1    2  505  502 -0.37657151387E+02 -0.57160716611E+02 -0.36271073279E+03  0.36911310496E+03  0.00000000000E+00 0. -1.
          2    1    1    2  501    0  0.72893015623E+02 -0.76616209413E+02  0.80115920825E+03  0.80810860176E+03  0.00000000000E+00 0. -1.
<scales pt_clust_3="14000.00000" pt_clust_4="215.20385" pt_clust_5="68.45004" pt_clust_6="106.80498"></scales>
<clustering>
<clus scale="   68.450">  2  5  1 -1</clus>
<clus scale="  106.805">  1  6  2 -1</clus>
<clus scale="  215.204">  1  4  2 -1</clus>
<clus scale="   68.450">  2  3  1 -1</clus>
</clustering>
</event>
<event>
 6    0  0.4340992E+002  0.1924053E+03  0.7546771E-02  0.1156310E+00
         -1   -1    0    0    0  501 -0.00000000000E+00  0.00000000000E+00  0.44594181002E+04  0.44594181002E+04  0.00000000000E+00 0.  1.
         21   -1    0    0  503  502  0.00000000000E+00 -0.00000000000E+00 -0.23829770543E+03  0.23829770543E+03  0.00000000000E+00 0.  1.
         21    1    1    2  503  505  0.12195277988E+03 -0.66676402709E+02  0.62051595666E+03  0.63589171694E+03  0.00000000000E+00 0. -1.
         21    1    1    2  504  502  0.23488981407E+02  0.42202458490E+02 -0.22405660189E+03  0.22920327353E+03  0.00000000000E+00 0.  1.
         21    1    1    2  505  501  0.41299001713E+02  0.42652436691E+01  0.28821067824E+03  0.29118584254E+03  0.00000000000E+00 0.  1.
         -1    1    1    2    0  504 -0.18674076300E+03  0.20208700550E+02  0.35364503618E+04  0.35414349726E+04  0.00000000000E+00 0.  1.
<scales pt_clust_3="30.63805" pt_clust_4="48.29886" pt_clust_5="30.63805" pt_clust_6="184.05812"></scales>
<clustering>
<clus scale="   30.638">  3  5 -1 -1</clus>
<clus scale="   48.299">  2  4  1 -1</clus>
<clus scale="  184.058">  1  6  2 -1</clus>
<clus scale="   48.299">  2  3  1 -1</clus>
</clustering>
</event>
<event>
 6    0  0.4340992E+002  0.1221717E+03  0.7546771E-02  0.1239557E+00
         21   -1    0    0  503  502  0.00000000000E+00  0.00000000000E+00  0.31034921380E+02  0.31034921380E+02  0.00000000000E+00 0.  1.
          2   -1    0    0  502    0 -0.00000000000E+00 -0.00000000000E+00 -0.33441277493E+04  0.33441277493E+04  0.00000000000E+00 0.  1.
         21    1    1    2  503  505 -0.29047061238E+02 -0.95979891622E+01  0.71634512556E+01  0.31419232906E+02  0.00000000000E+00 0.  1.
         21    1    1    2  504  501 -0.17974667567E+02  0.57014596082E+02 -0.12858537060E+04  0.12872425980E+04  0.00000000000E+00 0. -1.
         21    1    1    2  505  504  0.10431342558E+03 -0.65323027486E+02 -0.34965856309E+03  0.37068787331E+03  0.00000000000E+00 0. -1.
          2    1    1    2  501    0 -0.57291696780E+02  0.17906420567E+02 -0.16847440101E+04  0.16858129665E+04  0.00000000000E+00 0.  1.
<scales pt_clust_3="30.59172" pt_clust_4="57.05579" pt_clust_5="107.68241" pt_clust_6="57.05579"></scales>
<clustering>
<clus scale="   30.592">  1  3  2 -1</clus>
<clus scale="   57.056">  4  6 -1 -1</clus>
<clus scale="  107.682">  1  5  2 -1</clus>
<clus scale="   30.592">  1  3  2 -1</clus>
</clustering>
</event>
<event>
 6    0  0.4340992E+002  0.1321734E+03  0.7546771E-02  0.1224266E+00
          1   -1    0    0  505    0 -0.00000000000E+00  0.00000000000E+00  0.32709855108E+04  0.32709855108E+04  0.00000000000E+00 0.  1.
         21   -1    0    0  504  502  0.00000000000E+00 -0.00000000000E+00 -0.29321637221E+03  0.29321637221E+03  0.00000000000E+00 0.  1.
         21    1    1    2  503  501  0.92478221928E+02 -0.48458347211E+02 -0.20118442802E+03  0.22666187818E+03  0.00000000000E+00 0.  1.
         21    1    1    2  504  503  0.25417748669E+02  0.31353496056E+02 -0.61083415700E+02  0.73213983199E+02  0.00000000000E+00 0.  1.
         21    1    1    2  505  502  0.41551188327E+01 -0.34086897001E+02  0.16543372007E+02  0.38116462546E+02  0.00000000000E+00 0.  1.
          1    1    1    2  501    0 -0.12205108943E+03  0.51191748156E+02  0.32234936103E+04  0.32262095591E+04  0.00000000000E+00 0.  1.
<scales pt_clust_3="132.17336" pt_clust_4="35.18215" pt_clust_5="34.33921" pt_clust_6="14000.00000"></scales>
<clustering>
<clus scale="   34.339">  2  5  1 -1</clus>
<clus scale="   35.182">  2  4  1 -1</clus>
<clus scale="  132.173">  2  3  1 -1</clus>
<clus scale="   34.339">  2  3  1 -1</clus>
</clustering>
</event>
<event>
 6    0  0.4340992E+002  0.1305176E+03  0.7546771E-02  0.1226690E+00
         21   -1    0    0  503  502  0.00000000000E+00  0.00000000000E+00  0.93345868882E+02  0.93345868882E+02  0.00000000000E+00 0.  1.
          1   -1    0    0  504    0 -0.00000000000E+00 -0.00000000000E+00 -0.11512856370E+04  0.11512856370E+04  0.00000000000E+00 0. -1.
         21    1    1    2  503  501 -0.85405671592E+02  0.21984892569E+02 -0.56029557140E+03  0.56719361031E+03  0.00000000000E+00 0.  1.
         21    1    1    2  504  505  0.80065441433E+02 -0.33465232878E+02 -0.29676720858E+01  0.86828588616E+02  0.00000000000E+00 0.  1.
         21    1    1    2  505  502  0.41230459767E+02  0.46490832282E+01  0.38249666809E+02  0.56432276212E+02  0.00000000000E+00 0.  1.
          1    1    1    2  501    0 -0.35890229609E+02  0.68312570803E+01 -0.53292619141E+03  0.53417703072E+03  0.00000000000E+00 0. -1.
<scales pt_clust_3="31.13777" pt_clust_4="121.22068" pt_clust_5="41.49174" pt_clust_6="31.13777"></scales>
<clustering>
<clus scale="   31.138">  3  6 -1 -1</clus>
<clus scale="   41.492">  1  5  2 -1</clus>
<clus scale="  121.221">  1  4  2 -1</clus>
<clus scale="   41.492">  1  3  2 -1</clus>
</clustering>
</event>
<event>
 6    0  0.4340992E+002  0.1175894E+03  0.7546771E-02  0.1247128E+00
         -2   -1    0    0    0  501 -0.00000000000E+00  0.00000000000E+00  0.13580541081E+03  0.13580541081E+03  0.00000000000E+00 0.  1.
         21   -1    0    0  505  502  0.00000000000E+00 -0.00000000000E+00 -0.35914586355E+03  0.35914586355E+03  0.00000000000E+00 0.  1.
         21    1    1    2  503  502  0.13792025945E+03  0.35807735699E+02 -0.23789077982E+03  0.27730166791E+03  0.00000000000E+00 0.  1.
         21    1    1    2  504  501 -0.19218237811E+02  0.28767831595E+02  0.48609229002E+02  0.59663941735E+02  0.00000000000E+00 0.  1.
         21    1    1    2  505  504 -0.19382323220E+02 -0.35137373582E+02 -0.36673255824E+02  0.54362093120E+02  0.00000000000E+00 0.  1.
         -2    1    1    2    0  503 -0.99319698422E+02 -0.29438193712E+02  0.26143538981E+01  0.10362357159E+03  0.00000000000E+00 0.  1.
<scales pt_clust_3="14000.00000" pt_clust_4="34.59666" pt_clust_5="38.54983" pt_clust_6="117.58935"></scales>
<clustering>
<clus scale="   34.597">  1  4  2 -1</clus>
<clus scale="   38.550">  2  5  1 -1</clus>
<clus scale="  117.589">  1  6  2 -1</clus>
<clus scale="   38.550">  2  3  1 -1</clus>
</clustering>
</event>
<event>
 6    0  0.4340992E+002  0.8780721E+02  0.7546771E-02  0.1308250E+00
          2   -1    0    0  504    0 -0.00000000000E+00  0.00000000000E+00  0.39339844008E+03  0.39339844008E+03  0.00000000000E+00 0. -1.
         21   -1    0    0  501  502  0.00000000000E+00 -0.00000000000E+00 -0.24483330661E+03  0.24483330661E+03  0.00000000000E+00 0. -1.
         21    1    1    2  503  502  0.65353075450E+02 -0.59064341018E+02 -0.17403121905E+03  0.19505508467E+03  0.00000000000E+00 0. -1.
         21    1    1    2  504  505  0.36374865401E+02  0.81688372184E+02  0.19887088786E+03  0.21804988196E+03  0.00000000000E+00 0. -1.
         21    1    1    2  505  503 -0.75456219873E+02 -0.38859398878E+02 -0.12191086174E+02  0.85745650506E+02  0.00000000000E+00 0. -1.
          2    1    1    2  501    0 -0.26271720979E+02  0.16235367712E+02  0.13591655083E+03  0.13938112956E+03  0.00000000000E+00 0. -1.
<scales pt_clust_3="86.84044" pt_clust_4="14000.00000" pt_clust_5="87.80721" pt_clust_6="30.88350"></scales>
<clustering>
<clus scale="   30.883">  1  6  2 -1</clus>
<clus scale="   86.840">  2  3  1 -1</clus>
<clus scale="   87.807">  2  5  1 -1</clus>
<clus scale="   86.840">  2  3  1 -1</clus>
</clustering>
</event>
<event>
 6    0  0.4340992E+002  0.6946344E+02  0.7546771E-02  0.1361927E+00
          1   -1    0    0  503    0 -0.00000000000E+00  0.00000000000E+00  0.20301818491E+04  0.20301818491E+04  0.00000000000E+00 0.  1.
         21   -1    0    0  504  502  0.00000000000E+00 -0.00000000000E+00 -0.78361085903E+02  0.78361085903E+02  0.00000000000E+00 0.  1.
         21    1    1    2  503  505  0.25620953854E+02  0.57184574354E+02  0.86098221546E+03  0.86325945356E+03  0.00000000000E+00 0.  1.
         21    1    1    2  504  501  0.48790273976E+02 -0.51935297218E+02  0.27103701474E+02  0.76238943889E+02  0.00000000000E+00 0.  1.
         21    1    1    2  505  502 -0.42559091404E+01  0.44016146842E+02 -0.41408011828E+02  0.60581823916E+02  0.00000000000E+00 0.  1.
          1    1    1    2  501    0 -0.70155318689E+02 -0.49265423978E+02  0.11051428581E+04  0.11084627136E+04  0.00000000000E+00 0.  1.
<scales pt_clust_3="69.46344" pt_clust_4="46.65329" pt_clust_5="44.22142" pt_clust_6="14000.00000"></scales>
<clustering>
<clus scale="   44.221">  2  5  1 -1</clus>
<clus scale="   46.653">  2  4  1 -1</clus>
<clus scale="   69.463">  1  3  2 -1</clus>
<clus scale="   44.221">  2  3  1 -1</clus>
</clustering>
</event>
<event>
 6    0  0.4340992E+002  0.1042677E+03  0.7546771E-02  0.1271569E+00
         21   -1    0    0  503  502  0.00000000000E+00  0.00000000000E+00  0.35529984422E+02  0.35529984422E+02  0.00000000000E+00 0. -1.
          2   -1    0    0  504    0 -0.00000000000E+00 -0.00000000000E+00 -0.21660528997E+04  0.21660528997E+04  0.00000000000E+00 0.  1.
         21    1    1    2  503  505 -0.34024155877E+02  0.15554242732E+02  0.99703935740E+01  0.38716745707E+02  0.00000000000E+00 0. -1.
         21    1    1    2  504  502  0.42335445665E+02  0.10196935641E+02 -0.37503185492E+03  0.37755153245E+03  0.00000000000E+00 0.  1.
         21    1    1    2  505  501 -0.37882854336E+02 -0.10230254106E+03 -0.33112822750E+03  0.34863566026E+03  0.00000000000E+00 0.  1.
          2    1    1    2  501    0  0.29571564547E+02  0.76551362684E+02 -0.14343332264E+04  0.14366789457E+04  0.00000000000E+00 0.  1.
<scales pt_clust_3="37.41093" pt_clust_4="40.31496" pt_clust_5="104.26772" pt_clust_6="14000.00000"></scales>
<clustering>
<clus scale="   37.411">  1  3  2 -1</clus>
<clus scale="   40.315">  2  4  1 -1</clus>
<clus scale="  104.268">  1  5  2 -1</clus>
<clus scale="   37.411">  1  3  2 -1</clus>
</clustering>
</event>
<event>
 6    0  0.4340992E+002  0.1604998E+03  0.7546771E-02  0.1188134E+00
         21   -1    0    0  504  502  0.00000000000E+00  0.00000000000E+00  0.37010136695E+03  0.37010136695E+03  0.00000000000E+00 0. -1.
          2   -1    0    0  503    0 -0.00000000000E+00 -0.00000000000E+00 -0.13204177072E+04  0.13204177072E+04  0.00000000000E+00 0. -1.
         21    1    1    2  503  505 -0.17452235940E+03 -0.18834834539E+03 -0.65861170453E+02  0.26508648950E+03  0.00000000000E+00 0.  1.
         21    1    1    2  504  501  0.98576915599E+02  0.98694358126E+02 -0.19378418826E+03  0.23876828984E+03  0.00000000000E+00 0.  1.
         21    1    1    2  505  502  0.98224376236E+02  0.11030227139E+03  0.22573182977E+03  0.26975818455E+03  0.00000000000E+00 0. -1.
          2    1    1    2  501    0 -0.22278932435E+02 -0.20648284123E+02 -0.91640281129E+03  0.91690611025E+03  0.00000000000E+00 0. -1.
<scales pt_clust_3="160.49984" pt_clust_4="123.23463" pt_clust_5="14000.00000" pt_clust_6="30.37602"></scales>
<clustering>
<clus scale="   30.376">  2  6  1 -1</clus>
<clus scale="  123.235">  2  4  1 -1</clus>
<clus scale="  160.500">  2  3  1 -1</clus>
<clus scale="  160.500">  1  3  2 -1</clus>
</clustering>
</event>
<event>
 6    0  0.4340992E+002  0.1171720E+03  0.7546771E-02  0.1247837E+00
         21   -1    0    0  503  502  0.00000000000E+00  0.00000000000E+00  0.32613051895E+03  0.32613051895E+03  0.00000000000E+00 0.  1.
          1   -1    0    0  504    0 -0.00000000000E+00 -0.00000000000E+00 -0.89568754583E+03  0.89568754583E+03  0.00000000000E+00 0. -1.
         21    1    1    2  503  501 -0.37117956681E+02  0.67665257115E+02  0.23216090428E+01  0.77212172597E+02  0.00000000000E+00 0.  1.
         21    1    1    2  504  505  0.21090414289E+02 -0.26118442696E+02 -0.10334093263E+03  0.10865692330E+03  0.00000000000E+00 0. -1.
         21    1    1    2  505  502 -0.64981556675E+01  0.52088877079E+02  0.27815820493E+03  0.28306794964E+03  0.00000000000E+00 0.  1.
          1    1    1    2  501    0  0.22525698059E+02 -0.93635691498E+02 -0.74669590822E+03  0.75288101925E+03  0.00000000000E+00 0. -1.
<scales pt_clust_3="117.17204" pt_clust_4="33.57050" pt_clust_5="52.40398" pt_clust_6="14000.00000"></scales>
<clustering>
<clus scale="   33.571">  2  4  1 -1</clus>
<clus scale="   52.404">  1  5  2 -1</clus>
<clus scale="  117.172">  1  3  2 -1</clus>
<clus scale="   52.404">  1  3  2 -1</clus>
</clustering>
</event>
<event>
 6    0  0.5645144E+002  0.7347360E+02  0.7546771E-02  0.1348664E+00
          1   -1    0    0  503    0 -0.00000000000E+00  0.00000000000E+00  0.40595879154E+04  0.40595879154E+04  0.00000000000E+00 0. -1.
         21   -1    0    0  504  502  0.00000000000E+00 -0.00000000000E+00 -0.78355744623E+03  0.78355744623E+03  0.00000000000E+00 0.  1.
         21    1    1    2  503  505  0.23850162931E+02 -0.96837213800E+02  0.21410602256E+03  0.23619412598E+03  0.00000000000E+00 0. -1.
         21    1    1    2  504  501 -0.39710929180E+02  0.41068751077E+02  0.18776803614E+03  0.19626623655E+03  0.00000000000E+00 0. -1.
         21    1    1    2  505  502  0.40703590221E+02  0.10803921988E+02 -0.76750588674E+03  0.76866038871E+03  0.00000000000E+00 0.  1.
          1    1    1    2  501    0 -0.24842823972E+02  0.44964540735E+02  0.36416622972E+04  0.36420246104E+04  0.00000000000E+00 0. -1.
<scales pt_clust_3="73.47360" pt_clust_4="14000.00000" pt_clust_5="42.11303" pt_clust_6="51.25346"></scales>
<clustering>
<clus scale="   42.113">  2  5  1 -1</clus>
<clus scale="   51.253">  1  6  2 -1</clus>
<clus scale="   73.474">  1  3  2 -1</clus>
<clus scale="   42.113">  2  3  1 -1</clus>
</clustering>
</event>
<event>
 6    0  0.4340992E+002  0.3571487E+03  0.7546771E-02  0.1059719E+00
          2   -1    0    0  505    0 -0.00000000000E+00  0.00000000000E+00  0.19088872788E+04  0.19088872788E+04  0.00000000000E+00 0.  1.
         21   -1    0    0  503  502  0.00000000000E+00 -0.00000000000E+00 -0.12846773766E+04  0.12846773766E+04  0.00000000000E+00 0.  1.
         21    1    1    2  503  504 -0.35114730379E+03 -0.11089886922E+03  0.30779786647E+03  0.47994011580E+03  0.00000000000E+00 0.  1.
         21    1    1    2  504  501  0.93615900108E+01  0.11755122741E+03  0.71147939151E+03  0.72118572849E+03  0.00000000000E+00 0.  1.
         21    1    1    2  505  502  0.34681241584E+03 -0.97646223611E+02 -0.11638141689E+04  0.12183090973E+04  0.00000000000E+00 0.  1.
          2    1    1    2  501    0 -0.50267020592E+01  0.90993865426E+02  0.76874681308E+03  0.77412971387E+03  0.00000000000E+00 0.  1.
<scales pt_clust_3="357.14866" pt_clust_4="32.76107" pt_clust_5="14000.00000" pt_clust_6="211.89303"></scales>
<clustering>
<clus scale="   32.761">  4  6 -1 -1</clus>
<clus scale="  211.893">  1  4  2 -1</clus>
<clus scale="  357.149">  1  3  2 -1</clus>
<clus scale="  357.149">  2  3  1 -1</clus>
</clustering>
</event>
<event>
 6    0  0.4340992E+002  0.1079031E+03  0.7546771E-02  0.1264503E+00
          2   -1    0    0  504    0 -0.00000000000E+00  0.00000000000E+00  0.16504439343E+04  0.16504439343E+04  0.00000000000E+00 0.  1.
         21   -1    0    0  503  502  0.00000000000E+00 -0.00000000000E+00 -0.37850177572E+03  0.37850177572E+03  0.00000000000E+00 0.  1.
         21    1    1    2  503  501  0.32017740118E+02 -0.12025703121E+03 -0.32227707642E+03  0.34546982968E+03  0.00000000000E+00 0.  1.
         21    1    1    2  504  505  0.59194780690E+02  0.70626047694E+02  0.59904239100E+03  0.60608897605E+03  0.00000000000E+00 0.  1.
         21    1    1    2  505  502 -0.50688801226E+02  0.12730988321E+02 -0.23452670357E+02  0.57284032506E+02  0.00000000000E+00 0. -1.
          2    1    1    2  501    0 -0.40523719582E+02  0.36899995198E+02  0.10186295143E+04  0.10201028717E+04  0.00000000000E+00 0.  1.
<scales pt_clust_3="14000.00000" pt_clust_4="107.90306" pt_clust_5="52.26311" pt_clust_6="54.90712"></scales>
<clustering>
<clus scale="   52.263">  2  5  1 -1</clus>
<clus scale="   54.907">  1  6  2 -1</clus>
<clus scale="  107.903">  1  4  2 -1</clus>
<clus scale="   52.263">  2  3  1 -1</clus>
</clustering>
</event>
<event>
 6    0  0.4340992E+002  0.1220335E+03  0.7546771E-02  0.1239780E+00
         21   -1    0    0  505  502  0.00000000000E+00  0.00000000000E+00  0.10583036292E+03  0.10583036292E+03  0.00000000000E+00 0. -1.
          1   -1    0    0  503    0 -0.00000000000E+00 -0.00000000000E+00 -0.27620109743E+04  0.27620109743E+04  0.00000000000E+00 0. -1.
         21    1    1    2  503  502  0.62306984960E+02  0.35235329487E+02  0.44935487296E+02  0.84515601148E+02  0.00000000000E+00 0. -1.
         21    1    1    2  504  501  0.92791414170E+02 -0.45105142541E+02 -0.17126755034E+03  0.19994322751E+03  0.00000000000E+00 0.  1.
         21    1    1    2  505  504 -0.31739575474E+02 -0.71917278055E+01  0.14755475657E+02  0.35732977233E+02  0.00000000000E+00 0. -1.
          1    1    1    2  501    0 -0.12335882366E+03  0.17061540859E+02 -0.25446040240E+04  0.25476495313E+04  0.00000000000E+00 0. -1.
<scales pt_clust_3="47.15002" pt_clust_4="122.03352" pt_clust_5="32.54415" pt_clust_6="14000.00000"></scales>
<clustering>
<clus scale="   32.544">  1  5  2 -1</clus>
<clus scale="   47.150">  1  3  2 -1</clus>
<clus scale="  122.034">  1  4  2 -1</clus>
<clus scale="   32.544">  1  3  2 -1</clus>
</clustering>
</event>
<event>
 6    0  0.4362352E+002  0.9105993E+02  0.7546771E-02  0.1300305E+00
          2   -1    0    0  503    0 -0.00000000000E+00  0.00000000000E+00  0.11391981389E+04  0.11391981389E+04  0.00000000000E+00 0. -1.
         21   -1    0    0  505  502  0.00000000000E+00 -0.00000000000E+00 -0.12551096824E+04  0.12551096824E+04  0.00000000000E+00 0.  1.
         21    1    1    2  503  504 -0.34644564665E+01 -0.78106590952E+02  0.19335419845E+03  0.20856291154E+03  0.00000000000E+00 0.  1.
         21    1    1    2  504  502 -0.71524896160E+02  0.46406975339E+02 -0.12030734973E+04  0.12060908996E+04  0.00000000000E+00 0.  1.
         21    1    1    2  505  501 -0.17316227079E+02 -0.25458192853E+02 -0.33796092355E+02  0.45718127281E+02  0.00000000000E+00 0. -1.
          2    1    1    2  501    0  0.92305579705E+02  0.57157808466E+02  0.92760384773E+03  0.93393588293E+03  0.00000000000E+00 0. -1.
<scales pt_clust_3="78.34739" pt_clust_4="91.05993" pt_clust_5="30.78914" pt_clust_6="14000.00000"></scales>
<clustering>
<clus scale="   30.789">  2  5  1 -1</clus>
<clus scale="   78.347">  1  3  2 -1</clus>
<clus scale="   91.060">  2  4  1 -1</clus>
<clus scale="   30.789">  2  3  1 -1</clus>
</clustering>
</event>
<event>
 6    0  0.4340992E+002  0.1044797E+03  0.7546771E-02  0.1271148E+00
         21   -1    0    0  505  502  0.00000000000E+00  0.00000000000E+00  0.33644547095E+02  0.33644547095E+02  0.00000000000E+00 0.  1.
          2   -1    0    0  503    0 -0.00000000000E+00 -0.00000000000E+00 -0.25753475669E+04  0.25753475669E+04  0.00000000000E+00 0. -1.
         21    1    1    2  503  502 -0.27383377506E+01 -0.79321450771E+02 -0.73482505592E+03  0.73909894727E+03  0.00000000000E+00 0. -1.
         21    1    1    2  504  501 -0.81903591946E+02  0.31133644757E+02 -0.95482854105E+02  0.12959350924E+03  0.00000000000E+00 0.  1.
         21    1    1    2  505  504  0.97584322326E+01  0.62691797597E+02 -0.60580695263E+02  0.87724051002E+02  0.00000000000E+00 0.  1.
          2    1    1    2  501    0  0.74883497464E+02 -0.14503991583E+02 -0.16508144145E+04  0.16525756064E+04  0.00000000000E+00 0. -1.
<scales pt_clust_3="72.66719" pt_clust_4="104.47970" pt_clust_5="63.44674" pt_clust_6="14000.00000"></scales>
<clustering>
<clus scale="   63.447">  1  5  2 -1</clus>
<clus scale="   72.667">  2  3  1 -1</clus>
<clus scale="  104.480">  1  4  2 -1</clus>
<clus scale="   63.447">  1  3  2 -1</clus>
</clustering>
</event>
<event>
 6    0  0.4340992E+002  0.1007736E+03  0.7546771E-02  0.1278678E+00
         21   -1    0    0  504  502  0.00000000000E+00  0.00000000000E+00  0.43632800348E+03  0.43632800348E+03  0.00000000000E+00 0. -1.
          1   -1    0    0  505    0 -0.00000000000E+00 -0.00000000000E+00 -0.13587263485E+04  0.13587263485E+04  0.00000000000E+00 0. -1.
         21    1    1    2  503  502  0.57513799057E+02  0.31517125158E+02 -0.30788889868E+03  0.31479634717E+03  0.00000000000E+00 0.  1.
         21    1    1    2  504  501 -0.95086432841E+01 -0.10065371032E+03  0.42358876211E+03  0.43548711012E+03  0.00000000000E+00 0. -1.
         21    1    1    2  505  503 -0.50706176331E+02  0.21422022886E+01 -0.42702974569E+03  0.43003500910E+03  0.00000000000E+00 0. -1.
          1    1    1    2  501    0  0.27010205586E+01  0.66994382873E+02 -0.61106846275E+03  0.61473588558E+03  0.00000000000E+00 0. -1.
<scales pt_clust_3="51.79478" pt_clust_4="14000.00000" pt_clust_5="50.75141" pt_clust_6="100.77356"></scales>
<clustering>
<clus scale="   50.751">  2  5  1 -1</clus>
<clus scale="   51.795">  2  3  1 -1</clus>
<clus scale="  100.774">  2  6  1 -1</clus>
<clus scale="  100.774">  1  3  2 -1</clus>
</clustering>
</event>
<event>
 6    0  0.4340992E+002  0.1013532E+03  0.7546771E-02  0.1277476E+00
          2   -1    0    0  502    0 -0.00000000000E+00  0.00000000000E+00  0.12623535443E+04  0.12623535443E+04  0.00000000000E+00 0. -1.
         21   -1    0    0  505  502  0.00000000000E+00 -0.00000000000E+00 -0.29581212862E+02  0.29581212862E+02  0.00000000000E+00 0.  1.
         21    1    1    2  503  504 -0.63667398751E+02  0.13989411380E+02  0.44409326540E+03  0.44885194627E+03  0.00000000000E+00 0. -1.
         21    1    1    2  504  501 -0.41247716251E+02  0.43770048368E+02  0.32464518471E+03  0.33016917964E+03  0.00000000000E+00 0. -1.
         21    1    1    2  505  503  0.49811193949E+02 -0.28229214905E+01  0.82901314165E+01  0.50575193596E+02  0.00000000000E+00 0.  1.
          2    1    1    2  501    0  0.55103921053E+02 -0.54936538258E+02  0.45574374988E+03  0.46233843762E+03  0.00000000000E+00 0. -1.
<scales pt_clust_3="38.08114" pt_clust_4="38.08114" pt_clust_5="49.89112" pt_clust_6="93.27757"></scales>
<clustering>
<clus scale="   38.081">  3  4 -1 -1</clus>
<clus scale="   49.891">  2  5  1 -1</clus>
<clus scale="   93.278">  1  6  2 -1</clus>
<clus scale="   49.891">  2  3  1 -1</clus>
</clustering>
</event>
<event>
 6    0  0.4340992E+002  0.1484190E+03  0.7546771E-02  0.1202429E+00
          1   -1    0    0  505    0 -0.00000000000E+00  0.00000000000E+00  0.13803397558E+04  0.13803397558E+04  0.00000000000E+00 0.  1.
         21   -1    0    0  503  502  0.00000000000E+00 -0.00000000000E+00 -0.63063982605E+02  0.63063982605E+02  0.00000000000E+00 0.  1.
         21    1    1    2  503  501  0.91003825883E+01  0.35406523858E+02  0.37662747776E+02  0.52487345760E+02  0.00000000000E+00 0.  1.
         21    1    1    2  504  502  0.12032058013E+03 -0.10027230615E+03  0.85181250680E+02  0.17829027694E+03  0.00000000000E+00 0.  1.
         21    1    1    2  505  504  0.48191268801E+00 -0.36899086982E+02  0.11848802285E+03  0.12410151659E+03  0.00000000000E+00 0. -1.
          1    1    1    2  501    0 -0.12990287541E+03  0.10176486928E+03  0.10759437518E+04  0.10885245991E+04  0.00000000000E+00 0.  1.
<scales pt_clust_3="36.55734" pt_clust_4="14000.00000" pt_clust_5="35.12599" pt_clust_6="148.41903"></scales>
<clustering>
<clus scale="   36.557">  2  3  1 -1</clus>
<clus scale="   35.126">  1  5  2 -1</clus>
<clus scale="  148.419">  1  6  2 -1</clus>
<clus scale="   36.557">  2  3  1 -1</clus>
</clustering>
</event>
<event>
 6    0  0.4340992E+002  0.3213492E+03  0.7546771E-02  0.1075030E+00
          2   -1    0    0  503    0 -0.00000000000E+00  0.00000000000E+00  0.15555061577E+04  0.15555061577E+04  0.00000000000E+00 0. -1.
         21   -1    0    0  504  502  0.00000000000E+00 -0.00000000000E+00 -0.16261923371E+04  0.16261923371E+04  0.00000000000E+00 0. -1.
         21    1    1    2  503  505 -0.38703871514E+01 -0.49850768142E+02  0.12057074019E+03  0.13052732423E+03  0.00000000000E+00 0. -1.
         21    1    1    2  504  501  0.24422176123E+02  0.34389953225E+02 -0.11238702041E+04  0.11246614368E+04  0.00000000000E+00 0. -1.
         21    1    1    2  505  502  0.22686788526E+03  0.17062076211E+03 -0.43975196551E+03  0.52341405502E+03  0.00000000000E+00 0. -1.
          2    1    1    2  501    0 -0.24741967424E+03 -0.15515994719E+03  0.13723652501E+04  0.14030956789E+04  0.00000000000E+00 0. -1.
<scales pt_clust_3="49.64244" pt_clust_4="42.17952" pt_clust_5="14000.00000" pt_clust_6="321.34922"></scales>
<clustering>
<clus scale="   42.180">  2  4  1 -1</clus>
<clus scale="   49.642">  1  3  2 -1</clus>
<clus scale="  321.349">  1  6  2 -1</clus>
<clus scale="   42.180">  2  3  1 -1</clus>
</clustering>
</event>
<event>
 6    0  0.4340992E+002  0.8940450E+02  0.7546771E-02  0.1304300E+00
          2   -1    0    0  503    0 -0.00000000000E+00  0.00000000000E+00  0.11879008961E+04  0.11879008961E+04  0.00000000000E+00 0. -1.
         21   -1    0    0  501  502  0.00000000000E+00 -0.00000000000E+00 -0.64468766365E+02  0.64468766365E+02  0.00000000000E+00 0. -1.
         21    1    1    2  503  505  0.14258284966E+03 -0.46846932112E+02  0.50603552879E+03  0.52782237586E+03  0.00000000000E+00 0. -1.
         21    1    1    2  504  502 -0.31808813079E+02  0.18997469208E+02 -0.25413428643E+02  0.44928240352E+02  0.00000000000E+00 0. -1.
         21    1    1    2  505  504 -0.38794468864E+02  0.46371579152E+02  0.40569343031E+02  0.72809379625E+02  0.00000000000E+00 0. -1.
          2    1    1    2  501    0 -0.71979567722E+02 -0.18522116248E+02  0.60224068657E+03  0.60680966664E+03  0.00000000000E+00 0. -1.
<scales pt_clust_3="89.40450" pt_clust_4="37.05003" pt_clust_5="14000.00000" pt_clust_6="76.38493"></scales>
<clustering>
<clus scale="   37.050">  2  4  1 -1</clus>
<clus scale="   76.385">  1  6  2 -1</clus>
<clus scale="   89.405">  1  3  2 -1</clus>
<clus scale="   37.050">  2  3  1 -1</clus>
</clustering>
</event>
<event>
 6    0  0.4340992E+002  0.2192723E+03  0.7546771E-02  0.1134427E+00
         21   -1    0    0  504  502  0.00000000000E+00  0.00000000000E+00  0.43095837058E+03  0.43095837058E+03  0.00000000000E+00 0.  1.
          1   -1    0    0  503    0 -0.00000000000E+00 -0.00000000000E+00 -0.10435477057E+04  0.10435477057E+04  0.00000000000E+00 0. -1.
         21    1    1    2  503  505 -0.21480016671E+02  0.42328093938E+02 -0.24445910731E+03  0.24902472527E+03  0.00000000000E+00 0.  1.
         21    1    1    2  504  501  0.27514839053E+02 -0.25839345474E+02  0.10580110178E+03  0.11233259224E+03  0.00000000000E+00 0.  1.
         21    1    1    2  505  502  0.19422263841E+03  0.28050666987E+02  0.27431953305E+03  0.33728397442E+03  0.00000000000E+00 0.  1.
          1    1    1    2  501    0 -0.20025746080E+03 -0.44539415451E+02 -0.74825086261E+03  0.77586478431E+03  0.00000000000E+00 0. -1.
<scales pt_clust_3="47.21477" pt_clust_4="37.74570" pt_clust_5="219.27232" pt_clust_6="14000.00000"></scales>
<clustering>
<clus scale="   37.746">  1  4  2 -1</clus>
<clus scale="   47.215">  2  3  1 -1</clus>
<clus scale="  219.272">  1  5  2 -1</clus>
<clus scale="   37.746">  1  3  2 -1</clus>
</clustering>
</event>
<event>
 6    0  0.4340992E+002  0.8480632E+02  0.7546771E-02  0.1315940E+00
          2   -1    0    0  503    0 -0.00000000000E+00  0.00000000000E+00  0.31627804579E+03  0.31627804579E+03  0.00000000000E+00 0. -1.
         21   -1    0    0  504  502  0.00000000000E+00 -0.00000000000E+00 -0.11912947208E+04  0.11912947208E+04  0.00000000000E+00 0.  1.
         21    1    1    2  503  502  0.34861300871E+02  0.19194490932E+01 -0.97076344405E+03  0.97139109471E+03  0.00000000000E+00 0.  1.
         21    1    1    2  504  505  0.27279920963E+02  0.65805378327E+02 -0.16207920079E+03  0.17704295872E+03  0.00000000000E+00 0.  1.
         21    1    1    2  505  501  0.22743029285E+02 -0.80712148334E+02 -0.36383127585E+01  0.83934102661E+02  0.00000000000E+00 0. -1.
          2    1    1    2  501    0 -0.84884251119E+02  0.12987320914E+02  0.26146428257E+03  0.27520461052E+03  0.00000000000E+00 0. -1.
<scales pt_clust_3="34.91410" pt_clust_4="14000.00000" pt_clust_5="78.63062" pt_clust_6="84.80632"></scales>
<clustering>
<clus scale="   34.914">  2  3  1 -1</clus>
<clus scale="   84.806">  1  6  2 -1</clus>
<clus scale="   78.631">  1  5  2 -1</clus>
<clus scale="   34.914">  2  3  1 -1</clus>
</clustering>
</event>
<event>
 6    0  0.4340992E+002  0.1894122E+03  0.7546771E-02  0.1158993E+00
         21   -1    0    0  505  502  0.00000000000E+00  0.00000000000E+00  0.19395846815E+04  0.19395846815E+04  0.00000000000E+00 0. -1.
          2   -1    0    0  502    0 -0.00000000000E+00 -0.00000000000E+00 -0.10189501564E+03  0.10189501564E+03  0.00000000000E+00 0.  1.
         21    1    1    2  503  504  0.10793127324E+03 -0.11524706042E+03  0.15085640994E+04  0.15168047623E+04  0.00000000000E+00 0. -1.
         21    1    1    2  504  501 -0.38348308478E+02  0.76216392557E+02 -0.39031982586E+02  0.93824447358E+02  0.00000000000E+00 0.  1.
         21    1    1    2  505  503 -0.14298449919E+02 -0.31694574748E+02  0.33241360310E+03  0.33422716117E+03  0.00000000000E+00 0. -1.
          2    1    1    2  501    0 -0.55284514843E+02  0.70725242614E+02  0.35743945893E+02  0.96623326336E+02  0.00000000000E+00 0.  1.
<scales pt_clust_3="173.13692" pt_clust_4="74.99930" pt_clust_5="34.77056" pt_clust_6="74.99930"></scales>
<clustering>
<clus scale="   34.771">  1  5  2 -1</clus>
<clus scale="   74.999">  4  6 -1 -1</clus>
<clus scale="  173.137">  1  3  2 -1</clus>
<clus scale="   34.771">  1  3  2 -1</clus>
</clustering>
</event>
<event>
 6    0  0.4340992E+002  0.3182612E+03  0.7546771E-02  0.1076452E+00
         21   -1    0    0  505  502  0.00000000000E+00  0.00000000000E+00  0.12900555610E+03  0.12900555610E+03  0.00000000000E+00 0.  1.
          1   -1    0    0  503    0 -0.00000000000E+00 -0.00000000000E+00 -0.11430917310E+04  0.11430917310E+04  0.00000000000E+00 0. -1.
         21    1    1    2  503  504 -0.10123696443E+03  0.96951587794E+02 -0.31359846724E+03  0.34350041047E+03  0.00000000000E+00 0. -1.
         21    1    1    2  504  502 -0.14569671065E+03  0.59619877559E+02 -0.13882036733E+03  0.20988843626E+03  0.00000000000E+00 0.  1.
         21    1    1    2  505  501 -0.15831422035E+02 -0.28411993095E+02  0.38934118345E+02  0.50732049501E+02  0.00000000000E+00 0.  1.
          1    1    1    2  501    0  0.26276509711E+03 -0.12815947226E+03 -0.60060145873E+03  0.66797639091E+03  0.00000000000E+00 0. -1.
<scales pt_clust_3="118.19527" pt_clust_4="118.19527" pt_clust_5="32.52499" pt_clust_6="291.93256"></scales>
<clustering>
<clus scale="   32.525">  1  5  2 -1</clus>
<clus scale="  118.195">  3  4 -1 -1</clus>
<clus scale="  291.933">  2  6  1 -1</clus>
<clus scale="   32.525">  1  3  2 -1</clus>
</clustering>
</event>
<event>
 6    0  0.4340992E+002  0.1917143E+03  0.7546771E-02  0.1156924E+00
          2   -1    0    0  505    0 -0.00000000000E+00  0.00000000000E+00  0.11307320493E+04  0.11307320493E+04  0.00000000000E+00 0.  1.
         21   -1    0    0  503  502  0.00000000000E+00 -0.00000000000E+00 -0.37369927999E+03  0.37369927999E+03  0.00000000000E+00 0. -1.
         21    1    1    2  503  501  0.11916237772E+03  0.15382484048E+03 -0.31804668780E+03  0.37284775638E+03  0.00000000000E+00 0. -1.
         21    1    1    2  504  502 -0.27678054127E+02 -0.87432707490E+02  0.73254132108E+02  0.11737427695E+03  0.00000000000E+00 0. -1.
         21    1    1    2  505  504  0.14574578936E+02 -0.27807149460E+02  0.87832335613E+02  0.93274729115E+02  0.00000000000E+00 0. -1.
          2    1    1    2  501    0 -0.10605890253E+03 -0.38584983534E+02  0.91399298939E+03  0.92093456685E+03  0.00000000000E+00 0.  1.
<scales pt_clust_3="191.71430" pt_clust_4="93.75748" pt_clust_5="31.39516" pt_clust_6="14000.00000"></scales>
<clustering>
<clus scale="   31.395">  1  5  2 -1</clus>
<clus scale="   93.757">  1  4  2 -1</clus>
<clus scale="  191.714">  2  3  1 -1</clus>
<clus scale="  191.714">  2  3  1 -1</clus>
</clustering>
</event>
<event>
 6    0  0.4340992E+002  0.7822711E+02  0.7546771E-02  0.1334159E+00
          2   -1    0    0  503    0 -0.00000000000E+00  0.00000000000E+00  0.18616445247E+03  0.18616445247E+03  0.00000000000E+00 0. -1.
         21   -1    0    0  504  502  0.00000000000E+00 -0.00000000000E+00 -0.52811301059E+03  0.52811301059E+03  0.00000000000E+00 0. -1.
         21    1    1    2  503  505 -0.21064584180E+02 -0.73394830737E+02  0.12256471416E+03  0.14440438720E+03  0.00000000000E+00 0. -1.
         21    1    1    2  504  501  0.45564396188E+02  0.41330747944E+02 -0.12417950733E+03  0.13858172667E+03  0.00000000000E+00 0. -1.
         21    1    1    2  505  502 -0.10385257485E+03 -0.37953126665E+02 -0.29703898435E+03  0.31695102989E+03  0.00000000000E+00 0. -1.
          2    1    1    2  501    0  0.79352762838E+02  0.70017209458E+02 -0.43294780601E+02  0.11434031930E+03  0.00000000000E+00 0. -1.
<scales pt_clust_3="78.22711" pt_clust_4="61.51703" pt_clust_5="68.85384" pt_clust_6="14000.00000"></scales>
<clustering>
<clus scale="   61.517">  2  4  1 -1</clus>
<clus scale="   68.854">  2  5  1 -1</clus>
<clus scale="   78.227">  1  3  2 -1</clus>
<clus scale="   61.517">  2  3  1 -1</clus>
</clustering>
</event>
<event>
 6    0  0.4340992E+002  0.1585881E+03  0.7546771E-02  0.1190300E+00
         21   -1    0    0  503  502  0.00000000000E+00  0.00000000000E+00  0.96212614900E+03  0.96212614900E+03  0.00000000000E+00 0. -1.
         -4   -1    0    0    0  501 -0.00000000000E+00 -0.00000000000E+00 -0.27994782055E+03  0.27994782055E+03  0.00000000000E+00 0. -1.
         21    1    1    2  503  505 -0.38129691240E+02 -0.24282542280E+02  0.23267345945E+03  0.23702416321E+03  0.00000000000E+00 0. -1.
         21    1    1    2  504  502  0.18633040470E+03 -0.32272138038E+02  0.67599825935E+03  0.70195025269E+03  0.00000000000E+00 0. -1.
         21    1    1    2  505  501 -0.38389974267E+02 -0.14601388845E+02  0.51897970393E+00  0.41076270770E+02  0.00000000000E+00 0.  1.
         -4    1    1    2    0  504 -0.10981073919E+03  0.71156069163E+02 -0.22701237004E+03  0.26202328288E+03  0.00000000000E+00 0. -1.
<scales pt_clust_3="45.54229" pt_clust_4="14000.00000" pt_clust_5="41.07299" pt_clust_6="158.58812"></scales>
<clustering>
<clus scale="   41.073">  2  5  1 -1</clus>
<clus scale="   45.542">  1  3  2 -1</clus>
<clus scale="  158.588">  2  6  1 -1</clus>
<clus scale="   45.542">  1  3  2 -1</clus>
</clustering>
</event>
<event>
 6    0  0.4340992E+002  0.9910102E+02  0.7546771E-02  0.1282198E+00
          2   -1    0    0  503    0 -0.00000000000E+00  0.00000000000E+00  0.17070767618E+04  0.17070767618E+04  0.00000000000E+00 0.  1.
         21   -1    0    0  505  502  0.00000000000E+00 -0.00000000000E+00 -0.25897167054E+02  0.25897167054E+02  0.00000000000E+00 0.  1.
         21    1    1    2  503  504 -0.19902937445E+02  0.27814064766E+02  0.25133033187E+03  0.25364677178E+03  0.00000000000E+00 0.  1.
         21    1    1    2  504  502 -0.48731080523E+02 -0.50469340162E+02  0.44811101466E+03  0.45356956904E+03  0.00000000000E+00 0.  1.
         21    1    1    2  505  501  0.76611491804E+01  0.10218618833E+03  0.11824749950E+03  0.15647102425E+03  0.00000000000E+00 0.  1.
          2    1    1    2  501    0  0.60972868788E+02 -0.79530912936E+02  0.86349074876E+03  0.86928656382E+03  0.00000000000E+00 0.  1.
<scales pt_clust_3="34.20160" pt_clust_4="69.03113" pt_clust_5="99.10102" pt_clust_6="14000.00000"></scales>
<clustering>
<clus scale="   34.202">  1  3  2 -1</clus>
<clus scale="   69.031">  1  4  2 -1</clus>
<clus scale="   99.101">  2  5  1 -1</clus>
<clus scale="   99.101">  2  3  1 -1</clus>
</clustering>
</event>
<event>
 6    0  0.4340992E+002  0.1245600E+03  0.7546771E-02  0.1235758E+00
          2   -1    0    0  505    0 -0.00000000000E+00  0.00000000000E+00  0.71598604740E+03  0.71598604740E+03  0.00000000000E+00 0.  1.
         21   -1    0    0  503  502  0.00000000000E+00 -0.00000000000E+00 -0.14154130631E+03  0.14154130631E+03  0.00000000000E+00 0. -1.
         21    1    1    2  503  501 -0.51051019471E+02  0.41898950150E+02  0.12216261419E+02  0.67163722765E+02  0.00000000000E+00 0.  1.
         21    1    1    2  504  502  0.26964585343E+02 -0.31215092581E+02 -0.80098775598E+02  0.90095975049E+02  0.00000000000E+00 0. -1.
         21    1    1    2  505  504 -0.16028898992E+02 -0.12770213196E+03  0.17743300099E+03  0.21919678362E+03  0.00000000000E+00 0. -1.
          2    1    1    2  501    0  0.40115333119E+02  0.11701827439E+03  0.46489425428E+03  0.48107087228E+03  0.00000000000E+00 0.  1.
<scales pt_clust_3="46.38494" pt_clust_4="41.24889" pt_clust_5="14000.00000" pt_clust_6="124.56004"></scales>
<clustering>
<clus scale="   41.249">  2  4  1 -1</clus>
<clus scale="   46.385">  2  3  1 -1</clus>
<clus scale="  124.560">  1  6  2 -1</clus>
<clus scale="   41.249">  2  3  1 -1</clus>
</clustering>
</event>
<event>
 6    0  0.4340992E+002  0.1378882E+03  0.7546771E-02  0.1216199E+00
         21   -1    0    0  503  502  0.00000000000E+00  0.00000000000E+00  0.11493811815E+03  0.11493811815E+03  0.00000000000E+00 0. -1.
         -1   -1    0    0    0  501 -0.00000000000E+00 -0.00000000000E+00 -0.94894369407E+03  0.94894369407E+03  0.00000000000E+00 0. -1.
         21    1    1    2  503  504 -0.58638979190E+02  0.79091504627E+01  0.85227184662E+02  0.10375334957E+03  0.00000000000E+00 0. -1.
         21    1    1    2  504  501 -0.73512795185E+02 -0.83209497068E+02 -0.43172665375E+03  0.44577556574E+03  0.00000000000E+00 0.  1.
         21    1    1    2  505  502  0.72775440653E+02  0.55704369775E+02 -0.19814352572E+03  0.21831192903E+03  0.00000000000E+00 0. -1.
         -1    1    1    2    0  505  0.59376333722E+02  0.19595976830E+02 -0.28936258112E+03  0.29604096788E+03  0.00000000000E+00 0. -1.
<scales pt_clust_3="59.16996" pt_clust_4="123.49365" pt_clust_5="50.66499" pt_clust_6="50.66499"></scales>
<clustering>
<clus scale="   50.665">  5  6 -1 -1</clus>
<clus scale="   59.170">  1  3  2 -1</clus>
<clus scale="  123.494">  2  4  1 -1</clus>
<clus scale="   59.170">  1  3  2 -1</clus>
</clustering>
</event>
<event>
 6    0  0.4340992E+002  0.9801235E+02  0.7546771E-02  0.1284532E+00
          2   -1    0    0  503    0 -0.00000000000E+00  0.00000000000E+00  0.11625552687E+04  0.11625552687E+04  0.00000000000E+00 0. -1.
         21   -1    0    0  505  502  0.00000000000E+00 -0.00000000000E+00 -0.10405505830E+03  0.10405505830E+03  0.00000000000E+00 0. -1.
         21    1    1    2  503  504  0.42430713554E+02  0.12883090315E+03  0.31981095621E+03  0.34738568591E+03  0.00000000000E+00 0.  1.
         21    1    1    2  504  502  0.26939584345E+02 -0.27232926036E+02  0.53288850953E+02  0.65628310210E+02  0.00000000000E+00 0. -1.
         21    1    1    2  505  501 -0.14270087487E+02 -0.68258787121E+02 -0.68028141733E+02  0.97420354566E+02  0.00000000000E+00 0. -1.
          2    1    1    2  501    0 -0.55100210412E+02 -0.33339189994E+02  0.75342854497E+03  0.75617597632E+03  0.00000000000E+00 0. -1.
<scales pt_clust_3="98.01235" pt_clust_4="38.30631" pt_clust_5="14000.00000" pt_clust_6="64.27787"></scales>
<clustering>
<clus scale="   38.306">  2  4  1 -1</clus>
<clus scale="   64.278">  1  6  2 -1</clus>
<clus scale="   98.012">  1  3  2 -1</clus>
<clus scale="   38.306">  2  3  1 -1</clus>
</clustering>
</event>
<event>
 6    0  0.4340992E+002  0.7493881E+02  0.7546771E-02  0.1344061E+00
          2   -1    0    0  504    0 -0.00000000000E+00  0.00000000000E+00  0.13361601522E+04  0.13361601522E+04  0.00000000000E+00 0.  1.
         21   -1    0    0  505  502  0.00000000000E+00 -0.00000000000E+00 -0.26658941446E+03  0.26658941446E+03  0.00000000000E+00 0. -1.
         21    1    1    2  503  502 -0.38562798352E+02 -0.45591487886E+02  0.59603968203E+02  0.84370055174E+02  0.00000000000E+00 0. -1.
         21    1    1    2  504  503  0.19098319493E+02 -0.72686246382E+02  0.39752092732E+03  0.40456263283E+03  0.00000000000E+00 0. -1.
         21    1    1    2  505  501  0.35830423890E+01  0.42407280754E+02 -0.24712259260E+03  0.25076042636E+03  0.00000000000E+00 0. -1.
          2    1    1    2  501    0  0.15881436471E+02  0.75870453515E+02  0.85956843477E+03  0.86305645227E+03  0.00000000000E+00 0.  1.
<scales pt_clust_3="39.37346" pt_clust_4="14000.00000" pt_clust_5="42.55838" pt_clust_6="74.93881"></scales>
<clustering>
<clus scale="   42.558">  2  5  1 -1</clus>
<clus scale="   39.373">  2  3  1 -1</clus>
<clus scale="   74.939">  1  6  2 -1</clus>
<clus scale="   42.558">  2  3  1 -1</clus>
</clustering>
</event>
<event>
 6    0  0.4340992E+002  0.2203204E+03  0.7546771E-02  0.1133644E+00
          2   -1    0    0  503    0 -0.00000000000E+00  0.00000000000E+00  0.10875598216E+04  0.10875598216E+04  0.00000000000E+00 0.  1.
         21   -1    0    0  504  502  0.00000000000E+00 -0.00000000000E+00 -0.27633028638E+03  0.27633028638E+03  0.00000000000E+00 0.  1.
         21    1    1    2  503  505 -0.62703868846E+02 -0.10894394270E+03  0.68482306010E+03  0.69626372982E+03  0.00000000000E+00 0.  1.
         21    1    1    2  504  501  0.21576086880E+03 -0.10627273471E+03  0.82520517903E+02  0.25427599675E+03  0.00000000000E+00 0.  1.
         21    1    1    2  505  502 -0.48337964762E+02  0.10328318235E+01 -0.11641612043E+03  0.12605688666E+03  0.00000000000E+00 0.  1.
          2    1    1    2  501    0 -0.10471903519E+03  0.21418384558E+03  0.16030207769E+03  0.28729349480E+03  0.00000000000E+00 0.  1.
<scales pt_clust_3="126.56627" pt_clust_4="220.32039" pt_clust_5="48.34900" pt_clust_6="14000.00000"></scales>
<clustering>
<clus scale="   48.349">  2  5  1 -1</clus>
<clus scale="  126.566">  1  3  2 -1</clus>
<clus scale="  220.320">  2  4  1 -1</clus>
<clus scale="   48.349">  2  3  1 -1</clus>
</clustering>
</event>
<event>
 6    0  0.4340992E+002  0.4952622E+02  0.7546771E-02  0.1447914E+00
          1   -1    0    0  503    0 -0.00000000000E+00  0.00000000000E+00  0.14955758667E+04  0.14955758667E+04  0.00000000000E+00 0. -1.
         21   -1    0    0  505  502  0.00000000000E+00 -0.00000000000E+00 -0.82868934445E+03  0.82868934445E+03  0.00000000000E+00 0.  1.
         21    1    1    2  503  504  0.38451258451E+02 -0.20768852561E+02  0.47498246843E+03  0.47698866845E+03  0.00000000000E+00 0. -1.
         21    1    1    2  504  502  0.13840749708E+02  0.36016232173E+02 -0.41154039037E+02  0.56412678198E+02  0.00000000000E+00 0. -1.
         21    1    1    2  505  501 -0.51204267640E+01 -0.84410041592E+02 -0.77486706391E+03  0.77946792148E+03  0.00000000000E+00 0.  1.
          1    1    1    2  501    0 -0.47171581395E+02  0.69162661980E+02  0.10079251567E+04  0.10113959430E+04  0.00000000000E+00 0. -1.
<scales pt_clust_3="43.69544" pt_clust_4="38.58413" pt_clust_5="49.52622" pt_clust_6="14000.00000"></scales>
<clustering>
<clus scale="   38.584">  2  4  1 -1</clus>
<clus scale="   43.695">  1  3  2 -1</clus>
<clus scale="   49.526">  2  5  1 -1</clus>
<clus scale="   38.584">  2  3  1 -1</clus>
</clustering>
</event>
<event>
 6    0  0.4340992E+002  0.1865965E+03  0.7546771E-02  0.1161567E+00
          2   -1    0    0  503    0 -0.00000000000E+00  0.00000000000E+00  0.11608399509E+04  0.11608399509E+04  0.00000000000E+00 0.  1.
         21   -1    0    0  504  502  0.00000000000E+00 -0.00000000000E+00 -0.11656591296E+04  0.11656591296E+04  0.00000000000E+00 0.  1.
         21    1    1    2  503  505  0.65675857843E+02  0.82481755202E+01  0.51479795474E+02  0.83854159377E+02  0.00000000000E+00 0.  1.
         21    1    1    2  504  501  0.95761436112E+02 -0.14710735950E+03 -0.67657592113E+03  0.69897482424E+03  0.00000000000E+00 0.  1.
         21    1    1    2  505  502 -0.13474656404E+03  0.16290077524E+03 -0.43717501510E+03  0.48560816809E+03  0.00000000000E+00 0.  1.
          2    1    1    2  501    0 -0.26690729915E+02 -0.24041591263E+02  0.10574519621E+04  0.10580619288E+04  0.00000000000E+00 0.  1.
<scales pt_clust_3="48.74093" pt_clust_4="14000.00000" pt_clust_5="186.59650" pt_clust_6="35.92204"></scales>
<clustering>
<clus scale="   35.922">  1  6  2 -1</clus>
<clus scale="   48.741">  1  3  2 -1</clus>
<clus scale="  186.597">  1  5  2 -1</clus>
<clus scale="  186.597">  2  3  1 -1</clus>
</clustering>
</event>
<event>
 6    0  0.4340992E+002  0.9784014E+02  0.7546771E-02  0.1284905E+00
          3   -1    0    0  505    0 -0.00000000000E+00  0.00000000000E+00  0.33722586992E+03  0.33722586992E+03  0.00000000000E+00 0.  1.
         21   -1    0    0  501  502  0.00000000000E+00 -0.00000000000E+00 -0.29581291514E+03  0.29581291514E+03  0.00000000000E+00 0.  1.
         21    1    1    2  503  502 -0.82869011350E+02  0.55123221719E+02 -0.25038161921E+03  0.26943792950E+03  0.00000000000E+00 0.  1.
         21    1    1    2  504  503  0.45351972840E+02 -0.13182766028E+02 -0.37631486406E+01  0.47378772127E+02  0.00000000000E+00 0.  1.
         21    1    1    2  505  504  0.13812047591E+02  0.31939187329E+02  0.95902549491E+02  0.10202050453E+03  0.00000000000E+00 0. -1.
          3    1    1    2  501    0  0.23704990919E+02 -0.73879643020E+02  0.19965517313E+03  0.21420157891E+03  0.00000000000E+00 0.  1.
<scales pt_clust_3="97.84014" pt_clust_4="47.73178" pt_clust_5="34.79776" pt_clust_6="14000.00000"></scales>
<clustering>
<clus scale="   34.798">  1  5  2 -1</clus>
<clus scale="   47.732">  1  4  2 -1</clus>
<clus scale="   97.840">  2  3  1 -1</clus>
<clus scale="   97.840">  2  3  1 -1</clus>
</clustering>
</event>
<event>
 6    0  0.4340992E+002  0.1488666E+03  0.7546771E-02  0.1201873E+00
          2   -1    0    0  504    0 -0.00000000000E+00  0.00000000000E+00  0.15378918870E+04  0.15378918870E+04  0.00000000000E+00 0. -1.
         21   -1    0    0  505  502  0.00000000000E+00 -0.00000000000E+00 -0.30211058660E+03  0.30211058660E+03  0.00000000000E+00 0. -1.
         21    1    1    2  503  501 -0.41132088239E+02  0.11072676379E+03  0.51411033428E+02  0.12882297645E+03  0.00000000000E+00 0.  1.
         21    1    1    2  504  502 -0.85507212328E+02  0.11533516325E+03  0.27115365081E+03  0.30681914150E+03  0.00000000000E+00 0.  1.
         21    1    1    2  505  503  0.53644006660E+02 -0.94325190229E+02 -0.22839235826E+03  0.25285962563E+03  0.00000000000E+00 0. -1.
          2    1    1    2  501    0  0.72995293906E+02 -0.13173673681E+03  0.11416089745E+04  0.11515007301E+04  0.00000000000E+00 0. -1.
<scales pt_clust_3="51.87196" pt_clust_4="148.86659" pt_clust_5="108.51231" pt_clust_6="14000.00000"></scales>
<clustering>
<clus scale="  108.512">  2  5  1 -1</clus>
<clus scale="   51.872">  2  3  1 -1</clus>
<clus scale="  148.867">  2  4  1 -1</clus>
<clus scale="  108.512">  2  3  1 -1</clus>
</clustering>
</event>
<event>
 6    0  0.4340992E+002  0.1183306E+03  0.7546771E-02  0.1245877E+00
         21   -1    0    0  505  502  0.00000000000E+00  0.00000000000E+00  0.98946355284E+02  0.98946355284E+02  0.00000000000E+00 0. -1.
          1   -1    0    0  503    0 -0.00000000000E+00 -0.00000000000E+00 -0.13525338890E+04  0.13525338890E+04  0.00000000000E+00 0.  1.
         21    1    1    2  503  504  0.22124541268E+02  0.64730384335E+02  0.45244665322E+02  0.82015838242E+02  0.00000000000E+00 0. -1.
         21    1    1    2  504  502  0.16423301683E+02  0.43500580563E+02 -0.59655519013E+02  0.75636011900E+02  0.00000000000E+00 0. -1.
         21    1    1    2  505  501  0.32399260437E+02 -0.10528282690E+02  0.12539883571E+02  0.36301590781E+02  0.00000000000E+00 0.  1.
          1    1    1    2  501    0 -0.70947103388E+02 -0.97702682208E+02 -0.12517165636E+04  0.12575268034E+04  0.00000000000E+00 0.  1.
<scales pt_clust_3="14000.00000" pt_clust_4="46.81088" pt_clust_5="34.06695" pt_clust_6="118.33057"></scales>
<clustering>
<clus scale="   34.067">  1  5  2 -1</clus>
<clus scale="   46.811">  1  4  2 -1</clus>
<clus scale="  118.331">  2  6  1 -1</clus>
<clus scale="   34.067">  1  3  2 -1</clus>
</clustering>
</event>
<event>
 6    0  0.4340992E+002  0.1084321E+03  0.7546771E-02  0.1263501E+00
          1   -1    0    0  504    0 -0.00000000000E+00  0.00000000000E+00  0.16687573360E+03  0.16687573360E+03  0.00000000000E+00 0. -1.
         21   -1    0    0  505  502  0.00000000000E+00 -0.00000000000E+00 -0.17962387874E+04  0.17962387874E+04  0.00000000000E+00 0.  1.
         21    1    1    2  503  502 -0.61185773262E+02 -0.11063944863E+03 -0.21130257884E+03  0.24623883988E+03  0.00000000000E+00 0. -1.
         21    1    1    2  504  503  0.23641561306E+02  0.40833816432E+02  0.12070184386E+02  0.48703319564E+02  0.00000000000E+00 0. -1.
         21    1    1    2  505  501  0.11142424144E+03  0.11760752530E+02 -0.15282336878E+04  0.15323354337E+04  0.00000000000E+00 0.  1.
          1    1    1    2  501    0 -0.73880029487E+02  0.58044879665E+02  0.98103028376E+02  0.13583692793E+03  0.00000000000E+00 0. -1.
<scales pt_clust_3="108.43211" pt_clust_4="47.18394" pt_clust_5="14000.00000" pt_clust_6="107.38399"></scales>
<clustering>
<clus scale="   47.184">  1  4  2 -1</clus>
<clus scale="  107.384">  1  6  2 -1</clus>
<clus scale="  108.432">  1  3  2 -1</clus>
<clus scale="  108.432">  2  3  1 -1</clus>
</clustering>
</event>
<event>
 6    0  0.4340992E+002  0.1137016E+03  0.7546771E-02  0.1253865E+00
         21   -1    0    0  504  502  0.00000000000E+00  0.00000000000E+00  0.12006830740E+03  0.12006830740E+03  0.00000000000E+00 0. -1.
          2   -1    0    0  505    0 -0.00000000000E+00 -0.00000000000E+00 -0.59232717770E+03  0.59232717770E+03  0.00000000000E+00 0. -1.
         21    1    1    2  503  501  0.32286889853E+02 -0.40023891200E+02 -0.33784326326E+03  0.34173443732E+03  0.00000000000E+00 0. -1.
         21    1    1    2  504  503  0.40838999024E+01  0.12119613866E+03  0.71752804148E+02  0.14090297076E+03  0.00000000000E+00 0. -1.
         21    1    1    2  505  502 -0.34779917025E+01 -0.41746924782E+02 -0.49268519101E+02  0.64670620296E+02  0.00000000000E+00 0. -1.
          2    1    1    2  501    0 -0.32892798053E+02 -0.39425322679E+02 -0.15689989208E+03  0.16508745672E+03  0.00000000000E+00 0. -1.
<scales pt_clust_3="113.70163" pt_clust_4="14000.00000" pt_clust_5="41.89155" pt_clust_6="62.07824"></scales>
<clustering>
<clus scale="   41.892">  2  5  1 -1</clus>
<clus scale="   62.078">  2  6  1 -1</clus>
<clus scale="  113.702">  2  3  1 -1</clus>
<clus scale="  113.702">  1  3  2 -1</clus>
</clustering>
</event>
<event>
 6    0  0.4340992E+002  0.1434754E+03  0.7546771E-02  0.1208728E+00
          2   -1    0    0  504    0 -0.00000000000E+00  0.00000000000E+00  0.17413850233E+04  0.17413850233E+04  0.00000000000E+00 0. -1.
         21   -1    0    0  503  502  0.00000000000E+00 -0.00000000000E+00 -0.23876842679E+03  0.23876842679E+03  0.00000000000E+00 0. -1.
         21    1    1    2  503  501  0.12759958149E+03  0.10965565340E+03  0.10528998711E+03  0.19847417188E+03  0.00000000000E+00 0. -1.
         21    1    1    2  504  505 -0.24572187129E+02  0.28004191911E+02  0.32303664127E+03  0.32517794936E+03  0.00000000000E+00 0. -1.
         21    1    1    2  505  502 -0.11873355294E+03 -0.73395094989E+02 -0.16461572094E+03  0.21583056350E+03  0.00000000000E+00 0. -1.
          2    1    1    2  501    0  0.15706158577E+02 -0.64264750322E+02  0.12389056891E+04  0.12406707654E+04  0.00000000000E+00 0. -1.
<scales pt_clust_3="14000.00000" pt_clust_4="37.25624" pt_clust_5="143.47541" pt_clust_6="40.18671"></scales>
<clustering>
<clus scale="   37.256">  1  4  2 -1</clus>
<clus scale="   40.187">  1  6  2 -1</clus>
<clus scale="  143.475">  2  5  1 -1</clus>
<clus scale="  143.475">  2  3  1 -1</clus>
</clustering>
</event>
<event>
 6    0  0.4340992E+002  0.1250432E+03  0.7546771E-02  0.1235002E+00
          3   -1    0    0  505    0 -0.00000000000E+00  0.00000000000E+00  0.41188599816E+03  0.41188599816E+03  0.00000000000E+00 0. -1.
         21   -1    0    0  503  502  0.00000000000E+00 -0.00000000000E+00 -0.23946230769E+04  0.23946230769E+04  0.00000000000E+00 0. -1.
         21    1    1    2  503  501 -0.60290071354E+02  0.46045684618E+02 -0.16617293110E+03  0.18267058003E+03  0.00000000000E+00 0.  1.
         21    1    1    2  504  502 -0.64905181301E+02 -0.63454321980E+02 -0.22059907488E+04  0.22078574042E+04  0.00000000000E+00 0. -1.
         21    1    1    2  505  504  0.36177356061E+02  0.30746778540E+01  0.35607256014E+02  0.50854020650E+02  0.00000000000E+00 0.  1.
          3    1    1    2  501    0  0.89017896594E+02  0.14333959507E+02  0.35381934520E+03  0.36512707013E+03  0.00000000000E+00 0. -1.
<scales pt_clust_3="75.26278" pt_clust_4="14000.00000" pt_clust_5="36.30778" pt_clust_6="125.04323"></scales>
<clustering>
<clus scale="   36.308">  1  5  2 -1</clus>
<clus scale="   75.263">  2  3  1 -1</clus>
<clus scale="  125.043">  1  6  2 -1</clus>
<clus scale="   75.263">  2  3  1 -1</clus>
</clustering>
</event>
<event>
 6    0  0.4340992E+002  0.1021203E+03  0.7546771E-02  0.1275899E+00
         21   -1    0    0  505  502  0.00000000000E+00  0.00000000000E+00  0.13427830693E+03  0.13427830693E+03  0.00000000000E+00 0.  1.
          1   -1    0    0  504    0 -0.00000000000E+00 -0.00000000000E+00 -0.17934711486E+04  0.17934711486E+04  0.00000000000E+00 0.  1.
         21    1    1    2  503  502  0.87892942597E+02 -0.99346902828E+02 -0.25803552368E+03  0.29013325893E+03  0.00000000000E+00 0.  1.
         21    1    1    2  504  503 -0.31461410403E+02  0.19978768578E+02 -0.77990952955E+03  0.78079949143E+03  0.00000000000E+00 0. -1.
         21    1    1    2  505  501 -0.10131422986E+03  0.12634995731E+02  0.92969817086E+02  0.13808549228E+03  0.00000000000E+00 0.  1.
          1    1    1    2  501    0  0.44882697666E+02  0.66733138519E+02 -0.71421760554E+03  0.71873121289E+03  0.00000000000E+00 0.  1.
<scales pt_clust_3="14000.00000" pt_clust_4="37.26891" pt_clust_5="102.12033" pt_clust_6="83.96988"></scales>
<clustering>
<clus scale="   37.269">  2  4  1 -1</clus>
<clus scale="   83.970">  2  6  1 -1</clus>
<clus scale="  102.120">  1  5  2 -1</clus>
<clus scale="  102.120">  1  3  2 -1</clus>
</clustering>
</event>
<event>
 6    0  0.4340992E+002  0.1196868E+03  0.7546771E-02  0.1243615E+00
         21   -1    0    0  503  502  0.00000000000E+00  0.00000000000E+00  0.28384598490E+02  0.28384598490E+02  0.00000000000E+00 0.  1.
          1   -1    0    0  504    0 -0.00000000000E+00 -0.00000000000E+00 -0.18278952224E+04  0.18278952224E+04  0.00000000000E+00 0.  1.
         21    1    1    2  503  505  0.24474761341E+02  0.69347674002E+02 -0.10354625066E+03  0.12700370017E+03  0.00000000000E+00 0.  1.
         21    1    1    2  504  502 -0.15698636254E+03 -0.55730490356E+02 -0.70048395555E+03  0.72001970637E+03  0.00000000000E+00 0.  1.
         21    1    1    2  505  501  0.82465130854E+02  0.24254939732E+02 -0.33692674600E+03  0.34771889807E+03  0.00000000000E+00 0.  1.
          1    1    1    2  501    0  0.50046470344E+02 -0.37872123378E+02 -0.65855367173E+03  0.66153751630E+03  0.00000000000E+00 0.  1.
<scales pt_clust_3="71.90147" pt_clust_4="119.68676" pt_clust_5="14000.00000" pt_clust_6="62.76103"></scales>
<clustering>
<clus scale="   62.761">  2  6  1 -1</clus>
<clus scale="   71.901">  1  3  2 -1</clus>
<clus scale="  119.687">  1  4  2 -1</clus>
<clus scale="   71.901">  1  3  2 -1</clus>
</clustering>
</event>
<event>
 6    0  0.4340992E+002  0.1220257E+03  0.7546771E-02  0.1239792E+00
         21   -1    0    0  505  502  0.00000000000E+00  0.00000000000E+00  0.40713025346E+02  0.40713025346E+02  0.00000000000E+00 0. -1.
          2   -1    0    0  504    0 -0.00000000000E+00 -0.00000000000E+00 -0.13378804359E+04  0.13378804359E+04  0.00000000000E+00 0. -1.
         21    1    1    2  503  501 -0.66041556078E+02  0.78710463097E+02 -0.76265113116E+02  0.12795777276E+03  0.00000000000E+00 0. -1.
         21    1    1    2  504  502 -0.38162675976E+02  0.19113489087E+02 -0.11202315983E+03  0.11987870387E+03  0.00000000000E+00 0. -1.
         21    1    1    2  505  503  0.47846574430E+02  0.13991436339E+02 -0.79820488818E+02  0.94108264306E+02  0.00000000000E+00 0. -1.
          2    1    1    2  501    0  0.56357657625E+02 -0.11181538852E+03 -0.10290586488E+04  0.10366487203E+04  0.00000000000E+00 0. -1.
<scales pt_clust_3="14000.00000" pt_clust_4="42.68156" pt_clust_5="44.14084" pt_clust_6="122.02567"></scales>
<clustering>
<clus scale="   42.682">  1  4  2 -1</clus>
<clus scale="   44.141">  1  5  2 -1</clus>
<clus scale="  122.026">  2  6  1 -1</clus>
<clus scale="   42.682">  1  3  2 -1</clus>
</clustering>
</event>
<event>
 6    0  0.4340992E+002  0.1700108E+03  0.7546771E-02  0.1177837E+00
          1   -1    0    0  505    0 -0.00000000000E+00  0.00000000000E+00  0.37162294680E+03  0.37162294680E+03  0.00000000000E+00 0. -1.
         21   -1    0    0  504  502  0.00000000000E+00 -0.00000000000E+00 -0.62679671966E+03  0.62679671966E+03  0.00000000000E+00 0. -1.
         21    1    1    2  503  501  0.10449349775E+02  0.86002109123E+02 -0.24733865917E+03  0.26207244038E+03  0.00000000000E+00 0. -1.
         21    1    1    2  504  503  0.26224549856E+02  0.41339423010E+02 -0.30583576137E+03  0.30972921697E+03  0.00000000000E+00 0. -1.
         21    1    1    2  505  502  0.48231146909E+02  0.91822691100E+01 -0.32643527306E+02  0.58958947354E+02  0.00000000000E+00 0.  1.
          1    1    1    2  501    0 -0.84905046540E+02 -0.13652380124E+03  0.33064417499E+03  0.36765906175E+03  0.00000000000E+00 0. -1.
<scales pt_clust_3="43.79608" pt_clust_4="43.79608" pt_clust_5="49.09743" pt_clust_6="159.71631"></scales>
<clustering>
<clus scale="   43.796">  3  4 -1 -1</clus>
<clus scale="   49.097">  2  5  1 -1</clus>
<clus scale="  159.716">  1  6  2 -1</clus>
<clus scale="   49.097">  2  3  1 -1</clus>
</clustering>
</event>
<event>
 6    0  0.4340992E+002  0.1142583E+03  0.7546771E-02  0.1252881E+00
         21   -1    0    0  504  502  0.00000000000E+00  0.00000000000E+00  0.15158761591E+03  0.15158761591E+03  0.00000000000E+00 0. -1.
          1   -1    0    0  503    0 -0.00000000000E+00 -0.00000000000E+00 -0.11142025500E+04  0.11142025500E+04  0.00000000000E+00 0.  1.
         21    1    1    2  503  505 -0.11506186596E+02  0.34915527888E+02 -0.59939067950E+02  0.70314851095E+02  0.00000000000E+00 0. -1.
         21    1    1    2  504  501  0.12040072699E+03 -0.10083850303E+02  0.53148404167E+02  0.13199534826E+03  0.00000000000E+00 0. -1.
         21    1    1    2  505  502 -0.18493096014E+02 -0.44998056969E+02  0.40229636181E+02  0.63128783914E+02  0.00000000000E+00 0. -1.
          1    1    1    2  501    0 -0.90401444380E+02  0.20166379384E+02 -0.99605390650E+03  0.10003511827E+04  0.00000000000E+00 0.  1.
<scales pt_clust_3="36.76257" pt_clust_4="14000.00000" pt_clust_5="48.34595" pt_clust_6="114.25831"></scales>
<clustering>
<clus scale="   36.763">  2  3  1 -1</clus>
<clus scale="   48.346">  1  5  2 -1</clus>
<clus scale="  114.258">  2  6  1 -1</clus>
<clus scale="   48.346">  1  3  2 -1</clus>
</clustering>
</event>
<event>
 6    0  0.4340992E+002  0.1520870E+03  0.7546771E-02  0.1197932E+00
         21   -1    0    0  503  502  0.00000000000E+00  0.00000000000E+00  0.12139224273E+03  0.12139224273E+03  0.00000000000E+00 0.  1.
          2   -1    0    0  504    0 -0.00000000000E+00 -0.00000000000E+00 -0.64237199531E+03  0.64237199531E+03  0.00000000000E+00 0.  1.
         21    1    1    2  503  501 -0.16687887561E+02 -0.25031708881E+02 -0.52763893132E+01  0.30543613488E+02  0.00000000000E+00 0.  1.
         21    1    1    2  504  505  0.13187023052E+03  0.12293359362E+03 -0.16149448014E+03  0.24203903250E+03  0.00000000000E+00 0.  1.
         21    1    1    2  505  502 -0.28454361862E+02  0.17058561951E+02  0.51170341199E+02  0.60984006619E+02  0.00000000000E+00 0.  1.
          2    1    1    2  501    0 -0.86727981093E+02 -0.11496044669E+03 -0.40537922432E+03  0.43019758544E+03  0.00000000000E+00 0.  1.
<scales pt_clust_3="30.08442" pt_clust_4="152.08703" pt_clust_5="37.29068" pt_clust_6="14000.00000"></scales>
<clustering>
<clus scale="   30.084">  1  3  2 -1</clus>
<clus scale="   37.291">  1  5  2 -1</clus>
<clus scale="  152.087">  1  4  2 -1</clus>
<clus scale="   30.084">  1  3  2 -1</clus>
</clustering>
</event>
<event>
 6    0  0.4340992E+002  0.2174964E+03  0.7546771E-02  0.1135763E+00
         -2   -1    0    0    0  501 -0.00000000000E+00  0.00000000000E+00  0.83734012686E+03  0.83734012686E+03  0.00000000000E+00 0.  1.
         21   -1    0    0  505  502  0.00000000000E+00 -0.00000000000E+00 -0.32050745249E+03  0.32050745249E+03  0.00000000000E+00 0.  1.
         21    1    1    2  503  504 -0.13999389445E+03  0.28832211968E+02  0.57414147391E+03  0.59166546206E+03  0.00000000000E+00 0.  1.
         21    1    1    2  504  502  0.57456929157E+02  0.15291849323E+02 -0.15927796583E+03  0.17001355758E+03  0.00000000000E+00 0.  1.
         21    1    1    2  505  501  0.14885429488E+03 -0.67926574097E+01 -0.10059104645E+03  0.17978403691E+03  0.00000000000E+00 0.  1.
         -2    1    1    2    0  503 -0.66317329595E+02 -0.37331403882E+02  0.20256021274E+03  0.21638452280E+03  0.00000000000E+00 0.  1.
<scales pt_clust_3="60.83906" pt_clust_4="59.45704" pt_clust_5="200.65389" pt_clust_6="60.83906"></scales>
<clustering>
<clus scale="   59.457">  2  4  1 -1</clus>
<clus scale="   60.839">  3  6 -1 -1</clus>
<clus scale="  200.654">  2  5  1 -1</clus>
<clus scale="   59.457">  2  3  1 -1</clus>
</clustering>
</event>
<event>
 6    0  0.4340992E+002  0.1473872E+03  0.7546771E-02  0.1203721E+00
         21   -1    0    0  503  502  0.00000000000E+00  0.00000000000E+00  0.16894962830E+03  0.16894962830E+03  0.00000000000E+00 0. -1.
          1   -1    0    0  505    0 -0.00000000000E+00 -0.00000000000E+00 -0.10922706090E+04  0.10922706090E+04  0.00000000000E+00 0.  1.
         21    1    1    2  503  501 -0.23954975637E+01 -0.21538224523E+03 -0.66753019832E+02  0.22550214107E+03  0.00000000000E+00 0. -1.
         21    1    1    2  504  502 -0.30539360499E+02  0.72770712591E+02  0.57195718150E+02  0.97465785409E+02  0.00000000000E+00 0. -1.
         21    1    1    2  505  504  0.42994903381E+02  0.54863000308E+02 -0.11396045446E+03  0.13358703417E+03  0.00000000000E+00 0. -1.
          1    1    1    2  501    0 -0.10060045318E+02  0.87748532335E+02 -0.79980322454E+03  0.80466527663E+03  0.00000000000E+00 0.  1.
<scales pt_clust_3="14000.00000" pt_clust_4="79.63503" pt_clust_5="69.70302" pt_clust_6="147.38725"></scales>
<clustering>
<clus scale="   69.703">  2  5  1 -1</clus>
<clus scale="   79.635">  1  4  2 -1</clus>
<clus scale="  147.387">  2  6  1 -1</clus>
<clus scale="   79.635">  1  3  2 -1</clus>
</clustering>
</event>
<event>
 6    0  0.4340992E+002  0.1145630E+03  0.7546771E-02  0.1252346E+00
         21   -1    0    0  503  502  0.00000000000E+00  0.00000000000E+00  0.25750673794E+03  0.25750673794E+03  0.00000000000E+00 0. -1.
          1   -1    0    0  505    0 -0.00000000000E+00 -0.00000000000E+00 -0.37822746477E+03  0.37822746477E+03  0.00000000000E+00 0. -1.
         21    1    1    2  503  504 -0.46255218750E+02  0.22788843239E+01  0.10594476028E+03  0.11562452511E+03  0.00000000000E+00 0. -1.
         21    1    1    2  504  501 -0.44379399606E+02  0.44941664614E+02  0.89131074443E+02  0.10924116788E+03  0.00000000000E+00 0. -1.
         21    1    1    2  505  502 -0.74845864979E+02 -0.72789149763E+01 -0.36040706813E+02  0.83389559630E+02  0.00000000000E+00 0.  1.
          1    1    1    2  501    0  0.16548048334E+03 -0.39941633962E+02 -0.27975585475E+03  0.32747895009E+03  0.00000000000E+00 0. -1.
<scales pt_clust_3="38.91717" pt_clust_4="38.91717" pt_clust_5="75.19898" pt_clust_6="105.16223"></scales>
<clustering>
<clus scale="   38.917">  3  4 -1 -1</clus>
<clus scale="   75.199">  2  5  1 -1</clus>
<clus scale="  105.162">  2  6  1 -1</clus>
<clus scale="  114.563">  1  3  2 -1</clus>
</clustering>
</event>
<event>
 6    0  0.4340992E+002  0.1072235E+03  0.7546771E-02  0.1265800E+00
         21   -1    0    0  501  502  0.00000000000E+00  0.00000000000E+00  0.32863730592E+02  0.32863730592E+02  0.00000000000E+00 0. -1.
          1   -1    0    0  504    0 -0.00000000000E+00 -0.00000000000E+00 -0.93707917038E+03  0.93707917038E+03  0.00000000000E+00 0.  1.
         21    1    1    2  503  502  0.28717637047E+02 -0.96832101738E+02 -0.16020385271E+03  0.18938435264E+03  0.00000000000E+00 0. -1.
         21    1    1    2  504  505 -0.59574087747E+02 -0.11099464766E+02 -0.16890415037E+03  0.17944604220E+03  0.00000000000E+00 0. -1.
         21    1    1    2  505  503 -0.34233241495E+02  0.15382456998E+02 -0.42850387946E+02  0.56962185296E+02  0.00000000000E+00 0. -1.
          1    1    1    2  501    0  0.65089692195E+02  0.92549109506E+02 -0.53225704877E+03  0.54415032084E+03  0.00000000000E+00 0.  1.
<scales pt_clust_3="101.00079" pt_clust_4="37.16888" pt_clust_5="37.16888" pt_clust_6="96.26096"></scales>
<clustering>
<clus scale="   37.169">  4  5 -1 -1</clus>
<clus scale="  101.001">  1  3  2 -1</clus>
<clus scale="   96.261">  2  6  1 -1</clus>
<clus scale="  101.001">  1  3  2 -1</clus>
</clustering>
</event>
<event>
 6    0  0.4340992E+002  0.5906423E+02  0.7546771E-02  0.1401801E+00
         -1   -1    0    0    0  501 -0.00000000000E+00  0.00000000000E+00  0.28040769635E+03  0.28040769635E+03  0.00000000000E+00 0. -1.
         21   -1    0    0  504  502  0.00000000000E+00 -0.00000000000E+00 -0.11777040364E+04  0.11777040364E+04  0.00000000000E+00 0. -1.
         21    1    1    2  503  505 -0.43217705976E+02  0.37496054118E+02 -0.19907719979E+03  0.20713632144E+03  0.00000000000E+00 0. -1.
         21    1    1    2  504  503 -0.14475605881E+02 -0.27130339877E+02 -0.94679302705E+03  0.94729226461E+03  0.00000000000E+00 0. -1.
         21    1    1    2  505  501 -0.55753231322E+02  0.12253131710E+02  0.63078187093E+02  0.85073025846E+02  0.00000000000E+00 0. -1.
         -1    1    1    2    0  502  0.11344654318E+03 -0.22618845950E+02  0.18549569968E+03  0.21861012088E+03  0.00000000000E+00 0. -1.
<scales pt_clust_3="14000.00000" pt_clust_4="30.75059" pt_clust_5="57.49757" pt_clust_6="59.06423"></scales>
<clustering>
<clus scale="   30.751">  2  4  1 -1</clus>
<clus scale="   57.498">  1  5  2 -1</clus>
<clus scale="   59.064">  1  6  2 -1</clus>
<clus scale="   30.751">  2  3  1 -1</clus>
</clustering>
</event>
<event>
 6    0  0.4340992E+002  0.1351881E+03  0.7546771E-02  0.1219954E+00
          2   -1    0    0  504    0 -0.00000000000E+00  0.00000000000E+00  0.29920895892E+03  0.29920895892E+03  0.00000000000E+00 0.  1.
         21   -1    0    0  505  502  0.00000000000E+00 -0.00000000000E+00 -0.54324502510E+03  0.54324502510E+03  0.00000000000E+00 0.  1.
         21    1    1    2  503  501 -0.35765598334E+02 -0.10951887440E+00  0.42555236820E+02  0.55589011499E+02  0.00000000000E+00 0. -1.
         21    1    1    2  504  502  0.80426661939E+02  0.39105506023E+02 -0.48824445317E+03  0.49636713691E+03  0.00000000000E+00 0.  1.
         21    1    1    2  505  503  0.25461510869E+02  0.26495584607E+02 -0.24951119373E+02  0.44416921296E+02  0.00000000000E+00 0.  1.
          2    1    1    2  501    0 -0.70122574474E+02 -0.65491571756E+02  0.22660426954E+03  0.24608091433E+03  0.00000000000E+00 0.  1.
<scales pt_clust_3="33.67431" pt_clust_4="123.42498" pt_clust_5="36.74649" pt_clust_6="33.67431"></scales>
<clustering>
<clus scale="   33.674">  3  6 -1 -1</clus>
<clus scale="   36.746">  2  5  1 -1</clus>
<clus scale="  123.425">  2  4  1 -1</clus>
<clus scale="   36.746">  2  3  1 -1</clus>
</clustering>
</event>
<event>
 6    0  0.4340992E+002  0.6854324E+02  0.7546771E-02  0.1365118E+00
         21   -1    0    0  503  502  0.00000000000E+00  0.00000000000E+00  0.44820075686E+03  0.44820075686E+03  0.00000000000E+00 0.  1.
         -4   -1    0    0    0  501 -0.00000000000E+00 -0.00000000000E+00 -0.39057677316E+03  0.39057677316E+03  0.00000000000E+00 0. -1.
         21    1    1    2  503  505 -0.75167818536E+02 -0.73041534286E+02  0.38772245531E+03  0.40163910296E+03  0.00000000000E+00 0.  1.
         21    1    1    2  504  502  0.41051162572E+02  0.14586525117E+02  0.31034159819E+02  0.53489099255E+02  0.00000000000E+00 0.  1.
         21    1    1    2  505  501  0.41264390719E+02 -0.22706779258E+02 -0.11092334537E+03  0.12050865659E+03  0.00000000000E+00 0. -1.
         -4    1    1    2    0  504 -0.71477347552E+01  0.81161788427E+02 -0.25020928606E+03  0.26314067121E+03  0.00000000000E+00 0. -1.
<scales pt_clust_3="14000.00000" pt_clust_4="43.56564" pt_clust_5="47.44249" pt_clust_6="68.54324"></scales>
<clustering>
<clus scale="   43.566">  1  4  2 -1</clus>
<clus scale="   47.442">  2  5  1 -1</clus>
<clus scale="   68.543">  2  6  1 -1</clus>
<clus scale="   43.566">  1  3  2 -1</clus>
</clustering>
</event>
<event>
 6    0  0.4340992E+002  0.1009734E+03  0.7546771E-02  0.1278262E+00
          1   -1    0    0  504    0 -0.00000000000E+00  0.00000000000E+00  0.34824118988E+03  0.34824118988E+03  0.00000000000E+00 0.  1.
         21   -1    0    0  501  502  0.00000000000E+00 -0.00000000000E+00 -0.46836279655E+03  0.46836279655E+03  0.00000000000E+00 0. -1.
         21    1    1    2  503  502  0.74420648817E+02 -0.68686100652E+02 -0.41945846038E+03  0.43151084966E+03  0.00000000000E+00 0. -1.
         21    1    1    2  504  505  0.20903460673E+02 -0.25544062171E+02  0.36619062719E+02  0.49299183916E+02  0.00000000000E+00 0.  1.
         21    1    1    2  505  503 -0.36834301878E+02  0.29306007150E+02 -0.11107546397E+02  0.48363058597E+02  0.00000000000E+00 0. -1.
          1    1    1    2  501    0 -0.58489807612E+02  0.64924155673E+02  0.27382533737E+03  0.28743089426E+03  0.00000000000E+00 0.  1.
<scales pt_clust_3="14000.00000" pt_clust_4="33.00687" pt_clust_5="45.10371" pt_clust_6="100.97336"></scales>
<clustering>
<clus scale="   33.007">  1  4  2 -1</clus>
<clus scale="   45.104">  1  5  2 -1</clus>
<clus scale="  100.973">  1  6  2 -1</clus>
<clus scale="  100.973">  2  3  1 -1</clus>
</clustering>
</event>
<event>
 6    0  0.4340992E+002  0.1181011E+03  0.7546771E-02  0.1246263E+00
         21   -1    0    0  505  502  0.00000000000E+00  0.00000000000E+00  0.14618675930E+03  0.14618675930E+03  0.00000000000E+00 0.  1.
          2   -1    0    0  504    0 -0.00000000000E+00 -0.00000000000E+00 -0.23061103458E+04  0.23061103458E+04  0.00000000000E+00 0. -1.
         21    1    1    2  503  502  0.15202952758E+03  0.27558777827E+02 -0.15001210020E+03  0.21535109403E+03  0.00000000000E+00 0.  1.
         21    1    1    2  504  503  0.14522403047E+02 -0.30712096374E+02 -0.12773942326E+03  0.13217977647E+03  0.00000000000E+00 0.  1.
         21    1    1    2  505  501 -0.98279169259E+02 -0.56728647578E+02  0.81047384344E+02  0.13944752804E+03  0.00000000000E+00 0.  1.
          2    1    1    2  501    0 -0.68272761370E+02  0.59881966125E+02 -0.19632194474E+04  0.19653187066E+04  0.00000000000E+00 0. -1.
<scales pt_clust_3="118.10112" pt_clust_4="33.97253" pt_clust_5="14000.00000" pt_clust_6="63.85437"></scales>
<clustering>
<clus scale="   33.973">  2  4  1 -1</clus>
<clus scale="   63.854">  2  6  1 -1</clus>
<clus scale="  118.101">  2  3  1 -1</clus>
<clus scale="  118.101">  1  3  2 -1</clus>
</clustering>
</event>
<event>
 6    0  0.4340992E+002  0.9955150E+02  0.7546771E-02  0.1281242E+00
         -3   -1    0    0    0  501 -0.00000000000E+00  0.00000000000E+00  0.56284478464E+03  0.56284478464E+03  0.00000000000E+00 0.  1.
         21   -1    0    0  505  502  0.00000000000E+00 -0.00000000000E+00 -0.11046792692E+03  0.11046792692E+03  0.00000000000E+00 0. -1.
         21    1    1    2  503  501 -0.14601717109E+02 -0.44618954431E+02  0.69702125388E+02  0.84038369336E+02  0.00000000000E+00 0. -1.
         21    1    1    2  504  502  0.53360381328E+02  0.29363560901E+02 -0.26774506109E+02  0.66531369906E+02  0.00000000000E+00 0. -1.
         21    1    1    2  505  503 -0.50447699885E+02  0.81042066008E+02 -0.11836065828E+02  0.96191888123E+02  0.00000000000E+00 0. -1.
         -3    1    1    2    0  504  0.11689035666E+02 -0.65786672478E+02  0.42128530427E+03  0.42655108419E+03  0.00000000000E+00 0.  1.
<scales pt_clust_3="46.94743" pt_clust_4="59.51733" pt_clust_5="14000.00000" pt_clust_6="99.55150"></scales>
<clustering>
<clus scale="   46.947">  1  3  2 -1</clus>
<clus scale="   59.517">  2  4  1 -1</clus>
<clus scale="   99.551">  1  6  2 -1</clus>
<clus scale="   59.517">  2  3  1 -1</clus>
</clustering>
</event>
<event>
 6    0  0.4340992E+002  0.7524806E+02  0.7546771E-02  0.1343105E+00
         21   -1    0    0  505  502  0.00000000000E+00  0.00000000000E+00  0.24132477333E+02  0.24132477333E+02  0.00000000000E+00 0.  1.
          1   -1    0    0  503    0 -0.00000000000E+00 -0.00000000000E+00 -0.21587608293E+04  0.21587608293E+04  0.00000000000E+00 0. -1.
         21    1    1    2  503  502  0.95171261492E+01  0.42219276924E+02 -0.11308688674E+03  0.12108545324E+03  0.00000000000E+00 0. -1.
         21    1    1    2  504  501  0.64673635349E+02  0.24683203234E+02 -0.47533583152E+03  0.48034996862E+03  0.00000000000E+00 0. -1.
         21    1    1    2  505  504 -0.86106828084E+02 -0.11138554663E+02 -0.93358769103E+02  0.12749240374E+03  0.00000000000E+00 0.  1.
          1    1    1    2  501    0  0.11916066586E+02 -0.55763925495E+02 -0.14528468646E+04  0.14539654810E+04  0.00000000000E+00 0. -1.
<scales pt_clust_3="43.27867" pt_clust_4="75.24806" pt_clust_5="14000.00000" pt_clust_6="55.93342"></scales>
<clustering>
<clus scale="   43.279">  1  3  2 -1</clus>
<clus scale="   55.933">  2  6  1 -1</clus>
<clus scale="   75.248">  2  4  1 -1</clus>
<clus scale="   43.279">  1  3  2 -1</clus>
</clustering>
</event>
<event>
 6    0  0.4340992E+002  0.7428409E+02  0.7546771E-02  0.1346102E+00
         21   -1    0    0  504  502  0.00000000000E+00  0.00000000000E+00  0.26222201736E+03  0.26222201736E+03  0.00000000000E+00 0. -1.
          2   -1    0    0  505    0 -0.00000000000E+00 -0.00000000000E+00 -0.20165378817E+03  0.20165378817E+03  0.00000000000E+00 0. -1.
         21    1    1    2  503  502 -0.12316846602E+02  0.30718521295E+02  0.18816348080E+03  0.19105189809E+03  0.00000000000E+00 0. -1.
         21    1    1    2  504  501 -0.41272937608E+02 -0.33150896892E+02 -0.83643800736E+01  0.53594777708E+02  0.00000000000E+00 0. -1.
         21    1    1    2  505  503  0.80176055994E+02  0.65078165649E+02 -0.31028541932E+02  0.10782457055E+03  0.00000000000E+00 0. -1.
          2    1    1    2  501    0 -0.26586271784E+02 -0.62645790052E+02 -0.88202329607E+02  0.11140455918E+03  0.00000000000E+00 0. -1.
<scales pt_clust_3="33.09580" pt_clust_4="50.90199" pt_clust_5="74.28409" pt_clust_6="14000.00000"></scales>
<clustering>
<clus scale="   33.096">  1  3  2 -1</clus>
<clus scale="   50.902">  1  4  2 -1</clus>
<clus scale="   74.284">  1  5  2 -1</clus>
<clus scale="   33.096">  1  3  2 -1</clus>
</clustering>
</event>
<event>
 6    0  0.4340992E+002  0.9618634E+02  0.7546771E-02  0.1288526E+00
         -3   -1    0    0    0  501 -0.00000000000E+00  0.00000000000E+00  0.46232649213E+03  0.46232649213E+03  0.00000000000E+00 0. -1.
         21   -1    0    0  503  502  0.00000000000E+00 -0.00000000000E+00 -0.18000723102E+03  0.18000723102E+03  0.00000000000E+00 0. -1.
         21    1    1    2  503  505  0.25711803539E+00 -0.37841325010E+02 -0.92771458295E+02  0.10019269166E+03  0.00000000000E+00 0. -1.
         21    1    1    2  504  502  0.25628262933E+01  0.51181847200E+02  0.18471160049E+02  0.54473234850E+02  0.00000000000E+00 0.  1.
         21    1    1    2  505  501  0.31124501844E+02 -0.10220495049E+03 -0.11499670416E+02  0.10745617218E+03  0.00000000000E+00 0. -1.
         -3    1    1    2    0  504 -0.33944446173E+02  0.88864428296E+02  0.36811922977E+03  0.38021162446E+03  0.00000000000E+00 0. -1.
<scales pt_clust_3="37.84220" pt_clust_4="43.10601" pt_clust_5="14000.00000" pt_clust_6="96.18634"></scales>
<clustering>
<clus scale="   37.842">  2  3  1 -1</clus>
<clus scale="   43.106">  2  4  1 -1</clus>
<clus scale="   96.186">  1  6  2 -1</clus>
<clus scale="   37.842">  2  3  1 -1</clus>
</clustering>
</event>
<event>
 6    0  0.4340992E+002  0.8342086E+02  0.7546771E-02  0.1319615E+00
         21   -1    0    0  503  502  0.00000000000E+00  0.00000000000E+00  0.13306675756E+04  0.13306675756E+04  0.00000000000E+00 0. -1.
          2   -1    0    0  504    0 -0.00000000000E+00 -0.00000000000E+00 -0.23434035716E+04  0.23434035716E+04  0.00000000000E+00 0. -1.
         21    1    1    2  503  501  0.88219301808E+02  0.78188767365E+02 -0.13907148554E+03  0.18231019347E+03  0.00000000000E+00 0.  1.
         21    1    1    2  504  505 -0.38641178342E+02  0.24020100939E+00 -0.64308481348E+03  0.64424473276E+03  0.00000000000E+00 0. -1.
         21    1    1    2  505  502 -0.27828179125E+02 -0.20890508658E+02  0.13076220951E+04  0.13080849989E+04  0.00000000000E+00 0. -1.
          2    1    1    2  501    0 -0.21749944341E+02 -0.57538459716E+02 -0.15382017921E+04  0.15394312221E+04  0.00000000000E+00 0. -1.
<scales pt_clust_3="14000.00000" pt_clust_4="39.34968" pt_clust_5="34.79685" pt_clust_6="83.42086"></scales>
<clustering>
<clus scale="   34.797">  1  5  2 -1</clus>
<clus scale="   39.350">  2  4  1 -1</clus>
<clus scale="   83.421">  2  6  1 -1</clus>
<clus scale="   34.797">  1  3  2 -1</clus>
</clustering>
</event>
<event>
 6    0  0.9723483E+002  0.1117446E+03  0.7546771E-02  0.1257373E+00
         21   -1    0    0  504  502  0.00000000000E+00  0.00000000000E+00  0.77737426366E+03  0.77737426366E+03  0.00000000000E+00 0.  1.
         -2   -1    0    0    0  501 -0.00000000000E+00 -0.00000000000E+00 -0.10384545162E+04  0.10384545162E+04  0.00000000000E+00 0.  1.
         21    1    1    2  503  505 -0.66818683090E+02  0.69356439438E+02  0.56705360819E+02  0.11176112941E+03  0.00000000000E+00 0. -1.
         21    1    1    2  504  501  0.29983513372E+02 -0.55398488574E+01 -0.38822424400E+01  0.30737156763E+02  0.00000000000E+00 0.  1.
         21    1    1    2  505  502  0.90601679307E+02 -0.47387949559E+02  0.67506558033E+03  0.68276483492E+03  0.00000000000E+00 0.  1.
         -2    1    1    2    0  503 -0.53766509589E+02 -0.16428641022E+02 -0.98896895121E+03  0.99056565873E+03  0.00000000000E+00 0.  1.
<scales pt_clust_3="14000.00000" pt_clust_4="30.49100" pt_clust_5="111.74464" pt_clust_6="56.19217"></scales>
<clustering>
<clus scale="   30.491">  1  4  2 -1</clus>
<clus scale="   56.192">  2  6  1 -1</clus>
<clus scale="  111.745">  1  5  2 -1</clus>
<clus scale="   30.491">  1  3  2 -1</clus>
</clustering>
</event>
<event>
 6    0  0.4340992E+002  0.2145799E+03  0.7546771E-02  0.1137990E+00
          2   -1    0    0  504    0 -0.00000000000E+00  0.00000000000E+00  0.15256456520E+04  0.15256456520E+04  0.00000000000E+00 0.  1.
         21   -1    0    0  505  502  0.00000000000E+00 -0.00000000000E+00 -0.15398811561E+03  0.15398811561E+03  0.00000000000E+00 0.  1.
         21    1    1    2  503  501 -0.19884964287E+02  0.20914685796E+03  0.66330606806E+03  0.69578212101E+03  0.00000000000E+00 0.  1.
         21    1    1    2  504  502  0.58400004826E+02 -0.18033972516E+03 -0.59709703851E+02  0.19874160553E+03  0.00000000000E+00 0.  1.
         21    1    1    2  505  503 -0.40050091864E+02  0.60155690317E+02  0.39753521828E+03  0.40405069819E+03  0.00000000000E+00 0.  1.
          2    1    1    2  501    0  0.15350513245E+01 -0.88962823114E+02  0.37052595387E+03  0.38105934285E+03  0.00000000000E+00 0.  1.
<scales pt_clust_3="52.88932" pt_clust_4="194.71163" pt_clust_5="52.88932" pt_clust_6="88.97607"></scales>
<clustering>
<clus scale="   52.889">  3  5 -1 -1</clus>
<clus scale="   88.976">  1  6  2 -1</clus>
<clus scale="  194.712">  2  4  1 -1</clus>
<clus scale="  194.712">  2  3  1 -1</clus>
</clustering>
</event>
<event>
 6    0  0.4340992E+002  0.1651198E+03  0.7546771E-02  0.1183035E+00
          2   -1    0    0  503    0 -0.00000000000E+00  0.00000000000E+00  0.35435001807E+04  0.35435001807E+04  0.00000000000E+00 0. -1.
         21   -1    0    0  505  502  0.00000000000E+00 -0.00000000000E+00 -0.25750725397E+03  0.25750725397E+03  0.00000000000E+00 0. -1.
         21    1    1    2  503  502  0.79982215235E+02 -0.64321970676E+02 -0.21613933678E+03  0.23927115073E+03  0.00000000000E+00 0. -1.
         21    1    1    2  504  501 -0.38925859940E+02  0.47370880041E+02  0.78761840944E+03  0.79000125426E+03  0.00000000000E+00 0. -1.
         21    1    1    2  505  504  0.42208190546E+01 -0.62210424789E+02  0.70668934703E+01  0.62752635397E+02  0.00000000000E+00 0.  1.
          2    1    1    2  501    0 -0.45277174350E+02  0.79161515425E+02  0.27074469606E+04  0.27089823943E+04  0.00000000000E+00 0. -1.
<scales pt_clust_3="151.52729" pt_clust_4="53.79307" pt_clust_5="62.35345" pt_clust_6="53.79307"></scales>
<clustering>
<clus scale="   53.793">  4  6 -1 -1</clus>
<clus scale="   62.353">  2  5  1 -1</clus>
<clus scale="  151.527">  2  3  1 -1</clus>
<clus scale="   62.353">  2  3  1 -1</clus>
</clustering>
</event>
<event>
 6    0  0.4340992E+002  0.7345757E+02  0.7546771E-02  0.1348715E+00
          2   -1    0    0  503    0 -0.00000000000E+00  0.00000000000E+00  0.93308553234E+03  0.93308553234E+03  0.00000000000E+00 0. -1.
         21   -1    0    0  505  502  0.00000000000E+00 -0.00000000000E+00 -0.80966732799E+02  0.80966732799E+02  0.00000000000E+00 0. -1.
         21    1    1    2  503  504  0.84215709692E+01 -0.62328193591E+02  0.18689663979E+03  0.19719553884E+03  0.00000000000E+00 0.  1.
         21    1    1    2  504  502  0.11486593908E+02 -0.41989444093E+02  0.21621304644E+02  0.48605926279E+02  0.00000000000E+00 0.  1.
         21    1    1    2  505  501 -0.82055043819E+02  0.24271358920E+02 -0.27238624218E+02  0.89800176666E+02  0.00000000000E+00 0. -1.
          2    1    1    2  501    0  0.62146878942E+02  0.80046278764E+02  0.67083947933E+03  0.67845062336E+03  0.00000000000E+00 0. -1.
<scales pt_clust_3="66.18906" pt_clust_4="43.53223" pt_clust_5="73.45757" pt_clust_6="14000.00000"></scales>
<clustering>
<clus scale="   43.532">  2  4  1 -1</clus>
<clus scale="   66.189">  1  3  2 -1</clus>
<clus scale="   73.458">  2  5  1 -1</clus>
<clus scale="   43.532">  2  3  1 -1</clus>
</clustering>
</event>
<event>
 6    0  0.4340992E+002  0.1291618E+03  0.7546771E-02  0.1228705E+00
         21   -1    0    0  503  502  0.00000000000E+00  0.00000000000E+00  0.50111284269E+03  0.50111284269E+03  0.00000000000E+00 0. -1.
          3   -1    0    0  504    0 -0.00000000000E+00 -0.00000000000E+00 -0.15920739311E+03  0.15920739311E+03  0.00000000000E+00 0.  1.
         21    1    1    2  503  501 -0.29023516658E+02  0.12064562851E+02  0.28481064756E+02  0.42415672170E+02  0.00000000000E+00 0. -1.
         21    1    1    2  504  505  0.56178148609E+02 -0.11819770400E+03  0.27575734087E+03  0.30523563464E+03  0.00000000000E+00 0. -1.
         21    1    1    2  505  502  0.42287362282E+02 -0.26725920899E+01  0.14106075481E+03  0.14728713557E+03  0.00000000000E+00 0. -1.
          3    1    1    2  501    0 -0.69441994234E+02  0.10880573324E+03 -0.10339371086E+03  0.16538179342E+03  0.00000000000E+00 0.  1.
<scales pt_clust_3="31.43117" pt_clust_4="14000.00000" pt_clust_5="33.31837" pt_clust_6="129.16182"></scales>
<clustering>
<clus scale="   31.431">  1  3  2 -1</clus>
<clus scale="   33.318">  1  5  2 -1</clus>
<clus scale="  129.162">  2  6  1 -1</clus>
<clus scale="   31.431">  1  3  2 -1</clus>
</clustering>
</event>
<event>
 6    0  0.4340992E+002  0.9056149E+02  0.7546771E-02  0.1301498E+00
         21   -1    0    0  504  502  0.00000000000E+00  0.00000000000E+00  0.10429516528E+03  0.10429516528E+03  0.00000000000E+00 0. -1.
          2   -1    0    0  503    0 -0.00000000000E+00 -0.00000000000E+00 -0.20319330978E+04  0.20319330978E+04  0.00000000000E+00 0.  1.
         21    1    1    2  503  502  0.32603615664E+02  0.63717649185E+02  0.80664773218E+02  0.10784127322E+03  0.00000000000E+00 0. -1.
         21    1    1    2  504  505 -0.92964879078E+02 -0.10894933632E+03 -0.57178270674E+03  0.58944710565E+03  0.00000000000E+00 0.  1.
         21    1    1    2  505  501  0.25536351577E+02  0.23915340544E+02 -0.37323216383E+03  0.37486837274E+03  0.00000000000E+00 0. -1.
          2    1    1    2  501    0  0.34824911838E+02  0.21316346591E+02 -0.10632878352E+04  0.10640715115E+04  0.00000000000E+00 0.  1.
<scales pt_clust_3="71.57468" pt_clust_4="83.26157" pt_clust_5="32.97374" pt_clust_6="32.97374"></scales>
<clustering>
<clus scale="   32.974">  5  6 -1 -1</clus>
<clus scale="   71.575">  1  3  2 -1</clus>
<clus scale="   83.262">  1  4  2 -1</clus>
<clus scale="   71.575">  1  3  2 -1</clus>
</clustering>
</event>
<event>
 6    0  0.4340992E+002  0.1162929E+03  0.7546771E-02  0.1249341E+00
         21   -1    0    0  505  502  0.00000000000E+00  0.00000000000E+00  0.13068542635E+04  0.13068542635E+04  0.00000000000E+00 0.  1.
          2   -1    0    0  504    0 -0.00000000000E+00 -0.00000000000E+00 -0.22199768150E+03  0.22199768150E+03  0.00000000000E+00 0.  1.
         21    1    1    2  503  502 -0.45468798073E+02 -0.30927766473E+02  0.60524577864E+02  0.81775074826E+02  0.00000000000E+00 0. -1.
         21    1    1    2  504  503  0.49493077303E+02 -0.48882007404E+02  0.92098060648E+03  0.92360396971E+03  0.00000000000E+00 0.  1.
         21    1    1    2  505  501  0.63410189679E+02 -0.15991083646E+02  0.29319000125E+03  0.30039464666E+03  0.00000000000E+00 0.  1.
          2    1    1    2  501    0 -0.67434468908E+02  0.95800857524E+02 -0.18983860360E+03  0.22307825380E+03  0.00000000000E+00 0.  1.
<scales pt_clust_3="54.99035" pt_clust_4="14000.00000" pt_clust_5="57.47703" pt_clust_6="116.29291"></scales>
<clustering>
<clus scale="   54.990">  1  3  2 -1</clus>
<clus scale="   57.477">  1  5  2 -1</clus>
<clus scale="  116.293">  2  6  1 -1</clus>
<clus scale="   54.990">  1  3  2 -1</clus>
</clustering>
</event>
<event>
 6    0  0.4340992E+002  0.1329509E+03  0.7546771E-02  0.1223142E+00
          2   -1    0    0  505    0 -0.00000000000E+00  0.00000000000E+00  0.29310759246E+04  0.29310759246E+04  0.00000000000E+00 0.  1.
         21   -1    0    0  504  502  0.00000000000E+00 -0.00000000000E+00 -0.25665579092E+03  0.25665579092E+03  0.00000000000E+00 0. -1.
         21    1    1    2  503  502 -0.27887461784E+02 -0.20965153998E+02 -0.58335492040E+02  0.67972625656E+02  0.00000000000E+00 0. -1.
         21    1    1    2  504  501 -0.33888200958E+02  0.15692088783E+02  0.14583599395E+02  0.40091560032E+02  0.00000000000E+00 0. -1.
         21    1    1    2  505  503  0.34346895941E+01 -0.10088387611E+03 -0.16528295725E+03  0.19366933032E+03  0.00000000000E+00 0. -1.
          2    1    1    2  501    0  0.58340973148E+02  0.10615694132E+03  0.28834549835E+04  0.28859981995E+04  0.00000000000E+00 0.  1.
<scales pt_clust_3="32.23409" pt_clust_4="37.34504" pt_clust_5="32.23409" pt_clust_6="121.11878"></scales>
<clustering>
<clus scale="   32.234">  3  5 -1 -1</clus>
<clus scale="   37.345">  2  4  1 -1</clus>
<clus scale="  121.119">  1  6  2 -1</clus>
<clus scale="   37.345">  2  3  1 -1</clus>
</clustering>
</event>
<event>
 6    0  0.4340992E+002  0.2243433E+03  0.7546771E-02  0.1130686E+00
          2   -1    0    0  505    0 -0.00000000000E+00  0.00000000000E+00  0.11442828662E+04  0.11442828662E+04  0.00000000000E+00 0. -1.
         21   -1    0    0  504  502  0.00000000000E+00 -0.00000000000E+00 -0.14890027176E+03  0.14890027176E+03  0.00000000000E+00 0.  1.
         21    1    1    2  503  501  0.69213396918E+02 -0.19459724149E+03  0.23951067392E+03  0.31626562196E+03  0.00000000000E+00 0.  1.
         21    1    1    2  504  503 -0.21794235992E+02 -0.29633102357E+02 -0.76727018155E+02  0.85089040379E+02  0.00000000000E+00 0.  1.
         21    1    1    2  505  502 -0.35778356450E+02 -0.10206970312E+02  0.13209041370E+02  0.39481030979E+02  0.00000000000E+00 0.  1.
          2    1    1    2  501    0 -0.11640804476E+02  0.23443731416E+03  0.81938989732E+03  0.85234744466E+03  0.00000000000E+00 0. -1.
<scales pt_clust_3="14000.00000" pt_clust_4="36.78464" pt_clust_5="43.04588" pt_clust_6="224.34325"></scales>
<clustering>
<clus scale="   36.785">  2  4  1 -1</clus>
<clus scale="   43.046">  2  5  1 -1</clus>
<clus scale="  224.343">  1  6  2 -1</clus>
<clus scale="   36.785">  2  3  1 -1</clus>
</clustering>
</event>
<event>
 6    0  0.4340992E+002  0.8873084E+02  0.7546771E-02  0.1305955E+00
          2   -1    0    0  505    0 -0.00000000000E+00  0.00000000000E+00  0.28014373337E+04  0.28014373337E+04  0.00000000000E+00 0.  1.
         21   -1    0    0  503  502  0.00000000000E+00 -0.00000000000E+00 -0.29683059384E+03  0.29683059384E+03  0.00000000000E+00 0. -1.
         21    1    1    2  503  501  0.11310047880E+02 -0.29913769373E+02 -0.31997116706E+02  0.45238990468E+02  0.00000000000E+00 0. -1.
         21    1    1    2  504  502 -0.46155968602E+02  0.11136637092E+03 -0.24208475390E+03  0.27044014140E+03  0.00000000000E+00 0. -1.
         21    1    1    2  505  504  0.29990822863E+02 -0.64944383882E+01  0.16549570888E+03  0.16831653764E+03  0.00000000000E+00 0.  1.
          2    1    1    2  501    0  0.48550978598E+01 -0.74958163163E+02  0.26131929016E+04  0.26142722581E+04  0.00000000000E+00 0.  1.
<scales pt_clust_3="32.02246" pt_clust_4="88.73084" pt_clust_5="30.68594" pt_clust_6="14000.00000"></scales>
<clustering>
<clus scale="   30.686">  1  5  2 -1</clus>
<clus scale="   32.022">  2  3  1 -1</clus>
<clus scale="   88.731">  2  4  1 -1</clus>
<clus scale="   32.022">  2  3  1 -1</clus>
</clustering>
</event>
<event>
 6    0  0.4340992E+002  0.1608250E+03  0.7546771E-02  0.1187769E+00
         -3   -1    0    0    0  501 -0.00000000000E+00  0.00000000000E+00  0.39765654074E+02  0.39765654074E+02  0.00000000000E+00 0. -1.
         21   -1    0    0  503  502  0.00000000000E+00 -0.00000000000E+00 -0.13987048838E+04  0.13987048838E+04  0.00000000000E+00 0. -1.
         21    1    1    2  503  501  0.10010897073E+03 -0.77179891597E+02 -0.82237799649E+03  0.83203612350E+03  0.00000000000E+00 0. -1.
         21    1    1    2  504  502  0.54992085070E+02  0.25833173857E+02 -0.34624432283E+03  0.35153465460E+03  0.00000000000E+00 0.  1.
         21    1    1    2  505  504 -0.46330504816E+02  0.32724111749E+02 -0.86160289397E+02  0.10315511929E+03  0.00000000000E+00 0.  1.
         -3    1    1    2    0  505 -0.10877055098E+03  0.18622605991E+02 -0.10415662097E+03  0.15174464045E+03  0.00000000000E+00 0. -1.
<scales pt_clust_3="154.28587" pt_clust_4="60.75757" pt_clust_5="32.54419" pt_clust_6="32.54419"></scales>
<clustering>
<clus scale="   32.544">  5  6 -1 -1</clus>
<clus scale="   60.758">  2  4  1 -1</clus>
<clus scale="  154.286">  2  3  1 -1</clus>
<clus scale="   60.758">  2  3  1 -1</clus>
</clustering>
</event>
<event>
 6    0  0.4340992E+002  0.3016609E+03  0.7546771E-02  0.1084413E+00
         21   -1    0    0  505  502  0.00000000000E+00  0.00000000000E+00  0.15448785578E+03  0.15448785578E+03  0.00000000000E+00 0.  1.
          1   -1    0    0  504    0 -0.00000000000E+00 -0.00000000000E+00 -0.20131471839E+04  0.20131471839E+04  0.00000000000E+00 0. -1.
         21    1    1    2  503  502 -0.79893742431E+02  0.11213629128E+03 -0.58512959541E+02  0.14960389145E+03  0.00000000000E+00 0.  1.
         21    1    1    2  504  503  0.20661767920E+03  0.19919302763E+03 -0.14108990707E+03  0.31980476777E+03  0.00000000000E+00 0.  1.
         21    1    1    2  505  501  0.44604064540E+01 -0.34135422495E+02 -0.53318534992E+02  0.63466435762E+02  0.00000000000E+00 0.  1.
          1    1    1    2  501    0 -0.13118434322E+03 -0.27719389642E+03 -0.16057379265E+04  0.16347599447E+04  0.00000000000E+00 0. -1.
<scales pt_clust_3="128.51760" pt_clust_4="301.66091" pt_clust_5="34.42561" pt_clust_6="14000.00000"></scales>
<clustering>
<clus scale="   34.426">  1  5  2 -1</clus>
<clus scale="  128.518">  1  3  2 -1</clus>
<clus scale="  301.661">  1  4  2 -1</clus>
<clus scale="   34.426">  1  3  2 -1</clus>
</clustering>
</event>
<event>
 6    0  0.4340992E+002  0.1905790E+03  0.7546771E-02  0.1157940E+00
         -4   -1    0    0    0  501 -0.00000000000E+00  0.00000000000E+00  0.70999535881E+03  0.70999535881E+03  0.00000000000E+00 0.  1.
         21   -1    0    0  504  502  0.00000000000E+00 -0.00000000000E+00 -0.34816337220E+03  0.34816337220E+03  0.00000000000E+00 0.  1.
         21    1    1    2  503  501  0.40588557586E+02  0.29918131612E+01  0.33910471504E+03  0.34153826976E+03  0.00000000000E+00 0. -1.
         21    1    1    2  504  505  0.27220577319E+02 -0.13000811977E+02 -0.20693305440E+03  0.20912022845E+03  0.00000000000E+00 0.  1.
         21    1    1    2  505  503 -0.16934060435E+03  0.14157423615E+03 -0.40085354953E+01  0.22076134848E+03  0.00000000000E+00 0.  1.
         -4    1    1    2    0  502  0.10153146945E+03 -0.13156523734E+03  0.23366886147E+03  0.28673888433E+03  0.00000000000E+00 0.  1.
<scales pt_clust_3="40.92629" pt_clust_4="30.16589" pt_clust_5="190.57902" pt_clust_6="14000.00000"></scales>
<clustering>
<clus scale="   30.166">  2  4  1 -1</clus>
<clus scale="   40.926">  1  3  2 -1</clus>
<clus scale="  190.579">  2  5  1 -1</clus>
<clus scale="   30.166">  2  3  1 -1</clus>
</clustering>
</event>
<event>
 6    0  0.4340992E+002  0.1398705E+03  0.7546771E-02  0.1213503E+00
         21   -1    0    0  505  502  0.00000000000E+00  0.00000000000E+00  0.78281367276E+03  0.78281367276E+03  0.00000000000E+00 0.  1.
         -1   -1    0    0    0  501 -0.00000000000E+00 -0.00000000000E+00 -0.11147974108E+03  0.11147974108E+03  0.00000000000E+00 0. -1.
         21    1    1    2  503  504  0.20098402237E+02 -0.27601737382E+02  0.33937360635E+03  0.34108686044E+03  0.00000000000E+00 0.  1.
         21    1    1    2  504  502 -0.14093512926E+02 -0.27524844871E+02  0.20645236415E+03  0.20875541395E+03  0.00000000000E+00 0.  1.
         21    1    1    2  505  501 -0.99712376293E+02 -0.61992021472E+02  0.15207262246E+03  0.19212405163E+03  0.00000000000E+00 0.  1.
         -1    1    1    2    0  503  0.93707486982E+02  0.11711860372E+03 -0.26564661282E+02  0.15232708782E+03  0.00000000000E+00 0. -1.
<scales pt_clust_3="45.43142" pt_clust_4="30.92320" pt_clust_5="139.87048" pt_clust_6="14000.00000"></scales>
<clustering>
<clus scale="   30.923">  1  4  2 -1</clus>
<clus scale="   45.431">  1  3  2 -1</clus>
<clus scale="  139.870">  1  5  2 -1</clus>
<clus scale="   30.923">  1  3  2 -1</clus>
</clustering>
</event>
<event>
 6    0  0.4340992E+002  0.8287892E+02  0.7546771E-02  0.1321074E+00
          2   -1    0    0  505    0 -0.00000000000E+00  0.00000000000E+00  0.24104489793E+04  0.24104489793E+04  0.00000000000E+00 0.  1.
         21   -1    0    0  503  502  0.00000000000E+00 -0.00000000000E+00 -0.17617377581E+02  0.17617377581E+02  0.00000000000E+00 0.  1.
         21    1    1    2  503  501  0.55300057693E+02  0.48028596431E+02  0.11162329096E+03  0.13350880698E+03  0.00000000000E+00 0.  1.
         21    1    1    2  504  502  0.21278981593E+02 -0.29806508594E+02  0.13234205818E+03  0.13731585260E+03  0.00000000000E+00 0.  1.
         21    1    1    2  505  504  0.55424597453E+02 -0.16679325928E+02  0.66826172384E+03  0.67076360774E+03  0.00000000000E+00 0. -1.
          2    1    1    2  501    0 -0.13200363674E+03 -0.15427619092E+01  0.14806045287E+04  0.14864780896E+04  0.00000000000E+00 0.  1.
<scales pt_clust_3="14000.00000" pt_clust_4="36.62271" pt_clust_5="60.30319" pt_clust_6="82.87892"></scales>
<clustering>
<clus scale="   36.623">  2  4  1 -1</clus>
<clus scale="   60.303">  1  5  2 -1</clus>
<clus scale="   82.879">  1  6  2 -1</clus>
<clus scale="   36.623">  2  3  1 -1</clus>
</clustering>
</event>
<event>
 6    0  0.4340992E+002  0.1383783E+03  0.7546771E-02  0.1215528E+00
          2   -1    0    0  502    0 -0.00000000000E+00  0.00000000000E+00  0.38274428771E+04  0.38274428771E+04  0.00000000000E+00 0. -1.
         21   -1    0    0  505  502  0.00000000000E+00 -0.00000000000E+00 -0.21307440837E+02  0.21307440837E+02  0.00000000000E+00 0.  1.
         21    1    1    2  503  501  0.14405415847E+02  0.56464547718E+02  0.10681252777E+04  0.10697136860E+04  0.00000000000E+00 0.  1.
         21    1    1    2  504  503 -0.44726281370E+01 -0.58710684571E+02  0.63626836859E+02  0.86690964085E+02  0.00000000000E+00 0.  1.
         21    1    1    2  505  504  0.10065578446E+02 -0.68503342788E+02  0.13339460320E+03  0.15029352616E+03  0.00000000000E+00 0.  1.
          2    1    1    2  501    0 -0.19998366156E+02  0.70749479641E+02  0.25409887186E+04  0.25420521417E+04  0.00000000000E+00 0. -1.
<scales pt_clust_3="48.22220" pt_clust_4="30.99253" pt_clust_5="131.69738" pt_clust_6="48.22220"></scales>
<clustering>
<clus scale="   30.993">  4  5 -1 -1</clus>
<clus scale="   48.222">  3  6 -1 -1</clus>
<clus scale="  131.697">  2  4  1 -1</clus>
<clus scale="  131.697">  2  3  1 -1</clus>
</clustering>
</event>
<event>
 6    0  0.4340992E+002  0.7980588E+02  0.7546771E-02  0.1329603E+00
          2   -1    0    0  504    0 -0.00000000000E+00  0.00000000000E+00  0.33945822447E+04  0.33945822447E+04  0.00000000000E+00 0.  1.
         21   -1    0    0  505  502  0.00000000000E+00 -0.00000000000E+00 -0.47004343623E+03  0.47004343623E+03  0.00000000000E+00 0. -1.
         21    1    1    2  503  502 -0.38619313061E+02  0.53113810277E+02  0.48233482725E+02  0.81480040742E+02  0.00000000000E+00 0.  1.
         21    1    1    2  504  503 -0.48921620567E+02 -0.66482964393E+01  0.25524201860E+04  0.25528976342E+04  0.00000000000E+00 0.  1.
         21    1    1    2  505  501  0.11303261178E+03 -0.84391312674E+02 -0.44150645615E+03  0.46349349057E+03  0.00000000000E+00 0. -1.
          2    1    1    2  501    0 -0.25491678148E+02  0.37925798836E+02  0.76539159580E+03  0.76675451534E+03  0.00000000000E+00 0.  1.
<scales pt_clust_3="66.79663" pt_clust_4="79.80588" pt_clust_5="14000.00000" pt_clust_6="45.69674"></scales>
<clustering>
<clus scale="   45.697">  1  6  2 -1</clus>
<clus scale="   66.797">  2  3  1 -1</clus>
<clus scale="   79.806">  1  4  2 -1</clus>
<clus scale="   66.797">  2  3  1 -1</clus>
</clustering>
</event>
<event>
 6    0  0.4340992E+002  0.1369720E+03  0.7546771E-02  0.1217462E+00
          1   -1    0    0  505    0 -0.00000000000E+00  0.00000000000E+00  0.20466394625E+04  0.20466394625E+04  0.00000000000E+00 0.  1.
         21   -1    0    0  501  502  0.00000000000E+00 -0.00000000000E+00 -0.19798663749E+04  0.19798663749E+04  0.00000000000E+00 0.  1.
         21    1    1    2  503  504 -0.15125681152E+02  0.29405575014E+02 -0.26849827693E+03  0.27052689106E+03  0.00000000000E+00 0.  1.
         21    1    1    2  504  502 -0.79623230433E+02  0.54308368833E+02 -0.17057244051E+04  0.17084452007E+04  0.00000000000E+00 0.  1.
         21    1    1    2  505  503  0.28276350394E+02 -0.33026929182E+02  0.20139297011E+03  0.20603266356E+03  0.00000000000E+00 0. -1.
          1    1    1    2  501    0  0.66472561190E+02 -0.50687014664E+02  0.18396027995E+04  0.18415010820E+04  0.00000000000E+00 0.  1.
<scales pt_clust_3="30.93898" pt_clust_4="30.93898" pt_clust_5="43.47793" pt_clust_6="126.37782"></scales>
<clustering>
<clus scale="   30.939">  3  4 -1 -1</clus>
<clus scale="   43.478">  1  5  2 -1</clus>
<clus scale="  126.378">  1  6  2 -1</clus>
<clus scale="  136.972">  2  3  1 -1</clus>
</clustering>
</event>
<event>
 6    0  0.4340992E+002  0.1056011E+03  0.7546771E-02  0.1268940E+00
          1   -1    0    0  504    0 -0.00000000000E+00  0.00000000000E+00  0.14801369842E+03  0.14801369842E+03  0.00000000000E+00 0. -1.
         21   -1    0    0  505  502  0.00000000000E+00 -0.00000000000E+00 -0.12029276067E+04  0.12029276067E+04  0.00000000000E+00 0.  1.
         21    1    1    2  503  502  0.20102646901E+02  0.25828490527E+02 -0.78147705537E+03  0.78216214138E+03  0.00000000000E+00 0.  1.
         21    1    1    2  504  503  0.24002774392E+02  0.31592141543E+02  0.46980690842E+01  0.39953328258E+02  0.00000000000E+00 0. -1.
         21    1    1    2  505  501 -0.12411465559E+03 -0.80467174882E+01 -0.37424876351E+03  0.39437461174E+03  0.00000000000E+00 0.  1.
          1    1    1    2  501    0  0.80009234296E+02 -0.49373914582E+02  0.96113841565E+02  0.13445122370E+03  0.00000000000E+00 0. -1.
<scales pt_clust_3="32.72961" pt_clust_4="41.04612" pt_clust_5="105.60110" pt_clust_6="14000.00000"></scales>
<clustering>
<clus scale="   32.730">  2  3  1 -1</clus>
<clus scale="   41.046">  1  4  2 -1</clus>
<clus scale="  105.601">  2  5  1 -1</clus>
<clus scale="   32.730">  2  3  1 -1</clus>
</clustering>
</event>
<event>
 6    0  0.4340992E+002  0.1242162E+03  0.7546771E-02  0.1236299E+00
          2   -1    0    0  504    0 -0.00000000000E+00  0.00000000000E+00  0.12707740594E+04  0.12707740594E+04  0.00000000000E+00 0.  1.
         21   -1    0    0  503  502  0.00000000000E+00 -0.00000000000E+00 -0.29799725107E+03  0.29799725107E+03  0.00000000000E+00 0. -1.
         21    1    1    2  503  505  0.10830160027E+03 -0.67312642032E+02 -0.21786114826E+03  0.25243555281E+03  0.00000000000E+00 0. -1.
         21    1    1    2  504  502  0.42177881412E+01 -0.36885141516E+02  0.52510628974E+03  0.52641705797E+03  0.00000000000E+00 0.  1.
         21    1    1    2  505  501 -0.60000397014E+02  0.10956550536E+03  0.26587549961E+01  0.12494685504E+03  0.00000000000E+00 0. -1.
          2    1    1    2  501    0 -0.52518991402E+02 -0.53677218152E+01  0.66287291186E+03  0.66497184465E+03  0.00000000000E+00 0.  1.
<scales pt_clust_3="124.21624" pt_clust_4="37.12551" pt_clust_5="14000.00000" pt_clust_6="61.96548"></scales>
<clustering>
<clus scale="   37.126">  1  4  2 -1</clus>
<clus scale="   61.965">  1  6  2 -1</clus>
<clus scale="  124.216">  2  3  1 -1</clus>
<clus scale="  124.216">  2  3  1 -1</clus>
</clustering>
</event>
<event>
 6    0  0.4340992E+002  0.9047505E+02  0.7546771E-02  0.1301705E+00
          1   -1    0    0  505    0 -0.00000000000E+00  0.00000000000E+00  0.22686088076E+04  0.22686088076E+04  0.00000000000E+00 0. -1.
         21   -1    0    0  503  502  0.00000000000E+00 -0.00000000000E+00 -0.10441120322E+03  0.10441120322E+03  0.00000000000E+00 0. -1.
         21    1    1    2  503  501  0.43602185935E+02  0.55973338672E+02 -0.76727543622E+02  0.10450493391E+03  0.00000000000E+00 0. -1.
         21    1    1    2  504  502 -0.26385598873E+01  0.35737724641E+02  0.51978242105E+02  0.63133862650E+02  0.00000000000E+00 0. -1.
         21    1    1    2  505  504  0.35761567119E+02 -0.84832687321E+02  0.27729807130E+03  0.29218092831E+03  0.00000000000E+00 0. -1.
          1    1    1    2  501    0 -0.76725193167E+02 -0.68783759925E+01  0.19116488346E+04  0.19132002859E+04  0.00000000000E+00 0. -1.
<scales pt_clust_3="90.47505" pt_clust_4="35.83500" pt_clust_5="14000.00000" pt_clust_6="77.02899"></scales>
<clustering>
<clus scale="   35.835">  2  4  1 -1</clus>
<clus scale="   77.029">  1  6  2 -1</clus>
<clus scale="   90.475">  2  3  1 -1</clus>
<clus scale="   35.835">  2  3  1 -1</clus>
</clustering>
</event>
<event>
 6    0  0.4340992E+002  0.2293321E+03  0.7546771E-02  0.1127111E+00
         21   -1    0    0  505  502  0.00000000000E+00  0.00000000000E+00  0.31830139564E+02  0.31830139564E+02  0.00000000000E+00 0. -1.
          2   -1    0    0  503    0 -0.00000000000E+00 -0.00000000000E+00 -0.25953608429E+04  0.25953608429E+04  0.00000000000E+00 0. -1.
         21    1    1    2  503  504  0.12680124792E+03  0.45653838155E+02 -0.32237081911E+03  0.34940774809E+03  0.00000000000E+00 0. -1.
         21    1    1    2  504  502  0.91782168306E+02 -0.12520695613E+02 -0.16501895940E+03  0.18924056436E+03  0.00000000000E+00 0. -1.
         21    1    1    2  505  501 -0.12567182204E+03 -0.10563159091E+02 -0.14010163975E+04  0.14066811769E+04  0.00000000000E+00 0. -1.
          2    1    1    2  501    0 -0.92911594190E+02 -0.22569983452E+02 -0.67512452724E+03  0.68186149310E+03  0.00000000000E+00 0. -1.
<scales pt_clust_3="50.54330" pt_clust_4="50.54330" pt_clust_5="45.84988" pt_clust_6="227.26492"></scales>
<clustering>
<clus scale="   45.850">  5  6 -1 -1</clus>
<clus scale="   50.543">  3  4 -1 -1</clus>
<clus scale="  227.265">  2  5  1 -1</clus>
<clus scale="  229.332">  1  3  2 -1</clus>
</clustering>
</event>
<event>
 6    0  0.4340992E+002  0.1371785E+03  0.7546771E-02  0.1217177E+00
         -3   -1    0    0    0  501 -0.00000000000E+00  0.00000000000E+00  0.18744349795E+03  0.18744349795E+03  0.00000000000E+00 0.  1.
         21   -1    0    0  504  502  0.00000000000E+00 -0.00000000000E+00 -0.32692610137E+03  0.32692610137E+03  0.00000000000E+00 0.  1.
         21    1    1    2  503  502  0.42252731009E+02  0.48102566617E+01  0.23826817033E+02  0.48745759373E+02  0.00000000000E+00 0.  1.
         21    1    1    2  504  505 -0.13174692342E+02 -0.29181758605E+02 -0.10387979200E+03  0.10870215609E+03  0.00000000000E+00 0.  1.
         21    1    1    2  505  501 -0.10191243266E+03 -0.34968565867E+02 -0.17651757284E+03  0.20680279991E+03  0.00000000000E+00 0.  1.
         -3    1    1    2    0  503  0.72834393997E+02  0.59340067811E+02  0.11708794439E+03  0.15011888395E+03  0.00000000000E+00 0.  1.
<scales pt_clust_3="32.50277" pt_clust_4="32.01793" pt_clust_5="128.40586" pt_clust_6="32.50277"></scales>
<clustering>
<clus scale="   32.018">  2  4  1 -1</clus>
<clus scale="   32.503">  3  6 -1 -1</clus>
<clus scale="  128.406">  2  5  1 -1</clus>
<clus scale="   32.018">  2  3  1 -1</clus>
</clustering>
</event>
<event>
 6    0  0.4340992E+002  0.9640981E+02  0.7546771E-02  0.1288032E+00
         21   -1    0    0  505  502  0.00000000000E+00  0.00000000000E+00  0.79346166648E+02  0.79346166648E+02  0.00000000000E+00 0. -1.
          1   -1    0    0  502    0 -0.00000000000E+00 -0.00000000000E+00 -0.12591759107E+04  0.12591759107E+04  0.00000000000E+00 0. -1.
         21    1    1    2  503  501  0.46563066920E+02 -0.46313547603E+02 -0.31650740683E+03  0.32324913375E+03  0.00000000000E+00 0. -1.
         21    1    1    2  504  503 -0.50132940400E+02  0.11177708618E+03 -0.46416988886E+02  0.13100368531E+03  0.00000000000E+00 0. -1.
         21    1    1    2  505  504 -0.23497834499E+02 -0.39453218556E+02  0.17409706729E+02  0.49110106587E+02  0.00000000000E+00 0. -1.
          1    1    1    2  501    0  0.27067707979E+02 -0.26010320017E+02 -0.83431505507E+03  0.83515915170E+03  0.00000000000E+00 0. -1.
<scales pt_clust_3="96.40981" pt_clust_4="14000.00000" pt_clust_5="46.25808" pt_clust_6="37.53928"></scales>
<clustering>
<clus scale="   37.539">  2  6  1 -1</clus>
<clus scale="   46.258">  1  5  2 -1</clus>
<clus scale="   96.410">  2  3  1 -1</clus>
<clus scale="   46.258">  1  3  2 -1</clus>
</clustering>
</event>
<event>
 6    0  0.4340992E+002  0.1378430E+03  0.7546771E-02  0.1216261E+00
          2   -1    0    0  503    0 -0.00000000000E+00  0.00000000000E+00  0.14771493825E+04  0.14771493825E+04  0.00000000000E+00 0. -1.
         21   -1    0    0  504  502  0.00000000000E+00 -0.00000000000E+00 -0.87033283851E+02  0.87033283851E+02  0.00000000000E+00 0. -1.
         21    1    1    2  503  502  0.18811748081E+03 -0.51124312010E+02  0.24001207140E+03  0.30920490986E+03  0.00000000000E+00 0. -1.
         21    1    1    2  504  505 -0.93707563333E+02  0.55157832955E+01  0.19818847545E+02  0.95939137004E+02  0.00000000000E+00 0. -1.
         21    1    1    2  505  501 -0.10262516689E+03  0.89004418099E+02  0.32115182642E+03  0.34870074123E+03  0.00000000000E+00 0. -1.
          2    1    1    2  501    0  0.82152494139E+01 -0.43395889385E+02  0.80913335325E+03  0.81033787822E+03  0.00000000000E+00 0. -1.
<scales pt_clust_3="137.84302" pt_clust_4="93.01164" pt_clust_5="14000.00000" pt_clust_6="44.16666"></scales>
<clustering>
<clus scale="   44.167">  1  6  2 -1</clus>
<clus scale="   93.012">  2  4  1 -1</clus>
<clus scale="  137.843">  2  3  1 -1</clus>
<clus scale="   93.012">  2  3  1 -1</clus>
</clustering>
</event>
<event>
 6    0  0.4340992E+002  0.1214972E+03  0.7546771E-02  0.1240647E+00
         21   -1    0    0  505  502  0.00000000000E+00  0.00000000000E+00  0.54288222994E+02  0.54288222994E+02  0.00000000000E+00 0. -1.
          1   -1    0    0  503    0 -0.00000000000E+00 -0.00000000000E+00 -0.16320195039E+04  0.16320195039E+04  0.00000000000E+00 0. -1.
         21    1    1    2  503  504 -0.21189348491E+02  0.11309912428E+03 -0.85124960122E+03  0.85899143417E+03  0.00000000000E+00 0. -1.
         21    1    1    2  504  502 -0.72993205179E+02 -0.16497748742E+03 -0.37628062030E+03  0.41729208544E+03  0.00000000000E+00 0.  1.
         21    1    1    2  505  501  0.69555981553E+02 -0.45146928533E+02 -0.58112579975E+02  0.10125883506E+03  0.00000000000E+00 0. -1.
          1    1    1    2  501    0  0.24626572116E+02  0.97025291678E+02 -0.29208847938E+03  0.30876537219E+03  0.00000000000E+00 0. -1.
<scales pt_clust_3="14000.00000" pt_clust_4="121.49722" pt_clust_5="82.92334" pt_clust_6="95.43225"></scales>
<clustering>
<clus scale="   82.923">  1  5  2 -1</clus>
<clus scale="   95.432">  1  6  2 -1</clus>
<clus scale="  121.497">  1  4  2 -1</clus>
<clus scale="   82.923">  1  3  2 -1</clus>
</clustering>
</event>
<event>
 6    0  0.4340992E+002  0.9309395E+02  0.7546771E-02  0.1295528E+00
         21   -1    0    0  503  502  0.00000000000E+00  0.00000000000E+00  0.10511828156E+03  0.10511828156E+03  0.00000000000E+00 0. -1.
          1   -1    0    0  504    0 -0.00000000000E+00 -0.00000000000E+00 -0.25737715143E+03  0.25737715143E+03  0.00000000000E+00 0. -1.
         21    1    1    2  503  501 -0.17632547952E+02 -0.87920228609E+02 -0.63603565813E+02  0.10993765019E+03  0.00000000000E+00 0. -1.
         21    1    1    2  504  505  0.33746049711E+02  0.33823263961E+02  0.82153250582E+01  0.48479899153E+02  0.00000000000E+00 0. -1.
         21    1    1    2  505  502 -0.15793688753E+02 -0.42301985283E+02  0.22658081539E+02  0.50520166492E+02  0.00000000000E+00 0. -1.
          1    1    1    2  501    0 -0.31981300551E+00  0.96398949931E+02 -0.11952871065E+03  0.15355771715E+03  0.00000000000E+00 0. -1.
<scales pt_clust_3="93.09395" pt_clust_4="31.73384" pt_clust_5="45.15416" pt_clust_6="14000.00000"></scales>
<clustering>
<clus scale="   45.154">  1  5  2 -1</clus>
<clus scale="   31.734">  1  4  2 -1</clus>
<clus scale="   93.094">  1  3  2 -1</clus>
<clus scale="   45.154">  1  3  2 -1</clus>
</clustering>
</event>
<event>
 6    0  0.4340992E+002  0.9809184E+02  0.7546771E-02  0.1284360E+00
          2   -1    0    0  502    0 -0.00000000000E+00  0.00000000000E+00  0.25382898527E+04  0.25382898527E+04  0.00000000000E+00 0.  1.
         21   -1    0    0  503  502  0.00000000000E+00 -0.00000000000E+00 -0.17250692643E+02  0.17250692643E+02  0.00000000000E+00 0.  1.
         21    1    1    2  503  505  0.39112160314E+02  0.20114206848E+02  0.13682476124E+03  0.14371971921E+03  0.00000000000E+00 0.  1.
         21    1    1    2  504  501  0.18728597769E+02  0.54092932731E+02  0.84327685882E+02  0.10192136357E+03  0.00000000000E+00 0.  1.
         21    1    1    2  505  504 -0.35662906410E+02  0.27318158017E+02  0.13032542965E+03  0.13785079712E+03  0.00000000000E+00 0.  1.
          2    1    1    2  501    0 -0.22177851672E+02 -0.10152529760E+03  0.21695612833E+04  0.21720486655E+04  0.00000000000E+00 0.  1.
<scales pt_clust_3="43.98116" pt_clust_4="98.09184" pt_clust_5="41.24287" pt_clust_6="14000.00000"></scales>
<clustering>
<clus scale="   43.981">  2  3  1 -1</clus>
<clus scale="   41.243">  2  5  1 -1</clus>
<clus scale="   98.092">  2  4  1 -1</clus>
<clus scale="   43.981">  2  3  1 -1</clus>
</clustering>
</event>
<event>
 6    0  0.4340992E+002  0.8226532E+02  0.7546771E-02  0.1322743E+00
         21   -1    0    0  505  502  0.00000000000E+00  0.00000000000E+00  0.17139292169E+02  0.17139292169E+02  0.00000000000E+00 0. -1.
          2   -1    0    0  503    0 -0.00000000000E+00 -0.00000000000E+00 -0.10162479962E+04  0.10162479962E+04  0.00000000000E+00 0. -1.
         21    1    1    2  503  504 -0.65498184249E+02 -0.34846323129E+02 -0.34877334582E+03  0.35657695541E+03  0.00000000000E+00 0. -1.
         21    1    1    2  504  502 -0.47441474386E+02 -0.38187120969E-01 -0.97037273112E+02  0.10801355157E+03  0.00000000000E+00 0. -1.
         21    1    1    2  505  501  0.15508429920E+02  0.28853446241E+02 -0.10488870261E+03  0.10988481558E+03  0.00000000000E+00 0. -1.
          2    1    1    2  501    0  0.97431228715E+02  0.60310640087E+01 -0.44840938251E+03  0.45891196583E+03  0.00000000000E+00 0. -1.
<scales pt_clust_3="14000.00000" pt_clust_4="43.00073" pt_clust_5="32.75718" pt_clust_6="82.26532"></scales>
<clustering>
<clus scale="   32.757">  1  5  2 -1</clus>
<clus scale="   43.001">  1  4  2 -1</clus>
<clus scale="   82.265">  1  6  2 -1</clus>
<clus scale="   32.757">  1  3  2 -1</clus>
</clustering>
</event>
<event>
 6    0  0.4340992E+002  0.1024650E+03  0.7546771E-02  0.1275196E+00
         21   -1    0    0  505  502  0.00000000000E+00  0.00000000000E+00  0.86728798377E+03  0.86728798377E+03  0.00000000000E+00 0.  1.
          3   -1    0    0  503    0 -0.00000000000E+00 -0.00000000000E+00 -0.49759125979E+03  0.49759125979E+03  0.00000000000E+00 0. -1.
         21    1    1    2  503  504  0.11818231014E+02  0.12443482008E+03 -0.37971138496E+03  0.39975546388E+03  0.00000000000E+00 0. -1.
         21    1    1    2  504  502 -0.10918865764E+03 -0.32089105717E+02  0.68891624755E+03  0.69825315595E+03  0.00000000000E+00 0.  1.
         21    1    1    2  505  501  0.49618125575E+02 -0.51501533318E+02  0.14493178153E+03  0.16161555500E+03  0.00000000000E+00 0.  1.
          3    1    1    2  501    0  0.47752301050E+02 -0.40844181048E+02 -0.84439920138E+02  0.10525506873E+03  0.00000000000E+00 0. -1.
<scales pt_clust_3="102.46505" pt_clust_4="14000.00000" pt_clust_5="72.81038" pt_clust_6="62.83732"></scales>
<clustering>
<clus scale="   62.837">  2  6  1 -1</clus>
<clus scale="   72.810">  1  5  2 -1</clus>
<clus scale="  102.465">  2  3  1 -1</clus>
<clus scale="   72.810">  1  3  2 -1</clus>
</clustering>
</event>
<event>
 6    0  0.4340992E+002  0.1204318E+03  0.7546771E-02  0.1242386E+00
          2   -1    0    0  503    0 -0.00000000000E+00  0.00000000000E+00  0.49864106823E+03  0.49864106823E+03  0.00000000000E+00 0.  1.
         21   -1    0    0  501  502  0.00000000000E+00 -0.00000000000E+00 -0.52337968395E+03  0.52337968395E+03  0.00000000000E+00 0.  1.
         21    1    1    2  503  504 -0.11011737831E+02 -0.50620997646E+02  0.14134796366E+03  0.15054232163E+03  0.00000000000E+00 0.  1.
         21    1    1    2  504  505 -0.34795106821E+02 -0.45369506222E+02 -0.40107866347E+01  0.57316472003E+02  0.00000000000E+00 0.  1.
         21    1    1    2  505  502 -0.95151443035E+02  0.74680483291E+02 -0.46440937194E+03  0.47990315319E+03  0.00000000000E+00 0.  1.
          2    1    1    2  501    0  0.14095828769E+03  0.21310020577E+02  0.30233357920E+03  0.33425880535E+03  0.00000000000E+00 0.  1.
<scales pt_clust_3="51.80486" pt_clust_4="60.74074" pt_clust_5="120.43182" pt_clust_6="14000.00000"></scales>
<clustering>
<clus scale="   51.805">  1  3  2 -1</clus>
<clus scale="   60.741">  1  4  2 -1</clus>
<clus scale="  120.432">  2  5  1 -1</clus>
<clus scale="  120.432">  2  3  1 -1</clus>
</clustering>
</event>
<event>
 6    0  0.4340992E+002  0.8878566E+02  0.7546771E-02  0.1305819E+00
         21   -1    0    0  504  502  0.00000000000E+00  0.00000000000E+00  0.39371391764E+02  0.39371391764E+02  0.00000000000E+00 0.  1.
          2   -1    0    0  505    0 -0.00000000000E+00 -0.00000000000E+00 -0.85803337265E+03  0.85803337265E+03  0.00000000000E+00 0.  1.
         21    1    1    2  503  502  0.24972028425E+02 -0.76996524259E+02 -0.12014864193E+03  0.14487154002E+03  0.00000000000E+00 0.  1.
         21    1    1    2  504  501 -0.36153765249E+02 -0.14867107210E+02  0.21467699448E+01  0.39150149932E+02  0.00000000000E+00 0.  1.
         21    1    1    2  505  503  0.34253358374E+02 -0.43397915568E+01 -0.21422359600E+03  0.21698819192E+03  0.00000000000E+00 0. -1.
          2    1    1    2  501    0 -0.23071621551E+02  0.96203423027E+02 -0.48643651290E+03  0.49639488254E+03  0.00000000000E+00 0.  1.
<scales pt_clust_3="88.78566" pt_clust_4="38.22958" pt_clust_5="34.52718" pt_clust_6="14000.00000"></scales>
<clustering>
<clus scale="   34.527">  2  5  1 -1</clus>
<clus scale="   38.230">  1  4  2 -1</clus>
<clus scale="   88.786">  1  3  2 -1</clus>
<clus scale="   38.230">  1  3  2 -1</clus>
</clustering>
</event>
<event>
 6    0  0.1179453E+003  0.1443292E+03  0.7546771E-02  0.1207620E+00
          2   -1    0    0  503    0 -0.00000000000E+00  0.00000000000E+00  0.23753751748E+04  0.23753751748E+04  0.00000000000E+00 0.  1.
         21   -1    0    0  504  502  0.00000000000E+00 -0.00000000000E+00 -0.25621559321E+04  0.25621559321E+04  0.00000000000E+00 0.  1.
         21    1    1    2  503  502  0.77002604415E+01  0.44486731127E+02 -0.17092895065E+03  0.17679103322E+03  0.00000000000E+00 0.  1.
         21    1    1    2  504  505  0.34760539309E+02  0.81723114775E+02 -0.23852725886E+04  0.23869252784E+04  0.00000000000E+00 0.  1.
         21    1    1    2  505  501 -0.28094746214E+02 -0.21162131069E+02  0.40057274464E+03  0.40211400660E+03  0.00000000000E+00 0.  1.
          2    1    1    2  501    0 -0.14366053536E+02 -0.10504771483E+03  0.19688480374E+04  0.19717007887E+04  0.00000000000E+00 0.  1.
<scales pt_clust_3="45.14824" pt_clust_4="133.11993" pt_clust_5="32.12036" pt_clust_6="32.12036"></scales>
<clustering>
<clus scale="   32.120">  5  6 -1 -1</clus>
<clus scale="   45.148">  2  3  1 -1</clus>
<clus scale="  133.120">  2  4  1 -1</clus>
<clus scale="   45.148">  2  3  1 -1</clus>
</clustering>
</event>
<event>
 6    0  0.4340992E+002  0.9316654E+02  0.7546771E-02  0.1295360E+00
          2   -1    0    0  505    0 -0.00000000000E+00  0.00000000000E+00  0.28147785559E+04  0.28147785559E+04  0.00000000000E+00 0. -1.
         21   -1    0    0  504  502  0.00000000000E+00 -0.00000000000E+00 -0.48674535347E+02  0.48674535347E+02  0.00000000000E+00 0. -1.
         21    1    1    2  503  502  0.44063761838E+01  0.85588416475E+02  0.12598078589E+01  0.85711027888E+02  0.00000000000E+00 0. -1.
         21    1    1    2  504  501  0.38403769234E+02 -0.33694012725E+01  0.77667804394E+02  0.86709227858E+02  0.00000000000E+00 0.  1.
         21    1    1    2  505  503 -0.14316048011E+02  0.27247408914E+02  0.53054932963E+03  0.53144140006E+03  0.00000000000E+00 0. -1.
          2    1    1    2  501    0 -0.28494097407E+02 -0.10946642412E+03  0.21566270786E+04  0.21595914354E+04  0.00000000000E+00 0. -1.
<scales pt_clust_3="93.16654" pt_clust_4="37.96380" pt_clust_5="30.77938" pt_clust_6="14000.00000"></scales>
<clustering>
<clus scale="   30.779">  1  5  2 -1</clus>
<clus scale="   37.964">  2  4  1 -1</clus>
<clus scale="   93.167">  2  3  1 -1</clus>
<clus scale="   37.964">  2  3  1 -1</clus>
</clustering>
</event>
<event>
 6    0  0.4340992E+002  0.1193039E+03  0.7546771E-02  0.1244250E+00
         21   -1    0    0  505  502  0.00000000000E+00  0.00000000000E+00  0.24289944559E+03  0.24289944559E+03  0.00000000000E+00 0.  1.
          2   -1    0    0  503    0 -0.00000000000E+00 -0.00000000000E+00 -0.13990400905E+04  0.13990400905E+04  0.00000000000E+00 0.  1.
         21    1    1    2  503  504 -0.25642576818E+02 -0.43488436029E+02 -0.44794794080E+03  0.45078392106E+03  0.00000000000E+00 0.  1.
         21    1    1    2  504  502  0.72216154144E+02 -0.96223791514E+02  0.18278925853E+03  0.21882893777E+03  0.00000000000E+00 0.  1.
         21    1    1    2  505  501 -0.11828045709E+02  0.12939887558E+03 -0.64528636456E+02  0.14507900121E+03  0.00000000000E+00 0.  1.
          2    1    1    2  501    0 -0.34745531617E+02  0.10313351958E+02 -0.82645332619E+03  0.82724767608E+03  0.00000000000E+00 0.  1.
<scales pt_clust_3="63.67053" pt_clust_4="119.30394" pt_clust_5="14000.00000" pt_clust_6="36.24386"></scales>
<clustering>
<clus scale="   36.244">  2  6  1 -1</clus>
<clus scale="   63.671">  2  3  1 -1</clus>
<clus scale="  119.304">  1  4  2 -1</clus>
<clus scale="  119.304">  1  3  2 -1</clus>
</clustering>
</event>
<event>
 6    0  0.4340992E+002  0.2159381E+03  0.7546771E-02  0.1136948E+00
          1   -1    0    0  504    0 -0.00000000000E+00  0.00000000000E+00  0.34618028259E+04  0.34618028259E+04  0.00000000000E+00 0.  1.
         21   -1    0    0  505  502  0.00000000000E+00 -0.00000000000E+00 -0.66276455802E+03  0.66276455802E+03  0.00000000000E+00 0.  1.
         21    1    1    2  503  501  0.74132451770E+02 -0.55480889866E+02  0.13761582489E+04  0.13792698342E+04  0.00000000000E+00 0. -1.
         21    1    1    2  504  502 -0.27652920554E+03  0.16489606966E+02  0.22883634574E+03  0.35931376509E+03  0.00000000000E+00 0.  1.
         21    1    1    2  505  503  0.15373032379E+03  0.15229121292E+03 -0.57410914249E+03  0.61353641577E+03  0.00000000000E+00 0.  1.
          1    1    1    2  501    0  0.48666429984E+02 -0.11329993002E+03  0.17681528157E+04  0.17724473688E+04  0.00000000000E+00 0.  1.
<scales pt_clust_3="47.95657" pt_clust_4="214.80202" pt_clust_5="14000.00000" pt_clust_6="215.93809"></scales>
<clustering>
<clus scale="   47.957">  3  6 -1 -1</clus>
<clus scale="  215.938">  1  3  2 -1</clus>
<clus scale="  214.802">  1  4  2 -1</clus>
<clus scale="  215.938">  2  3  1 -1</clus>
</clustering>
</event>
<event>
 6    0  0.4340992E+002  0.2544374E+03  0.7546771E-02  0.1110532E+00
          2   -1    0    0  505    0 -0.00000000000E+00  0.00000000000E+00  0.14781824550E+04  0.14781824550E+04  0.00000000000E+00 0.  1.
         21   -1    0    0  504  502  0.00000000000E+00 -0.00000000000E+00 -0.31734855714E+03  0.31734855714E+03  0.00000000000E+00 0.  1.
         21    1    1    2  503  501  0.10251655853E+02 -0.20787862877E+03  0.62057792002E+03  0.65454990304E+03  0.00000000000E+00 0.  1.
         21    1    1    2  504  503 -0.15959481171E+03  0.16688260742E+03 -0.22529106512E+03  0.32260869890E+03  0.00000000000E+00 0.  1.
         21    1    1    2  505  502 -0.21954248283E+02  0.33824549030E+02  0.72953250160E+01  0.40979396065E+02  0.00000000000E+00 0.  1.
          2    1    1    2  501    0  0.17129740414E+03  0.71714723290E+01  0.75825171792E+03  0.77739301413E+03  0.00000000000E+00 0.  1.
<scales pt_clust_3="14000.00000" pt_clust_4="254.43744" pt_clust_5="40.32480" pt_clust_6="170.79750"></scales>
<clustering>
<clus scale="   40.325">  2  5  1 -1</clus>
<clus scale="  170.798">  1  6  2 -1</clus>
<clus scale="  254.437">  2  4  1 -1</clus>
<clus scale="   40.325">  2  3  1 -1</clus>
</clustering>
</event>
<event>
 6    0  0.4340992E+002  0.1417696E+03  0.7546771E-02  0.1210967E+00
         21   -1    0    0  504  502  0.00000000000E+00  0.00000000000E+00  0.48544655995E+02  0.48544655995E+02  0.00000000000E+00 0. -1.
          2   -1    0    0  502    0 -0.00000000000E+00 -0.00000000000E+00 -0.10662444934E+04  0.10662444934E+04  0.00000000000E+00 0. -1.
         21    1    1    2  503  501  0.66112736648E+02 -0.28477461080E+02 -0.52104874031E+03  0.52599776569E+03  0.00000000000E+00 0. -1.
         21    1    1    2  504  505 -0.34776375940E+02 -0.10552553870E+01 -0.38550690026E+01  0.35005305947E+02  0.00000000000E+00 0. -1.
         21    1    1    2  505  503 -0.51088087205E+02  0.98790902590E+02 -0.85802613693E+02  0.14046965368E+03  0.00000000000E+00 0. -1.
          2    1    1    2  501    0  0.19751726497E+02 -0.69258186123E+02 -0.40699341445E+03  0.41331642412E+03  0.00000000000E+00 0. -1.
<scales pt_clust_3="63.47130" pt_clust_4="34.79238" pt_clust_5="126.39102" pt_clust_6="63.47130"></scales>
<clustering>
<clus scale="   34.792">  1  4  2 -1</clus>
<clus scale="   63.471">  3  6 -1 -1</clus>
<clus scale="  126.391">  1  5  2 -1</clus>
<clus scale="   34.792">  1  3  2 -1</clus>
</clustering>
</event>
<event>
 6    0  0.4340992E+002  0.8780760E+02  0.7546771E-02  0.1308249E+00
         21   -1    0    0  501  502  0.00000000000E+00  0.00000000000E+00  0.27983383486E+03  0.27983383486E+03  0.00000000000E+00 0.  1.
          2   -1    0    0  505    0 -0.00000000000E+00 -0.00000000000E+00 -0.43138489376E+04  0.43138489376E+04  0.00000000000E+00 0.  1.
         21    1    1    2  503  502 -0.65760851641E+02 -0.55894310010E+02  0.23544667804E+03  0.25076642858E+03  0.00000000000E+00 0.  1.
         21    1    1    2  504  503  0.11976034708E+03  0.26783291190E+02 -0.78510072003E+02  0.14568361894E+03  0.00000000000E+00 0.  1.
         21    1    1    2  505  504  0.44275435829E+01  0.71060384665E+02 -0.45066148225E+03  0.45625097589E+03  0.00000000000E+00 0.  1.
          2    1    1    2  501    0 -0.58427039025E+02 -0.41949365845E+02 -0.37402902265E+04  0.37409817490E+04  0.00000000000E+00 0.  1.
<scales pt_clust_3="14000.00000" pt_clust_4="87.80760" pt_clust_5="71.19818" pt_clust_6="60.45463"></scales>
<clustering>
<clus scale="   71.198">  2  5  1 -1</clus>
<clus scale="   60.455">  2  6  1 -1</clus>
<clus scale="   87.808">  2  4  1 -1</clus>
<clus scale="   87.808">  1  3  2 -1</clus>
</clustering>
</event>
<event>
 6    0  0.4340992E+002  0.1549920E+03  0.7546771E-02  0.1194470E+00
         21   -1    0    0  503  502  0.00000000000E+00  0.00000000000E+00  0.44732038398E+03  0.44732038398E+03  0.00000000000E+00 0. -1.
          2   -1    0    0  505    0 -0.00000000000E+00 -0.00000000000E+00 -0.23942815279E+03  0.23942815279E+03  0.00000000000E+00 0. -1.
         21    1    1    2  503  504  0.98478174077E+02  0.10211998570E+03  0.31162508590E+03  0.34239835924E+03  0.00000000000E+00 0. -1.
         21    1    1    2  504  501  0.16844077169E+02 -0.15822041849E+03 -0.71136074748E+02  0.17429218254E+03  0.00000000000E+00 0. -1.
         21    1    1    2  505  502 -0.49753896852E+01  0.39074507901E+02  0.22699698481E+02  0.45462599808E+02  0.00000000000E+00 0. -1.
          2    1    1    2  501    0 -0.11034686156E+03  0.17025924891E+02 -0.55296478445E+02  0.12459539519E+03  0.00000000000E+00 0. -1.
<scales pt_clust_3="14000.00000" pt_clust_4="154.99196" pt_clust_5="39.38999" pt_clust_6="112.60930"></scales>
<clustering>
<clus scale="   39.390">  1  5  2 -1</clus>
<clus scale="  112.609">  2  6  1 -1</clus>
<clus scale="  154.992">  2  4  1 -1</clus>
<clus scale="   39.390">  1  3  2 -1</clus>
</clustering>
</event>
<event>
 6    0  0.4340992E+002  0.1986349E+03  0.7546771E-02  0.1150896E+00
         21   -1    0    0  503  502  0.00000000000E+00  0.00000000000E+00  0.12851964658E+03  0.12851964658E+03  0.00000000000E+00 0. -1.
          1   -1    0    0  504    0 -0.00000000000E+00 -0.00000000000E+00 -0.83722181585E+03  0.83722181585E+03  0.00000000000E+00 0. -1.
         21    1    1    2  503  505 -0.30144331353E+02 -0.14673380887E+03  0.10243191397E+02  0.15014797484E+03  0.00000000000E+00 0. -1.
         21    1    1    2  504  502  0.80891113183E+02  0.11823281048E+03 -0.19571974028E+03  0.24254605007E+03  0.00000000000E+00 0. -1.
         21    1    1    2  505  501  0.33289804244E+02 -0.54901938345E+02 -0.40268299963E+02  0.75788982593E+02  0.00000000000E+00 0. -1.
          1    1    1    2  501    0 -0.84036586074E+02  0.83402936741E+02 -0.48295732041E+03  0.49725845493E+03  0.00000000000E+00 0. -1.
<scales pt_clust_3="63.74109" pt_clust_4="173.13782" pt_clust_5="63.74109" pt_clust_6="118.39847"></scales>
<clustering>
<clus scale="   63.741">  3  5 -1 -1</clus>
<clus scale="  118.398">  2  6  1 -1</clus>
<clus scale="  173.138">  2  4  1 -1</clus>
<clus scale="  198.635">  1  3  2 -1</clus>
</clustering>
</event>
<event>
 6    0  0.4340992E+002  0.1236850E+03  0.7546771E-02  0.1237139E+00
         21   -1    0    0  505  502  0.00000000000E+00  0.00000000000E+00  0.35956356148E+03  0.35956356148E+03  0.00000000000E+00 0. -1.
          1   -1    0    0  503    0 -0.00000000000E+00 -0.00000000000E+00 -0.11600729017E+04  0.11600729017E+04  0.00000000000E+00 0. -1.
         21    1    1    2  503  502 -0.11055710319E+02 -0.95743340040E+02  0.26651194725E+03  0.28340365898E+03  0.00000000000E+00 0. -1.
         21    1    1    2  504  501 -0.97994361672E+01 -0.47152051140E+02 -0.27093234168E+03  0.27517935722E+03  0.00000000000E+00 0. -1.
         21    1    1    2  505  504  0.36282498038E+02  0.20582978681E+03 -0.53632552864E+02  0.21577481671E+03  0.00000000000E+00 0. -1.
          1    1    1    2  501    0 -0.15427351552E+02 -0.62934395627E+02 -0.74245639291E+03  0.74527863025E+03  0.00000000000E+00 0. -1.
<scales pt_clust_3="96.37954" pt_clust_4="34.72444" pt_clust_5="116.94276" pt_clust_6="34.72444"></scales>
<clustering>
<clus scale="   34.724">  4  6 -1 -1</clus>
<clus scale="   96.380">  1  3  2 -1</clus>
<clus scale="  116.943">  1  5  2 -1</clus>
<clus scale="   96.380">  1  3  2 -1</clus>
</clustering>
</event>
<event>
 6    0  0.4340992E+002  0.8691828E+02  0.7546771E-02  0.1310491E+00
         21   -1    0    0  505  502  0.00000000000E+00  0.00000000000E+00  0.35728493408E+02  0.35728493408E+02  0.00000000000E+00 0. -1.
          1   -1    0    0  504    0 -0.00000000000E+00 -0.00000000000E+00 -0.59998135794E+03  0.59998135794E+03  0.00000000000E+00 0. -1.
         21    1    1    2  503  502 -0.53711478230E+02 -0.10063940858E+03 -0.21910618636E+03  0.24702375261E+03  0.00000000000E+00 0. -1.
         21    1    1    2  504  503  0.46309749098E+02  0.52412098739E+02 -0.19016635280E+03  0.20261999579E+03  0.00000000000E+00 0. -1.
         21    1    1    2  505  501 -0.22383685568E+02  0.56035146795E+02 -0.55693458610E+02  0.82114118079E+02  0.00000000000E+00 0.  1.
          1    1    1    2  501    0  0.29785414701E+02 -0.78078369532E+01 -0.99286866766E+02  0.10395198487E+03  0.00000000000E+00 0. -1.
<scales pt_clust_3="14000.00000" pt_clust_4="86.91828" pt_clust_5="57.91158" pt_clust_6="30.79177"></scales>
<clustering>
<clus scale="   30.792">  2  6  1 -1</clus>
<clus scale="   57.912">  1  5  2 -1</clus>
<clus scale="   86.918">  2  4  1 -1</clus>
<clus scale="   57.912">  1  3  2 -1</clus>
</clustering>
</event>
<event>
 6    0  0.4340992E+002  0.1905687E+03  0.7546771E-02  0.1157949E+00
         21   -1    0    0  504  502  0.00000000000E+00  0.00000000000E+00  0.57589350669E+03  0.57589350669E+03  0.00000000000E+00 0. -1.
          2   -1    0    0  503    0 -0.00000000000E+00 -0.00000000000E+00 -0.10307730560E+04  0.10307730560E+04  0.00000000000E+00 0. -1.
         21    1    1    2  503  505  0.80012163243E+02 -0.18220332096E+02 -0.72587141510E+03  0.73049520055E+03  0.00000000000E+00 0. -1.
         21    1    1    2  504  501 -0.19926208420E+03 -0.56711778761E+02  0.36612897049E+03  0.42068043344E+03  0.00000000000E+00 0. -1.
         21    1    1    2  505  502  0.91124326812E+00  0.52575827328E+02  0.16266123969E+03  0.17094948635E+03  0.00000000000E+00 0.  1.
          2    1    1    2  501    0  0.11833867769E+03  0.22356283529E+02 -0.25779834434E+03  0.28454144231E+03  0.00000000000E+00 0. -1.
<scales pt_clust_3="82.00007" pt_clust_4="14000.00000" pt_clust_5="52.58372" pt_clust_6="190.56867"></scales>
<clustering>
<clus scale="   52.584">  1  5  2 -1</clus>
<clus scale="   82.000">  2  3  1 -1</clus>
<clus scale="  190.569">  2  6  1 -1</clus>
<clus scale="   52.584">  1  3  2 -1</clus>
</clustering>
</event>
<event>
 6    0  0.5476461E+002  0.1371763E+03  0.7546771E-02  0.1217180E+00
          2   -1    0    0  504    0 -0.00000000000E+00  0.00000000000E+00  0.23419935023E+04  0.23419935023E+04  0.00000000000E+00 0. -1.
         21   -1    0    0  501  502  0.00000000000E+00 -0.00000000000E+00 -0.12812431255E+03  0.12812431255E+03  0.00000000000E+00 0.  1.
         21    1    1    2  503  505 -0.57745502722E+02  0.20001019634E+02  0.12422267240E+03  0.13844080399E+03  0.00000000000E+00 0. -1.
         21    1    1    2  504  503 -0.22295295932E+02 -0.21713586264E+02  0.96964123058E+02  0.10183614884E+03  0.00000000000E+00 0. -1.
         21    1    1    2  505  502  0.13547974136E+03 -0.29605281735E+02 -0.77376532324E+02  0.15880289916E+03  0.00000000000E+00 0.  1.
          2    1    1    2  501    0 -0.55438942707E+02  0.31317848365E+02  0.20700589266E+04  0.20710379629E+04  0.00000000000E+00 0. -1.
<scales pt_clust_3="61.95024" pt_clust_4="31.12170" pt_clust_5="137.17634" pt_clust_6="14000.00000"></scales>
<clustering>
<clus scale="   31.122">  1  4  2 -1</clus>
<clus scale="   61.950">  1  3  2 -1</clus>
<clus scale="  137.176">  2  5  1 -1</clus>
<clus scale="  137.176">  2  3  1 -1</clus>
</clustering>
</event>
<event>
 6    0  0.4340992E+002  0.1514385E+03  0.7546771E-02  0.1198717E+00
         21   -1    0    0  505  502  0.00000000000E+00  0.00000000000E+00  0.33150185885E+03  0.33150185885E+03  0.00000000000E+00 0. -1.
          2   -1    0    0  503    0 -0.00000000000E+00 -0.00000000000E+00 -0.68555956562E+03  0.68555956562E+03  0.00000000000E+00 0.  1.
         21    1    1    2  503  502 -0.36748840353E+02 -0.19327181274E+03  0.23613642203E+03  0.30735139608E+03  0.00000000000E+00 0. -1.
         21    1    1    2  504  501  0.30219211538E+02  0.42423403501E+02 -0.15952946810E+03  0.16781715378E+03  0.00000000000E+00 0. -1.
         21    1    1    2  505  504 -0.15934640471E+02  0.59226933588E+02  0.32366782274E+02  0.69349484669E+02  0.00000000000E+00 0. -1.
          2    1    1    2  501    0  0.22464269287E+02  0.91621475650E+02 -0.46303144297E+03  0.47254338994E+03  0.00000000000E+00 0.  1.
<scales pt_clust_3="145.59412" pt_clust_4="30.95944" pt_clust_5="61.33305" pt_clust_6="30.95944"></scales>
<clustering>
<clus scale="   30.959">  4  6 -1 -1</clus>
<clus scale="   61.333">  1  5  2 -1</clus>
<clus scale="  145.594">  1  3  2 -1</clus>
<clus scale="   61.333">  1  3  2 -1</clus>
</clustering>
</event>
<event>
 6    0  0.4340992E+002  0.1091244E+03  0.7546771E-02  0.1262200E+00
         -2   -1    0    0    0  501 -0.00000000000E+00  0.00000000000E+00  0.68756493863E+03  0.68756493863E+03  0.00000000000E+00 0.  1.
         21   -1    0    0  504  502  0.00000000000E+00 -0.00000000000E+00 -0.63032316162E+03  0.63032316162E+03  0.00000000000E+00 0.  1.
         21    1    1    2  503  501  0.84826916863E+02  0.52450498395E+02  0.40748644801E+02  0.10773631077E+03  0.00000000000E+00 0.  1.
         21    1    1    2  504  503  0.11200051669E+02 -0.39636176091E+02 -0.59120530057E+03  0.59263831722E+03  0.00000000000E+00 0.  1.
         21    1    1    2  505  502 -0.39115756901E+02  0.20036082958E+02  0.24271980637E+03  0.24666655927E+03  0.00000000000E+00 0.  1.
         -2    1    1    2    0  505 -0.56911211631E+02 -0.32850405262E+02  0.36497862641E+03  0.37084691298E+03  0.00000000000E+00 0.  1.
<scales pt_clust_3="96.27055" pt_clust_4="41.18820" pt_clust_5="41.07728" pt_clust_6="41.07728"></scales>
<clustering>
<clus scale="   41.188">  2  4  1 -1</clus>
<clus scale="   41.077">  5  6 -1 -1</clus>
<clus scale="   96.271">  2  3  1 -1</clus>
<clus scale="   41.188">  2  3  1 -1</clus>
</clustering>
</event>
<event>
 6    0  0.4340992E+002  0.2086648E+03  0.7546771E-02  0.1142628E+00
         21   -1    0    0  504  502  0.00000000000E+00  0.00000000000E+00  0.11796579055E+03  0.11796579055E+03  0.00000000000E+00 0.  1.
          2   -1    0    0  503    0 -0.00000000000E+00 -0.00000000000E+00 -0.39301528577E+04  0.39301528577E+04  0.00000000000E+00 0.  1.
         21    1    1    2  503  505  0.12884883147E+02  0.28826212508E+02 -0.13158036843E+03  0.13531579397E+03  0.00000000000E+00 0. -1.
         21    1    1    2  504  501 -0.49509865383E+02  0.56182980391E+01 -0.33058799588E+02  0.59796958730E+02  0.00000000000E+00 0.  1.
         21    1    1    2  505  502  0.25329619222E+03  0.21123561700E+02 -0.63503681365E+02  0.26198832684E+03  0.00000000000E+00 0.  1.
          2    1    1    2  501    0 -0.21667120999E+03 -0.55568072247E+02 -0.35840442177E+04  0.35910175687E+04  0.00000000000E+00 0.  1.
<scales pt_clust_3="31.57484" pt_clust_4="49.71217" pt_clust_5="14000.00000" pt_clust_6="208.66484"></scales>
<clustering>
<clus scale="   31.575">  2  3  1 -1</clus>
<clus scale="   49.712">  1  4  2 -1</clus>
<clus scale="  208.665">  2  6  1 -1</clus>
<clus scale="   49.712">  1  3  2 -1</clus>
</clustering>
</event>
<event>
 6    0  0.4340992E+002  0.2162572E+03  0.7546771E-02  0.1136705E+00
          2   -1    0    0  505    0 -0.00000000000E+00  0.00000000000E+00  0.48315312692E+03  0.48315312692E+03  0.00000000000E+00 0. -1.
         21   -1    0    0  504  502  0.00000000000E+00 -0.00000000000E+00 -0.83335529316E+03  0.83335529316E+03  0.00000000000E+00 0. -1.
         21    1    1    2  503  501  0.38853808162E+02  0.12483741754E+03  0.30810477769E+03  0.33469770430E+03  0.00000000000E+00 0. -1.
         21    1    1    2  504  503 -0.17136017620E+02 -0.23263771393E+03 -0.74801749073E+03  0.78354586049E+03  0.00000000000E+00 0. -1.
         21    1    1    2  505  502 -0.19569980201E+02  0.26530522516E+02 -0.35836467922E+02  0.48693995350E+02  0.00000000000E+00 0. -1.
          2    1    1    2  501    0 -0.21478103413E+01  0.81269773874E+02  0.12554701473E+03  0.14957085994E+03  0.00000000000E+00 0. -1.
<scales pt_clust_3="40.52673" pt_clust_4="210.07743" pt_clust_5="32.96745" pt_clust_6="40.52673"></scales>
<clustering>
<clus scale="   32.967">  2  5  1 -1</clus>
<clus scale="   40.527">  3  6 -1 -1</clus>
<clus scale="  210.077">  2  4  1 -1</clus>
<clus scale="   32.967">  2  3  1 -1</clus>
</clustering>
</event>
<event>
 6    0  0.4340992E+002  0.2011821E+03  0.7546771E-02  0.1148745E+00
         -3   -1    0    0    0  501 -0.00000000000E+00  0.00000000000E+00  0.15761791410E+04  0.15761791410E+04  0.00000000000E+00 0. -1.
         21   -1    0    0  504  502  0.00000000000E+00 -0.00000000000E+00 -0.93342200777E+02  0.93342200777E+02  0.00000000000E+00 0.  1.
         21    1    1    2  503  505  0.33242833498E+01 -0.42508031112E+02  0.28192672812E+03  0.28513271225E+03  0.00000000000E+00 0. -1.
         21    1    1    2  504  501  0.11998301100E+03  0.10702760736E+03  0.20162757113E+02  0.16204125537E+03  0.00000000000E+00 0.  1.
         21    1    1    2  505  502 -0.17979285569E+02  0.58651575843E+02  0.47540723842E+02  0.77610453432E+02  0.00000000000E+00 0.  1.
         -3    1    1    2    0  503 -0.10532800879E+03 -0.12317115210E+03  0.11332067312E+04  0.11447369207E+04  0.00000000000E+00 0. -1.
<scales pt_clust_3="32.72319" pt_clust_4="190.79870" pt_clust_5="61.34543" pt_clust_6="32.72319"></scales>
<clustering>
<clus scale="   32.723">  3  6 -1 -1</clus>
<clus scale="   61.345">  2  5  1 -1</clus>
<clus scale="  190.799">  2  4  1 -1</clus>
<clus scale="   61.345">  2  3  1 -1</clus>
</clustering>
</event>
<event>
 6    0  0.4340992E+002  0.6307574E+02  0.7546771E-02  0.1385359E+00
         -1   -1    0    0    0  501 -0.00000000000E+00  0.00000000000E+00  0.20494083761E+04  0.20494083761E+04  0.00000000000E+00 0. -1.
         21   -1    0    0  505  502  0.00000000000E+00 -0.00000000000E+00 -0.73640098671E+02  0.73640098671E+02  0.00000000000E+00 0. -1.
         21    1    1    2  503  504  0.42609795844E+02 -0.77394384033E+02  0.21960304184E+03  0.23670864236E+03  0.00000000000E+00 0. -1.
         21    1    1    2  504  501  0.62281280124E+01  0.67814636691E+02  0.59707759448E+03  0.60094864037E+03  0.00000000000E+00 0. -1.
         21    1    1    2  505  503  0.56477624310E+01  0.50709880621E+02 -0.51724881555E+02  0.72655712680E+02  0.00000000000E+00 0. -1.
         -1    1    1    2    0  502 -0.54485686287E+02 -0.41130133278E+02  0.12108125227E+04  0.12127354794E+04  0.00000000000E+00 0. -1.
<scales pt_clust_3="61.27275" pt_clust_4="14000.00000" pt_clust_5="51.02342" pt_clust_6="63.07574"></scales>
<clustering>
<clus scale="   51.023">  2  5  1 -1</clus>
<clus scale="   61.273">  2  3  1 -1</clus>
<clus scale="   63.076">  1  6  2 -1</clus>
<clus scale="   51.023">  2  3  1 -1</clus>
</clustering>
</event>
<event>
 6    0  0.4340992E+002  0.1012226E+03  0.7546771E-02  0.1277746E+00
          2   -1    0    0  503    0 -0.00000000000E+00  0.00000000000E+00  0.15218196939E+04  0.15218196939E+04  0.00000000000E+00 0.  1.
         21   -1    0    0  505  502  0.00000000000E+00 -0.00000000000E+00 -0.89081841832E+02  0.89081841832E+02  0.00000000000E+00 0.  1.
         21    1    1    2  503  502  0.34569501907E+02 -0.19705866098E+02  0.16164602928E+03  0.16647165045E+03  0.00000000000E+00 0.  1.
         21    1    1    2  504  501 -0.14440024495E+02  0.86290254757E+02 -0.33862555828E+02  0.93814684675E+02  0.00000000000E+00 0.  1.
         21    1    1    2  505  504 -0.77337825577E+02 -0.30208290869E+02  0.56746462924E+02  0.10056759496E+03  0.00000000000E+00 0.  1.
          2    1    1    2  501    0  0.57208348164E+02 -0.36376097790E+02  0.12482079157E+04  0.12500476056E+04  0.00000000000E+00 0.  1.
<scales pt_clust_3="39.79160" pt_clust_4="14000.00000" pt_clust_5="81.59781" pt_clust_6="101.22263"></scales>
<clustering>
<clus scale="   39.792">  1  3  2 -1</clus>
<clus scale="   81.598">  2  5  1 -1</clus>
<clus scale="  101.223">  1  6  2 -1</clus>
<clus scale="   81.598">  2  3  1 -1</clus>
</clustering>
</event>
<event>
 6    0  0.4340992E+002  0.1425353E+03  0.7546771E-02  0.1209958E+00
         21   -1    0    0  505  502  0.00000000000E+00  0.00000000000E+00  0.19478573615E+03  0.19478573615E+03  0.00000000000E+00 0.  1.
         -2   -1    0    0    0  501 -0.00000000000E+00 -0.00000000000E+00 -0.14595340682E+03  0.14595340682E+03  0.00000000000E+00 0. -1.
         21    1    1    2  503  502 -0.85074578054E+01 -0.43778886959E+02  0.13665350124E+02  0.46644502095E+02  0.00000000000E+00 0. -1.
         21    1    1    2  504  501  0.46294975224E+01  0.12420221708E+03  0.38838906237E+01  0.12434913583E+03  0.00000000000E+00 0.  1.
         21    1    1    2  505  504 -0.24712616430E+02  0.22456640105E+02  0.51198586495E+02  0.61125357706E+02  0.00000000000E+00 0.  1.
         -2    1    1    2    0  503  0.28590576713E+02 -0.10287997023E+03 -0.19915497907E+02  0.10862014734E+03  0.00000000000E+00 0. -1.
<scales pt_clust_3="30.00739" pt_clust_4="134.76061" pt_clust_5="33.39183" pt_clust_6="30.00739"></scales>
<clustering>
<clus scale="   30.007">  3  6 -1 -1</clus>
<clus scale="   33.392">  1  5  2 -1</clus>
<clus scale="  134.761">  2  4  1 -1</clus>
<clus scale="   33.392">  1  3  2 -1</clus>
</clustering>
</event>
<event>
 6    0  0.4340992E+002  0.7478395E+02  0.7546771E-02  0.1344541E+00
         21   -1    0    0  504  502  0.00000000000E+00  0.00000000000E+00  0.13657909854E+02  0.13657909854E+02  0.00000000000E+00 0. -1.
          2   -1    0    0  505    0 -0.00000000000E+00 -0.00000000000E+00 -0.18915545619E+04  0.18915545619E+04  0.00000000000E+00 0. -1.
         21    1    1    2  503  502 -0.66654031256E+02  0.49489998541E+02 -0.47117772425E+03  0.47843543730E+03  0.00000000000E+00 0. -1.
         21    1    1    2  504  501 -0.35612777404E+02 -0.65118656157E+02 -0.19522291349E+03  0.20885568042E+03  0.00000000000E+00 0. -1.
         21    1    1    2  505  503  0.21520763852E+02 -0.25037718378E+02 -0.24687507380E+03  0.24907294651E+03  0.00000000000E+00 0.  1.
          2    1    1    2  501    0  0.80746044807E+02  0.40666375993E+02 -0.96462094051E+03  0.96884840752E+03  0.00000000000E+00 0. -1.
<scales pt_clust_3="73.74470" pt_clust_4="14000.00000" pt_clust_5="33.01561" pt_clust_6="74.78395"></scales>
<clustering>
<clus scale="   33.016">  2  5  1 -1</clus>
<clus scale="   73.745">  2  3  1 -1</clus>
<clus scale="   74.784">  2  6  1 -1</clus>
<clus scale="   74.784">  1  3  2 -1</clus>
</clustering>
</event>
<event>
 6    0  0.4340992E+002  0.9971275E+02  0.7546771E-02  0.1280901E+00
          2   -1    0    0  502    0 -0.00000000000E+00  0.00000000000E+00  0.28333786855E+04  0.28333786855E+04  0.00000000000E+00 0.  1.
         21   -1    0    0  504  502  0.00000000000E+00 -0.00000000000E+00 -0.37821924083E+02  0.37821924083E+02  0.00000000000E+00 0.  1.
         21    1    1    2  503  501  0.38849326428E+02 -0.48576569724E+02  0.12862377942E+04  0.12877408965E+04  0.00000000000E+00 0.  1.
         21    1    1    2  504  505 -0.78687564961E+02 -0.46478450016E+02  0.43793058932E+02  0.10134007700E+03  0.00000000000E+00 0.  1.
         21    1    1    2  505  503  0.48617147493E+00  0.10136144980E+03  0.31506835848E+03  0.33097197824E+03  0.00000000000E+00 0.  1.
          2    1    1    2  501    0  0.39352067058E+02 -0.63064300604E+01  0.11504575498E+04  0.11511476578E+04  0.00000000000E+00 0.  1.
<scales pt_clust_3="31.67205" pt_clust_4="91.38916" pt_clust_5="91.52624" pt_clust_6="31.67205"></scales>
<clustering>
<clus scale="   31.672">  3  6 -1 -1</clus>
<clus scale="   91.389">  2  4  1 -1</clus>
<clus scale="   91.526">  2  5  1 -1</clus>
<clus scale="   91.389">  2  3  1 -1</clus>
</clustering>
</event>
<event>
 6    0  0.4340992E+002  0.1111851E+03  0.7546771E-02  0.1258391E+00
         21   -1    0    0  503  502  0.00000000000E+00  0.00000000000E+00  0.29960509356E+03  0.29960509356E+03  0.00000000000E+00 0. -1.
          2   -1    0    0  505    0 -0.00000000000E+00 -0.00000000000E+00 -0.13097749569E+04  0.13097749569E+04  0.00000000000E+00 0.  1.
         21    1    1    2  503  501  0.28393668416E+02  0.26333121633E+02  0.19892851647E+03  0.20266274538E+03  0.00000000000E+00 0. -1.
         21    1    1    2  504  502 -0.42023337653E+01  0.33797081953E+02  0.64300270635E+02  0.72762814413E+02  0.00000000000E+00 0. -1.
         21    1    1    2  505  504 -0.25329953202E+02  0.56311266253E+02 -0.69186628893E+01  0.62132383927E+02  0.00000000000E+00 0. -1.
          2    1    1    2  501    0  0.11386185521E+01 -0.11644146984E+03 -0.12664799876E+04  0.12718221068E+04  0.00000000000E+00 0.  1.
<scales pt_clust_3="60.94954" pt_clust_4="34.05734" pt_clust_5="14000.00000" pt_clust_6="111.18508"></scales>
<clustering>
<clus scale="   34.057">  1  4  2 -1</clus>
<clus scale="   60.950">  1  3  2 -1</clus>
<clus scale="  111.185">  2  6  1 -1</clus>
<clus scale="   34.057">  1  3  2 -1</clus>
</clustering>
</event>
<event>
 6    0  0.4340992E+002  0.7701387E+02  0.7546771E-02  0.1337746E+00
         21   -1    0    0  503  502  0.00000000000E+00  0.00000000000E+00  0.89768858541E+01  0.89768858541E+01  0.00000000000E+00 0.  1.
          2   -1    0    0  504    0 -0.00000000000E+00 -0.00000000000E+00 -0.39346907152E+04  0.39346907152E+04  0.00000000000E+00 0.  1.
         21    1    1    2  503  505  0.75276348549E+02 -0.18177879243E+02 -0.22015031020E+03  0.23337335544E+03  0.00000000000E+00 0.  1.
         21    1    1    2  504  502 -0.63060433734E+02  0.51558705751E+02 -0.12664208294E+04  0.12690376810E+04  0.00000000000E+00 0.  1.
         21    1    1    2  505  501 -0.14488447379E+02 -0.63799889310E+02 -0.12388619591E+04  0.12405882857E+04  0.00000000000E+00 0.  1.
          2    1    1    2  501    0  0.22725325646E+01  0.30419062802E+02 -0.12002807306E+04  0.12006682790E+04  0.00000000000E+00 0.  1.
<scales pt_clust_3="77.01387" pt_clust_4="14000.00000" pt_clust_5="51.78680" pt_clust_6="30.50383"></scales>
<clustering>
<clus scale="   30.504">  2  6  1 -1</clus>
<clus scale="   51.787">  2  5  1 -1</clus>
<clus scale="   77.014">  1  3  2 -1</clus>
<clus scale="   77.014">  1  3  2 -1</clus>
</clustering>
</event>
<event>
 6    0  0.4340992E+002  0.8784065E+02  0.7546771E-02  0.1308167E+00
         21   -1    0    0  505  502  0.00000000000E+00  0.00000000000E+00  0.30244579733E+03  0.30244579733E+03  0.00000000000E+00 0. -1.
          2   -1    0    0  502    0 -0.00000000000E+00 -0.00000000000E+00 -0.33383601914E+04  0.33383601914E+04  0.00000000000E+00 0.  1.
         21    1    1    2  503  504  0.34506649380E+02  0.43512937612E+02  0.27640677661E+02  0.62032988422E+02  0.00000000000E+00 0. -1.
         21    1    1    2  504  501  0.64265526751E+01 -0.13355813828E+03 -0.16301195667E+04  0.16355943503E+04  0.00000000000E+00 0.  1.
         21    1    1    2  505  503 -0.92874351402E+01  0.41999207856E+02  0.25256260098E+03  0.25619925318E+03  0.00000000000E+00 0. -1.
          2    1    1    2  501    0 -0.31645766915E+02  0.48045992813E+02 -0.16859981060E+04  0.16869793969E+04  0.00000000000E+00 0.  1.
<scales pt_clust_3="14000.00000" pt_clust_4="87.84065" pt_clust_5="43.01383" pt_clust_6="57.94189"></scales>
<clustering>
<clus scale="   43.014">  1  5  2 -1</clus>
<clus scale="   57.942">  2  6  1 -1</clus>
<clus scale="   87.841">  2  4  1 -1</clus>
<clus scale="   43.014">  1  3  2 -1</clus>
</clustering>
</event>
<event>
 6    0  0.4340992E+002  0.7973964E+02  0.7546771E-02  0.1329792E+00
          1   -1    0    0  505    0 -0.00000000000E+00  0.00000000000E+00  0.11621517978E+04  0.11621517978E+04  0.00000000000E+00 0. -1.
         21   -1    0    0  504  502  0.00000000000E+00 -0.00000000000E+00 -0.18359420209E+02  0.18359420209E+02  0.00000000000E+00 0. -1.
         21    1    1    2  503  502  0.31984699840E+02 -0.15247187575E+02  0.96680506154E+02  0.10296901487E+03  0.00000000000E+00 0. -1.
         21    1    1    2  504  501 -0.50112195853E+02 -0.72926423399E+02  0.17857886166E+03  0.19929853295E+03  0.00000000000E+00 0. -1.
         21    1    1    2  505  503  0.47330134545E+02  0.13336670811E+02  0.37614282940E+03  0.37934342822E+03  0.00000000000E+00 0. -1.
          1    1    1    2  501    0 -0.29202638531E+02  0.74836940163E+02  0.49239018035E+03  0.49890024195E+03  0.00000000000E+00 0. -1.
<scales pt_clust_3="35.43300" pt_clust_4="79.73964" pt_clust_5="52.03429" pt_clust_6="14000.00000"></scales>
<clustering>
<clus scale="   35.433">  2  3  1 -1</clus>
<clus scale="   52.034">  1  5  2 -1</clus>
<clus scale="   79.740">  2  4  1 -1</clus>
<clus scale="   35.433">  2  3  1 -1</clus>
</clustering>
</event>
<event>
 6    0  0.4340992E+002  0.1016734E+03  0.7546771E-02  0.1276816E+00
         21   -1    0    0  505  502  0.00000000000E+00  0.00000000000E+00  0.43073694572E+03  0.43073694572E+03  0.00000000000E+00 0. -1.
          4   -1    0    0  503    0 -0.00000000000E+00 -0.00000000000E+00 -0.85070311752E+03  0.85070311752E+03  0.00000000000E+00 0.  1.
         21    1    1    2  503  504 -0.25024932430E+02 -0.19344557192E+02 -0.29535771634E+03  0.29704652790E+03  0.00000000000E+00 0.  1.
         21    1    1    2  504  502 -0.24847556044E+02 -0.32073907497E+02  0.38157335756E+03  0.38372433306E+03  0.00000000000E+00 0. -1.
         21    1    1    2  505  501  0.74368870178E+02 -0.58714084543E+02 -0.14072309415E+02  0.95791974964E+02  0.00000000000E+00 0. -1.
          4    1    1    2  501    0 -0.24496381704E+02  0.11013254923E+03 -0.49210950360E+03  0.50487722731E+03  0.00000000000E+00 0.  1.
<scales pt_clust_3="31.63004" pt_clust_4="40.63200" pt_clust_5="14000.00000" pt_clust_6="101.67336"></scales>
<clustering>
<clus scale="   31.630">  2  3  1 -1</clus>
<clus scale="   40.632">  1  4  2 -1</clus>
<clus scale="  101.673">  2  6  1 -1</clus>
<clus scale="   40.632">  1  3  2 -1</clus>
</clustering>
</event>
<event>
 6    0  0.4340992E+002  0.1349769E+03  0.7546771E-02  0.1220252E+00
         21   -1    0    0  504  502  0.00000000000E+00  0.00000000000E+00  0.16260512480E+03  0.16260512480E+03  0.00000000000E+00 0.  1.
          1   -1    0    0  505    0 -0.00000000000E+00 -0.00000000000E+00 -0.52024207260E+03  0.52024207260E+03  0.00000000000E+00 0. -1.
         21    1    1    2  503  501 -0.46426355039E+02 -0.72632179503E+02  0.48730402314E+02  0.99022684528E+02  0.00000000000E+00 0.  1.
         21    1    1    2  504  503 -0.22063923643E+02 -0.35991686611E+02  0.71906192946E+02  0.83382964781E+02  0.00000000000E+00 0.  1.
         21    1    1    2  505  502  0.37515684333E+02  0.92460405588E+01 -0.80791193444E+02  0.89555194015E+02  0.00000000000E+00 0.  1.
          1    1    1    2  501    0  0.30974594348E+02  0.99377825555E+02 -0.39748234961E+03  0.41088635407E+03  0.00000000000E+00 0. -1.
<scales pt_clust_3="33.03649" pt_clust_4="33.03649" pt_clust_5="38.63827" pt_clust_6="126.45234"></scales>
<clustering>
<clus scale="   33.036">  3  4 -1 -1</clus>
<clus scale="   38.638">  2  5  1 -1</clus>
<clus scale="  126.452">  2  6  1 -1</clus>
<clus scale="  134.977">  1  3  2 -1</clus>
</clustering>
</event>
<event>
 6    0  0.4340992E+002  0.1811800E+03  0.7546771E-02  0.1166666E+00
          2   -1    0    0  504    0 -0.00000000000E+00  0.00000000000E+00  0.65173306972E+03  0.65173306972E+03  0.00000000000E+00 0. -1.
         21   -1    0    0  503  502  0.00000000000E+00 -0.00000000000E+00 -0.11745117639E+04  0.11745117639E+04  0.00000000000E+00 0.  1.
         21    1    1    2  503  505  0.12116541739E+03 -0.10852930746E+03 -0.11426472078E+04  0.11541673667E+04  0.00000000000E+00 0.  1.
         21    1    1    2  504  502 -0.36502496609E+02 -0.32359322955E+01  0.57865683682E+01  0.37099702021E+02  0.00000000000E+00 0.  1.
         21    1    1    2  505  501  0.20265023977E+01  0.51529880439E+02  0.13769304236E+03  0.14703336085E+03  0.00000000000E+00 0. -1.
          2    1    1    2  501    0 -0.86689423177E+02  0.60235359318E+02  0.47638890289E+03  0.48794440401E+03  0.00000000000E+00 0. -1.
<scales pt_clust_3="162.43571" pt_clust_4="36.64565" pt_clust_5="50.67855" pt_clust_6="50.67855"></scales>
<clustering>
<clus scale="   36.646">  1  4  2 -1</clus>
<clus scale="   50.679">  5  6 -1 -1</clus>
<clus scale="  162.436">  2  3  1 -1</clus>
<clus scale="  162.436">  2  3  1 -1</clus>
</clustering>
</event>
<event>
 6    0  0.4340992E+002  0.7479213E+02  0.7546771E-02  0.1344516E+00
         21   -1    0    0  504  502  0.00000000000E+00  0.00000000000E+00  0.35218873283E+03  0.35218873283E+03  0.00000000000E+00 0. -1.
         -4   -1    0    0    0  501 -0.00000000000E+00 -0.00000000000E+00 -0.67282656670E+03  0.67282656670E+03  0.00000000000E+00 0. -1.
         21    1    1    2  503  502  0.30514037569E+02  0.77201013542E+01  0.29012778994E+03  0.29183015771E+03  0.00000000000E+00 0. -1.
         21    1    1    2  504  505 -0.98956655797E+01 -0.63967853501E+02  0.12139531121E+02  0.65857260000E+02  0.00000000000E+00 0. -1.
         21    1    1    2  505  501 -0.43709903869E+02  0.11990904054E+03 -0.18828942033E+03  0.22746788676E+03  0.00000000000E+00 0. -1.
         -4    1    1    2    0  503  0.23091531880E+02 -0.63661288390E+02 -0.43461573460E+03  0.43985999505E+03  0.00000000000E+00 0. -1.
<scales pt_clust_3="31.47549" pt_clust_4="59.81575" pt_clust_5="74.79213" pt_clust_6="14000.00000"></scales>
<clustering>
<clus scale="   31.475">  1  3  2 -1</clus>
<clus scale="   59.816">  1  4  2 -1</clus>
<clus scale="   74.792">  1  5  2 -1</clus>
<clus scale="   31.475">  1  3  2 -1</clus>
</clustering>
</event>
<event>
 6    0  0.4340992E+002  0.9978826E+02  0.7546771E-02  0.1280742E+00
          2   -1    0    0  503    0 -0.00000000000E+00  0.00000000000E+00  0.28123324929E+04  0.28123324929E+04  0.00000000000E+00 0. -1.
         21   -1    0    0  501  502  0.00000000000E+00 -0.00000000000E+00 -0.27356093475E+02  0.27356093475E+02  0.00000000000E+00 0.  1.
         21    1    1    2  503  505  0.63337202450E+02  0.12834884481E+02  0.48415404835E+03  0.48844802999E+03  0.00000000000E+00 0.  1.
         21    1    1    2  504  502  0.16385965850E+02 -0.27296192948E+02  0.62732052002E+01  0.32448961921E+02  0.00000000000E+00 0.  1.
         21    1    1    2  505  504  0.66153252773E+02 -0.36254745145E+02  0.14274422466E+03  0.16145145732E+03  0.00000000000E+00 0.  1.
          2    1    1    2  501    0 -0.14587642107E+03  0.50716053612E+02  0.21518049212E+04  0.21573401371E+04  0.00000000000E+00 0. -1.
<scales pt_clust_3="66.37911" pt_clust_4="31.83680" pt_clust_5="99.78826" pt_clust_6="14000.00000"></scales>
<clustering>
<clus scale="   31.837">  2  4  1 -1</clus>
<clus scale="   66.379">  1  3  2 -1</clus>
<clus scale="   99.788">  2  5  1 -1</clus>
<clus scale="   31.837">  2  3  1 -1</clus>
</clustering>
</event>
<event>
 6    0  0.4340992E+002  0.8967140E+02  0.7546771E-02  0.1303649E+00
          2   -1    0    0  505    0 -0.00000000000E+00  0.00000000000E+00  0.30661631227E+04  0.30661631227E+04  0.00000000000E+00 0. -1.
         21   -1    0    0  503  502  0.00000000000E+00 -0.00000000000E+00 -0.27103333394E+03  0.27103333394E+03  0.00000000000E+00 0.  1.
         21    1    1    2  503  501  0.26608889812E+02  0.43105996979E+02 -0.21919329612E+03  0.22497080045E+03  0.00000000000E+00 0.  1.
         21    1    1    2  504  502 -0.33954542668E+02 -0.71892133474E+02 -0.12032315690E+02  0.80412476918E+02  0.00000000000E+00 0. -1.
         21    1    1    2  505  504  0.92246566014E+02  0.27486227850E+02  0.17370021449E+04  0.17396670294E+04  0.00000000000E+00 0. -1.
          2    1    1    2  501    0 -0.84900913159E+02  0.12999086445E+01  0.12893532556E+04  0.12921461499E+04  0.00000000000E+00 0. -1.
<scales pt_clust_3="50.65728" pt_clust_4="32.41475" pt_clust_5="14000.00000" pt_clust_6="89.67140"></scales>
<clustering>
<clus scale="   50.657">  2  3  1 -1</clus>
<clus scale="   32.415">  2  4  1 -1</clus>
<clus scale="   89.671">  2  6  1 -1</clus>
<clus scale="   50.657">  2  3  1 -1</clus>
</clustering>
</event>
<event>
 6    0  0.4340992E+002  0.9900075E+02  0.7546771E-02  0.1282411E+00
          2   -1    0    0  504    0 -0.00000000000E+00  0.00000000000E+00  0.79939227933E+03  0.79939227933E+03  0.00000000000E+00 0. -1.
         21   -1    0    0  501  502  0.00000000000E+00 -0.00000000000E+00 -0.15004304187E+03  0.15004304187E+03  0.00000000000E+00 0.  1.
         21    1    1    2  503  502  0.40799241439E+02 -0.35002664275E+01 -0.10407095076E+02  0.42250888688E+02  0.00000000000E+00 0.  1.
         21    1    1    2  504  505 -0.73828760812E+02  0.13559368195E+03  0.54353401112E+03  0.56503588714E+03  0.00000000000E+00 0. -1.
         21    1    1    2  505  503 -0.30935833687E+01 -0.86348857542E+02 -0.91827949012E+02  0.12608753974E+03  0.00000000000E+00 0. -1.
          2    1    1    2  501    0  0.36123102742E+02 -0.45744557976E+02  0.20805027042E+03  0.21606100564E+03  0.00000000000E+00 0. -1.
<scales pt_clust_3="40.94911" pt_clust_4="14000.00000" pt_clust_5="99.00075" pt_clust_6="59.20304"></scales>
<clustering>
<clus scale="   40.949">  2  3  1 -1</clus>
<clus scale="   59.203">  1  6  2 -1</clus>
<clus scale="   99.001">  2  5  1 -1</clus>
<clus scale="   40.949">  2  3  1 -1</clus>
</clustering>
</event>
<event>
 6    0  0.4340992E+002  0.9779564E+02  0.7546771E-02  0.1285001E+00
         21   -1    0    0  505  502  0.00000000000E+00  0.00000000000E+00  0.46117955261E+03  0.46117955261E+03  0.00000000000E+00 0.  1.
         -4   -1    0    0    0  501 -0.00000000000E+00 -0.00000000000E+00 -0.30241465839E+03  0.30241465839E+03  0.00000000000E+00 0. -1.
         21    1    1    2  503  502  0.52893369160E+02  0.12509728791E+03  0.39341539658E+03  0.41620032943E+03  0.00000000000E+00 0.  1.
         21    1    1    2  504  501 -0.13086078460E+02 -0.34657489900E+02 -0.20168617011E+02  0.42180092079E+02  0.00000000000E+00 0.  1.
         21    1    1    2  505  504  0.14182053427E+02 -0.51046895870E+02  0.23549124911E+02  0.57978250245E+02  0.00000000000E+00 0. -1.
         -4    1    1    2    0  503 -0.53989344127E+02 -0.39392902144E+02 -0.23803101027E+03  0.24723553925E+03  0.00000000000E+00 0. -1.
<scales pt_clust_3="14000.00000" pt_clust_4="37.04574" pt_clust_5="54.89490" pt_clust_6="97.79564"></scales>
<clustering>
<clus scale="   37.046">  2  4  1 -1</clus>
<clus scale="   54.895">  1  5  2 -1</clus>
<clus scale="   97.796">  2  6  1 -1</clus>
<clus scale="   54.895">  1  3  2 -1</clus>
</clustering>
</event>
<event>
 6    0  0.4340992E+002  0.1792902E+03  0.7546771E-02  0.1168492E+00
          2   -1    0    0  503    0 -0.00000000000E+00  0.00000000000E+00  0.65790034266E+03  0.65790034266E+03  0.00000000000E+00 0. -1.
         21   -1    0    0  505  502  0.00000000000E+00 -0.00000000000E+00 -0.12861115712E+04  0.12861115712E+04  0.00000000000E+00 0. -1.
         21    1    1    2  503  502  0.17754889192E+02  0.24541474846E+02 -0.65620657409E+02  0.72274412876E+02  0.00000000000E+00 0.  1.
         21    1    1    2  504  501 -0.29150154957E+02  0.13847580125E+03  0.18984612729E+03  0.23678435572E+03  0.00000000000E+00 0. -1.
         21    1    1    2  505  504  0.21146847983E+02 -0.20098011788E+03 -0.11842476313E+04  0.12013669919E+04  0.00000000000E+00 0. -1.
          2    1    1    2  501    0 -0.97515822183E+01  0.37962841789E+02  0.43181093284E+03  0.43358615341E+03  0.00000000000E+00 0. -1.
<scales pt_clust_3="30.29059" pt_clust_4="14000.00000" pt_clust_5="179.29020" pt_clust_6="39.20941"></scales>
<clustering>
<clus scale="   30.291">  2  3  1 -1</clus>
<clus scale="   39.209">  1  6  2 -1</clus>
<clus scale="  179.290">  2  5  1 -1</clus>
<clus scale="   30.291">  2  3  1 -1</clus>
</clustering>
</event>
<event>
 6    0  0.4340992E+002  0.8729280E+02  0.7546771E-02  0.1309543E+00
         21   -1    0    0  504  502  0.00000000000E+00  0.00000000000E+00  0.27635114515E+03  0.27635114515E+03  0.00000000000E+00 0.  1.
         -1   -1    0    0    0  501 -0.00000000000E+00 -0.00000000000E+00 -0.27651978177E+03  0.27651978177E+03  0.00000000000E+00 0. -1.
         21    1    1    2  503  502 -0.94789611103E+02  0.13162348941E+02  0.10398265123E+03  0.14131776095E+03  0.00000000000E+00 0.  1.
         21    1    1    2  504  501  0.58071670178E+02  0.33084724156E+02 -0.20275640608E+03  0.21348788738E+03  0.00000000000E+00 0. -1.
         21    1    1    2  505  503  0.44292081531E+02 -0.92908146907E+02  0.10873197636E+03  0.14972092349E+03  0.00000000000E+00 0.  1.
         -1    1    1    2    0  505 -0.75741406062E+01  0.46661073809E+02 -0.10126858121E+02  0.48344355103E+02  0.00000000000E+00 0. -1.
<scales pt_clust_3="87.29280" pt_clust_4="88.92692" pt_clust_5="14000.00000" pt_clust_6="47.27180"></scales>
<clustering>
<clus scale="   47.272">  2  6  1 -1</clus>
<clus scale="   88.927">  2  4  1 -1</clus>
<clus scale="   87.293">  1  3  2 -1</clus>
<clus scale="   87.293">  1  3  2 -1</clus>
</clustering>
</event>
<event>
 6    0  0.4340992E+002  0.1504036E+03  0.7546771E-02  0.1199978E+00
         21   -1    0    0  504  502  0.00000000000E+00  0.00000000000E+00  0.70739778398E+02  0.70739778398E+02  0.00000000000E+00 0. -1.
          2   -1    0    0  505    0 -0.00000000000E+00 -0.00000000000E+00 -0.26055237424E+04  0.26055237424E+04  0.00000000000E+00 0.  1.
         21    1    1    2  503  501  0.15167719937E+02 -0.56952375090E+02 -0.27115838549E+02  0.64876046864E+02  0.00000000000E+00 0. -1.
         21    1    1    2  504  503  0.35252452591E+02 -0.36413360953E+02  0.31474265697E+02  0.59659849738E+02  0.00000000000E+00 0. -1.
         21    1    1    2  505  502  0.30936958112E+02 -0.16243641585E+02 -0.64781232149E+02  0.73604071273E+02  0.00000000000E+00 0.  1.
          2    1    1    2  501    0 -0.81357130640E+02  0.10960937763E+03 -0.24743611590E+04  0.24781235529E+04  0.00000000000E+00 0.  1.
<scales pt_clust_3="61.52095" pt_clust_4="61.52095" pt_clust_5="34.94211" pt_clust_6="135.61127"></scales>
<clustering>
<clus scale="   34.942">  1  5  2 -1</clus>
<clus scale="   61.521">  3  4 -1 -1</clus>
<clus scale="  135.611">  2  6  1 -1</clus>
<clus scale="   34.942">  1  3  2 -1</clus>
</clustering>
</event>
<event>
 6    0  0.4340992E+002  0.1427951E+03  0.7546771E-02  0.1209617E+00
         21   -1    0    0  503  502  0.00000000000E+00  0.00000000000E+00  0.14509246432E+03  0.14509246432E+03  0.00000000000E+00 0.  1.
          1   -1    0    0  505    0 -0.00000000000E+00 -0.00000000000E+00 -0.14472808598E+04  0.14472808598E+04  0.00000000000E+00 0. -1.
         21    1    1    2  503  504 -0.38523833520E+02  0.24901349609E+02  0.74248232800E+02  0.87275214324E+02  0.00000000000E+00 0.  1.
         21    1    1    2  504  501  0.49163670687E+02 -0.16701673249E+03 -0.75704306321E+02  0.18984940728E+03  0.00000000000E+00 0.  1.
         21    1    1    2  505  502 -0.23277446688E+00  0.35732801227E+02 -0.59379540928E+02  0.69302360337E+02  0.00000000000E+00 0.  1.
          1    1    1    2  501    0 -0.10407062700E+02  0.10638258166E+03 -0.12413527811E+04  0.12459463422E+04  0.00000000000E+00 0. -1.
<scales pt_clust_3="45.96365" pt_clust_4="14000.00000" pt_clust_5="35.73356" pt_clust_6="142.79505"></scales>
<clustering>
<clus scale="   35.734">  2  5  1 -1</clus>
<clus scale="   45.964">  1  3  2 -1</clus>
<clus scale="  142.795">  2  6  1 -1</clus>
<clus scale="   45.964">  1  3  2 -1</clus>
</clustering>
</event>
<event>
 6    0  0.4340992E+002  0.1102153E+03  0.7546771E-02  0.1260172E+00
         -3   -1    0    0    0  501 -0.00000000000E+00  0.00000000000E+00  0.21288318575E+04  0.21288318575E+04  0.00000000000E+00 0. -1.
         21   -1    0    0  501  502  0.00000000000E+00 -0.00000000000E+00 -0.10970206286E+02  0.10970206286E+02  0.00000000000E+00 0.  1.
         21    1    1    2  503  504 -0.80260666464E+02 -0.27874260726E+02  0.51908272191E+03  0.52599013411E+03  0.00000000000E+00 0.  1.
         21    1    1    2  504  502 -0.44231567624E+02  0.52306111903E+02  0.27627456833E+03  0.28464012019E+03  0.00000000000E+00 0. -1.
         21    1    1    2  505  503  0.68556996396E+02 -0.31231539046E+02  0.66361416757E+03  0.66787666091E+03  0.00000000000E+00 0. -1.
         -3    1    1    2    0  505  0.55935237692E+02  0.67996878695E+01  0.65889019339E+03  0.66129514857E+03  0.00000000000E+00 0. -1.
<scales pt_clust_3="102.77510" pt_clust_4="68.50081" pt_clust_5="34.42755" pt_clust_6="34.42755"></scales>
<clustering>
<clus scale="   34.428">  5  6 -1 -1</clus>
<clus scale="   68.501">  2  4  1 -1</clus>
<clus scale="  102.775">  2  3  1 -1</clus>
<clus scale="   68.501">  2  3  1 -1</clus>
</clustering>
</event>
<event>
 6    0  0.4340992E+002  0.8235841E+02  0.7546771E-02  0.1322489E+00
         21   -1    0    0  505  502  0.00000000000E+00  0.00000000000E+00  0.50881771390E+02  0.50881771390E+02  0.00000000000E+00 0. -1.
          1   -1    0    0  503    0 -0.00000000000E+00 -0.00000000000E+00 -0.13151581402E+04  0.13151581402E+04  0.00000000000E+00 0. -1.
         21    1    1    2  503  504  0.21778843165E+02  0.27892717600E+02 -0.12802203596E+03  0.13282305295E+03  0.00000000000E+00 0. -1.
         21    1    1    2  504  502  0.27534842465E+02  0.63109264169E+02 -0.55783991928E+01  0.69080136878E+02  0.00000000000E+00 0. -1.
         21    1    1    2  505  501 -0.63189671575E+02  0.13853696058E+02 -0.59945345625E+02  0.88194693437E+02  0.00000000000E+00 0. -1.
          1    1    1    2  501    0  0.13875985945E+02 -0.10485567783E+03 -0.10707305880E+04  0.10759420283E+04  0.00000000000E+00 0. -1.
<scales pt_clust_3="35.38816" pt_clust_4="82.35841" pt_clust_5="63.76513" pt_clust_6="14000.00000"></scales>
<clustering>
<clus scale="   35.388">  2  3  1 -1</clus>
<clus scale="   63.765">  1  5  2 -1</clus>
<clus scale="   82.358">  1  4  2 -1</clus>
<clus scale="   63.765">  1  3  2 -1</clus>
</clustering>
</event>
<event>
 6    0  0.4340992E+002  0.1136476E+03  0.7546771E-02  0.1253960E+00
          1   -1    0    0  503    0 -0.00000000000E+00  0.00000000000E+00  0.24954887782E+04  0.24954887782E+04  0.00000000000E+00 0. -1.
         21   -1    0    0  501  502  0.00000000000E+00 -0.00000000000E+00 -0.20741208603E+03  0.20741208603E+03  0.00000000000E+00 0.  1.
         21    1    1    2  503  504  0.19153318527E+02  0.62753631963E+02  0.31679273778E+03  0.32351585223E+03  0.00000000000E+00 0.  1.
         21    1    1    2  504  505  0.45470310270E+02 -0.76171389027E+02 -0.80258885873E+02  0.11962908670E+03  0.00000000000E+00 0.  1.
         21    1    1    2  505  502  0.30161309442E+02 -0.11034689506E+02 -0.10049025990E+03  0.10549768384E+03  0.00000000000E+00 0.  1.
          1    1    1    2  501    0 -0.94784938239E+02  0.24452446570E+02  0.21520331001E+04  0.21542582414E+04  0.00000000000E+00 0. -1.
<scales pt_clust_3="65.56330" pt_clust_4="113.64755" pt_clust_5="32.11649" pt_clust_6="14000.00000"></scales>
<clustering>
<clus scale="   32.116">  2  5  1 -1</clus>
<clus scale="   65.563">  1  3  2 -1</clus>
<clus scale="  113.648">  2  4  1 -1</clus>
<clus scale="   32.116">  2  3  1 -1</clus>
</clustering>
</event>
<event>
 6    0  0.4340992E+002  0.7858351E+02  0.7546771E-02  0.1333120E+00
         21   -1    0    0  505  502  0.00000000000E+00  0.00000000000E+00  0.22090265427E+03  0.22090265427E+03  0.00000000000E+00 0.  1.
          1   -1    0    0  504    0 -0.00000000000E+00 -0.00000000000E+00 -0.10757902487E+04  0.10757902487E+04  0.00000000000E+00 0. -1.
         21    1    1    2  503  502  0.42459386376E+02 -0.41326743588E+02  0.41161409193E+02  0.72145414502E+02  0.00000000000E+00 0.  1.
         21    1    1    2  504  503  0.58961047881E+02 -0.18574751428E+02 -0.24401299106E+03  0.25172160488E+03  0.00000000000E+00 0.  1.
         21    1    1    2  505  501 -0.77613529326E+02 -0.30136609879E+02  0.14669921454E+03  0.16867938444E+03  0.00000000000E+00 0.  1.
          1    1    1    2  501    0 -0.23806904931E+02  0.90038104894E+02 -0.79873522708E+03  0.80414649911E+03  0.00000000000E+00 0. -1.
<scales pt_clust_3="59.25115" pt_clust_4="63.06251" pt_clust_5="78.58351" pt_clust_6="14000.00000"></scales>
<clustering>
<clus scale="   59.251">  1  3  2 -1</clus>
<clus scale="   63.063">  2  4  1 -1</clus>
<clus scale="   78.584">  1  5  2 -1</clus>
<clus scale="   59.251">  1  3  2 -1</clus>
</clustering>
</event>
<event>
 6    0  0.7140717E+002  0.6613065E+02  0.7546771E-02  0.1373768E+00
          2   -1    0    0  503    0 -0.00000000000E+00  0.00000000000E+00  0.19401055801E+04  0.19401055801E+04  0.00000000000E+00 0.  1.
         21   -1    0    0  501  502  0.00000000000E+00 -0.00000000000E+00 -0.28234916254E+03  0.28234916254E+03  0.00000000000E+00 0.  1.
         21    1    1    2  503  505  0.30716250182E+02 -0.11100096191E+02  0.39249285450E+02  0.51060812459E+02  0.00000000000E+00 0. -1.
         21    1    1    2  504  502 -0.16717331163E+01  0.50184964855E+02 -0.23356518196E+03  0.23890169445E+03  0.00000000000E+00 0.  1.
         21    1    1    2  505  504  0.66853374889E+02 -0.40557950250E+02  0.25662426802E+00  0.78194545325E+02  0.00000000000E+00 0. -1.
          2    1    1    2  501    0 -0.95897891955E+02  0.14730815862E+01  0.18518156898E+04  0.18542976904E+04  0.00000000000E+00 0.  1.
<scales pt_clust_3="32.66038" pt_clust_4="50.19576" pt_clust_5="14000.00000" pt_clust_6="66.13065"></scales>
<clustering>
<clus scale="   32.660">  1  3  2 -1</clus>
<clus scale="   50.196">  2  4  1 -1</clus>
<clus scale="   66.131">  1  6  2 -1</clus>
<clus scale="   50.196">  2  3  1 -1</clus>
</clustering>
</event>
<event>
 6    0  0.4340992E+002  0.1120860E+03  0.7546771E-02  0.1256755E+00
          2   -1    0    0  504    0 -0.00000000000E+00  0.00000000000E+00  0.10481407637E+04  0.10481407637E+04  0.00000000000E+00 0. -1.
         21   -1    0    0  503  502  0.00000000000E+00 -0.00000000000E+00 -0.10855207429E+04  0.10855207429E+04  0.00000000000E+00 0. -1.
         21    1    1    2  503  505 -0.31208745673E+02  0.35610493634E+02 -0.37853951930E+03  0.38148952900E+03  0.00000000000E+00 0.  1.
         21    1    1    2  504  502  0.11878845738E+02 -0.14766015168E+03 -0.69102912539E+03  0.70672900005E+03  0.00000000000E+00 0. -1.
         21    1    1    2  505  501 -0.35076504391E+01  0.63883105681E+02  0.17052787652E+03  0.18213487166E+03  0.00000000000E+00 0.  1.
          2    1    1    2  501    0  0.22837550374E+02  0.48166552368E+02  0.86166078899E+03  0.86330810592E+03  0.00000000000E+00 0. -1.
<scales pt_clust_3="47.35075" pt_clust_4="112.08597" pt_clust_5="14000.00000" pt_clust_6="53.32836"></scales>
<clustering>
<clus scale="   47.351">  2  3  1 -1</clus>
<clus scale="   53.328">  1  6  2 -1</clus>
<clus scale="  112.086">  2  4  1 -1</clus>
<clus scale="   47.351">  2  3  1 -1</clus>
</clustering>
</event>
<event>
 6    0  0.4340992E+002  0.2012670E+03  0.7546771E-02  0.1148674E+00
          3   -1    0    0  505    0 -0.00000000000E+00  0.00000000000E+00  0.16683134343E+03  0.16683134343E+03  0.00000000000E+00 0. -1.
         21   -1    0    0  504  502  0.00000000000E+00 -0.00000000000E+00 -0.71180892094E+03  0.71180892094E+03  0.00000000000E+00 0. -1.
         21    1    1    2  503  502 -0.13080373186E+02 -0.91549447142E+02 -0.35491635435E+03  0.36676697782E+03  0.00000000000E+00 0. -1.
         21    1    1    2  504  501 -0.45948378077E+02 -0.15411988841E+02 -0.23175872169E+02  0.53720609627E+02  0.00000000000E+00 0. -1.
         21    1    1    2  505  503  0.18831479150E+03  0.13110702286E+03 -0.21851528367E+03  0.31686028678E+03  0.00000000000E+00 0. -1.
          3    1    1    2  501    0 -0.12928604024E+03 -0.24145586877E+02  0.51629932675E+02  0.14129239015E+03  0.00000000000E+00 0. -1.
<scales pt_clust_3="92.47917" pt_clust_4="42.70224" pt_clust_5="188.57324" pt_clust_6="42.70224"></scales>
<clustering>
<clus scale="   42.702">  4  6 -1 -1</clus>
<clus scale="   92.479">  2  3  1 -1</clus>
<clus scale="  188.573">  2  5  1 -1</clus>
<clus scale="   92.479">  2  3  1 -1</clus>
</clustering>
</event>
<event>
 6    0  0.4340992E+002  0.1559424E+03  0.7546771E-02  0.1193355E+00
         21   -1    0    0  501  502  0.00000000000E+00  0.00000000000E+00  0.45211549678E+03  0.45211549678E+03  0.00000000000E+00 0. -1.
          1   -1    0    0  505    0 -0.00000000000E+00 -0.00000000000E+00 -0.36744238873E+03  0.36744238873E+03  0.00000000000E+00 0. -1.
         21    1    1    2  503  504  0.36975177159E+02  0.89369384666E+01  0.26333552886E+03  0.26606885078E+03  0.00000000000E+00 0. -1.
         21    1    1    2  504  502  0.15868770926E+02  0.29526580561E+02  0.11484009532E+03  0.11963228804E+03  0.00000000000E+00 0. -1.
         21    1    1    2  505  503 -0.42115327385E+02  0.13467165256E+03 -0.94307974504E+02  0.16971785074E+03  0.00000000000E+00 0. -1.
          1    1    1    2  501    0 -0.10728620701E+02 -0.17313517159E+03 -0.19919454161E+03  0.26413889595E+03  0.00000000000E+00 0. -1.
<scales pt_clust_3="59.10853" pt_clust_4="33.52069" pt_clust_5="14000.00000" pt_clust_6="155.94244"></scales>
<clustering>
<clus scale="   33.521">  1  4  2 -1</clus>
<clus scale="   59.109">  1  3  2 -1</clus>
<clus scale="  155.942">  2  6  1 -1</clus>
<clus scale="   33.521">  1  3  2 -1</clus>
</clustering>
</event>
<event>
 6    0  0.4340992E+002  0.1697254E+03  0.7546771E-02  0.1178135E+00
         21   -1    0    0  503  502  0.00000000000E+00  0.00000000000E+00  0.72336617059E+02  0.72336617059E+02  0.00000000000E+00 0.  1.
          2   -1    0    0  505    0 -0.00000000000E+00 -0.00000000000E+00 -0.23929635637E+04  0.23929635637E+04  0.00000000000E+00 0.  1.
         21    1    1    2  503  504 -0.56306762760E+01 -0.31702304042E+02 -0.32482459587E+01  0.32361886514E+02  0.00000000000E+00 0.  1.
         21    1    1    2  504  501  0.40917234069E+02  0.19689475724E+03 -0.13483543287E+03  0.24212054731E+03  0.00000000000E+00 0.  1.
         21    1    1    2  505  502  0.21982532634E+02 -0.25184769801E+02 -0.22905126636E+03  0.23147783262E+03  0.00000000000E+00 0. -1.
          2    1    1    2  501    0 -0.57269090427E+02 -0.14000768339E+03 -0.19534920015E+04  0.19593399143E+04  0.00000000000E+00 0.  1.
<scales pt_clust_3="32.19846" pt_clust_4="169.72535" pt_clust_5="33.85697" pt_clust_6="14000.00000"></scales>
<clustering>
<clus scale="   32.198">  1  3  2 -1</clus>
<clus scale="   33.857">  2  5  1 -1</clus>
<clus scale="  169.725">  1  4  2 -1</clus>
<clus scale="   32.198">  1  3  2 -1</clus>
</clustering>
</event>
<event>
 6    0  0.4340992E+002  0.1177610E+03  0.7546771E-02  0.1246837E+00
         21   -1    0    0  503  502  0.00000000000E+00  0.00000000000E+00  0.12175370566E+03  0.12175370566E+03  0.00000000000E+00 0. -1.
          1   -1    0    0  505    0 -0.00000000000E+00 -0.00000000000E+00 -0.48505309029E+03  0.48505309029E+03  0.00000000000E+00 0. -1.
         21    1    1    2  503  504  0.16475761520E+02 -0.38195164761E+02 -0.10124887191E+02  0.42811618393E+02  0.00000000000E+00 0.  1.
         21    1    1    2  504  501  0.41366074276E+02 -0.13475552540E+02 -0.96423752697E+02  0.10578413256E+03  0.00000000000E+00 0.  1.
         21    1    1    2  505  502 -0.94273455149E+02  0.10563780438E+03  0.45739943505E+02  0.14879170841E+03  0.00000000000E+00 0. -1.
          1    1    1    2  501    0  0.36431619354E+02 -0.53967087080E+02 -0.30249068825E+03  0.30941933659E+03  0.00000000000E+00 0. -1.
<scales pt_clust_3="41.59713" pt_clust_4="42.32272" pt_clust_5="105.86529" pt_clust_6="42.32272"></scales>
<clustering>
<clus scale="   41.597">  1  3  2 -1</clus>
<clus scale="   42.323">  4  6 -1 -1</clus>
<clus scale="  105.865">  1  5  2 -1</clus>
<clus scale="   41.597">  1  3  2 -1</clus>
</clustering>
</event>
<event>
 6    0  0.4340992E+002  0.1227028E+03  0.7546771E-02  0.1238704E+00
         21   -1    0    0  505  502  0.00000000000E+00  0.00000000000E+00  0.57612587364E+02  0.57612587364E+02  0.00000000000E+00 0. -1.
          1   -1    0    0  503    0 -0.00000000000E+00 -0.00000000000E+00 -0.13658106497E+04  0.13658106497E+04  0.00000000000E+00 0.  1.
         21    1    1    2  503  504  0.79122943225E+02 -0.24059765274E+02 -0.14449306329E+03  0.16648590868E+03  0.00000000000E+00 0. -1.
         21    1    1    2  504  502 -0.15609082405E+03  0.34286158688E+02 -0.99158306567E+02  0.18807513337E+03  0.00000000000E+00 0. -1.
         21    1    1    2  505  501  0.45318092706E+02 -0.13225882992E+02 -0.30330716195E+03  0.30695909825E+03  0.00000000000E+00 0. -1.
          1    1    1    2  501    0  0.31649788120E+02  0.29994895769E+01 -0.76123953054E+03  0.76190309678E+03  0.00000000000E+00 0.  1.
<scales pt_clust_3="122.70276" pt_clust_4="14000.00000" pt_clust_5="62.40948" pt_clust_6="31.79160"></scales>
<clustering>
<clus scale="   31.792">  2  6  1 -1</clus>
<clus scale="   62.409">  2  5  1 -1</clus>
<clus scale="  122.703">  2  3  1 -1</clus>
<clus scale="  122.703">  1  3  2 -1</clus>
</clustering>
</event>
<event>
 6    0  0.4340992E+002  0.1262540E+03  0.7546771E-02  0.1233122E+00
         -2   -1    0    0    0  501 -0.00000000000E+00  0.00000000000E+00  0.28177810978E+03  0.28177810978E+03  0.00000000000E+00 0.  1.
         21   -1    0    0  505  502  0.00000000000E+00 -0.00000000000E+00 -0.22492252162E+04  0.22492252162E+04  0.00000000000E+00 0.  1.
         21    1    1    2  503  502 -0.81446734158E+02 -0.12804197668E+02 -0.21383401186E+04  0.21399289663E+04  0.00000000000E+00 0.  1.
         21    1    1    2  504  501 -0.75484327524E+02 -0.75072657552E+02  0.67477315758E+02  0.12604354706E+03  0.00000000000E+00 0.  1.
         21    1    1    2  505  504  0.14593467076E+02  0.29447150730E+02 -0.41995880474E+02  0.53326897006E+02  0.00000000000E+00 0.  1.
         -2    1    1    2    0  503  0.14233759461E+03  0.58429704490E+02  0.14541157688E+03  0.21170391564E+03  0.00000000000E+00 0.  1.
<scales pt_clust_3="69.09958" pt_clust_4="14000.00000" pt_clust_5="32.86494" pt_clust_6="126.25396"></scales>
<clustering>
<clus scale="   32.865">  2  5  1 -1</clus>
<clus scale="   69.100">  2  3  1 -1</clus>
<clus scale="  126.254">  2  6  1 -1</clus>
<clus scale="   32.865">  2  3  1 -1</clus>
</clustering>
</event>
<event>
 6    0  0.4340992E+002  0.1447539E+03  0.7546771E-02  0.1207072E+00
         21   -1    0    0  504  502  0.00000000000E+00  0.00000000000E+00  0.86149447571E+03  0.86149447571E+03  0.00000000000E+00 0. -1.
         -1   -1    0    0    0  501 -0.00000000000E+00 -0.00000000000E+00 -0.77268827150E+03  0.77268827150E+03  0.00000000000E+00 0. -1.
         21    1    1    2  503  501 -0.38246091552E+01 -0.32133551024E+02 -0.10400079995E+03  0.10891904850E+03  0.00000000000E+00 0. -1.
         21    1    1    2  504  505  0.14108955810E+03 -0.34422070214E+02  0.80610593711E+03  0.81908358802E+03  0.00000000000E+00 0. -1.
         21    1    1    2  505  503 -0.29991455396E+02  0.84293213988E+02 -0.64877879441E+01  0.89704652687E+02  0.00000000000E+00 0. -1.
         -1    1    1    2    0  502 -0.10727349355E+03 -0.17737592750E+02 -0.60681114500E+03  0.61647545799E+03  0.00000000000E+00 0. -1.
<scales pt_clust_3="32.36036" pt_clust_4="144.75394" pt_clust_5="87.38289" pt_clust_6="14000.00000"></scales>
<clustering>
<clus scale="   32.360">  2  3  1 -1</clus>
<clus scale="   87.383">  2  5  1 -1</clus>
<clus scale="  144.754">  1  4  2 -1</clus>
<clus scale="  144.754">  1  3  2 -1</clus>
</clustering>
</event>
<event>
 6    0  0.4340992E+002  0.1423868E+03  0.7546771E-02  0.1210153E+00
         -4   -1    0    0    0  501 -0.00000000000E+00  0.00000000000E+00  0.54274174160E+02  0.54274174160E+02  0.00000000000E+00 0.  1.
         21   -1    0    0  505  502  0.00000000000E+00 -0.00000000000E+00 -0.59573469958E+03  0.59573469958E+03  0.00000000000E+00 0.  1.
         21    1    1    2  503  502  0.31006192540E+02 -0.34268672854E+01 -0.47344334984E+02  0.56697561238E+02  0.00000000000E+00 0. -1.
         21    1    1    2  504  503  0.20684350933E+02 -0.50753865251E+02 -0.10945981848E+02  0.55889280994E+02  0.00000000000E+00 0. -1.
         21    1    1    2  505  501 -0.58447449504E+02  0.13005434171E+03 -0.39993693594E+03  0.42459367503E+03  0.00000000000E+00 0.  1.
         -4    1    1    2    0  504  0.67569060314E+01 -0.75873609175E+02 -0.83233272647E+02  0.11282835647E+03  0.00000000000E+00 0.  1.
<scales pt_clust_3="31.19499" pt_clust_4="44.95078" pt_clust_5="132.15762" pt_clust_6="44.95078"></scales>
<clustering>
<clus scale="   31.195">  2  3  1 -1</clus>
<clus scale="   44.951">  4  6 -1 -1</clus>
<clus scale="  132.158">  2  5  1 -1</clus>
<clus scale="   31.195">  2  3  1 -1</clus>
</clustering>
</event>
<event>
 6    0  0.4340992E+002  0.1023972E+03  0.7546771E-02  0.1275334E+00
         21   -1    0    0  503  502  0.00000000000E+00  0.00000000000E+00  0.84968004186E+02  0.84968004186E+02  0.00000000000E+00 0.  1.
         -3   -1    0    0    0  501 -0.00000000000E+00 -0.00000000000E+00 -0.12975725662E+04  0.12975725662E+04  0.00000000000E+00 0. -1.
         21    1    1    2  503  504  0.37259215328E+02  0.25187130837E+02  0.69698997115E+02  0.82949327215E+02  0.00000000000E+00 0.  1.
         21    1    1    2  504  501  0.50013591888E+02  0.63263421312E+02 -0.55007428556E+03  0.55595444011E+03  0.00000000000E+00 0. -1.
         21    1    1    2  505  502 -0.45287485527E+02 -0.53361006284E+02 -0.30554233695E+03  0.31345569545E+03  0.00000000000E+00 0. -1.
         -3    1    1    2    0  505 -0.41985321689E+02 -0.35089545865E+02 -0.42668693662E+03  0.43018110762E+03  0.00000000000E+00 0. -1.
<scales pt_clust_3="44.97378" pt_clust_4="95.33754" pt_clust_5="33.03587" pt_clust_6="33.03587"></scales>
<clustering>
<clus scale="   33.036">  5  6 -1 -1</clus>
<clus scale="   44.974">  1  3  2 -1</clus>
<clus scale="   95.338">  2  4  1 -1</clus>
<clus scale="   44.974">  1  3  2 -1</clus>
</clustering>
</event>
<event>
 6    0  0.4340992E+002  0.9221493E+02  0.7546771E-02  0.1297575E+00
          2   -1    0    0  505    0 -0.00000000000E+00  0.00000000000E+00  0.19765620407E+04  0.19765620407E+04  0.00000000000E+00 0.  1.
         21   -1    0    0  503  502  0.00000000000E+00 -0.00000000000E+00 -0.26906463946E+02  0.26906463946E+02  0.00000000000E+00 0.  1.
         21    1    1    2  503  504 -0.14135771440E+02 -0.29037590669E+02  0.97269921247E+02  0.10249116687E+03  0.00000000000E+00 0.  1.
         21    1    1    2  504  501 -0.65523315296E+02 -0.23858915135E+02  0.73618620831E+02  0.10140144975E+03  0.00000000000E+00 0.  1.
         21    1    1    2  505  502  0.53005762631E+02  0.13584191090E+03  0.59500276312E+03  0.61260992789E+03  0.00000000000E+00 0.  1.
          2    1    1    2  501    0  0.26653324105E+02 -0.82945405096E+02  0.11837642716E+04  0.11869659602E+04  0.00000000000E+00 0.  1.
<scales pt_clust_3="32.29554" pt_clust_4="83.99354" pt_clust_5="92.21493" pt_clust_6="14000.00000"></scales>
<clustering>
<clus scale="   32.296">  2  3  1 -1</clus>
<clus scale="   83.994">  2  4  1 -1</clus>
<clus scale="   92.215">  2  5  1 -1</clus>
<clus scale="   32.296">  2  3  1 -1</clus>
</clustering>
</event>
<event>
 6    0  0.4340992E+002  0.9914325E+02  0.7546771E-02  0.1282108E+00
         21   -1    0    0  504  502  0.00000000000E+00  0.00000000000E+00  0.16258402533E+03  0.16258402533E+03  0.00000000000E+00 0. -1.
         -4   -1    0    0    0  501 -0.00000000000E+00 -0.00000000000E+00 -0.13292040539E+04  0.13292040539E+04  0.00000000000E+00 0.  1.
         21    1    1    2  503  505 -0.74067643631E+02  0.35881058784E+02  0.19230385720E+01  0.82323534241E+02  0.00000000000E+00 0.  1.
         21    1    1    2  504  503  0.44014857642E+02 -0.42089897020E+01  0.10311083314E+03  0.11219120820E+03  0.00000000000E+00 0. -1.
         21    1    1    2  505  501 -0.69743685185E+02  0.55858694308E+01 -0.10755094663E+03  0.12830662369E+03  0.00000000000E+00 0.  1.
         -4    1    1    2    0  502  0.99796471174E+02 -0.37257938512E+02 -0.11641029537E+04  0.11689667131E+04  0.00000000000E+00 0.  1.
<scales pt_clust_3="51.88137" pt_clust_4="44.21565" pt_clust_5="99.14325" pt_clust_6="14000.00000"></scales>
<clustering>
<clus scale="   44.216">  1  4  2 -1</clus>
<clus scale="   51.881">  1  3  2 -1</clus>
<clus scale="   99.143">  1  5  2 -1</clus>
<clus scale="   44.216">  1  3  2 -1</clus>
</clustering>
</event>
<event>
 6    0  0.4340992E+002  0.1095632E+03  0.7546771E-02  0.1261381E+00
          2   -1    0    0  505    0 -0.00000000000E+00  0.00000000000E+00  0.58774388329E+03  0.58774388329E+03  0.00000000000E+00 0.  1.
         21   -1    0    0  504  502  0.00000000000E+00 -0.00000000000E+00 -0.52074229174E+03  0.52074229174E+03  0.00000000000E+00 0. -1.
         21    1    1    2  503  502  0.18171766221E+03 -0.75002339363E+02 -0.22662442494E+03  0.30000881595E+03  0.00000000000E+00 0. -1.
         21    1    1    2  504  501 -0.85861243452E+02  0.28686257016E+02 -0.23942528879E+03  0.25596781708E+03  0.00000000000E+00 0. -1.
         21    1    1    2  505  503  0.12225158056E+02  0.27816024888E+02  0.64497977710E+02  0.71296387417E+02  0.00000000000E+00 0.  1.
          2    1    1    2  501    0 -0.10808157681E+03  0.18500057459E+02  0.46855332756E+03  0.48121315458E+03  0.00000000000E+00 0.  1.
<scales pt_clust_3="14000.00000" pt_clust_4="90.48358" pt_clust_5="30.38397" pt_clust_6="109.56318"></scales>
<clustering>
<clus scale="   30.384">  1  5  2 -1</clus>
<clus scale="   90.484">  2  4  1 -1</clus>
<clus scale="  109.563">  1  6  2 -1</clus>
<clus scale="   90.484">  2  3  1 -1</clus>
</clustering>
</event>
<event>
 6    0  0.4340992E+002  0.7297956E+02  0.7546771E-02  0.1350244E+00
         -3   -1    0    0    0  501 -0.00000000000E+00  0.00000000000E+00  0.14869892245E+03  0.14869892245E+03  0.00000000000E+00 0.  1.
         21   -1    0    0  504  502  0.00000000000E+00 -0.00000000000E+00 -0.76722833879E+03  0.76722833879E+03  0.00000000000E+00 0.  1.
         21    1    1    2  503  502  0.88101994539E+02 -0.38325218244E+02 -0.55300041519E+03  0.56128445818E+03  0.00000000000E+00 0.  1.
         21    1    1    2  504  505 -0.33876921394E+02  0.22770838013E+02 -0.69953072299E+02  0.80991290835E+02  0.00000000000E+00 0. -1.
         21    1    1    2  505  501 -0.47300984309E+02 -0.58638246698E+02 -0.11226450459E+03  0.13520039232E+03  0.00000000000E+00 0. -1.
         -3    1    1    2    0  503 -0.69240888359E+01  0.74192626929E+02  0.11668857574E+03  0.13845111991E+03  0.00000000000E+00 0.  1.
<scales pt_clust_3="64.01703" pt_clust_4="40.81858" pt_clust_5="72.97956" pt_clust_6="14000.00000"></scales>
<clustering>
<clus scale="   40.819">  2  4  1 -1</clus>
<clus scale="   64.017">  2  3  1 -1</clus>
<clus scale="   72.980">  2  5  1 -1</clus>
<clus scale="   40.819">  2  3  1 -1</clus>
</clustering>
</event>
<event>
 6    0  0.4340992E+002  0.1123273E+03  0.7546771E-02  0.1256320E+00
          2   -1    0    0  503    0 -0.00000000000E+00  0.00000000000E+00  0.30682932951E+04  0.30682932951E+04  0.00000000000E+00 0.  1.
         21   -1    0    0  504  502  0.00000000000E+00 -0.00000000000E+00 -0.21910689855E+03  0.21910689855E+03  0.00000000000E+00 0.  1.
         21    1    1    2  503  505  0.16611909037E+02  0.53316821556E+02  0.14695474830E+04  0.14706081884E+04  0.00000000000E+00 0.  1.
         21    1    1    2  504  501 -0.12397798265E+03 -0.59571820938E+02  0.58458119151E+03  0.60054517856E+03  0.00000000000E+00 0.  1.
         21    1    1    2  505  502  0.27385210297E+02 -0.17921397848E+02 -0.20757465740E+03  0.21013891748E+03  0.00000000000E+00 0.  1.
          2    1    1    2  501    0  0.79980863312E+02  0.24176397229E+02  0.10026323795E+04  0.10061079093E+04  0.00000000000E+00 0.  1.
<scales pt_clust_3="55.40491" pt_clust_4="14000.00000" pt_clust_5="32.72807" pt_clust_6="112.32728"></scales>
<clustering>
<clus scale="   32.728">  2  5  1 -1</clus>
<clus scale="   55.405">  1  3  2 -1</clus>
<clus scale="  112.327">  1  6  2 -1</clus>
<clus scale="   32.728">  2  3  1 -1</clus>
</clustering>
</event>
<event>
 6    0  0.4340992E+002  0.1402085E+03  0.7546771E-02  0.1213049E+00
         21   -1    0    0  501  502  0.00000000000E+00  0.00000000000E+00  0.84232221029E+02  0.84232221029E+02  0.00000000000E+00 0.  1.
         -3   -1    0    0    0  501 -0.00000000000E+00 -0.00000000000E+00 -0.10542333594E+04  0.10542333594E+04  0.00000000000E+00 0. -1.
         21    1    1    2  503  504 -0.14591056925E+02  0.63813883425E+02 -0.62613544153E+02  0.90584582415E+02  0.00000000000E+00 0.  1.
         21    1    1    2  504  505 -0.35729231689E+02  0.13611781829E+02 -0.53284174439E+02  0.65582481253E+02  0.00000000000E+00 0.  1.
         21    1    1    2  505  502  0.30400660000E+02 -0.16554838407E+03 -0.53501500556E+02  0.17661505644E+03  0.00000000000E+00 0.  1.
         -3    1    1    2    0  503  0.19919628614E+02  0.88122718820E+02 -0.80060191924E+03  0.80568346034E+03  0.00000000000E+00 0. -1.
<scales pt_clust_3="37.66605" pt_clust_4="37.66605" pt_clust_5="131.26089" pt_clust_6="90.34603"></scales>
<clustering>
<clus scale="   37.666">  3  4 -1 -1</clus>
<clus scale="   90.346">  2  6  1 -1</clus>
<clus scale="  131.261">  1  5  2 -1</clus>
<clus scale="  131.261">  1  3  2 -1</clus>
</clustering>
</event>
<event>
 6    0  0.4340992E+002  0.1176994E+03  0.7546771E-02  0.1246941E+00
         21   -1    0    0  504  502  0.00000000000E+00  0.00000000000E+00  0.20473865925E+03  0.20473865925E+03  0.00000000000E+00 0. -1.
          2   -1    0    0  503    0 -0.00000000000E+00 -0.00000000000E+00 -0.15808068704E+04  0.15808068704E+04  0.00000000000E+00 0. -1.
         21    1    1    2  503  502  0.17684301917E+02  0.39355198763E+02 -0.34376786835E+03  0.34646488064E+03  0.00000000000E+00 0.  1.
         21    1    1    2  504  505 -0.92092368971E+02  0.67275389923E+02  0.15233771675E+03  0.19029913940E+03  0.00000000000E+00 0. -1.
         21    1    1    2  505  501  0.13441665079E+03 -0.79506173956E+02 -0.16562085367E+03  0.22763860586E+03  0.00000000000E+00 0.  1.
          2    1    1    2  501    0 -0.60008583738E+02 -0.27124414730E+02 -0.10190172059E+04  0.10211429037E+04  0.00000000000E+00 0. -1.
<scales pt_clust_3="43.14587" pt_clust_4="14000.00000" pt_clust_5="117.69941" pt_clust_6="45.72564"></scales>
<clustering>
<clus scale="   43.146">  2  3  1 -1</clus>
<clus scale="   45.726">  2  6  1 -1</clus>
<clus scale="  117.699">  2  5  1 -1</clus>
<clus scale="  117.699">  1  3  2 -1</clus>
</clustering>
</event>
<event>
 6    0  0.4340992E+002  0.1442069E+03  0.7546771E-02  0.1207778E+00
         21   -1    0    0  505  502  0.00000000000E+00  0.00000000000E+00  0.11587879345E+03  0.11587879345E+03  0.00000000000E+00 0. -1.
          2   -1    0    0  503    0 -0.00000000000E+00 -0.00000000000E+00 -0.85021091685E+03  0.85021091685E+03  0.00000000000E+00 0. -1.
         21    1    1    2  503  502  0.96107242710E+02  0.47441752679E+02  0.18978457819E+02  0.10884623953E+03  0.00000000000E+00 0. -1.
         21    1    1    2  504  501 -0.39473889364E+02 -0.43697038665E+02 -0.21221176395E+03  0.22023045178E+03  0.00000000000E+00 0. -1.
         21    1    1    2  505  504  0.14052100030E+02  0.34098512723E+02  0.37669325104E+02  0.52717626455E+02  0.00000000000E+00 0. -1.
          2    1    1    2  501    0 -0.70685453376E+02 -0.37843226738E+02 -0.57876814236E+03  0.58429539254E+03  0.00000000000E+00 0. -1.
<scales pt_clust_3="134.04069" pt_clust_4="45.12607" pt_clust_5="36.88048" pt_clust_6="45.12607"></scales>
<clustering>
<clus scale="   36.880">  1  5  2 -1</clus>
<clus scale="   45.126">  4  6 -1 -1</clus>
<clus scale="  134.041">  1  3  2 -1</clus>
<clus scale="   36.880">  1  3  2 -1</clus>
</clustering>
</event>
<event>
 6    0  0.4340992E+002  0.1063804E+03  0.7546771E-02  0.1267424E+00
         21   -1    0    0  505  502  0.00000000000E+00  0.00000000000E+00  0.28431127994E+02  0.28431127994E+02  0.00000000000E+00 0. -1.
          1   -1    0    0  503    0 -0.00000000000E+00 -0.00000000000E+00 -0.25646513946E+04  0.25646513946E+04  0.00000000000E+00 0. -1.
         21    1    1    2  503  504 -0.49091831116E+02  0.31680713074E+01 -0.12046182494E+04  0.12056223170E+04  0.00000000000E+00 0. -1.
         21    1    1    2  504  502  0.11351511931E+03  0.45799858729E+02 -0.13384568638E+03  0.18137799517E+03  0.00000000000E+00 0. -1.
         21    1    1    2  505  501 -0.26325446911E+02  0.26504509847E+02 -0.13824969410E+03  0.14320787729E+03  0.00000000000E+00 0.  1.
          1    1    1    2  501    0 -0.38097841278E+02 -0.75472439883E+02 -0.10595066367E+04  0.10628743331E+04  0.00000000000E+00 0. -1.
<scales pt_clust_3="49.73747" pt_clust_4="106.38039" pt_clust_5="37.35664" pt_clust_6="14000.00000"></scales>
<clustering>
<clus scale="   37.357">  1  5  2 -1</clus>
<clus scale="   49.737">  2  3  1 -1</clus>
<clus scale="  106.380">  1  4  2 -1</clus>
<clus scale="   37.357">  1  3  2 -1</clus>
</clustering>
</event>
<event>
 6    0  0.4340992E+002  0.2258477E+03  0.7546771E-02  0.1129597E+00
         21   -1    0    0  501  502  0.00000000000E+00  0.00000000000E+00  0.16742840486E+04  0.16742840486E+04  0.00000000000E+00 0.  1.
          2   -1    0    0  503    0 -0.00000000000E+00 -0.00000000000E+00 -0.21750771856E+04  0.21750771856E+04  0.00000000000E+00 0. -1.
         21    1    1    2  503  505  0.97700928075E+02 -0.25418519826E+00 -0.13027795049E+04  0.13064378953E+04  0.00000000000E+00 0. -1.
         21    1    1    2  504  502  0.13607734470E+03  0.96823306404E+02  0.10922286823E+04  0.11049232059E+04  0.00000000000E+00 0.  1.
         21    1    1    2  505  504 -0.33405915597E+03  0.17938821966E+02  0.51740363037E+03  0.61613621687E+03  0.00000000000E+00 0.  1.
          2    1    1    2  501    0  0.10028088320E+03 -0.11450794317E+03 -0.80764594479E+03  0.82186391618E+03  0.00000000000E+00 0. -1.
<scales pt_clust_3="97.70126" pt_clust_4="167.58828" pt_clust_5="225.84767" pt_clust_6="14000.00000"></scales>
<clustering>
<clus scale="   97.701">  2  3  1 -1</clus>
<clus scale="  167.588">  1  4  2 -1</clus>
<clus scale="  225.848">  1  5  2 -1</clus>
<clus scale="  167.588">  1  3  2 -1</clus>
</clustering>
</event>
<event>
 6    0  0.4340992E+002  0.3319214E+03  0.7546771E-02  0.1070290E+00
          2   -1    0    0  505    0 -0.00000000000E+00  0.00000000000E+00  0.13226382394E+04  0.13226382394E+04  0.00000000000E+00 0.  1.
         21   -1    0    0  504  502  0.00000000000E+00 -0.00000000000E+00 -0.65638141322E+03  0.65638141322E+03  0.00000000000E+00 0. -1.
         21    1    1    2  503  502  0.12455036744E+03 -0.33049429229E+02 -0.37521935035E+03  0.39672990772E+03  0.00000000000E+00 0. -1.
         21    1    1    2  504  501 -0.14951331827E+02  0.56934836281E+02  0.17998398794E+03  0.18936566168E+03  0.00000000000E+00 0.  1.
         21    1    1    2  505  503  0.14042148363E+03 -0.15382015221E+03 -0.20355949521E+03  0.29123066525E+03  0.00000000000E+00 0. -1.
          2    1    1    2  501    0 -0.25002051925E+03  0.12993474516E+03  0.10650516838E+04  0.11016934180E+04  0.00000000000E+00 0.  1.
<scales pt_clust_3="128.86062" pt_clust_4="49.20554" pt_clust_5="313.97836" pt_clust_6="49.20554"></scales>
<clustering>
<clus scale="   49.206">  4  6 -1 -1</clus>
<clus scale="  128.861">  2  3  1 -1</clus>
<clus scale="  313.978">  2  5  1 -1</clus>
<clus scale="  128.861">  2  3  1 -1</clus>
</clustering>
</event>
<event>
 6    0  0.4340992E+002  0.1534914E+03  0.7546771E-02  0.1196247E+00
         21   -1    0    0  505  502  0.00000000000E+00  0.00000000000E+00  0.50112908424E+02  0.50112908424E+02  0.00000000000E+00 0. -1.
          1   -1    0    0  504    0 -0.00000000000E+00 -0.00000000000E+00 -0.15454032167E+04  0.15454032167E+04  0.00000000000E+00 0.  1.
         21    1    1    2  503  501 -0.67136126461E+02 -0.82281744536E+01 -0.42122449079E+03  0.42662048002E+03  0.00000000000E+00 0.  1.
         21    1    1    2  504  502  0.17535515040E+03  0.14904187224E+01 -0.17661947165E+03  0.24888971028E+03  0.00000000000E+00 0. -1.
         21    1    1    2  505  503 -0.32483438760E+02  0.85067340294E+01 -0.19566929041E+02  0.38863903942E+02  0.00000000000E+00 0.  1.
          1    1    1    2  501    0 -0.75735585177E+02 -0.17689782981E+01 -0.87787941682E+03  0.88114203091E+03  0.00000000000E+00 0.  1.
<scales pt_clust_3="43.16863" pt_clust_4="146.62897" pt_clust_5="33.57884" pt_clust_6="43.16863"></scales>
<clustering>
<clus scale="   33.579">  1  5  2 -1</clus>
<clus scale="   43.169">  3  6 -1 -1</clus>
<clus scale="  146.629">  1  4  2 -1</clus>
<clus scale="   33.579">  1  3  2 -1</clus>
</clustering>
</event>
<event>
 6    0  0.4340992E+002  0.9382467E+02  0.7546771E-02  0.1293845E+00
          2   -1    0    0  505    0 -0.00000000000E+00  0.00000000000E+00  0.70528453223E+03  0.70528453223E+03  0.00000000000E+00 0.  1.
         21   -1    0    0  503  502  0.00000000000E+00 -0.00000000000E+00 -0.86813957228E+02  0.86813957228E+02  0.00000000000E+00 0.  1.
         21    1    1    2  503  501 -0.35012604139E+02 -0.12637648298E+03  0.15637577114E+02  0.13206601272E+03  0.00000000000E+00 0.  1.
         21    1    1    2  504  502  0.51383882729E+02  0.29045405165E+02  0.27086314265E+02  0.64943108841E+02  0.00000000000E+00 0.  1.
         21    1    1    2  505  504  0.15121011683E+02  0.51262730108E+02  0.79993680296E+02  0.96205516368E+02  0.00000000000E+00 0.  1.
          2    1    1    2  501    0 -0.31492290273E+02  0.46068347704E+02  0.49575300333E+03  0.49888385153E+03  0.00000000000E+00 0.  1.
<scales pt_clust_3="93.82467" pt_clust_4="61.94911" pt_clust_5="53.44635" pt_clust_6="14000.00000"></scales>
<clustering>
<clus scale="   53.446">  1  5  2 -1</clus>
<clus scale="   61.949">  2  4  1 -1</clus>
<clus scale="   93.825">  2  3  1 -1</clus>
<clus scale="   61.949">  2  3  1 -1</clus>
</clustering>
</event>
<event>
 6    0  0.4340992E+002  0.7888306E+02  0.7546771E-02  0.1332251E+00
         -1   -1    0    0    0  501 -0.00000000000E+00  0.00000000000E+00  0.26480961553E+04  0.26480961553E+04  0.00000000000E+00 0.  1.
         21   -1    0    0  503  502  0.00000000000E+00 -0.00000000000E+00 -0.52082667085E+02  0.52082667085E+02  0.00000000000E+00 0. -1.
         21    1    1    2  503  504  0.25350282778E+02  0.24656394352E+02  0.38462047667E+01  0.35572010211E+02  0.00000000000E+00 0. -1.
         21    1    1    2  504  505 -0.92569711977E+02 -0.62479238972E+02  0.58099804899E+02  0.12589040554E+03  0.00000000000E+00 0. -1.
         21    1    1    2  505  501 -0.21268579489E+02  0.58281302769E+02  0.91135631496E+03  0.91346559626E+03  0.00000000000E+00 0. -1.
         -1    1    1    2    0  502  0.88488008688E+02 -0.20458458149E+02  0.16227111636E+04  0.16252508104E+04  0.00000000000E+00 0.  1.
<scales pt_clust_3="35.36346" pt_clust_4="78.88306" pt_clust_5="62.46927" pt_clust_6="14000.00000"></scales>
<clustering>
<clus scale="   35.363">  2  3  1 -1</clus>
<clus scale="   62.469">  1  5  2 -1</clus>
<clus scale="   78.883">  2  4  1 -1</clus>
<clus scale="   35.363">  2  3  1 -1</clus>
</clustering>
</event>
<event>
 6    0  0.4340992E+002  0.1204843E+03  0.7546771E-02  0.1242300E+00
          2   -1    0    0  503    0 -0.00000000000E+00  0.00000000000E+00  0.19906555398E+04  0.19906555398E+04  0.00000000000E+00 0.  1.
         21   -1    0    0  501  502  0.00000000000E+00 -0.00000000000E+00 -0.71570197814E+02  0.71570197814E+02  0.00000000000E+00 0.  1.
         21    1    1    2  503  504 -0.29028864530E+02  0.11055973967E+02  0.25564466075E+03  0.25752495433E+03  0.00000000000E+00 0. -1.
         21    1    1    2  504  505  0.18399583879E+02  0.15582551386E+03  0.75086486033E+02  0.17394860115E+03  0.00000000000E+00 0.  1.
         21    1    1    2  505  502  0.33766429869E+01 -0.40233135887E+02  0.31685070961E+01  0.40498720700E+02  0.00000000000E+00 0.  1.
          2    1    1    2  501    0  0.72526376636E+01 -0.12664835194E+03  0.15851856881E+04  0.15902534614E+04  0.00000000000E+00 0.  1.
<scales pt_clust_3="31.06299" pt_clust_4="14000.00000" pt_clust_5="40.20684" pt_clust_6="120.48429"></scales>
<clustering>
<clus scale="   31.063">  1  3  2 -1</clus>
<clus scale="   40.207">  2  5  1 -1</clus>
<clus scale="  120.484">  1  6  2 -1</clus>
<clus scale="   40.207">  2  3  1 -1</clus>
</clustering>
</event>
<event>
 6    0  0.4340992E+002  0.2494453E+03  0.7546771E-02  0.1113656E+00
          1   -1    0    0  502    0 -0.00000000000E+00  0.00000000000E+00  0.16718739145E+04  0.16718739145E+04  0.00000000000E+00 0.  1.
         21   -1    0    0  505  502  0.00000000000E+00 -0.00000000000E+00 -0.69568971271E+03  0.69568971271E+03  0.00000000000E+00 0.  1.
         21    1    1    2  503  501  0.20438153077E+02  0.60557491206E+02  0.58815022536E+03  0.59161272420E+03  0.00000000000E+00 0.  1.
         21    1    1    2  504  503 -0.10921231210E+03  0.13581942171E+03  0.45282630375E+02  0.18006876754E+03  0.00000000000E+00 0.  1.
         21    1    1    2  505  504  0.88260348652E+02 -0.25664753952E+03 -0.59616417535E+03  0.65503402405E+03  0.00000000000E+00 0.  1.
          1    1    1    2  501    0  0.51381037547E+00  0.60270626596E+02  0.93891552140E+03  0.94084811141E+03  0.00000000000E+00 0.  1.
<scales pt_clust_3="37.20725" pt_clust_4="249.44531" pt_clust_5="14000.00000" pt_clust_6="128.47730"></scales>
<clustering>
<clus scale="   37.207">  3  6 -1 -1</clus>
<clus scale="  128.477">  1  3  2 -1</clus>
<clus scale="  249.445">  1  4  2 -1</clus>
<clus scale="  249.445">  2  3  1 -1</clus>
</clustering>
</event>
<event>
 6    0  0.4340992E+002  0.1009099E+03  0.7546771E-02  0.1278394E+00
         -2   -1    0    0    0  501 -0.00000000000E+00  0.00000000000E+00  0.37316903490E+03  0.37316903490E+03  0.00000000000E+00 0. -1.
         21   -1    0    0  503  502  0.00000000000E+00 -0.00000000000E+00 -0.15915254866E+04  0.15915254866E+04  0.00000000000E+00 0.  1.
         21    1    1    2  503  505  0.11253515148E+03 -0.73758282173E+02 -0.13878442105E+04  0.13943514611E+04  0.00000000000E+00 0.  1.
         21    1    1    2  504  502 -0.14957543896E+02  0.48625280554E+02 -0.15952926024E+03  0.16744470999E+03  0.00000000000E+00 0.  1.
         21    1    1    2  505  501 -0.46867811853E+02 -0.65421315944E+02  0.29174736776E+02  0.85602018865E+02  0.00000000000E+00 0.  1.
         -2    1    1    2    0  504 -0.50709795733E+02  0.90554317563E+02  0.29984228224E+03  0.31729633157E+03  0.00000000000E+00 0. -1.
<scales pt_clust_3="14000.00000" pt_clust_4="50.87382" pt_clust_5="79.87210" pt_clust_6="100.90990"></scales>
<clustering>
<clus scale="   50.874">  2  4  1 -1</clus>
<clus scale="   79.872">  1  5  2 -1</clus>
<clus scale="  100.910">  1  6  2 -1</clus>
<clus scale="   50.874">  2  3  1 -1</clus>
</clustering>
</event>
<event>
 6    0  0.4340992E+002  0.8680461E+02  0.7546771E-02  0.1310780E+00
         21   -1    0    0  501  502  0.00000000000E+00  0.00000000000E+00  0.43298867899E+02  0.43298867899E+02  0.00000000000E+00 0. -1.
          2   -1    0    0  503    0 -0.00000000000E+00 -0.00000000000E+00 -0.25016725715E+04  0.25016725715E+04  0.00000000000E+00 0. -1.
         21    1    1    2  503  505 -0.73135020827E+02 -0.41529268070E+02 -0.20186927217E+04  0.20204439403E+04  0.00000000000E+00 0. -1.
         21    1    1    2  504  502 -0.66130117399E+02 -0.36396682799E+02 -0.13568516351E+03  0.15526871720E+03  0.00000000000E+00 0. -1.
         21    1    1    2  505  504  0.16607446404E+03  0.57913822965E+02 -0.24816799739E+03  0.30417444571E+03  0.00000000000E+00 0. -1.
          2    1    1    2  501    0 -0.26809325817E+02  0.20012127904E+02 -0.55827821019E+02  0.65084336162E+02  0.00000000000E+00 0. -1.
<scales pt_clust_3="86.80461" pt_clust_4="79.36397" pt_clust_5="14000.00000" pt_clust_6="33.45482"></scales>
<clustering>
<clus scale="   33.455">  1  6  2 -1</clus>
<clus scale="   79.364">  1  4  2 -1</clus>
<clus scale="   86.805">  2  3  1 -1</clus>
<clus scale="   33.455">  1  3  2 -1</clus>
</clustering>
</event>
<event>
 6    0  0.4340992E+002  0.9085620E+02  0.7546771E-02  0.1300791E+00
         21   -1    0    0  501  502  0.00000000000E+00  0.00000000000E+00  0.23769205796E+03  0.23769205796E+03  0.00000000000E+00 0. -1.
          2   -1    0    0  504    0 -0.00000000000E+00 -0.00000000000E+00 -0.19947448211E+03  0.19947448211E+03  0.00000000000E+00 0.  1.
         21    1    1    2  503  502 -0.41794171187E+02  0.22432124491E+02  0.11631960712E+03  0.12561928178E+03  0.00000000000E+00 0.  1.
         21    1    1    2  504  505  0.23888456017E+01 -0.37261344505E+02 -0.44800763213E+02  0.58320003105E+02  0.00000000000E+00 0.  1.
         21    1    1    2  505  503  0.10273234948E+03  0.49201394783E+02  0.65152676324E+02  0.13122341296E+03  0.00000000000E+00 0. -1.
          2    1    1    2  501    0 -0.63327023891E+02 -0.34372174769E+02 -0.98453944377E+02  0.12200384222E+03  0.00000000000E+00 0.  1.
<scales pt_clust_3="46.82416" pt_clust_4="37.33784" pt_clust_5="14000.00000" pt_clust_6="90.85620"></scales>
<clustering>
<clus scale="   37.338">  2  4  1 -1</clus>
<clus scale="   46.824">  1  3  2 -1</clus>
<clus scale="   90.856">  2  6  1 -1</clus>
<clus scale="   46.824">  1  3  2 -1</clus>
</clustering>
</event>
<event>
 6    0  0.4340992E+002  0.9751495E+02  0.7546771E-02  0.1285610E+00
         21   -1    0    0  505  502  0.00000000000E+00  0.00000000000E+00  0.83086654666E+03  0.83086654666E+03  0.00000000000E+00 0.  1.
         -2   -1    0    0    0  501 -0.00000000000E+00 -0.00000000000E+00 -0.49043913525E+04  0.49043913525E+04  0.00000000000E+00 0.  1.
         21    1    1    2  503  502  0.15358443378E+02  0.34459523748E+02  0.53765171203E+03  0.53897375076E+03  0.00000000000E+00 0.  1.
         21    1    1    2  504  503  0.80327844034E+02 -0.15213143497E+02  0.28528298261E+03  0.29676654533E+03  0.00000000000E+00 0.  1.
         21    1    1    2  505  501  0.18346436004E+02 -0.32479544504E+02 -0.43959280077E+03  0.44117269069E+03  0.00000000000E+00 0.  1.
         -2    1    1    2    0  504 -0.11403272342E+03  0.13233164253E+02 -0.44568666997E+04  0.44583449124E+04  0.00000000000E+00 0.  1.
<scales pt_clust_3="37.72390" pt_clust_4="14000.00000" pt_clust_5="37.30298" pt_clust_6="97.51495"></scales>
<clustering>
<clus scale="   37.303">  2  5  1 -1</clus>
<clus scale="   37.724">  1  3  2 -1</clus>
<clus scale="   97.515">  2  6  1 -1</clus>
<clus scale="   37.724">  1  3  2 -1</clus>
</clustering>
</event>
<event>
 6    0  0.4340992E+002  0.1195321E+03  0.7546771E-02  0.1243871E+00
         21   -1    0    0  505  502  0.00000000000E+00  0.00000000000E+00  0.31327647386E+03  0.31327647386E+03  0.00000000000E+00 0. -1.
          2   -1    0    0  503    0 -0.00000000000E+00 -0.00000000000E+00 -0.16462097664E+03  0.16462097664E+03  0.00000000000E+00 0.  1.
         21    1    1    2  503  504  0.40655985686E+02 -0.92174367848E+02  0.11086717030E+03  0.14980171131E+03  0.00000000000E+00 0. -1.
         21    1    1    2  504  502 -0.56726073932E+02 -0.18149703193E+02  0.15001813374E+03  0.16140848689E+03  0.00000000000E+00 0. -1.
         21    1    1    2  505  501 -0.19190136658E+02  0.36322661619E+02 -0.41903076320E+02  0.58681043763E+02  0.00000000000E+00 0.  1.
          2    1    1    2  501    0  0.35260224904E+02  0.74001409422E+02 -0.70326730506E+02  0.10800620853E+03  0.00000000000E+00 0.  1.
<scales pt_clust_3="107.37066" pt_clust_4="59.55887" pt_clust_5="37.18736" pt_clust_6="37.18736"></scales>
<clustering>
<clus scale="   37.187">  5  6 -1 -1</clus>
<clus scale="   59.559">  1  4  2 -1</clus>
<clus scale="  107.371">  1  3  2 -1</clus>
<clus scale="   59.559">  1  3  2 -1</clus>
</clustering>
</event>
<event>
 6    0  0.4340992E+002  0.2139844E+03  0.7546771E-02  0.1138449E+00
         21   -1    0    0  503  502  0.00000000000E+00  0.00000000000E+00  0.67785997065E+02  0.67785997065E+02  0.00000000000E+00 0. -1.
          2   -1    0    0  504    0 -0.00000000000E+00 -0.00000000000E+00 -0.15165784744E+04  0.15165784744E+04  0.00000000000E+00 0.  1.
         21    1    1    2  503  505 -0.30393639177E+02 -0.16869835113E+02 -0.24540270395E+02  0.42551022434E+02  0.00000000000E+00 0. -1.
         21    1    1    2  504  502  0.12310528707E+03  0.19241882313E+03 -0.21231453310E+03  0.31186114885E+03  0.00000000000E+00 0. -1.
         21    1    1    2  505  501  0.79528841719E+01 -0.38702731576E+02 -0.20238297666E+03  0.20620382887E+03  0.00000000000E+00 0. -1.
          2    1    1    2  501    0 -0.10066453206E+03 -0.13684625644E+03 -0.10095546972E+04  0.10237484713E+04  0.00000000000E+00 0.  1.
<scales pt_clust_3="34.76154" pt_clust_4="203.00856" pt_clust_5="32.62638" pt_clust_6="32.62638"></scales>
<clustering>
<clus scale="   32.626">  5  6 -1 -1</clus>
<clus scale="   34.762">  1  3  2 -1</clus>
<clus scale="  203.009">  1  4  2 -1</clus>
<clus scale="   34.762">  1  3  2 -1</clus>
</clustering>
</event>
<event>
 6    0  0.4340992E+002  0.6614364E+02  0.7546771E-02  0.1373720E+00
          2   -1    0    0  504    0 -0.00000000000E+00  0.00000000000E+00  0.65833528089E+03  0.65833528089E+03  0.00000000000E+00 0. -1.
         21   -1    0    0  503  502  0.00000000000E+00 -0.00000000000E+00 -0.98075468635E+03  0.98075468635E+03  0.00000000000E+00 0. -1.
         21    1    1    2  503  505  0.18803888728E+02  0.50365086209E+02 -0.26110815411E+02  0.59766234795E+02  0.00000000000E+00 0. -1.
         21    1    1    2  504  502  0.52026128755E+02 -0.54523153072E+02 -0.82151507753E+03  0.82496455373E+03  0.00000000000E+00 0. -1.
         21    1    1    2  505  501 -0.23164025495E+02  0.50217858534E+02 -0.10606524624E+03  0.11961706338E+03  0.00000000000E+00 0. -1.
          2    1    1    2  501    0 -0.47665991988E+02 -0.46059791671E+02  0.63127173372E+03  0.63474211534E+03  0.00000000000E+00 0. -1.
<scales pt_clust_3="53.76084" pt_clust_4="14000.00000" pt_clust_5="60.03399" pt_clust_6="66.14364"></scales>
<clustering>
<clus scale="   53.761">  2  3  1 -1</clus>
<clus scale="   60.034">  2  5  1 -1</clus>
<clus scale="   66.144">  1  6  2 -1</clus>
<clus scale="   53.761">  2  3  1 -1</clus>
</clustering>
</event>
<event>
 6    0  0.4340992E+002  0.7474705E+02  0.7546771E-02  0.1344656E+00
          2   -1    0    0  505    0 -0.00000000000E+00  0.00000000000E+00  0.14968912204E+04  0.14968912204E+04  0.00000000000E+00 0.  1.
         21   -1    0    0  504  502  0.00000000000E+00 -0.00000000000E+00 -0.22914109120E+03  0.22914109120E+03  0.00000000000E+00 0.  1.
         21    1    1    2  503  502 -0.24841034593E+02 -0.27779668527E+02  0.59917298392E+01  0.37745036887E+02  0.00000000000E+00 0. -1.
         21    1    1    2  504  501  0.16674505336E+02 -0.47052237895E+02 -0.20495443549E+03  0.21094613731E+03  0.00000000000E+00 0.  1.
         21    1    1    2  505  503 -0.65979346135E+02  0.28463826456E+01  0.79341125597E+03  0.79615500822E+03  0.00000000000E+00 0.  1.
          2    1    1    2  501    0  0.74145875392E+02  0.71985523777E+02  0.67330157890E+03  0.68118612921E+03  0.00000000000E+00 0.  1.
<scales pt_clust_3="37.26643" pt_clust_4="74.74705" pt_clust_5="66.19292" pt_clust_6="14000.00000"></scales>
<clustering>
<clus scale="   37.266">  2  3  1 -1</clus>
<clus scale="   66.193">  1  5  2 -1</clus>
<clus scale="   74.747">  2  4  1 -1</clus>
<clus scale="   37.266">  2  3  1 -1</clus>
</clustering>
</event>
<event>
 6    0  0.4340992E+002  0.1005536E+03  0.7546771E-02  0.1279136E+00
         21   -1    0    0  504  502  0.00000000000E+00  0.00000000000E+00  0.33513387963E+03  0.33513387963E+03  0.00000000000E+00 0.  1.
          1   -1    0    0  503    0 -0.00000000000E+00 -0.00000000000E+00 -0.15655026769E+03  0.15655026769E+03  0.00000000000E+00 0.  1.
         21    1    1    2  503  502  0.43431632586E+02 -0.57488049702E+02 -0.40400979990E+02  0.82604005664E+02  0.00000000000E+00 0.  1.
         21    1    1    2  504  505 -0.25903152572E+02  0.21629524591E+02  0.90211301640E+02  0.96316605997E+02  0.00000000000E+00 0.  1.
         21    1    1    2  505  501  0.63339943245E+02  0.79842377431E+02  0.18041579232E+03  0.20721151455E+03  0.00000000000E+00 0.  1.
          1    1    1    2  501    0 -0.80868423259E+02 -0.43983852320E+02 -0.51642502022E+02  0.10555202111E+03  0.00000000000E+00 0.  1.
<scales pt_clust_3="69.18517" pt_clust_4="33.74625" pt_clust_5="14000.00000" pt_clust_6="100.55361"></scales>
<clustering>
<clus scale="   33.746">  1  4  2 -1</clus>
<clus scale="   69.185">  2  3  1 -1</clus>
<clus scale="  100.554">  2  6  1 -1</clus>
<clus scale="   33.746">  1  3  2 -1</clus>
</clustering>
</event>
<event>
 6    0  0.4340992E+002  0.7782082E+02  0.7546771E-02  0.1335352E+00
         21   -1    0    0  505  502  0.00000000000E+00  0.00000000000E+00  0.14949835250E+03  0.14949835250E+03  0.00000000000E+00 0.  1.
          1   -1    0    0  503    0 -0.00000000000E+00 -0.00000000000E+00 -0.38329274497E+03  0.38329274497E+03  0.00000000000E+00 0. -1.
         21    1    1    2  503  504  0.81845314917E+02 -0.85408866928E+02 -0.15126674731E+03  0.19202853685E+03  0.00000000000E+00 0. -1.
         21    1    1    2  504  502 -0.32409906798E+02 -0.26086156806E+01  0.99370533127E+02  0.10455481715E+03  0.00000000000E+00 0.  1.
         21    1    1    2  505  501 -0.15174940539E+02  0.30441043318E+02  0.79104722270E+01  0.34921504972E+02  0.00000000000E+00 0. -1.
          1    1    1    2  501    0 -0.34260467579E+02  0.57576439291E+02 -0.18980865051E+03  0.20128623850E+03  0.00000000000E+00 0. -1.
<scales pt_clust_3="77.82082" pt_clust_4="32.51472" pt_clust_5="41.75070" pt_clust_6="14000.00000"></scales>
<clustering>
<clus scale="   32.515">  1  4  2 -1</clus>
<clus scale="   41.751">  1  5  2 -1</clus>
<clus scale="   77.821">  1  3  2 -1</clus>
<clus scale="   32.515">  1  3  2 -1</clus>
</clustering>
</event>
<event>
 6    0  0.4340992E+002  0.4414859E+03  0.7546771E-02  0.1030292E+00
         21   -1    0    0  505  502  0.00000000000E+00  0.00000000000E+00  0.23161489422E+03  0.23161489422E+03  0.00000000000E+00 0. -1.
          2   -1    0    0  503    0 -0.00000000000E+00 -0.00000000000E+00 -0.14700069005E+04  0.14700069005E+04  0.00000000000E+00 0. -1.
         21    1    1    2  503  504 -0.29071324289E+02 -0.76399545687E+02 -0.31189298181E+02  0.87491741314E+02  0.00000000000E+00 0. -1.
         21    1    1    2  504  502 -0.31385447181E+03 -0.16965972543E+03 -0.26704095596E+02  0.35777389596E+03  0.00000000000E+00 0. -1.
         21    1    1    2  505  501  0.66733062915E+02  0.74460053947E+02 -0.36430454263E+03  0.37777691976E+03  0.00000000000E+00 0.  1.
          2    1    1    2  501    0  0.27619273318E+03  0.17159921717E+03 -0.81619406983E+03  0.87857923764E+03  0.00000000000E+00 0. -1.
<scales pt_clust_3="61.98000" pt_clust_4="61.98000" pt_clust_5="45.42604" pt_clust_6="429.94630"></scales>
<clustering>
<clus scale="   45.426">  5  6 -1 -1</clus>
<clus scale="   61.980">  3  4 -1 -1</clus>
<clus scale="  429.946">  2  5  1 -1</clus>
<clus scale="  441.486">  1  3  2 -1</clus>
</clustering>
</event>
<event>
 6    0  0.4340992E+002  0.1257850E+03  0.7546771E-02  0.1233848E+00
         21   -1    0    0  504  502  0.00000000000E+00  0.00000000000E+00  0.40838520068E+03  0.40838520068E+03  0.00000000000E+00 0. -1.
         -2   -1    0    0    0  501 -0.00000000000E+00 -0.00000000000E+00 -0.42309740196E+03  0.42309740196E+03  0.00000000000E+00 0. -1.
         21    1    1    2  503  502 -0.76264483463E+02  0.10072682901E+03  0.35461179859E+03  0.37644613589E+03  0.00000000000E+00 0. -1.
         21    1    1    2  504  505  0.52211264956E+02 -0.18515483196E+02 -0.10963723036E+02  0.56471608168E+02  0.00000000000E+00 0. -1.
         21    1    1    2  505  501 -0.50373351428E+02 -0.11800159242E+01 -0.49255689906E+02  0.70462684875E+02  0.00000000000E+00 0. -1.
         -2    1    1    2    0  503  0.74426569935E+02 -0.81031329893E+02 -0.30910458693E+03  0.32810217372E+03  0.00000000000E+00 0. -1.
<scales pt_clust_3="125.78495" pt_clust_4="51.05390" pt_clust_5="50.38717" pt_clust_6="14000.00000"></scales>
<clustering>
<clus scale="   50.387">  2  5  1 -1</clus>
<clus scale="   51.054">  2  4  1 -1</clus>
<clus scale="  125.785">  1  3  2 -1</clus>
<clus scale="  125.785">  1  3  2 -1</clus>
</clustering>
</event>
<event>
 6    0  0.4340992E+002  0.8933151E+02  0.7546771E-02  0.1304479E+00
          2   -1    0    0  503    0 -0.00000000000E+00  0.00000000000E+00  0.25643361015E+03  0.25643361015E+03  0.00000000000E+00 0. -1.
         21   -1    0    0  505  502  0.00000000000E+00 -0.00000000000E+00 -0.30364278950E+03  0.30364278950E+03  0.00000000000E+00 0. -1.
         21    1    1    2  503  504  0.34208455980E+02 -0.37682959480E+02  0.44639950389E+02  0.67697481981E+02  0.00000000000E+00 0. -1.
         21    1    1    2  504  502 -0.98988767955E+02 -0.29356411342E+02 -0.24317072327E+03  0.26418284525E+03  0.00000000000E+00 0. -1.
         21    1    1    2  505  501  0.30810943444E+02  0.58670661820E+02 -0.64594497720E+01  0.66582920375E+02  0.00000000000E+00 0. -1.
          2    1    1    2  501    0  0.33969368531E+02  0.83687090016E+01  0.15778104330E+03  0.16161315204E+03  0.00000000000E+00 0. -1.
<scales pt_clust_3="63.13552" pt_clust_4="89.33151" pt_clust_5="14000.00000" pt_clust_6="34.98504"></scales>
<clustering>
<clus scale="   34.985">  1  6  2 -1</clus>
<clus scale="   63.136">  1  3  2 -1</clus>
<clus scale="   89.332">  2  4  1 -1</clus>
<clus scale="   89.332">  2  3  1 -1</clus>
</clustering>
</event>
<event>
 6    0  0.4340992E+002  0.8291740E+02  0.7546771E-02  0.1320970E+00
         21   -1    0    0  504  502  0.00000000000E+00  0.00000000000E+00  0.13579649022E+04  0.13579649022E+04  0.00000000000E+00 0.  1.
          2   -1    0    0  505    0 -0.00000000000E+00 -0.00000000000E+00 -0.38410378979E+03  0.38410378979E+03  0.00000000000E+00 0.  1.
         21    1    1    2  503  502  0.18955369716E+02  0.37476611664E+02  0.90543554314E+03  0.90640902756E+03  0.00000000000E+00 0.  1.
         21    1    1    2  504  501 -0.45570053902E+02 -0.11341521456E+03  0.42516114331E+03  0.44238177911E+03  0.00000000000E+00 0.  1.
         21    1    1    2  505  503  0.11896725088E+02 -0.35352451714E+02 -0.18058260052E+03  0.18439469494E+03  0.00000000000E+00 0. -1.
          2    1    1    2  501    0  0.14717959099E+02  0.11129105461E+03 -0.17615297351E+03  0.20888319040E+03  0.00000000000E+00 0.  1.
<scales pt_clust_3="41.93450" pt_clust_4="14000.00000" pt_clust_5="37.30051" pt_clust_6="82.91740"></scales>
<clustering>
<clus scale="   37.301">  2  5  1 -1</clus>
<clus scale="   41.934">  1  3  2 -1</clus>
<clus scale="   82.917">  2  6  1 -1</clus>
<clus scale="   41.934">  1  3  2 -1</clus>
</clustering>
</event>
<event>
 6    0  0.4340992E+002  0.1113246E+03  0.7546771E-02  0.1258136E+00
          2   -1    0    0  503    0 -0.00000000000E+00  0.00000000000E+00  0.89514967126E+03  0.89514967126E+03  0.00000000000E+00 0.  1.
         21   -1    0    0  504  502  0.00000000000E+00 -0.00000000000E+00 -0.15685295774E+04  0.15685295774E+04  0.00000000000E+00 0. -1.
         21    1    1    2  503  502 -0.17734712081E+02 -0.24291733613E+02  0.13930910167E+03  0.14251889048E+03  0.00000000000E+00 0.  1.
         21    1    1    2  504  505 -0.19176795342E+02  0.33313126043E+02 -0.84696306807E+03  0.84783486159E+03  0.00000000000E+00 0. -1.
         21    1    1    2  505  501  0.14889175182E+02 -0.14402558757E+03 -0.70591069705E+03  0.72060736162E+03  0.00000000000E+00 0. -1.
          2    1    1    2  501    0  0.22022332241E+02  0.13500419514E+03  0.74018475729E+03  0.75271813499E+03  0.00000000000E+00 0.  1.
<scales pt_clust_3="30.07671" pt_clust_4="38.43139" pt_clust_5="14000.00000" pt_clust_6="111.32460"></scales>
<clustering>
<clus scale="   30.077">  1  3  2 -1</clus>
<clus scale="   38.431">  2  4  1 -1</clus>
<clus scale="  111.325">  1  6  2 -1</clus>
<clus scale="   38.431">  2  3  1 -1</clus>
</clustering>
</event>
<event>
 6    0  0.4340992E+002  0.2464667E+03  0.7546771E-02  0.1115558E+00
         21   -1    0    0  504  502  0.00000000000E+00  0.00000000000E+00  0.12262341031E+04  0.12262341031E+04  0.00000000000E+00 0.  1.
         -1   -1    0    0    0  501 -0.00000000000E+00 -0.00000000000E+00 -0.33604360694E+03  0.33604360694E+03  0.00000000000E+00 0. -1.
         21    1    1    2  503  502  0.43901723717E+02 -0.49603860740E+02  0.29815064180E+03  0.30542054539E+03  0.00000000000E+00 0.  1.
         21    1    1    2  504  501 -0.27042954479E+03 -0.10811399628E+02  0.85539061024E+03  0.89718566704E+03  0.00000000000E+00 0.  1.
         21    1    1    2  505  503  0.52826152467E+02  0.35717076687E+02 -0.10753870354E+03  0.12502353663E+03  0.00000000000E+00 0. -1.
         -1    1    1    2    0  505  0.17370166861E+03  0.24698183682E+02 -0.15581205232E+03  0.23464796100E+03  0.00000000000E+00 0. -1.
<scales pt_clust_3="66.24126" pt_clust_4="236.00998" pt_clust_5="42.82134" pt_clust_6="42.82134"></scales>
<clustering>
<clus scale="   42.821">  5  6 -1 -1</clus>
<clus scale="   66.241">  1  3  2 -1</clus>
<clus scale="  236.010">  1  4  2 -1</clus>
<clus scale="   66.241">  1  3  2 -1</clus>
</clustering>
</event>
<event>
 6    0  0.4340992E+002  0.1234534E+03  0.7546771E-02  0.1237506E+00
          2   -1    0    0  503    0 -0.00000000000E+00  0.00000000000E+00  0.14388009461E+04  0.14388009461E+04  0.00000000000E+00 0.  1.
         21   -1    0    0  501  502  0.00000000000E+00 -0.00000000000E+00 -0.18168591040E+03  0.18168591040E+03  0.00000000000E+00 0.  1.
         21    1    1    2  503  505 -0.10758367200E+03  0.13423754682E+02  0.29486623647E+03  0.31416642258E+03  0.00000000000E+00 0.  1.
         21    1    1    2  504  502 -0.37519713602E+02 -0.34937534166E+02 -0.10135817466E+03  0.11358626578E+03  0.00000000000E+00 0.  1.
         21    1    1    2  505  504 -0.28654596355E+02 -0.54441297558E+02 -0.39719523836E+02  0.73229647997E+02  0.00000000000E+00 0.  1.
          2    1    1    2  501    0  0.17375798195E+03  0.75955077042E+02  0.11033264977E+04  0.11195045202E+04  0.00000000000E+00 0.  1.
<scales pt_clust_3="108.41791" pt_clust_4="46.81184" pt_clust_5="46.81184" pt_clust_6="112.29909"></scales>
<clustering>
<clus scale="   46.812">  4  5 -1 -1</clus>
<clus scale="  108.418">  1  3  2 -1</clus>
<clus scale="  112.299">  1  6  2 -1</clus>
<clus scale="  123.453">  2  3  1 -1</clus>
</clustering>
</event>
<event>
 6    0  0.4340992E+002  0.1108928E+03  0.7546771E-02  0.1258925E+00
          2   -1    0    0  505    0 -0.00000000000E+00  0.00000000000E+00  0.23841260740E+04  0.23841260740E+04  0.00000000000E+00 0. -1.
         21   -1    0    0  504  502  0.00000000000E+00 -0.00000000000E+00 -0.18198862686E+03  0.18198862686E+03  0.00000000000E+00 0.  1.
         21    1    1    2  503  501 -0.36161679005E+02 -0.50860192630E+02  0.39244989718E+03  0.39738060851E+03  0.00000000000E+00 0. -1.
         21    1    1    2  504  503 -0.66793503862E+02 -0.40778139883E+02  0.54658677515E+01  0.78448101066E+02  0.00000000000E+00 0.  1.
         21    1    1    2  505  502  0.12353593245E+03  0.14433747102E+03 -0.79331552890E+02  0.20588328594E+03  0.00000000000E+00 0.  1.
          2    1    1    2  501    0 -0.20580749578E+02 -0.52699138503E+02  0.18835532351E+04  0.18844027053E+04  0.00000000000E+00 0. -1.
<scales pt_clust_3="110.89277" pt_clust_4="82.08497" pt_clust_5="14000.00000" pt_clust_6="56.57532"></scales>
<clustering>
<clus scale="   56.575">  1  6  2 -1</clus>
<clus scale="   82.085">  2  4  1 -1</clus>
<clus scale="  110.893">  1  3  2 -1</clus>
<clus scale="   82.085">  2  3  1 -1</clus>
</clustering>
</event>
<event>
 6    0  0.4340992E+002  0.1186527E+03  0.7546771E-02  0.1245336E+00
          3   -1    0    0  504    0 -0.00000000000E+00  0.00000000000E+00  0.10674102315E+04  0.10674102315E+04  0.00000000000E+00 0. -1.
         21   -1    0    0  505  502  0.00000000000E+00 -0.00000000000E+00 -0.29410654157E+03  0.29410654157E+03  0.00000000000E+00 0. -1.
         21    1    1    2  503  501 -0.85328863568E+01 -0.90924065563E+02 -0.27013198747E+02  0.95235018532E+02  0.00000000000E+00 0.  1.
         21    1    1    2  504  502  0.40886474721E+02 -0.28310807573E+02  0.17491592757E+03  0.18184825365E+03  0.00000000000E+00 0.  1.
         21    1    1    2  505  503 -0.42133099031E+02 -0.20464978300E+02 -0.22131356311E+03  0.22621606174E+03  0.00000000000E+00 0. -1.
          3    1    1    2  501    0  0.97795106667E+01  0.13969985144E+03  0.84671452421E+03  0.85821743913E+03  0.00000000000E+00 0. -1.
<scales pt_clust_3="118.65272" pt_clust_4="48.64010" pt_clust_5="46.84030" pt_clust_6="14000.00000"></scales>
<clustering>
<clus scale="   46.840">  2  5  1 -1</clus>
<clus scale="   48.640">  1  4  2 -1</clus>
<clus scale="  118.653">  2  3  1 -1</clus>
<clus scale="   46.840">  2  3  1 -1</clus>
</clustering>
</event>
<event>
 6    0  0.4340992E+002  0.1453933E+03  0.7546771E-02  0.1206251E+00
         -2   -1    0    0    0  501 -0.00000000000E+00  0.00000000000E+00  0.57400090525E+03  0.57400090525E+03  0.00000000000E+00 0.  1.
         21   -1    0    0  505  502  0.00000000000E+00 -0.00000000000E+00 -0.87476658730E+03  0.87476658730E+03  0.00000000000E+00 0.  1.
         21    1    1    2  503  502 -0.13423624626E+03 -0.68316525083E+02 -0.69446752174E+03  0.71061357724E+03  0.00000000000E+00 0.  1.
         21    1    1    2  504  503  0.14232898212E+03 -0.15103029633E+02 -0.12319718264E+03  0.18884699221E+03  0.00000000000E+00 0.  1.
         21    1    1    2  505  501 -0.54440825237E+01 -0.35071714176E+02  0.25207533327E+02  0.43532549962E+02  0.00000000000E+00 0.  1.
         -2    1    1    2    0  504 -0.26486533443E+01  0.11849126889E+03  0.49169148900E+03  0.50577437314E+03  0.00000000000E+00 0.  1.
<scales pt_clust_3="145.39331" pt_clust_4="14000.00000" pt_clust_5="35.49173" pt_clust_6="86.41954"></scales>
<clustering>
<clus scale="   35.492">  1  5  2 -1</clus>
<clus scale="   86.420">  1  6  2 -1</clus>
<clus scale="  145.393">  2  3  1 -1</clus>
<clus scale="  145.393">  2  3  1 -1</clus>
</clustering>
</event>
<event>
 6    0  0.4340992E+002  0.8823125E+02  0.7546771E-02  0.1307192E+00
         -1   -1    0    0    0  501 -0.00000000000E+00  0.00000000000E+00  0.82004849371E+02  0.82004849371E+02  0.00000000000E+00 0.  1.
         21   -1    0    0  505  502  0.00000000000E+00 -0.00000000000E+00 -0.30229012073E+03  0.30229012073E+03  0.00000000000E+00 0.  1.
         21    1    1    2  503  501  0.70366118128E+02 -0.68433781491E+02 -0.14936980466E+03  0.17873419251E+03  0.00000000000E+00 0.  1.
         21    1    1    2  504  502 -0.15633314691E+02 -0.35918365648E+02 -0.49354206171E+02  0.63010849747E+02  0.00000000000E+00 0.  1.
         21    1    1    2  505  503 -0.30531086570E+02  0.19351675327E+02 -0.38229591041E+02  0.52613080277E+02  0.00000000000E+00 0.  1.
         -1    1    1    2    0  504 -0.24201716867E+02  0.85000471812E+02  0.16668330511E+02  0.89936847563E+02  0.00000000000E+00 0.  1.
<scales pt_clust_3="14000.00000" pt_clust_4="38.75270" pt_clust_5="36.14740" pt_clust_6="88.23125"></scales>
<clustering>
<clus scale="   36.147">  2  5  1 -1</clus>
<clus scale="   38.753">  2  4  1 -1</clus>
<clus scale="   88.231">  1  6  2 -1</clus>
<clus scale="   36.147">  2  3  1 -1</clus>
</clustering>
</event>
<event>
 6    0  0.4340992E+002  0.7056743E+02  0.7546771E-02  0.1358174E+00
          2   -1    0    0  505    0 -0.00000000000E+00  0.00000000000E+00  0.71042732791E+03  0.71042732791E+03  0.00000000000E+00 0.  1.
         21   -1    0    0  504  502  0.00000000000E+00 -0.00000000000E+00 -0.89077263679E+03  0.89077263679E+03  0.00000000000E+00 0. -1.
         21    1    1    2  503  502 -0.53972870684E+01  0.50538542477E+02 -0.35621745518E+03  0.35982516637E+03  0.00000000000E+00 0. -1.
         21    1    1    2  504  501 -0.64963696799E+02 -0.44986566852E+02 -0.52339228612E+03  0.52932368006E+03  0.00000000000E+00 0. -1.
         21    1    1    2  505  503 -0.90397481485E+01  0.32108497711E+02  0.81417041522E+02  0.87985267642E+02  0.00000000000E+00 0.  1.
          2    1    1    2  501    0  0.79400732016E+02 -0.37660473337E+02  0.61784739089E+03  0.62406585063E+03  0.00000000000E+00 0.  1.
<scales pt_clust_3="50.92074" pt_clust_4="14000.00000" pt_clust_5="33.35675" pt_clust_6="70.56743"></scales>
<clustering>
<clus scale="   33.357">  1  5  2 -1</clus>
<clus scale="   50.921">  2  3  1 -1</clus>
<clus scale="   70.567">  1  6  2 -1</clus>
<clus scale="   50.921">  2  3  1 -1</clus>
</clustering>
</event>
<event>
 6    0  0.4340992E+002  0.9880021E+02  0.7546771E-02  0.1282839E+00
         21   -1    0    0  504  502  0.00000000000E+00  0.00000000000E+00  0.89055228277E+03  0.89055228277E+03  0.00000000000E+00 0. -1.
          2   -1    0    0  503    0 -0.00000000000E+00 -0.00000000000E+00 -0.10849251440E+04  0.10849251440E+04  0.00000000000E+00 0. -1.
         21    1    1    2  503  505  0.89603776112E+00  0.45192022640E+02 -0.27445224246E+03  0.27814951947E+03  0.00000000000E+00 0. -1.
         21    1    1    2  504  501 -0.91453357802E+02  0.37085127882E+02  0.86170398694E+03  0.86733660390E+03  0.00000000000E+00 0. -1.
         21    1    1    2  505  502 -0.37110027550E+02 -0.53852038660E+02 -0.39444453155E+02  0.76374479359E+02  0.00000000000E+00 0. -1.
          2    1    1    2  501    0  0.12766734759E+03 -0.28425111862E+02 -0.74218015251E+03  0.75361682399E+03  0.00000000000E+00 0. -1.
<scales pt_clust_3="45.20090" pt_clust_4="98.80021" pt_clust_5="62.72429" pt_clust_6="14000.00000"></scales>
<clustering>
<clus scale="   45.201">  2  3  1 -1</clus>
<clus scale="   62.724">  2  5  1 -1</clus>
<clus scale="   98.800">  1  4  2 -1</clus>
<clus scale="   98.800">  1  3  2 -1</clus>
</clustering>
</event>
<event>
 6    0  0.4340992E+002  0.8590812E+02  0.7546771E-02  0.1313075E+00
         21   -1    0    0  505  502  0.00000000000E+00  0.00000000000E+00  0.59598302824E+02  0.59598302824E+02  0.00000000000E+00 0. -1.
          2   -1    0    0  503    0 -0.00000000000E+00 -0.00000000000E+00 -0.11400399060E+04  0.11400399060E+04  0.00000000000E+00 0. -1.
         21    1    1    2  503  504 -0.24700709999E+02  0.66926125112E+02 -0.49596207195E+03  0.50106647075E+03  0.00000000000E+00 0. -1.
         21    1    1    2  504  502 -0.49559613095E+02 -0.49042499700E+01 -0.39630084538E+02  0.63645506663E+02  0.00000000000E+00 0.  1.
         21    1    1    2  505  501 -0.11636381154E+02  0.44498469895E+02  0.22574214079E+02  0.51235869571E+02  0.00000000000E+00 0. -1.
          2    1    1    2  501    0  0.85896704249E+02 -0.10652034504E+03 -0.56742366082E+03  0.58369036189E+03  0.00000000000E+00 0. -1.
<scales pt_clust_3="85.90812" pt_clust_4="58.75251" pt_clust_5="45.99477" pt_clust_6="14000.00000"></scales>
<clustering>
<clus scale="   45.995">  1  5  2 -1</clus>
<clus scale="   58.753">  1  4  2 -1</clus>
<clus scale="   85.908">  2  3  1 -1</clus>
<clus scale="   45.995">  1  3  2 -1</clus>
</clustering>
</event>
<event>
 6    0  0.4340992E+002  0.1111287E+03  0.7546771E-02  0.1258494E+00
         21   -1    0    0  503  502  0.00000000000E+00  0.00000000000E+00  0.62060224505E+03  0.62060224505E+03  0.00000000000E+00 0. -1.
          4   -1    0    0  505    0 -0.00000000000E+00 -0.00000000000E+00 -0.15585524280E+03  0.15585524280E+03  0.00000000000E+00 0. -1.
         21    1    1    2  503  501  0.67195148058E+02 -0.85444774307E+02  0.37380948296E+03  0.38929362560E+03  0.00000000000E+00 0. -1.
         21    1    1    2  504  502 -0.86780377765E+02  0.81175571530E+02  0.14346306254E+03  0.18628461475E+03  0.00000000000E+00 0.  1.
         21    1    1    2  505  504 -0.58387913518E+02  0.51298639730E+02 -0.74007975776E+02  0.10732138352E+03  0.00000000000E+00 0. -1.
          4    1    1    2  501    0  0.77973143225E+02 -0.47029436954E+02  0.21482432527E+02  0.93557863976E+02  0.00000000000E+00 0. -1.
<scales pt_clust_3="111.12866" pt_clust_4="14000.00000" pt_clust_5="77.72193" pt_clust_6="49.36332"></scales>
<clustering>
<clus scale="   77.722">  2  5  1 -1</clus>
<clus scale="   49.363">  2  6  1 -1</clus>
<clus scale="  111.129">  1  3  2 -1</clus>
<clus scale="  111.129">  1  3  2 -1</clus>
</clustering>
</event>
<event>
 6    0  0.4340992E+002  0.9347296E+02  0.7546771E-02  0.1294653E+00
         -4   -1    0    0    0  501 -0.00000000000E+00  0.00000000000E+00  0.26389187416E+04  0.26389187416E+04  0.00000000000E+00 0. -1.
         21   -1    0    0  505  502  0.00000000000E+00 -0.00000000000E+00 -0.43060458820E+02  0.43060458820E+02  0.00000000000E+00 0. -1.
         21    1    1    2  503  502  0.40876398271E+02  0.68697812520E+02  0.22982042527E+03  0.24332631845E+03  0.00000000000E+00 0. -1.
         21    1    1    2  504  501  0.54772115395E+02 -0.56563360408E+02  0.22052108439E+03  0.23415581783E+03  0.00000000000E+00 0. -1.
         21    1    1    2  505  504 -0.26780072566E+01 -0.40625845905E+02 -0.13802112940E+02  0.42989875552E+02  0.00000000000E+00 0. -1.
         -4    1    1    2    0  503 -0.92970506409E+02  0.28491393794E+02  0.21593188860E+04  0.21615071886E+04  0.00000000000E+00 0. -1.
<scales pt_clust_3="63.80089" pt_clust_4="14000.00000" pt_clust_5="40.71402" pt_clust_6="93.47296"></scales>
<clustering>
<clus scale="   40.714">  2  5  1 -1</clus>
<clus scale="   63.801">  2  3  1 -1</clus>
<clus scale="   93.473">  1  6  2 -1</clus>
<clus scale="   40.714">  2  3  1 -1</clus>
</clustering>
</event>
<event>
 6    0  0.4340992E+002  0.1525125E+03  0.7546771E-02  0.1197419E+00
         21   -1    0    0  503  502  0.00000000000E+00  0.00000000000E+00  0.51795002985E+03  0.51795002985E+03  0.00000000000E+00 0.  1.
          2   -1    0    0  504    0 -0.00000000000E+00 -0.00000000000E+00 -0.20212907111E+04  0.20212907111E+04  0.00000000000E+00 0. -1.
         21    1    1    2  503  505  0.14393994679E+03 -0.19520396860E+02  0.39746906650E+03  0.42318011887E+03  0.00000000000E+00 0.  1.
         21    1    1    2  504  502 -0.56635790789E+01  0.32791432460E+02  0.10208350667E+03  0.10737037070E+03  0.00000000000E+00 0.  1.
         21    1    1    2  505  501 -0.28794912949E+02 -0.29692103794E+02 -0.61437374487E+03  0.61576445693E+03  0.00000000000E+00 0. -1.
          2    1    1    2  501    0 -0.10948145477E+03  0.16421068194E+02 -0.13885195096E+04  0.13929257945E+04  0.00000000000E+00 0. -1.
<scales pt_clust_3="138.92952" pt_clust_4="33.27693" pt_clust_5="38.43293" pt_clust_6="38.43293"></scales>
<clustering>
<clus scale="   33.277">  1  4  2 -1</clus>
<clus scale="   38.433">  5  6 -1 -1</clus>
<clus scale="  138.930">  1  3  2 -1</clus>
<clus scale="   33.277">  1  3  2 -1</clus>
</clustering>
</event>
<event>
 6    0  0.4340992E+002  0.1227213E+03  0.7546771E-02  0.1238674E+00
         21   -1    0    0  501  502  0.00000000000E+00  0.00000000000E+00  0.83399143083E+03  0.83399143083E+03  0.00000000000E+00 0.  1.
          3   -1    0    0  504    0 -0.00000000000E+00 -0.00000000000E+00 -0.32337448278E+03  0.32337448278E+03  0.00000000000E+00 0. -1.
         21    1    1    2  503  505  0.44872251677E+02  0.65439527138E+02  0.24662958237E+03  0.25907914154E+03  0.00000000000E+00 0.  1.
         21    1    1    2  504  503  0.38377095492E+02  0.89282600723E+01 -0.14906792048E+02  0.42127517557E+02  0.00000000000E+00 0.  1.
         21    1    1    2  505  502 -0.85836108603E+01  0.56561134000E+02  0.54625386175E+03  0.54924140570E+03  0.00000000000E+00 0.  1.
          3    1    1    2  501    0 -0.74665736308E+02 -0.13092892121E+03 -0.26735970402E+03  0.30691784882E+03  0.00000000000E+00 0. -1.
<scales pt_clust_3="122.72133" pt_clust_4="39.40197" pt_clust_5="57.22464" pt_clust_6="14000.00000"></scales>
<clustering>
<clus scale="   39.402">  2  4  1 -1</clus>
<clus scale="   57.225">  1  5  2 -1</clus>
<clus scale="  122.721">  1  3  2 -1</clus>
<clus scale="   57.225">  1  3  2 -1</clus>
</clustering>
</event>
<event>
 6    0  0.4340992E+002  0.1117297E+03  0.7546771E-02  0.1257400E+00
          2   -1    0    0  505    0 -0.00000000000E+00  0.00000000000E+00  0.15357384966E+04  0.15357384966E+04  0.00000000000E+00 0.  1.
         21   -1    0    0  503  502  0.00000000000E+00 -0.00000000000E+00 -0.41961371190E+02  0.41961371190E+02  0.00000000000E+00 0.  1.
         21    1    1    2  503  501 -0.30240526830E+01 -0.44706872446E+02 -0.41850776955E+01  0.45004046639E+02  0.00000000000E+00 0.  1.
         21    1    1    2  504  502  0.92069064777E+02 -0.33660329845E+02  0.18327714498E+03  0.20784667995E+03  0.00000000000E+00 0.  1.
         21    1    1    2  505  504 -0.18895693901E+02 -0.24700912003E+02  0.13215756565E+03  0.13576746466E+03  0.00000000000E+00 0.  1.
          2    1    1    2  501    0 -0.70149318193E+02  0.10306811429E+03  0.11825274925E+04  0.11890816766E+04  0.00000000000E+00 0.  1.
<scales pt_clust_3="45.18711" pt_clust_4="111.72970" pt_clust_5="31.09955" pt_clust_6="14000.00000"></scales>
<clustering>
<clus scale="   31.100">  1  5  2 -1</clus>
<clus scale="   45.187">  2  3  1 -1</clus>
<clus scale="  111.730">  2  4  1 -1</clus>
<clus scale="   45.187">  2  3  1 -1</clus>
</clustering>
</event>
<event>
 6    0  0.4340992E+002  0.9328726E+02  0.7546771E-02  0.1295081E+00
          2   -1    0    0  505    0 -0.00000000000E+00  0.00000000000E+00  0.24796187052E+04  0.24796187052E+04  0.00000000000E+00 0.  1.
         21   -1    0    0  504  502  0.00000000000E+00 -0.00000000000E+00 -0.42634860808E+03  0.42634860808E+03  0.00000000000E+00 0. -1.
         21    1    1    2  503  501 -0.26502228963E+01 -0.59235172511E+02 -0.25184651624E+03  0.25873248170E+03  0.00000000000E+00 0. -1.
         21    1    1    2  504  503 -0.22345799909E+02  0.29857227419E+02 -0.15969574817E+03  0.16399244125E+03  0.00000000000E+00 0.  1.
         21    1    1    2  505  502 -0.15299827634E+02 -0.59205592626E+02  0.10562961902E+03  0.12205328074E+03  0.00000000000E+00 0. -1.
          2    1    1    2  501    0  0.40295850439E+02  0.88583537718E+02  0.23591827425E+04  0.23611891096E+04  0.00000000000E+00 0.  1.
<scales pt_clust_3="38.88125" pt_clust_4="37.29328" pt_clust_5="93.28726" pt_clust_6="14000.00000"></scales>
<clustering>
<clus scale="   37.293">  2  4  1 -1</clus>
<clus scale="   38.881">  2  3  1 -1</clus>
<clus scale="   93.287">  2  5  1 -1</clus>
<clus scale="   37.293">  2  3  1 -1</clus>
</clustering>
</event>
<event>
 6    0  0.4340992E+002  0.1778309E+03  0.7546771E-02  0.1169919E+00
          2   -1    0    0  505    0 -0.00000000000E+00  0.00000000000E+00  0.20940903143E+04  0.20940903143E+04  0.00000000000E+00 0.  1.
         21   -1    0    0  504  502  0.00000000000E+00 -0.00000000000E+00 -0.15332262420E+03  0.15332262420E+03  0.00000000000E+00 0. -1.
         21    1    1    2  503  502  0.53974244800E+02 -0.18990995113E+03  0.13567422828E+03  0.23955480554E+03  0.00000000000E+00 0. -1.
         21    1    1    2  504  501  0.53916180920E+02  0.40471017970E+02 -0.82475643746E+02  0.10652271904E+03  0.00000000000E+00 0. -1.
         21    1    1    2  505  503 -0.75439084013E+02  0.60801847662E+01  0.85727345507E+03  0.86060780894E+03  0.00000000000E+00 0.  1.
          2    1    1    2  501    0 -0.32451341707E+02  0.14335874839E+03  0.10302956505E+04  0.10407276050E+04  0.00000000000E+00 0.  1.
<scales pt_clust_3="14000.00000" pt_clust_4="67.41556" pt_clust_5="74.26350" pt_clust_6="177.83090"></scales>
<clustering>
<clus scale="   67.416">  2  4  1 -1</clus>
<clus scale="   74.263">  1  5  2 -1</clus>
<clus scale="  177.831">  1  6  2 -1</clus>
<clus scale="   67.416">  2  3  1 -1</clus>
</clustering>
</event>
<event>
 6    0  0.4340992E+002  0.1722429E+03  0.7546771E-02  0.1175529E+00
         21   -1    0    0  503  502  0.00000000000E+00  0.00000000000E+00  0.34012305000E+03  0.34012305000E+03  0.00000000000E+00 0.  1.
          2   -1    0    0  504    0 -0.00000000000E+00 -0.00000000000E+00 -0.33129608265E+04  0.33129608265E+04  0.00000000000E+00 0. -1.
         21    1    1    2  503  501 -0.59645880446E+02 -0.71409507916E+02  0.30460358396E+03  0.31849692657E+03  0.00000000000E+00 0.  1.
         21    1    1    2  504  505 -0.32916781847E+02 -0.59420350061E+01 -0.24206573475E+03  0.24436579598E+03  0.00000000000E+00 0.  1.
         21    1    1    2  505  502 -0.10590494635E+03 -0.57850373699E+01 -0.96236394466E+02  0.14321580897E+03  0.00000000000E+00 0.  1.
          2    1    1    2  501    0  0.19846760864E+03  0.83136580292E+02 -0.29391392312E+04  0.29470053450E+04  0.00000000000E+00 0. -1.
<scales pt_clust_3="93.10081" pt_clust_4="33.44880" pt_clust_5="172.24288" pt_clust_6="14000.00000"></scales>
<clustering>
<clus scale="   33.449">  2  4  1 -1</clus>
<clus scale="   93.101">  1  3  2 -1</clus>
<clus scale="  172.243">  1  5  2 -1</clus>
<clus scale="   93.101">  1  3  2 -1</clus>
</clustering>
</event>
<event>
 6    0  0.7502738E+002  0.1465588E+03  0.7546771E-02  0.1204766E+00
          1   -1    0    0  505    0 -0.00000000000E+00  0.00000000000E+00  0.15601795849E+04  0.15601795849E+04  0.00000000000E+00 0. -1.
         21   -1    0    0  501  502  0.00000000000E+00 -0.00000000000E+00 -0.15456998607E+04  0.15456998607E+04  0.00000000000E+00 0. -1.
         21    1    1    2  503  504  0.28555604389E+01 -0.12356142172E+03 -0.19078994477E+02  0.12505833516E+03  0.00000000000E+00 0.  1.
         21    1    1    2  504  502  0.61979367634E+02 -0.16762122747E+02 -0.14556457045E+04  0.14570610240E+04  0.00000000000E+00 0. -1.
         21    1    1    2  505  503 -0.39706331363E+02 -0.18917203734E+01  0.14982273434E+02  0.42481053112E+02  0.00000000000E+00 0.  1.
          1    1    1    2  501    0 -0.25128596711E+02  0.14221526484E+03  0.14742221497E+04  0.14812790333E+04  0.00000000000E+00 0. -1.
<scales pt_clust_3="14000.00000" pt_clust_4="64.18852" pt_clust_5="39.75137" pt_clust_6="146.55882"></scales>
<clustering>
<clus scale="   39.751">  1  5  2 -1</clus>
<clus scale="   64.189">  2  4  1 -1</clus>
<clus scale="  146.559">  1  6  2 -1</clus>
<clus scale="   64.189">  2  3  1 -1</clus>
</clustering>
</event>
<event>
 6    0  0.4340992E+002  0.6638711E+02  0.7546771E-02  0.1372828E+00
          2   -1    0    0  504    0 -0.00000000000E+00  0.00000000000E+00  0.19770084932E+03  0.19770084932E+03  0.00000000000E+00 0.  1.
         21   -1    0    0  505  502  0.00000000000E+00 -0.00000000000E+00 -0.35408114427E+03  0.35408114427E+03  0.00000000000E+00 0. -1.
         21    1    1    2  503  502  0.44296145794E+02  0.49212394890E+01 -0.99426382314E+02  0.10895858218E+03  0.00000000000E+00 0. -1.
         21    1    1    2  504  503 -0.40650303265E+02 -0.19542066639E+02  0.60560069171E+02  0.75510671445E+02  0.00000000000E+00 0.  1.
         21    1    1    2  505  501 -0.64300397721E+02  0.57851175825E+02 -0.22242443933E+03  0.23865022712E+03  0.00000000000E+00 0. -1.
          2    1    1    2  501    0  0.60654555192E+02 -0.43230348676E+02  0.10491045753E+03  0.12866251285E+03  0.00000000000E+00 0.  1.
<scales pt_clust_3="44.56868" pt_clust_4="43.84783" pt_clust_5="66.38711" pt_clust_6="14000.00000"></scales>
<clustering>
<clus scale="   44.569">  2  3  1 -1</clus>
<clus scale="   43.848">  1  4  2 -1</clus>
<clus scale="   66.387">  2  5  1 -1</clus>
<clus scale="   44.569">  2  3  1 -1</clus>
</clustering>
</event>
<event>
 6    0  0.4340992E+002  0.2994482E+03  0.7546771E-02  0.1085517E+00
         21   -1    0    0  505  502  0.00000000000E+00  0.00000000000E+00  0.17836065600E+03  0.17836065600E+03  0.00000000000E+00 0.  1.
          1   -1    0    0  503    0 -0.00000000000E+00 -0.00000000000E+00 -0.12722431225E+04  0.12722431225E+04  0.00000000000E+00 0. -1.
         21    1    1    2  503  502  0.14664368050E+03 -0.83174244067E+02 -0.46599750488E+03  0.49555625156E+03  0.00000000000E+00 0.  1.
         21    1    1    2  504  501 -0.25768284322E+03 -0.23341432699E+02  0.23115522057E+01  0.25874816606E+03  0.00000000000E+00 0.  1.
         21    1    1    2  505  504 -0.42016900272E+02 -0.38106978554E+02 -0.39312057837E+02  0.69014488438E+02  0.00000000000E+00 0. -1.
          1    1    1    2  501    0  0.15305606299E+03  0.14462265532E+03 -0.59088445596E+03  0.62728487240E+03  0.00000000000E+00 0. -1.
<scales pt_clust_3="168.58922" pt_clust_4="52.27227" pt_clust_5="52.27227" pt_clust_6="277.85920"></scales>
<clustering>
<clus scale="   52.272">  4  5 -1 -1</clus>
<clus scale="  168.589">  2  3  1 -1</clus>
<clus scale="  277.859">  2  6  1 -1</clus>
<clus scale="  299.448">  1  3  2 -1</clus>
</clustering>
</event>
<event>
 6    0  0.4340992E+002  0.7725309E+02  0.7546771E-02  0.1337033E+00
          4   -1    0    0  503    0 -0.00000000000E+00  0.00000000000E+00  0.14581151152E+04  0.14581151152E+04  0.00000000000E+00 0.  1.
         21   -1    0    0  504  502  0.00000000000E+00 -0.00000000000E+00 -0.54823471933E+02  0.54823471933E+02  0.00000000000E+00 0. -1.
         21    1    1    2  503  502  0.15193829513E+02 -0.59357507918E+02  0.12130530979E+03  0.13590123026E+03  0.00000000000E+00 0.  1.
         21    1    1    2  504  505 -0.50579492435E+02 -0.41775131878E+02  0.20425429138E+02  0.68706949094E+02  0.00000000000E+00 0. -1.
         21    1    1    2  505  501  0.70737274467E+02  0.30639593898E+02  0.45091025100E+02  0.89307039240E+02  0.00000000000E+00 0. -1.
          4    1    1    2  501    0 -0.35351611545E+02  0.70493045898E+02  0.12164698792E+04  0.12190233685E+04  0.00000000000E+00 0.  1.
<scales pt_clust_3="61.27125" pt_clust_4="14000.00000" pt_clust_5="70.96474" pt_clust_6="77.25309"></scales>
<clustering>
<clus scale="   61.271">  2  3  1 -1</clus>
<clus scale="   77.253">  1  6  2 -1</clus>
<clus scale="   70.965">  1  5  2 -1</clus>
<clus scale="   61.271">  2  3  1 -1</clus>
</clustering>
</event>
<event>
 6    0  0.4340992E+002  0.6151583E+02  0.7546771E-02  0.1391578E+00
          2   -1    0    0  505    0 -0.00000000000E+00  0.00000000000E+00  0.13187510327E+04  0.13187510327E+04  0.00000000000E+00 0. -1.
         21   -1    0    0  504  502  0.00000000000E+00 -0.00000000000E+00 -0.37694512873E+03  0.37694512873E+03  0.00000000000E+00 0.  1.
         21    1    1    2  503  502 -0.77415387089E+02  0.64201018787E+02 -0.17426660856E+02  0.10207155079E+03  0.00000000000E+00 0.  1.
         21    1    1    2  504  501  0.27009239955E+02 -0.52902600854E+02 -0.30891565776E+03  0.31457442336E+03  0.00000000000E+00 0.  1.
         21    1    1    2  505  503 -0.48124313589E+02 -0.12063675569E+02  0.18866743332E+03  0.19508173216E+03  0.00000000000E+00 0.  1.
          2    1    1    2  501    0  0.98530460723E+02  0.76525763606E+00  0.10794807893E+04  0.10839684551E+04  0.00000000000E+00 0. -1.
<scales pt_clust_3="14000.00000" pt_clust_4="61.51583" pt_clust_5="49.61332" pt_clust_6="53.44020"></scales>
<clustering>
<clus scale="   49.613">  1  5  2 -1</clus>
<clus scale="   53.440">  1  6  2 -1</clus>
<clus scale="   61.516">  2  4  1 -1</clus>
<clus scale="   61.516">  2  3  1 -1</clus>
</clustering>
</event>
<event>
 6    0  0.4340992E+002  0.8841976E+02  0.7546771E-02  0.1306724E+00
          1   -1    0    0  503    0 -0.00000000000E+00  0.00000000000E+00  0.14289919173E+04  0.14289919173E+04  0.00000000000E+00 0. -1.
         21   -1    0    0  505  502  0.00000000000E+00 -0.00000000000E+00 -0.27392542011E+02  0.27392542011E+02  0.00000000000E+00 0.  1.
         21    1    1    2  503  502 -0.87804511740E+02 -0.52099832318E+02  0.97712531922E+02  0.14132149060E+03  0.00000000000E+00 0.  1.
         21    1    1    2  504  501  0.38346240806E+02 -0.30935322927E+02  0.41065399470E+03  0.41359899873E+03  0.00000000000E+00 0.  1.
         21    1    1    2  505  504  0.17434044812E+02  0.65089173774E+02  0.31799407487E+03  0.32505503859E+03  0.00000000000E+00 0. -1.
          1    1    1    2  501    0  0.32024226121E+02  0.17945981471E+02  0.57523877380E+03  0.57640893139E+03  0.00000000000E+00 0. -1.
<scales pt_clust_3="88.41976" pt_clust_4="58.24021" pt_clust_5="14000.00000" pt_clust_6="36.70980"></scales>
<clustering>
<clus scale="   36.710">  1  6  2 -1</clus>
<clus scale="   58.240">  1  4  2 -1</clus>
<clus scale="   88.420">  2  3  1 -1</clus>
<clus scale="   88.420">  2  3  1 -1</clus>
</clustering>
</event>
<event>
 6    0  0.4340992E+002  0.1304543E+03  0.7546771E-02  0.1226783E+00
          1   -1    0    0  504    0 -0.00000000000E+00  0.00000000000E+00  0.20458434294E+04  0.20458434294E+04  0.00000000000E+00 0.  1.
         21   -1    0    0  503  502  0.00000000000E+00 -0.00000000000E+00 -0.21732245809E+03  0.21732245809E+03  0.00000000000E+00 0.  1.
         21    1    1    2  503  505 -0.16030251008E+01 -0.11809426699E+03 -0.18182061132E+03  0.21681226969E+03  0.00000000000E+00 0.  1.
         21    1    1    2  504  502  0.84459589690E+02  0.22918546326E+02  0.10572155679E+03  0.13724332270E+03  0.00000000000E+00 0.  1.
         21    1    1    2  505  501 -0.51649773151E+02  0.41831930547E+02  0.79655246078E+03  0.79932060667E+03  0.00000000000E+00 0.  1.
          1    1    1    2  501    0 -0.31206791438E+02  0.53343790118E+02  0.11080675650E+04  0.11097896884E+04  0.00000000000E+00 0.  1.
<scales pt_clust_3="125.76674" pt_clust_4="87.51390" pt_clust_5="33.41818" pt_clust_6="33.41818"></scales>
<clustering>
<clus scale="   33.418">  5  6 -1 -1</clus>
<clus scale="   87.514">  2  4  1 -1</clus>
<clus scale="  125.767">  2  3  1 -1</clus>
<clus scale="   87.514">  2  3  1 -1</clus>
</clustering>
</event>
<event>
 6    0  0.4340992E+002  0.1112072E+03  0.7546771E-02  0.1258351E+00
          3   -1    0    0  504    0 -0.00000000000E+00  0.00000000000E+00  0.44879512003E+03  0.44879512003E+03  0.00000000000E+00 0.  1.
         21   -1    0    0  501  502  0.00000000000E+00 -0.00000000000E+00 -0.70799917683E+03  0.70799917683E+03  0.00000000000E+00 0. -1.
         21    1    1    2  503  505 -0.45033161858E+02  0.48490685765E+02 -0.36792778388E+03  0.37383176219E+03  0.00000000000E+00 0. -1.
         21    1    1    2  504  503  0.67175631102E+02  0.38800012057E+02 -0.20012879629E+02  0.80115676996E+02  0.00000000000E+00 0.  1.
         21    1    1    2  505  502  0.62580212375E+02 -0.64190298129E+01 -0.27518639563E+03  0.28228538620E+03  0.00000000000E+00 0.  1.
          3    1    1    2  501    0 -0.84722681619E+02 -0.80871668009E+02  0.40392300233E+03  0.42056147147E+03  0.00000000000E+00 0.  1.
<scales pt_clust_3="43.88496" pt_clust_4="111.20721" pt_clust_5="62.90856" pt_clust_6="14000.00000"></scales>
<clustering>
<clus scale="   62.909">  2  5  1 -1</clus>
<clus scale="   43.885">  2  3  1 -1</clus>
<clus scale="  111.207">  2  4  1 -1</clus>
<clus scale="   62.909">  2  3  1 -1</clus>
</clustering>
</event>
<event>
 6    0  0.4340992E+002  0.1529403E+03  0.7546771E-02  0.1196906E+00
         21   -1    0    0  503  502  0.00000000000E+00  0.00000000000E+00  0.12035916440E+03  0.12035916440E+03  0.00000000000E+00 0.  1.
          2   -1    0    0  504    0 -0.00000000000E+00 -0.00000000000E+00 -0.14507175894E+04  0.14507175894E+04  0.00000000000E+00 0.  1.
         21    1    1    2  503  505 -0.34831729962E+02  0.32322757889E+02  0.41892201706E+02  0.63347980658E+02  0.00000000000E+00 0.  1.
         21    1    1    2  504  502 -0.22205625542E+02 -0.39743166813E+02 -0.12011160887E+03  0.12845002024E+03  0.00000000000E+00 0. -1.
         21    1    1    2  505  501 -0.88405666084E+02  0.45131704111E+02  0.17491183877E+02  0.10078875942E+03  0.00000000000E+00 0.  1.
          2    1    1    2  501    0  0.14544302159E+03 -0.37711295187E+02 -0.12696302017E+04  0.12784899934E+04  0.00000000000E+00 0.  1.
<scales pt_clust_3="32.65780" pt_clust_4="45.52592" pt_clust_5="32.65780" pt_clust_6="145.47472"></scales>
<clustering>
<clus scale="   32.658">  3  5 -1 -1</clus>
<clus scale="   45.526">  2  4  1 -1</clus>
<clus scale="  145.475">  2  6  1 -1</clus>
<clus scale="  152.940">  1  3  2 -1</clus>
</clustering>
</event>
<event>
 6    0  0.4340992E+002  0.1207520E+03  0.7546771E-02  0.1241862E+00
         21   -1    0    0  505  502  0.00000000000E+00  0.00000000000E+00  0.25104130774E+03  0.25104130774E+03  0.00000000000E+00 0. -1.
         -3   -1    0    0    0  501 -0.00000000000E+00 -0.00000000000E+00 -0.46164055705E+03  0.46164055705E+03  0.00000000000E+00 0. -1.
         21    1    1    2  503  502  0.97980885867E+01 -0.34295884868E+02 -0.97703593917E+00  0.35681435762E+02  0.00000000000E+00 0. -1.
         21    1    1    2  504  503  0.10243663597E+02 -0.69441789246E+02  0.16036402102E+03  0.17505346034E+03  0.00000000000E+00 0. -1.
         21    1    1    2  505  501  0.67790853678E+02  0.15773013778E+02  0.35288739665E+02  0.78036420684E+02  0.00000000000E+00 0.  1.
         -3    1    1    2    0  504 -0.87832605862E+02  0.87964660335E+02 -0.40527497405E+03  0.42391054801E+03  0.00000000000E+00 0. -1.
<scales pt_clust_3="35.66806" pt_clust_4="120.75205" pt_clust_5="70.56176" pt_clust_6="14000.00000"></scales>
<clustering>
<clus scale="   35.668">  1  3  2 -1</clus>
<clus scale="   70.562">  1  5  2 -1</clus>
<clus scale="  120.752">  1  4  2 -1</clus>
<clus scale="   35.668">  1  3  2 -1</clus>
</clustering>
</event>
<event>
 6    0  0.4340992E+002  0.7126618E+02  0.7546771E-02  0.1355840E+00
         21   -1    0    0  505  502  0.00000000000E+00  0.00000000000E+00  0.69787099456E+02  0.69787099456E+02  0.00000000000E+00 0.  1.
          2   -1    0    0  503    0 -0.00000000000E+00 -0.00000000000E+00 -0.19477780222E+04  0.19477780222E+04  0.00000000000E+00 0.  1.
         21    1    1    2  503  504 -0.37185329350E+02 -0.45352707484E+02 -0.16055525032E+02  0.60806222371E+02  0.00000000000E+00 0.  1.
         21    1    1    2  504  502  0.11332323483E+02  0.31833936382E+02  0.35239720109E+02  0.48822729691E+02  0.00000000000E+00 0.  1.
         21    1    1    2  505  501  0.80258055468E+02  0.52562249727E+02 -0.49784846838E+03  0.50700812916E+03  0.00000000000E+00 0.  1.
          2    1    1    2  501    0 -0.54405049600E+02 -0.39043478625E+02 -0.13993266494E+04  0.14009280404E+04  0.00000000000E+00 0.  1.
<scales pt_clust_3="34.27070" pt_clust_4="33.79084" pt_clust_5="71.26618" pt_clust_6="14000.00000"></scales>
<clustering>
<clus scale="   33.791">  1  4  2 -1</clus>
<clus scale="   34.271">  1  3  2 -1</clus>
<clus scale="   71.266">  1  5  2 -1</clus>
<clus scale="   33.791">  1  3  2 -1</clus>
</clustering>
</event>
<event>
 6    0  0.4340992E+002  0.2147739E+03  0.7546771E-02  0.1137840E+00
         21   -1    0    0  503  502  0.00000000000E+00  0.00000000000E+00  0.11576034514E+04  0.11576034514E+04  0.00000000000E+00 0.  1.
          1   -1    0    0  505    0 -0.00000000000E+00 -0.00000000000E+00 -0.41547779925E+04  0.41547779925E+04  0.00000000000E+00 0.  1.
         21    1    1    2  503  501 -0.10155214266E+03  0.22709645865E+03 -0.34485764933E+03  0.42522045754E+03  0.00000000000E+00 0.  1.
         21    1    1    2  504  502 -0.24848722842E+02 -0.74434666937E+02  0.11046251914E+04  0.11074090446E+04  0.00000000000E+00 0.  1.
         21    1    1    2  505  504  0.14863461978E+03 -0.24892131450E+03 -0.32738113399E+04  0.32866236110E+04  0.00000000000E+00 0.  1.
          1    1    1    2  501    0 -0.22233754283E+02  0.96259522787E+02 -0.48313074318E+03  0.49312833072E+03  0.00000000000E+00 0.  1.
<scales pt_clust_3="14000.00000" pt_clust_4="78.47279" pt_clust_5="214.77392" pt_clust_6="92.39331"></scales>
<clustering>
<clus scale="   78.473">  1  4  2 -1</clus>
<clus scale="   92.393">  2  6  1 -1</clus>
<clus scale="  214.774">  2  5  1 -1</clus>
<clus scale="   78.473">  1  3  2 -1</clus>
</clustering>
</event>
<event>
 6    0  0.4340992E+002  0.1012441E+03  0.7546771E-02  0.1277701E+00
          3   -1    0    0  504    0 -0.00000000000E+00  0.00000000000E+00  0.43803061121E+03  0.43803061121E+03  0.00000000000E+00 0. -1.
         21   -1    0    0  505  502  0.00000000000E+00 -0.00000000000E+00 -0.12508311745E+03  0.12508311745E+03  0.00000000000E+00 0. -1.
         21    1    1    2  503  502 -0.38249100578E+02  0.11941994626E+03  0.11925931731E+02  0.12596168111E+03  0.00000000000E+00 0. -1.
         21    1    1    2  504  503  0.34442514549E+02 -0.31450422340E+02  0.67584941187E+02  0.82116625291E+02  0.00000000000E+00 0. -1.
         21    1    1    2  505  501  0.55913421955E+02 -0.15552160606E+02 -0.37962095863E+02  0.69349125276E+02  0.00000000000E+00 0. -1.
          3    1    1    2  501    0 -0.52106835927E+02 -0.72417363312E+02  0.27139871671E+03  0.28568629699E+03  0.00000000000E+00 0. -1.
<scales pt_clust_3="14000.00000" pt_clust_4="46.64135" pt_clust_5="59.84101" pt_clust_6="101.24414"></scales>
<clustering>
<clus scale="   46.641">  1  4  2 -1</clus>
<clus scale="   59.841">  2  5  1 -1</clus>
<clus scale="  101.244">  1  6  2 -1</clus>
<clus scale="   59.841">  2  3  1 -1</clus>
</clustering>
</event>
<event>
 6    0  0.7185482E+002  0.1057338E+03  0.7546771E-02  0.1268681E+00
          1   -1    0    0  505    0 -0.00000000000E+00  0.00000000000E+00  0.76372603890E+03  0.76372603890E+03  0.00000000000E+00 0. -1.
         21   -1    0    0  503  502  0.00000000000E+00 -0.00000000000E+00 -0.83363581372E+03  0.83363581372E+03  0.00000000000E+00 0.  1.
         21    1    1    2  503  501  0.26204391183E+02  0.16684551640E+02 -0.65997134749E+02  0.72942896678E+02  0.00000000000E+00 0. -1.
         21    1    1    2  504  502 -0.44227915496E+02 -0.50281092796E+02 -0.69877257543E+03  0.70197393753E+03  0.00000000000E+00 0.  1.
         21    1    1    2  505  504 -0.40406555260E+02 -0.57341287447E+02 -0.39275660035E+02  0.80394592015E+02  0.00000000000E+00 0.  1.
          1    1    1    2  501    0  0.58430079573E+02  0.90937828603E+02  0.73413559540E+03  0.74205042639E+03  0.00000000000E+00 0. -1.
<scales pt_clust_3="31.06516" pt_clust_4="40.40721" pt_clust_5="105.73378" pt_clust_6="14000.00000"></scales>
<clustering>
<clus scale="   31.065">  2  3  1 -1</clus>
<clus scale="   40.407">  2  4  1 -1</clus>
<clus scale="  105.734">  2  5  1 -1</clus>
<clus scale="   31.065">  2  3  1 -1</clus>
</clustering>
</event>
<event>
 6    0  0.4340992E+002  0.2383029E+03  0.7546771E-02  0.1120929E+00
         21   -1    0    0  503  502  0.00000000000E+00  0.00000000000E+00  0.13327771204E+03  0.13327771204E+03  0.00000000000E+00 0. -1.
          2   -1    0    0  505    0 -0.00000000000E+00 -0.00000000000E+00 -0.82332422208E+03  0.82332422208E+03  0.00000000000E+00 0. -1.
         21    1    1    2  503  501 -0.29342965746E+02 -0.74680461182E+02 -0.16747073789E+03  0.18570037418E+03  0.00000000000E+00 0. -1.
         21    1    1    2  504  502 -0.40532826346E+02  0.58564616803E+02 -0.10092268040E+02  0.71934541266E+02  0.00000000000E+00 0.  1.
         21    1    1    2  505  504  0.21168215126E+03  0.84129376030E+02 -0.84422413160E+02  0.24292844403E+03  0.00000000000E+00 0. -1.
          2    1    1    2  501    0 -0.14180635917E+03 -0.68013531652E+02 -0.42806109095E+03  0.45603857465E+03  0.00000000000E+00 0. -1.
<scales pt_clust_3="61.92801" pt_clust_4="71.22306" pt_clust_5="221.97125" pt_clust_6="61.92801"></scales>
<clustering>
<clus scale="   61.928">  3  6 -1 -1</clus>
<clus scale="   71.223">  1  4  2 -1</clus>
<clus scale="  221.971">  1  5  2 -1</clus>
<clus scale="   71.223">  1  3  2 -1</clus>
</clustering>
</event>
<event>
 6    0  0.4340992E+002  0.1314132E+03  0.7546771E-02  0.1225374E+00
          2   -1    0    0  505    0 -0.00000000000E+00  0.00000000000E+00  0.72529288731E+03  0.72529288731E+03  0.00000000000E+00 0. -1.
         21   -1    0    0  501  502  0.00000000000E+00 -0.00000000000E+00 -0.89710675634E+03  0.89710675634E+03  0.00000000000E+00 0.  1.
         21    1    1    2  503  504 -0.49713477510E+02  0.12945065093E+03  0.30777964673E+03  0.33757549055E+03  0.00000000000E+00 0. -1.
         21    1    1    2  504  502 -0.73814388140E+02 -0.34869317692E+02 -0.85586677708E+03  0.85975134389E+03  0.00000000000E+00 0.  1.
         21    1    1    2  505  503  0.65661868724E+02  0.16212075225E+02  0.88983089154E+02  0.11176896950E+03  0.00000000000E+00 0. -1.
          2    1    1    2  501    0  0.57865996926E+02 -0.11079340847E+03  0.28729017216E+03  0.31330383971E+03  0.00000000000E+00 0. -1.
<scales pt_clust_3="14000.00000" pt_clust_4="81.42994" pt_clust_5="67.63366" pt_clust_6="131.41321"></scales>
<clustering>
<clus scale="   67.634">  1  5  2 -1</clus>
<clus scale="   81.430">  2  4  1 -1</clus>
<clus scale="  131.413">  2  6  1 -1</clus>
<clus scale="   81.430">  2  3  1 -1</clus>
</clustering>
</event>
<event>
 6    0  0.4340992E+002  0.1648699E+03  0.7546771E-02  0.1183306E+00
          1   -1    0    0  503    0 -0.00000000000E+00  0.00000000000E+00  0.44109420474E+04  0.44109420474E+04  0.00000000000E+00 0.  1.
         21   -1    0    0  505  502  0.00000000000E+00 -0.00000000000E+00 -0.12539550392E+03  0.12539550392E+03  0.00000000000E+00 0. -1.
         21    1    1    2  503  504  0.33980410951E+02  0.87890784362E+02  0.35987296258E+03  0.37200538638E+03  0.00000000000E+00 0.  1.
         21    1    1    2  504  502  0.25832179382E+02  0.37347915887E+02  0.41518353557E+02  0.61530008896E+02  0.00000000000E+00 0. -1.
         21    1    1    2  505  501  0.60327867893E+01  0.54815777344E+02 -0.99914109720E+02  0.11412271151E+03  0.00000000000E+00 0. -1.
          1    1    1    2  501    0 -0.65845377122E+02 -0.18005447759E+03  0.39840693371E+04  0.39886794446E+04  0.00000000000E+00 0.  1.
<scales pt_clust_3="164.86988" pt_clust_4="45.41110" pt_clust_5="94.34779" pt_clust_6="14000.00000"></scales>
<clustering>
<clus scale="   45.411">  2  4  1 -1</clus>
<clus scale="   94.348">  2  5  1 -1</clus>
<clus scale="  164.870">  2  3  1 -1</clus>
<clus scale="   45.411">  2  3  1 -1</clus>
</clustering>
</event>
<event>
 6    0  0.4340992E+002  0.1705741E+03  0.7546771E-02  0.1177250E+00
          2   -1    0    0  505    0 -0.00000000000E+00  0.00000000000E+00  0.12418406055E+04  0.12418406055E+04  0.00000000000E+00 0.  1.
         21   -1    0    0  503  502  0.00000000000E+00 -0.00000000000E+00 -0.25314597201E+03  0.25314597201E+03  0.00000000000E+00 0. -1.
         21    1    1    2  503  504 -0.11696453363E+03 -0.26015491219E+02  0.14148257692E+03  0.18540449693E+03  0.00000000000E+00 0. -1.
         21    1    1    2  504  501 -0.46657863953E+02 -0.11632518698E+03  0.87561450975E+02  0.15289052649E+03  0.00000000000E+00 0.  1.
         21    1    1    2  505  502  0.11102780805E+03 -0.32962644887E+02 -0.17193083544E+03  0.20730152506E+03  0.00000000000E+00 0. -1.
          2    1    1    2  501    0  0.52594589539E+02  0.17530332308E+03  0.93158144105E+03  0.94939002904E+03  0.00000000000E+00 0.  1.
<scales pt_clust_3="87.03464" pt_clust_4="170.57409" pt_clust_5="115.81757" pt_clust_6="14000.00000"></scales>
<clustering>
<clus scale="  115.818">  2  5  1 -1</clus>
<clus scale="   87.035">  2  3  1 -1</clus>
<clus scale="  170.574">  2  4  1 -1</clus>
<clus scale="  115.818">  2  3  1 -1</clus>
</clustering>
</event>
<event>
 6    0  0.4340992E+002  0.1318779E+03  0.7546771E-02  0.1224696E+00
         21   -1    0    0  503  502  0.00000000000E+00  0.00000000000E+00  0.33204903733E+03  0.33204903733E+03  0.00000000000E+00 0. -1.
          2   -1    0    0  505    0 -0.00000000000E+00 -0.00000000000E+00 -0.19995201176E+03  0.19995201176E+03  0.00000000000E+00 0.  1.
         21    1    1    2  503  504  0.27713370984E+02  0.86128801452E+02  0.12556643714E+03  0.15476799252E+03  0.00000000000E+00 0. -1.
         21    1    1    2  504  501 -0.41157857999E+02  0.59246778104E+01 -0.19258985219E+02  0.45825534300E+02  0.00000000000E+00 0.  1.
         21    1    1    2  505  502  0.95649579381E+02 -0.54131381274E+02  0.14485752519E+03  0.18183165587E+03  0.00000000000E+00 0. -1.
          2    1    1    2  501    0 -0.82205092366E+02 -0.37922097989E+02 -0.11906795154E+03  0.14957586640E+03  0.00000000000E+00 0.  1.
<scales pt_clust_3="90.47763" pt_clust_4="35.89476" pt_clust_5="120.77532" pt_clust_6="35.89476"></scales>
<clustering>
<clus scale="   35.895">  4  6 -1 -1</clus>
<clus scale="   90.478">  1  3  2 -1</clus>
<clus scale="  120.775">  1  5  2 -1</clus>
<clus scale="   90.478">  1  3  2 -1</clus>
</clustering>
</event>
<event>
 6    0  0.4340992E+002  0.2934923E+03  0.7546771E-02  0.1088540E+00
          4   -1    0    0  502    0 -0.00000000000E+00  0.00000000000E+00  0.24840929441E+04  0.24840929441E+04  0.00000000000E+00 0.  1.
         21   -1    0    0  505  502  0.00000000000E+00 -0.00000000000E+00 -0.12981674495E+04  0.12981674495E+04  0.00000000000E+00 0. -1.
         21    1    1    2  503  501  0.10598268641E+01 -0.99008636022E+02  0.74410207257E+03  0.75066086060E+03  0.00000000000E+00 0.  1.
         21    1    1    2  504  503 -0.48322433445E+02  0.27941646478E+03 -0.10395916374E+04  0.10775710607E+04  0.00000000000E+00 0. -1.
         21    1    1    2  505  504 -0.34013543509E+02 -0.46108308294E+01 -0.22956737146E+03  0.23211927740E+03  0.00000000000E+00 0. -1.
          4    1    1    2  501    0  0.81276150090E+02 -0.17579699793E+03  0.17109824308E+04  0.17219091950E+04  0.00000000000E+00 0.  1.
<scales pt_clust_3="44.46266" pt_clust_4="286.83150" pt_clust_5="34.32464" pt_clust_6="44.46266"></scales>
<clustering>
<clus scale="   34.325">  2  5  1 -1</clus>
<clus scale="   44.463">  3  6 -1 -1</clus>
<clus scale="  286.831">  2  4  1 -1</clus>
<clus scale="   34.325">  2  3  1 -1</clus>
</clustering>
</event>
<event>
 6    0  0.4340992E+002  0.7273838E+02  0.7546771E-02  0.1351021E+00
         21   -1    0    0  504  502  0.00000000000E+00  0.00000000000E+00  0.99007343004E+03  0.99007343004E+03  0.00000000000E+00 0.  1.
         -3   -1    0    0    0  501 -0.00000000000E+00 -0.00000000000E+00 -0.49563369311E+03  0.49563369311E+03  0.00000000000E+00 0.  1.
         21    1    1    2  503  501 -0.60228608233E+02 -0.79371986772E+01 -0.17417548053E+02  0.63196956831E+02  0.00000000000E+00 0.  1.
         21    1    1    2  504  503 -0.53037701717E+02  0.49951263935E+02  0.95302206944E+03  0.95580290406E+03  0.00000000000E+00 0.  1.
         21    1    1    2  505  502  0.29814477208E+02 -0.56276280666E+02 -0.13879693644E+03  0.15271055098E+03  0.00000000000E+00 0.  1.
         -3    1    1    2    0  505  0.83451832741E+02  0.14262215408E+02 -0.30236784801E+03  0.31399671127E+03  0.00000000000E+00 0.  1.
<scales pt_clust_3="60.74936" pt_clust_4="72.73838" pt_clust_5="14000.00000" pt_clust_6="43.60271"></scales>
<clustering>
<clus scale="   60.749">  2  3  1 -1</clus>
<clus scale="   43.603">  2  6  1 -1</clus>
<clus scale="   72.738">  1  4  2 -1</clus>
<clus scale="   72.738">  1  3  2 -1</clus>
</clustering>
</event>
<event>
 6    0  0.4340992E+002  0.2576837E+03  0.7546771E-02  0.1108543E+00
         21   -1    0    0  504  502  0.00000000000E+00  0.00000000000E+00  0.11038471732E+04  0.11038471732E+04  0.00000000000E+00 0. -1.
         -2   -1    0    0    0  501 -0.00000000000E+00 -0.00000000000E+00 -0.11918674037E+04  0.11918674037E+04  0.00000000000E+00 0.  1.
         21    1    1    2  503  502 -0.26244501596E+02 -0.86136391754E+02 -0.19499409129E+03  0.21478116185E+03  0.00000000000E+00 0.  1.
         21    1    1    2  504  505 -0.82107105525E+01 -0.32765667718E+02  0.10114588583E+04  0.10120227402E+04  0.00000000000E+00 0. -1.
         21    1    1    2  505  501  0.10430199376E+03  0.24236725436E+03 -0.15478217270E+03  0.30590572547E+03  0.00000000000E+00 0. -1.
         -2    1    1    2    0  503 -0.69846781613E+02 -0.12346519488E+03 -0.74970282483E+03  0.76300494940E+03  0.00000000000E+00 0.  1.
<scales pt_clust_3="82.37694" pt_clust_4="33.77876" pt_clust_5="236.54566" pt_clust_6="82.37694"></scales>
<clustering>
<clus scale="   33.779">  1  4  2 -1</clus>
<clus scale="   82.377">  3  6 -1 -1</clus>
<clus scale="  236.546">  1  5  2 -1</clus>
<clus scale="   33.779">  1  3  2 -1</clus>
</clustering>
</event>
<event>
 6    0  0.4340992E+002  0.9528853E+02  0.7546771E-02  0.1290528E+00
          2   -1    0    0  503    0 -0.00000000000E+00  0.00000000000E+00  0.20356752532E+04  0.20356752532E+04  0.00000000000E+00 0. -1.
         21   -1    0    0  505  502  0.00000000000E+00 -0.00000000000E+00 -0.34188283290E+03  0.34188283290E+03  0.00000000000E+00 0.  1.
         21    1    1    2  503  504  0.69301853845E+02 -0.65276869517E+02  0.19814832636E+04  0.19837690744E+04  0.00000000000E+00 0. -1.
         21    1    1    2  504  502 -0.24691203646E+02  0.13876920054E+03 -0.22330268717E+03  0.26406559158E+03  0.00000000000E+00 0.  1.
         21    1    1    2  505  501 -0.41310496138E+02 -0.55317569911E+01 -0.39060495985E+02  0.57121622641E+02  0.00000000000E+00 0. -1.
          2    1    1    2  501    0 -0.33001540615E+01 -0.67960574036E+02 -0.25327660083E+02  0.72601797536E+02  0.00000000000E+00 0. -1.
<scales pt_clust_3="14000.00000" pt_clust_4="95.28853" pt_clust_5="41.67922" pt_clust_6="69.63145"></scales>
<clustering>
<clus scale="   41.679">  2  5  1 -1</clus>
<clus scale="   69.631">  2  6  1 -1</clus>
<clus scale="   95.289">  2  4  1 -1</clus>
<clus scale="   41.679">  2  3  1 -1</clus>
</clustering>
</event>
<event>
 6    0  0.4340992E+002  0.8408369E+02  0.7546771E-02  0.1317846E+00
         21   -1    0    0  501  502  0.00000000000E+00  0.00000000000E+00  0.14203267019E+04  0.14203267019E+04  0.00000000000E+00 0. -1.
          2   -1    0    0  505    0 -0.00000000000E+00 -0.00000000000E+00 -0.16924295872E+04  0.16924295872E+04  0.00000000000E+00 0.  1.
         21    1    1    2  503  502  0.11865553397E+02  0.85723616476E+02  0.11996581592E+04  0.12027755521E+04  0.00000000000E+00 0. -1.
         21    1    1    2  504  503 -0.73933257889E+02 -0.55411869816E+02  0.20645471151E+03  0.22618609560E+03  0.00000000000E+00 0. -1.
         21    1    1    2  505  504  0.37496545705E+02  0.88507941188E+01 -0.14964655142E+03  0.15452643090E+03  0.00000000000E+00 0.  1.
          2    1    1    2  501    0  0.24571158787E+02 -0.39162540779E+02 -0.15285692046E+04  0.15292682105E+04  0.00000000000E+00 0.  1.
<scales pt_clust_3="84.08369" pt_clust_4="14000.00000" pt_clust_5="38.52697" pt_clust_6="68.85304"></scales>
<clustering>
<clus scale="   38.527">  2  5  1 -1</clus>
<clus scale="   68.853">  2  6  1 -1</clus>
<clus scale="   84.084">  1  3  2 -1</clus>
<clus scale="   84.084">  1  3  2 -1</clus>
</clustering>
</event>
<event>
 6    0  0.4340992E+002  0.3053944E+03  0.7546771E-02  0.1082575E+00
         21   -1    0    0  503  502  0.00000000000E+00  0.00000000000E+00  0.28706596668E+04  0.28706596668E+04  0.00000000000E+00 0. -1.
         -2   -1    0    0    0  501 -0.00000000000E+00 -0.00000000000E+00 -0.65151928820E+02  0.65151928820E+02  0.00000000000E+00 0. -1.
         21    1    1    2  503  505  0.15821596283E+03  0.30548543545E+02  0.11055244311E+04  0.11172062353E+04  0.00000000000E+00 0. -1.
         21    1    1    2  504  501 -0.23457473706E+03 -0.78764119242E+02  0.52264196461E+03  0.57825921256E+03  0.00000000000E+00 0. -1.
         21    1    1    2  505  504  0.17133494812E+03 -0.48534614177E+01  0.10825854031E+04  0.10960704246E+04  0.00000000000E+00 0. -1.
         -2    1    1    2    0  502 -0.94976173897E+02  0.53069037114E+02  0.94755939202E+02  0.14427572326E+03  0.00000000000E+00 0. -1.
<scales pt_clust_3="37.61326" pt_clust_4="302.92055" pt_clust_5="37.61326" pt_clust_6="108.79704"></scales>
<clustering>
<clus scale="   37.613">  3  5 -1 -1</clus>
<clus scale="  108.797">  2  6  1 -1</clus>
<clus scale="  302.921">  2  4  1 -1</clus>
<clus scale="  305.394">  1  3  2 -1</clus>
</clustering>
</event>
<event>
 6    0  0.4340992E+002  0.1414525E+03  0.7546771E-02  0.1211388E+00
         21   -1    0    0  504  502  0.00000000000E+00  0.00000000000E+00  0.57492588112E+02  0.57492588112E+02  0.00000000000E+00 0. -1.
          2   -1    0    0  505    0 -0.00000000000E+00 -0.00000000000E+00 -0.21499100567E+04  0.21499100567E+04  0.00000000000E+00 0. -1.
         21    1    1    2  503  501 -0.82399575911E+02 -0.25741465604E+02 -0.92116075838E+03  0.92519698224E+03  0.00000000000E+00 0. -1.
         21    1    1    2  504  503  0.54871818710E+02  0.18910484858E+01 -0.14446314832E+03  0.15454479537E+03  0.00000000000E+00 0.  1.
         21    1    1    2  505  502  0.67997759680E+02  0.54340149119E+02  0.11793351572E+02  0.87838660447E+02  0.00000000000E+00 0. -1.
          2    1    1    2  501    0 -0.40470002479E+02 -0.30489732001E+02 -0.10385869134E+04  0.10398222067E+04  0.00000000000E+00 0. -1.
<scales pt_clust_3="37.77103" pt_clust_4="54.90439" pt_clust_5="132.58285" pt_clust_6="37.77103"></scales>
<clustering>
<clus scale="   37.771">  3  6 -1 -1</clus>
<clus scale="   54.904">  1  4  2 -1</clus>
<clus scale="  132.583">  1  5  2 -1</clus>
<clus scale="   54.904">  1  3  2 -1</clus>
</clustering>
</event>
<event>
 6    0  0.4340992E+002  0.7618234E+02  0.7546771E-02  0.1340248E+00
         -3   -1    0    0    0  501 -0.00000000000E+00  0.00000000000E+00  0.19229914312E+03  0.19229914312E+03  0.00000000000E+00 0. -1.
         21   -1    0    0  503  502  0.00000000000E+00 -0.00000000000E+00 -0.29189569006E+03  0.29189569006E+03  0.00000000000E+00 0. -1.
         21    1    1    2  503  505 -0.21960045852E+02 -0.61280798362E+02 -0.10365043573E+03  0.12239686552E+03  0.00000000000E+00 0. -1.
         21    1    1    2  504  502 -0.11962222125E+02  0.64240268855E+02 -0.13659164342E+03  0.15141725117E+03  0.00000000000E+00 0. -1.
         21    1    1    2  505  501  0.56698525476E+02  0.62909284361E+02  0.93958658563E+02  0.12649320286E+03  0.00000000000E+00 0. -1.
         -3    1    1    2    0  504 -0.22776257499E+02 -0.65868754855E+02  0.46686873651E+02  0.83887513631E+02  0.00000000000E+00 0. -1.
<scales pt_clust_3="65.09670" pt_clust_4="33.17803" pt_clust_5="76.18234" pt_clust_6="14000.00000"></scales>
<clustering>
<clus scale="   65.097">  2  3  1 -1</clus>
<clus scale="   33.178">  2  4  1 -1</clus>
<clus scale="   76.182">  1  5  2 -1</clus>
<clus scale="   65.097">  2  3  1 -1</clus>
</clustering>
</event>
<event>
 6    0  0.4340992E+002  0.1054239E+03  0.7546771E-02  0.1269287E+00
         -3   -1    0    0    0  501 -0.00000000000E+00  0.00000000000E+00  0.13549562196E+03  0.13549562196E+03  0.00000000000E+00 0. -1.
         21   -1    0    0  504  502  0.00000000000E+00 -0.00000000000E+00 -0.66068450507E+03  0.66068450507E+03  0.00000000000E+00 0. -1.
         21    1    1    2  503  501 -0.38367114597E+02 -0.30956767921E+02  0.24008306240E+02  0.54833892175E+02  0.00000000000E+00 0. -1.
         21    1    1    2  504  505 -0.10434071374E+03  0.94135968409E+01 -0.52716583559E+03  0.53747503994E+03  0.00000000000E+00 0. -1.
         21    1    1    2  505  503  0.29480056215E+02  0.50556256582E+02 -0.57174630332E+02  0.81816545683E+02  0.00000000000E+00 0.  1.
         -3    1    1    2    0  502  0.11322777212E+03 -0.29013085502E+02  0.35143276571E+02  0.12205464922E+03  0.00000000000E+00 0. -1.
<scales pt_clust_3="49.29865" pt_clust_4="105.42392" pt_clust_5="52.66363" pt_clust_6="14000.00000"></scales>
<clustering>
<clus scale="   49.299">  1  3  2 -1</clus>
<clus scale="   52.664">  1  5  2 -1</clus>
<clus scale="  105.424">  2  4  1 -1</clus>
<clus scale="  105.424">  2  3  1 -1</clus>
</clustering>
</event>
<event>
 6    0  0.4340992E+002  0.1678864E+03  0.7546771E-02  0.1180070E+00
         21   -1    0    0  503  502  0.00000000000E+00  0.00000000000E+00  0.25448001600E+02  0.25448001600E+02  0.00000000000E+00 0.  1.
          2   -1    0    0  505    0 -0.00000000000E+00 -0.00000000000E+00 -0.17790658547E+04  0.17790658547E+04  0.00000000000E+00 0. -1.
         21    1    1    2  503  504 -0.32035307700E+02  0.86659794475E+01 -0.66886555374E+02  0.74667070581E+02  0.00000000000E+00 0.  1.
         21    1    1    2  504  501 -0.28877862025E+02 -0.39030513327E+02 -0.35650622459E+03  0.35979716516E+03  0.00000000000E+00 0. -1.
         21    1    1    2  505  502  0.62089435214E+02  0.15003384209E+03 -0.39311606186E+03  0.42532986002E+03  0.00000000000E+00 0.  1.
          2    1    1    2  501    0 -0.11762654878E+01 -0.11966930821E+03 -0.93710901131E+03  0.94471976057E+03  0.00000000000E+00 0. -1.
<scales pt_clust_3="33.18675" pt_clust_4="30.11310" pt_clust_5="161.09220" pt_clust_6="30.11310"></scales>
<clustering>
<clus scale="   30.113">  4  6 -1 -1</clus>
<clus scale="   33.187">  1  3  2 -1</clus>
<clus scale="  161.092">  1  5  2 -1</clus>
<clus scale="   33.187">  1  3  2 -1</clus>
</clustering>
</event>
<event>
 6    0  0.4340992E+002  0.1025700E+03  0.7546771E-02  0.1274983E+00
         21   -1    0    0  504  502  0.00000000000E+00  0.00000000000E+00  0.12413553985E+03  0.12413553985E+03  0.00000000000E+00 0.  1.
          1   -1    0    0  503    0 -0.00000000000E+00 -0.00000000000E+00 -0.13414028008E+04  0.13414028008E+04  0.00000000000E+00 0. -1.
         21    1    1    2  503  505 -0.10262244398E+02  0.71335748299E+02  0.11621259570E+02  0.73001070673E+02  0.00000000000E+00 0.  1.
         21    1    1    2  504  501  0.64603975556E+02  0.29129721386E+02 -0.14983787231E+03  0.16575162836E+03  0.00000000000E+00 0. -1.
         21    1    1    2  505  502 -0.48142897763E+02  0.37144676369E+01  0.63335374094E+02  0.79642359875E+02  0.00000000000E+00 0.  1.
          1    1    1    2  501    0 -0.61988333950E+01 -0.10417993732E+03 -0.11423860223E+04  0.11471432817E+04  0.00000000000E+00 0. -1.
<scales pt_clust_3="102.56999" pt_clust_4="64.56034" pt_clust_5="48.28598" pt_clust_6="14000.00000"></scales>
<clustering>
<clus scale="   48.286">  1  5  2 -1</clus>
<clus scale="   64.560">  1  4  2 -1</clus>
<clus scale="  102.570">  1  3  2 -1</clus>
<clus scale="   48.286">  1  3  2 -1</clus>
</clustering>
</event>
<event>
 6    0  0.4340992E+002  0.6873797E+02  0.7546771E-02  0.1364438E+00
         21   -1    0    0  505  502  0.00000000000E+00  0.00000000000E+00  0.36705255555E+03  0.36705255555E+03  0.00000000000E+00 0.  1.
         -3   -1    0    0    0  501 -0.00000000000E+00 -0.00000000000E+00 -0.11665332466E+03  0.11665332466E+03  0.00000000000E+00 0. -1.
         21    1    1    2  503  504  0.64516941283E+02  0.60328215158E+02  0.57610938822E+02  0.10545591272E+03  0.00000000000E+00 0.  1.
         21    1    1    2  504  502 -0.55108150198E+02 -0.34416501959E+02  0.20945512275E+03  0.21930082598E+03  0.00000000000E+00 0.  1.
         21    1    1    2  505  501 -0.35773086614E+02 -0.63066921038E+02  0.42677396065E+02  0.84133883721E+02  0.00000000000E+00 0.  1.
         -3    1    1    2    0  503  0.26364295530E+02  0.37155207839E+02 -0.59344226759E+02  0.74815257788E+02  0.00000000000E+00 0. -1.
<scales pt_clust_3="14000.00000" pt_clust_4="68.73797" pt_clust_5="53.58866" pt_clust_6="45.55859"></scales>
<clustering>
<clus scale="   45.559">  2  6  1 -1</clus>
<clus scale="   53.589">  2  5  1 -1</clus>
<clus scale="   68.738">  1  4  2 -1</clus>
<clus scale="   68.738">  1  3  2 -1</clus>
</clustering>
</event>
<event>
 6    0  0.4340992E+002  0.1698940E+03  0.7546771E-02  0.1177958E+00
         21   -1    0    0  505  502  0.00000000000E+00  0.00000000000E+00  0.16874326179E+03  0.16874326179E+03  0.00000000000E+00 0. -1.
         -4   -1    0    0    0  501 -0.00000000000E+00 -0.00000000000E+00 -0.89075690078E+03  0.89075690078E+03  0.00000000000E+00 0.  1.
         21    1    1    2  503  502  0.10401158790E+03 -0.41349371312E+02  0.94977437826E+02  0.14679541758E+03  0.00000000000E+00 0. -1.
         21    1    1    2  504  503  0.52562251781E+02 -0.17254453733E+02  0.13188363107E+02  0.56872132081E+02  0.00000000000E+00 0.  1.
         21    1    1    2  505  501 -0.13081079338E+02  0.55064910949E+02 -0.35380964858E+03  0.35830786550E+03  0.00000000000E+00 0.  1.
         -4    1    1    2    0  504 -0.14349276034E+03  0.35389140962E+01 -0.47636979135E+03  0.49752474742E+03  0.00000000000E+00 0.  1.
<scales pt_clust_3="30.08176" pt_clust_4="30.08176" pt_clust_5="56.59734" pt_clust_6="164.41755"></scales>
<clustering>
<clus scale="   30.082">  3  4 -1 -1</clus>
<clus scale="   56.597">  2  5  1 -1</clus>
<clus scale="  164.418">  2  6  1 -1</clus>
<clus scale="  169.894">  1  3  2 -1</clus>
</clustering>
</event>
<event>
 6    0  0.4340992E+002  0.1358108E+03  0.7546771E-02  0.1219080E+00
         21   -1    0    0  503  502  0.00000000000E+00  0.00000000000E+00  0.62717037017E+03  0.62717037017E+03  0.00000000000E+00 0. -1.
          2   -1    0    0  502    0 -0.00000000000E+00 -0.00000000000E+00 -0.21591968208E+03  0.21591968208E+03  0.00000000000E+00 0. -1.
         21    1    1    2  503  505  0.83461423372E+02  0.10743652677E+03  0.55214681546E+03  0.56866028726E+03  0.00000000000E+00 0. -1.
         21    1    1    2  504  501 -0.33549429523E+02 -0.36372507077E+02 -0.65895676563E+01  0.49919393969E+02  0.00000000000E+00 0.  1.
         21    1    1    2  505  504 -0.14417753293E+02 -0.48785515975E+02  0.27178439539E+02  0.57676388191E+02  0.00000000000E+00 0. -1.
          2    1    1    2  501    0 -0.35494240557E+02 -0.22278503720E+02 -0.16148499926E+03  0.16683398283E+03  0.00000000000E+00 0. -1.
<scales pt_clust_3="129.78583" pt_clust_4="39.45281" pt_clust_5="39.45281" pt_clust_6="41.90672"></scales>
<clustering>
<clus scale="   39.453">  4  5 -1 -1</clus>
<clus scale="   41.907">  2  6  1 -1</clus>
<clus scale="  129.786">  1  3  2 -1</clus>
<clus scale="  129.786">  1  3  2 -1</clus>
</clustering>
</event>
<event>
 6    0  0.4340992E+002  0.6912774E+02  0.7546771E-02  0.1363085E+00
         21   -1    0    0  501  502  0.00000000000E+00  0.00000000000E+00  0.26345721307E+02  0.26345721307E+02  0.00000000000E+00 0.  1.
          2   -1    0    0  504    0 -0.00000000000E+00 -0.00000000000E+00 -0.12556035661E+04  0.12556035661E+04  0.00000000000E+00 0.  1.
         21    1    1    2  503  505  0.15954850613E+02  0.80275337886E+02 -0.19205069078E+03  0.20876339468E+03  0.00000000000E+00 0.  1.
         21    1    1    2  504  503 -0.66570672724E+02 -0.62632791938E+02 -0.50299994438E+03  0.51123719069E+03  0.00000000000E+00 0.  1.
         21    1    1    2  505  502  0.86059169787E+01 -0.33616704313E+02 -0.10412569306E+02  0.36229355715E+02  0.00000000000E+00 0.  1.
          2    1    1    2  501    0  0.42009905133E+02  0.15974158366E+02 -0.52379464033E+03  0.52571934633E+03  0.00000000000E+00 0.  1.
<scales pt_clust_3="69.12774" pt_clust_4="14000.00000" pt_clust_5="34.70079" pt_clust_6="44.73309"></scales>
<clustering>
<clus scale="   34.701">  1  5  2 -1</clus>
<clus scale="   44.733">  2  6  1 -1</clus>
<clus scale="   69.128">  1  3  2 -1</clus>
<clus scale="   34.701">  1  3  2 -1</clus>
</clustering>
</event>
<event>
 6    0  0.4340992E+002  0.1873096E+03  0.7546771E-02  0.1160911E+00
         21   -1    0    0  505  502  0.00000000000E+00  0.00000000000E+00  0.34980012386E+03  0.34980012386E+03  0.00000000000E+00 0. -1.
          2   -1    0    0  503    0 -0.00000000000E+00 -0.00000000000E+00 -0.70895550872E+03  0.70895550872E+03  0.00000000000E+00 0.  1.
         21    1    1    2  503  504  0.47945171164E+02  0.29418945191E+02 -0.24736479232E+03  0.25368002336E+03  0.00000000000E+00 0.  1.
         21    1    1    2  504  502  0.21000975978E+02 -0.54774477346E+02  0.56185936383E+02  0.81228959170E+02  0.00000000000E+00 0. -1.
         21    1    1    2  505  501 -0.20662244660E+03  0.93197223318E+02  0.21428431255E+03  0.31192358756E+03  0.00000000000E+00 0. -1.
          2    1    1    2  501    0  0.13767629946E+03 -0.67841691164E+02 -0.38226084147E+03  0.41192306249E+03  0.00000000000E+00 0.  1.
<scales pt_clust_3="56.25134" pt_clust_4="58.40053" pt_clust_5="187.30956" pt_clust_6="14000.00000"></scales>
<clustering>
<clus scale="   56.251">  2  3  1 -1</clus>
<clus scale="   58.401">  1  4  2 -1</clus>
<clus scale="  187.310">  1  5  2 -1</clus>
<clus scale="   58.401">  1  3  2 -1</clus>
</clustering>
</event>
<event>
 6    0  0.4340992E+002  0.1431601E+03  0.7546771E-02  0.1209139E+00
         21   -1    0    0  505  502  0.00000000000E+00  0.00000000000E+00  0.13761509733E+03  0.13761509733E+03  0.00000000000E+00 0. -1.
          2   -1    0    0  502    0 -0.00000000000E+00 -0.00000000000E+00 -0.12582755413E+04  0.12582755413E+04  0.00000000000E+00 0.  1.
         21    1    1    2  503  501  0.14381039820E+02  0.72296258471E+02 -0.40979298743E+03  0.41636985463E+03  0.00000000000E+00 0. -1.
         21    1    1    2  504  503  0.17098015073E+02 -0.10329843047E+03 -0.41932815643E+02  0.11278860264E+03  0.00000000000E+00 0. -1.
         21    1    1    2  505  504 -0.33909939508E+02 -0.32007227344E+02  0.92024892475E+02  0.10316456482E+03  0.00000000000E+00 0. -1.
          2    1    1    2  501    0  0.24308846154E+01  0.63009399348E+02 -0.76095953338E+03  0.76356761656E+03  0.00000000000E+00 0.  1.
<scales pt_clust_3="51.31711" pt_clust_4="132.26532" pt_clust_5="46.62989" pt_clust_6="51.31711"></scales>
<clustering>
<clus scale="   46.630">  1  5  2 -1</clus>
<clus scale="   51.317">  3  6 -1 -1</clus>
<clus scale="  132.265">  1  4  2 -1</clus>
<clus scale="   46.630">  1  3  2 -1</clus>
</clustering>
</event>
<event>
 6    0  0.4340992E+002  0.1218793E+03  0.7546771E-02  0.1240029E+00
         21   -1    0    0  504  502  0.00000000000E+00  0.00000000000E+00  0.22727482279E+03  0.22727482279E+03  0.00000000000E+00 0.  1.
          1   -1    0    0  505    0 -0.00000000000E+00 -0.00000000000E+00 -0.25304554822E+04  0.25304554822E+04  0.00000000000E+00 0. -1.
         21    1    1    2  503  501  0.70585179384E+02  0.77068228003E+02 -0.38429776951E+02  0.11134912246E+03  0.00000000000E+00 0.  1.
         21    1    1    2  504  503 -0.45244581061E+02  0.45847747795E+02  0.18337522972E+03  0.19435936553E+03  0.00000000000E+00 0.  1.
         21    1    1    2  505  502  0.15567933197E+02 -0.28240085265E+02 -0.81878305166E+03  0.81941781079E+03  0.00000000000E+00 0. -1.
          1    1    1    2  501    0 -0.40908531520E+02 -0.94675890533E+02 -0.16293430605E+04  0.16326040062E+04  0.00000000000E+00 0. -1.
<scales pt_clust_3="14000.00000" pt_clust_4="64.31382" pt_clust_5="32.24691" pt_clust_6="121.87933"></scales>
<clustering>
<clus scale="   32.247">  2  5  1 -1</clus>
<clus scale="   64.314">  1  4  2 -1</clus>
<clus scale="  121.879">  2  6  1 -1</clus>
<clus scale="   64.314">  1  3  2 -1</clus>
</clustering>
</event>
<event>
 6    0  0.4340992E+002  0.1185536E+03  0.7546771E-02  0.1245502E+00
          2   -1    0    0  505    0 -0.00000000000E+00  0.00000000000E+00  0.26036774426E+04  0.26036774426E+04  0.00000000000E+00 0.  1.
         21   -1    0    0  503  502  0.00000000000E+00 -0.00000000000E+00 -0.70210016021E+02  0.70210016021E+02  0.00000000000E+00 0.  1.
         21    1    1    2  503  501 -0.14935564246E+02  0.35563162983E+02  0.88260538038E+02  0.96320985333E+02  0.00000000000E+00 0.  1.
         21    1    1    2  504  502  0.52819586919E+02 -0.14595562300E+03  0.31432543379E+02  0.15836968596E+03  0.00000000000E+00 0.  1.
         21    1    1    2  505  504 -0.32948852682E+02 -0.15123520190E+02  0.55552606940E+03  0.55670778829E+03  0.00000000000E+00 0.  1.
          2    1    1    2  501    0 -0.49351699909E+01  0.12551598020E+03  0.18582482757E+04  0.18624889990E+04  0.00000000000E+00 0.  1.
<scales pt_clust_3="38.55331" pt_clust_4="118.55360" pt_clust_5="36.25393" pt_clust_6="14000.00000"></scales>
<clustering>
<clus scale="   36.254">  1  5  2 -1</clus>
<clus scale="   38.553">  2  3  1 -1</clus>
<clus scale="  118.554">  2  4  1 -1</clus>
<clus scale="   38.553">  2  3  1 -1</clus>
</clustering>
</event>
<event>
 6    0  0.4340992E+002  0.8653953E+02  0.7546771E-02  0.1311455E+00
         21   -1    0    0  504  502  0.00000000000E+00  0.00000000000E+00  0.26453756854E+02  0.26453756854E+02  0.00000000000E+00 0.  1.
          1   -1    0    0  505    0 -0.00000000000E+00 -0.00000000000E+00 -0.96637471930E+03  0.96637471930E+03  0.00000000000E+00 0.  1.
         21    1    1    2  503  501 -0.42152779596E+02 -0.86126695516E+02 -0.18065642003E+03  0.20452727595E+03  0.00000000000E+00 0.  1.
         21    1    1    2  504  503  0.34748374307E+02  0.72598654457E+01 -0.27653577046E+02  0.44998616497E+02  0.00000000000E+00 0.  1.
         21    1    1    2  505  502 -0.41145843518E+02  0.98843702799E+01 -0.16001851502E+03  0.16551920241E+03  0.00000000000E+00 0.  1.
          1    1    1    2  501    0  0.48550248807E+02  0.68982459790E+02 -0.57159245035E+03  0.57778338131E+03  0.00000000000E+00 0.  1.
<scales pt_clust_3="14000.00000" pt_clust_4="35.49866" pt_clust_5="37.42634" pt_clust_6="86.53953"></scales>
<clustering>
<clus scale="   35.499">  1  4  2 -1</clus>
<clus scale="   37.426">  1  5  2 -1</clus>
<clus scale="   86.540">  2  6  1 -1</clus>
<clus scale="   35.499">  1  3  2 -1</clus>
</clustering>
</event>
<event>
 6    0  0.4340992E+002  0.1648183E+03  0.7546771E-02  0.1183362E+00
         21   -1    0    0  501  502  0.00000000000E+00  0.00000000000E+00  0.32236810243E+04  0.32236810243E+04  0.00000000000E+00 0.  1.
          1   -1    0    0  504    0 -0.00000000000E+00 -0.00000000000E+00 -0.96252563710E+02  0.96252563710E+02  0.00000000000E+00 0. -1.
         21    1    1    2  503  505 -0.23420795259E+03  0.89476678930E+02  0.69735851140E+03  0.74105892786E+03  0.00000000000E+00 0.  1.
         21    1    1    2  504  503  0.73904543319E+02 -0.85332559785E+02 -0.21063489491E+02  0.11483552531E+03  0.00000000000E+00 0. -1.
         21    1    1    2  505  502  0.95719776045E+02  0.19929549444E+02  0.22359511707E+04  0.22380878223E+04  0.00000000000E+00 0.  1.
          1    1    1    2  501    0  0.64583633223E+02 -0.24073668589E+02  0.21518226791E+03  0.22595131251E+03  0.00000000000E+00 0. -1.
<scales pt_clust_3="164.81825" pt_clust_4="113.83263" pt_clust_5="14000.00000" pt_clust_6="68.92450"></scales>
<clustering>
<clus scale="   68.925">  1  6  2 -1</clus>
<clus scale="  113.833">  2  4  1 -1</clus>
<clus scale="  164.818">  2  3  1 -1</clus>
<clus scale="   68.925">  1  3  2 -1</clus>
</clustering>
</event>
<event>
 6    0  0.4340992E+002  0.8989166E+02  0.7546771E-02  0.1303114E+00
          3   -1    0    0  503    0 -0.00000000000E+00  0.00000000000E+00  0.39674197089E+03  0.39674197089E+03  0.00000000000E+00 0. -1.
         21   -1    0    0  504  502  0.00000000000E+00 -0.00000000000E+00 -0.21628607687E+03  0.21628607687E+03  0.00000000000E+00 0. -1.
         21    1    1    2  503  505  0.17955667104E+02  0.67514195574E+02  0.89730346761E+01  0.70434990853E+02  0.00000000000E+00 0. -1.
         21    1    1    2  504  501  0.50216014890E+02 -0.11998322695E+03  0.28883854890E+02  0.13323625623E+03  0.00000000000E+00 0. -1.
         21    1    1    2  505  502 -0.72669710865E+02  0.10967265089E+02 -0.12148969490E+03  0.14198913250E+03  0.00000000000E+00 0. -1.
          3    1    1    2  501    0  0.44980288700E+01  0.41501766283E+02  0.26408869935E+03  0.26736766818E+03  0.00000000000E+00 0. -1.
<scales pt_clust_3="89.89166" pt_clust_4="14000.00000" pt_clust_5="73.70147" pt_clust_6="41.74481"></scales>
<clustering>
<clus scale="   41.745">  1  6  2 -1</clus>
<clus scale="   73.701">  2  5  1 -1</clus>
<clus scale="   89.892">  2  3  1 -1</clus>
<clus scale="   73.701">  2  3  1 -1</clus>
</clustering>
</event>
<event>
 6    0  0.4340992E+002  0.1004495E+03  0.7546771E-02  0.1279354E+00
          2   -1    0    0  504    0 -0.00000000000E+00  0.00000000000E+00  0.29780214261E+04  0.29780214261E+04  0.00000000000E+00 0.  1.
         21   -1    0    0  503  502  0.00000000000E+00 -0.00000000000E+00 -0.18049283887E+03  0.18049283887E+03  0.00000000000E+00 0.  1.
         21    1    1    2  503  505  0.35698260243E+01 -0.56349355672E+02  0.97131259682E+02  0.11234978927E+03  0.00000000000E+00 0.  1.
         21    1    1    2  504  502 -0.64924574036E+02 -0.93046887575E+02 -0.12676135762E+03  0.17012161940E+03  0.00000000000E+00 0.  1.
         21    1    1    2  505  501  0.11506836569E+02  0.62275310682E+02  0.19038431717E+02  0.66129293740E+02  0.00000000000E+00 0.  1.
          2    1    1    2  501    0  0.49847911443E+02  0.87120932566E+02  0.28081202534E+04  0.28099135625E+04  0.00000000000E+00 0.  1.
<scales pt_clust_3="56.46232" pt_clust_4="14000.00000" pt_clust_5="55.90257" pt_clust_6="100.44951"></scales>
<clustering>
<clus scale="   56.462">  2  3  1 -1</clus>
<clus scale="   55.903">  2  5  1 -1</clus>
<clus scale="  100.450">  1  6  2 -1</clus>
<clus scale="   56.462">  2  3  1 -1</clus>
</clustering>
</event>
<event>
 6    0  0.4340992E+002  0.2516879E+03  0.7546771E-02  0.1112243E+00
          1   -1    0    0  502    0 -0.00000000000E+00  0.00000000000E+00  0.20217097467E+04  0.20217097467E+04  0.00000000000E+00 0.  1.
         21   -1    0    0  503  502  0.00000000000E+00 -0.00000000000E+00 -0.11696671878E+03  0.11696671878E+03  0.00000000000E+00 0.  1.
         21    1    1    2  503  504  0.13750695150E+02  0.45545471000E+02 -0.11651318061E+02  0.48981881939E+02  0.00000000000E+00 0.  1.
         21    1    1    2  504  505 -0.22105934791E+03 -0.12223598641E+03  0.12642964349E+03  0.28247712549E+03  0.00000000000E+00 0.  1.
         21    1    1    2  505  501  0.72274508334E+02 -0.27079121021E+02  0.65863812720E+03  0.66314483030E+03  0.00000000000E+00 0. -1.
          1    1    1    2  501    0  0.13503414443E+03  0.10376963643E+03  0.11313265753E+04  0.11440726278E+04  0.00000000000E+00 0.  1.
<scales pt_clust_3="47.57596" pt_clust_4="223.92811" pt_clust_5="76.67840" pt_clust_6="76.67840"></scales>
<clustering>
<clus scale="   47.576">  2  3  1 -1</clus>
<clus scale="   76.678">  5  6 -1 -1</clus>
<clus scale="  223.928">  2  4  1 -1</clus>
<clus scale="   47.576">  2  3  1 -1</clus>
</clustering>
</event>
<event>
 6    0  0.4340992E+002  0.1461025E+03  0.7546771E-02  0.1205346E+00
         21   -1    0    0  504  502  0.00000000000E+00  0.00000000000E+00  0.90317391578E+02  0.90317391578E+02  0.00000000000E+00 0. -1.
          2   -1    0    0  505    0 -0.00000000000E+00 -0.00000000000E+00 -0.13986967820E+04  0.13986967820E+04  0.00000000000E+00 0. -1.
         21    1    1    2  503  501 -0.46371134112E+02  0.10424781100E+03 -0.55120866364E+03  0.56289331054E+03  0.00000000000E+00 0.  1.
         21    1    1    2  504  503  0.15654872021E+02 -0.12173133830E+03 -0.12480856813E+02  0.12336679265E+03  0.00000000000E+00 0. -1.
         21    1    1    2  505  502  0.72072759026E+02 -0.16406024925E+02 -0.20655634191E+02  0.76748260380E+02  0.00000000000E+00 0.  1.
          2    1    1    2  501    0 -0.41356496936E+02  0.33889552223E+02 -0.72403423573E+03  0.72600580996E+03  0.00000000000E+00 0. -1.
<scales pt_clust_3="146.10248" pt_clust_4="14000.00000" pt_clust_5="70.47858" pt_clust_6="53.46832"></scales>
<clustering>
<clus scale="   53.468">  2  6  1 -1</clus>
<clus scale="   70.479">  1  5  2 -1</clus>
<clus scale="  146.102">  2  3  1 -1</clus>
<clus scale="   70.479">  1  3  2 -1</clus>
</clustering>
</event>
<event>
 6    0  0.4340992E+002  0.9754045E+02  0.7546771E-02  0.1285555E+00
          2   -1    0    0  504    0 -0.00000000000E+00  0.00000000000E+00  0.23384271709E+04  0.23384271709E+04  0.00000000000E+00 0.  1.
         21   -1    0    0  503  502  0.00000000000E+00 -0.00000000000E+00 -0.68959738895E+02  0.68959738895E+02  0.00000000000E+00 0.  1.
         21    1    1    2  503  501 -0.17868498892E+02 -0.32641669547E+02 -0.35024346659E+02  0.51102511703E+02  0.00000000000E+00 0.  1.
         21    1    1    2  504  505  0.14247431346E+03  0.54003919686E+02  0.16571966914E+04  0.16641863560E+04  0.00000000000E+00 0.  1.
         21    1    1    2  505  502 -0.61244917962E+02 -0.29731290162E+02  0.35136850966E+02  0.76612583083E+02  0.00000000000E+00 0.  1.
          2    1    1    2  501    0 -0.63360896601E+02  0.83690400226E+01  0.61215823625E+03  0.61548545902E+03  0.00000000000E+00 0.  1.
<scales pt_clust_3="37.21239" pt_clust_4="97.54045" pt_clust_5="14000.00000" pt_clust_6="64.81299"></scales>
<clustering>
<clus scale="   37.212">  2  3  1 -1</clus>
<clus scale="   64.813">  1  6  2 -1</clus>
<clus scale="   97.540">  1  4  2 -1</clus>
<clus scale="   37.212">  2  3  1 -1</clus>
</clustering>
</event>
<event>
 6    0  0.4340992E+002  0.2052744E+03  0.7546771E-02  0.1145364E+00
         21   -1    0    0  501  502  0.00000000000E+00  0.00000000000E+00  0.15086234073E+04  0.15086234073E+04  0.00000000000E+00 0. -1.
          2   -1    0    0  503    0 -0.00000000000E+00 -0.00000000000E+00 -0.74723978490E+03  0.74723978490E+03  0.00000000000E+00 0.  1.
         21    1    1    2  503  504  0.13839301183E+02  0.36489797475E+02 -0.31982771909E+02  0.50457202419E+02  0.00000000000E+00 0.  1.
         21    1    1    2  504  505  0.13357872586E+03  0.22262029039E+03  0.16107857420E+03  0.30553130243E+03  0.00000000000E+00 0.  1.
         21    1    1    2  505  502 -0.11826387967E+03 -0.16061000031E+03  0.12539849483E+04  0.12697480726E+04  0.00000000000E+00 0. -1.
          2    1    1    2  501    0 -0.29154147371E+02 -0.98500087553E+02 -0.62169712811E+03  0.63012661478E+03  0.00000000000E+00 0.  1.
<scales pt_clust_3="39.02604" pt_clust_4="14000.00000" pt_clust_5="205.27437" pt_clust_6="68.27156"></scales>
<clustering>
<clus scale="   39.026">  2  3  1 -1</clus>
<clus scale="   68.272">  2  6  1 -1</clus>
<clus scale="  205.274">  1  5  2 -1</clus>
<clus scale="  205.274">  1  3  2 -1</clus>
</clustering>
</event>
<event>
 6    0  0.4340992E+002  0.2696048E+03  0.7546771E-02  0.1101506E+00
          2   -1    0    0  505    0 -0.00000000000E+00  0.00000000000E+00  0.21960874579E+04  0.21960874579E+04  0.00000000000E+00 0.  1.
         21   -1    0    0  503  502  0.00000000000E+00 -0.00000000000E+00 -0.14169125256E+03  0.14169125256E+03  0.00000000000E+00 0. -1.
         21    1    1    2  503  501 -0.15332628905E+03 -0.13303720374E+03  0.29246605806E+02  0.20509317990E+03  0.00000000000E+00 0. -1.
         21    1    1    2  504  502  0.24298544331E+03  0.33948575085E+03  0.11246748631E+04  0.11996608056E+04  0.00000000000E+00 0.  1.
         21    1    1    2  505  504  0.82379107885E+01 -0.35635085180E+02  0.27162197957E+03  0.27407338845E+03  0.00000000000E+00 0. -1.
          2    1    1    2  501    0 -0.97897065054E+02 -0.17081346193E+03  0.62885275688E+03  0.65895133656E+03  0.00000000000E+00 0.  1.
<scales pt_clust_3="204.05038" pt_clust_4="14000.00000" pt_clust_5="36.57489" pt_clust_6="269.60478"></scales>
<clustering>
<clus scale="   36.575">  1  5  2 -1</clus>
<clus scale="  204.050">  2  3  1 -1</clus>
<clus scale="  269.605">  1  6  2 -1</clus>
<clus scale="  204.050">  2  3  1 -1</clus>
</clustering>
</event>
<event>
 6    0  0.4340992E+002  0.1039212E+03  0.7546771E-02  0.1272260E+00
         21   -1    0    0  504  502  0.00000000000E+00  0.00000000000E+00  0.13659367058E+04  0.13659367058E+04  0.00000000000E+00 0.  1.
          1   -1    0    0  503    0 -0.00000000000E+00 -0.00000000000E+00 -0.83583245869E+03  0.83583245869E+03  0.00000000000E+00 0. -1.
         21    1    1    2  503  505  0.19814149531E+02 -0.58651341273E+02 -0.51866798156E+03  0.52234955293E+03  0.00000000000E+00 0. -1.
         21    1    1    2  504  501 -0.10137332641E+03  0.26317892437E+02  0.12975260460E+04  0.13017461438E+04  0.00000000000E+00 0.  1.
         21    1    1    2  505  502  0.12860284023E+02  0.30094314865E+02  0.56218865901E+02  0.65050869137E+02  0.00000000000E+00 0. -1.
          1    1    1    2  501    0  0.68698892857E+02  0.22391339713E+01 -0.30497268329E+03  0.31262259860E+03  0.00000000000E+00 0. -1.
<scales pt_clust_3="61.87344" pt_clust_4="103.92120" pt_clust_5="32.72697" pt_clust_6="14000.00000"></scales>
<clustering>
<clus scale="   32.727">  1  5  2 -1</clus>
<clus scale="   61.873">  2  3  1 -1</clus>
<clus scale="  103.921">  1  4  2 -1</clus>
<clus scale="   32.727">  1  3  2 -1</clus>
</clustering>
</event>
<event>
 6    0  0.4340992E+002  0.1458096E+03  0.7546771E-02  0.1205719E+00
          2   -1    0    0  503    0 -0.00000000000E+00  0.00000000000E+00  0.16428822684E+04  0.16428822684E+04  0.00000000000E+00 0.  1.
         21   -1    0    0  505  502  0.00000000000E+00 -0.00000000000E+00 -0.15203601466E+03  0.15203601466E+03  0.00000000000E+00 0.  1.
         21    1    1    2  503  504 -0.13777766383E+02 -0.59975524710E+02  0.32228279807E+03  0.32810530679E+03  0.00000000000E+00 0.  1.
         21    1    1    2  504  502  0.46250517910E+02  0.16680271389E+03  0.70941874598E+02  0.18706952007E+03  0.00000000000E+00 0.  1.
         21    1    1    2  505  501  0.36164109996E+02 -0.13617586746E+03 -0.34584993400E+02  0.14507870794E+03  0.00000000000E+00 0.  1.
          2    1    1    2  501    0 -0.68636861523E+02  0.29348678275E+02  0.11322065745E+04  0.11346647483E+04  0.00000000000E+00 0.  1.
<scales pt_clust_3="61.53772" pt_clust_4="145.80959" pt_clust_5="14000.00000" pt_clust_6="83.50431"></scales>
<clustering>
<clus scale="   61.538">  1  3  2 -1</clus>
<clus scale="   83.504">  1  6  2 -1</clus>
<clus scale="  145.810">  1  4  2 -1</clus>
<clus scale="  145.810">  2  3  1 -1</clus>
</clustering>
</event>
<event>
 6    0  0.4340992E+002  0.9471635E+02  0.7546771E-02  0.1291816E+00
         21   -1    0    0  504  502  0.00000000000E+00  0.00000000000E+00  0.50809464943E+02  0.50809464943E+02  0.00000000000E+00 0. -1.
          2   -1    0    0  503    0 -0.00000000000E+00 -0.00000000000E+00 -0.23480398574E+04  0.23480398574E+04  0.00000000000E+00 0. -1.
         21    1    1    2  503  502  0.11072119972E+03 -0.69824205402E+02 -0.62544866504E+02  0.14507399510E+03  0.00000000000E+00 0. -1.
         21    1    1    2  504  505 -0.86866146276E+01  0.56715185847E+02 -0.95786725432E+02  0.11165646577E+03  0.00000000000E+00 0. -1.
         21    1    1    2  505  501 -0.52326212742E+02  0.25376628768E+02 -0.73925431187E+03  0.74153822791E+03  0.00000000000E+00 0. -1.
          2    1    1    2  501    0 -0.49708372352E+02 -0.12267609213E+02 -0.13996444887E+04  0.14005806336E+04  0.00000000000E+00 0. -1.
<scales pt_clust_3="94.71635" pt_clust_4="57.14621" pt_clust_5="14000.00000" pt_clust_6="51.19977"></scales>
<clustering>
<clus scale="   51.200">  2  6  1 -1</clus>
<clus scale="   57.146">  1  4  2 -1</clus>
<clus scale="   94.716">  1  3  2 -1</clus>
<clus scale="   57.146">  1  3  2 -1</clus>
</clustering>
</event>
<event>
 6    0  0.4340992E+002  0.1051742E+03  0.7546771E-02  0.1269777E+00
          4   -1    0    0  505    0 -0.00000000000E+00  0.00000000000E+00  0.14912491856E+04  0.14912491856E+04  0.00000000000E+00 0.  1.
         21   -1    0    0  504  502  0.00000000000E+00 -0.00000000000E+00 -0.69049856975E+02  0.69049856975E+02  0.00000000000E+00 0.  1.
         21    1    1    2  503  501 -0.64695636217E+02 -0.10220160064E+03  0.97236834738E+02  0.15519566536E+03  0.00000000000E+00 0.  1.
         21    1    1    2  504  503  0.42722356946E+02 -0.19123009912E+01 -0.22527140734E+02  0.48335584695E+02  0.00000000000E+00 0.  1.
         21    1    1    2  505  502 -0.25499680077E+02  0.33569249348E+02  0.13805828149E+03  0.14435102104E+03  0.00000000000E+00 0. -1.
          4    1    1    2  501    0  0.47472959347E+02  0.70544652280E+02  0.12094313531E+04  0.12124167715E+04  0.00000000000E+00 0.  1.
<scales pt_clust_3="105.17418" pt_clust_4="42.50842" pt_clust_5="42.15600" pt_clust_6="14000.00000"></scales>
<clustering>
<clus scale="   42.156">  1  5  2 -1</clus>
<clus scale="   42.508">  2  4  1 -1</clus>
<clus scale="  105.174">  2  3  1 -1</clus>
<clus scale="   42.508">  2  3  1 -1</clus>
</clustering>
</event>
<event>
 6    0  0.4340992E+002  0.8848165E+02  0.7546771E-02  0.1306571E+00
         21   -1    0    0  503  502  0.00000000000E+00  0.00000000000E+00  0.15795639623E+03  0.15795639623E+03  0.00000000000E+00 0.  1.
          1   -1    0    0  504    0 -0.00000000000E+00 -0.00000000000E+00 -0.26090246892E+04  0.26090246892E+04  0.00000000000E+00 0. -1.
         21    1    1    2  503  501  0.23266100981E+02 -0.31121473911E+02 -0.16668679172E+02  0.42281230571E+02  0.00000000000E+00 0.  1.
         21    1    1    2  504  505 -0.11439771960E+03  0.91054625648E+01 -0.45399491353E+03  0.46827463012E+03  0.00000000000E+00 0.  1.
         21    1    1    2  505  502  0.25116777407E+02 -0.37943889741E+02  0.13329349170E+03  0.14084653423E+03  0.00000000000E+00 0.  1.
          1    1    1    2  501    0  0.66014841216E+02  0.59959901087E+02 -0.21136981920E+04  0.21155786906E+04  0.00000000000E+00 0. -1.
<scales pt_clust_3="38.85689" pt_clust_4="14000.00000" pt_clust_5="82.16432" pt_clust_6="88.48165"></scales>
<clustering>
<clus scale="   38.857">  1  3  2 -1</clus>
<clus scale="   82.164">  1  5  2 -1</clus>
<clus scale="   88.482">  2  6  1 -1</clus>
<clus scale="   38.857">  1  3  2 -1</clus>
</clustering>
</event>
<event>
 6    0  0.4340992E+002  0.1548488E+03  0.7546771E-02  0.1194638E+00
         21   -1    0    0  504  502  0.00000000000E+00  0.00000000000E+00  0.11925119711E+04  0.11925119711E+04  0.00000000000E+00 0.  1.
          3   -1    0    0  505    0 -0.00000000000E+00 -0.00000000000E+00 -0.10059929674E+03  0.10059929674E+03  0.00000000000E+00 0. -1.
         21    1    1    2  503  502 -0.44095936487E+02  0.15624814605E+03  0.91802383065E+03  0.93226910729E+03  0.00000000000E+00 0.  1.
         21    1    1    2  504  501  0.33968842934E+02 -0.12804313188E+03  0.18514374712E+03  0.22765573353E+03  0.00000000000E+00 0.  1.
         21    1    1    2  505  503  0.22560321694E+02  0.41739601580E+02  0.24781164194E+02  0.53528203349E+02  0.00000000000E+00 0.  1.
          3    1    1    2  501    0 -0.12433228141E+02 -0.69944615748E+02 -0.36036067589E+02  0.79658223690E+02  0.00000000000E+00 0. -1.
<scales pt_clust_3="154.84885" pt_clust_4="14000.00000" pt_clust_5="47.44642" pt_clust_6="42.02930"></scales>
<clustering>
<clus scale="   47.446">  2  5  1 -1</clus>
<clus scale="   42.029">  2  6  1 -1</clus>
<clus scale="  154.849">  1  3  2 -1</clus>
<clus scale="  154.849">  1  3  2 -1</clus>
</clustering>
</event>
<event>
 6    0  0.4340992E+002  0.6756657E+02  0.7546771E-02  0.1368569E+00
         21   -1    0    0  503  502  0.00000000000E+00  0.00000000000E+00  0.20647773398E+04  0.20647773398E+04  0.00000000000E+00 0. -1.
          4   -1    0    0  505    0 -0.00000000000E+00 -0.00000000000E+00 -0.21203792024E+04  0.21203792024E+04  0.00000000000E+00 0.  1.
         21    1    1    2  503  501  0.20555095112E+02  0.26071857320E+02  0.20339319367E+04  0.20342028848E+04  0.00000000000E+00 0. -1.
         21    1    1    2  504  502 -0.39091405789E+02 -0.87531580551E+02 -0.55948327235E+02  0.11099608516E+03  0.00000000000E+00 0.  1.
         21    1    1    2  505  504 -0.51466238686E+02  0.89963083621E+01 -0.32844449872E+03  0.33257404594E+03  0.00000000000E+00 0.  1.
          4    1    1    2  501    0  0.70002549363E+02  0.52463414869E+02 -0.17051409733E+04  0.17073835262E+04  0.00000000000E+00 0.  1.
<scales pt_clust_3="33.20021" pt_clust_4="67.56657" pt_clust_5="51.22476" pt_clust_6="14000.00000"></scales>
<clustering>
<clus scale="   33.200">  1  3  2 -1</clus>
<clus scale="   51.225">  2  5  1 -1</clus>
<clus scale="   67.567">  1  4  2 -1</clus>
<clus scale="   33.200">  1  3  2 -1</clus>
</clustering>
</event>
<event>
 6    0  0.4340992E+002  0.1187975E+03  0.7546771E-02  0.1245094E+00
         21   -1    0    0  505  502  0.00000000000E+00  0.00000000000E+00  0.49835856007E+02  0.49835856007E+02  0.00000000000E+00 0.  1.
          1   -1    0    0  502    0 -0.00000000000E+00 -0.00000000000E+00 -0.17843976226E+04  0.17843976226E+04  0.00000000000E+00 0. -1.
         21    1    1    2  503  504  0.12839468081E+03  0.50884135999E+02 -0.18414635932E+03  0.23018312494E+03  0.00000000000E+00 0.  1.
         21    1    1    2  504  501 -0.48802062341E+02 -0.78754270621E+01 -0.44190907589E+03  0.44466537417E+03  0.00000000000E+00 0.  1.
         21    1    1    2  505  503 -0.23087405977E+02 -0.24278098607E+02  0.13266271816E+02  0.36033988880E+02  0.00000000000E+00 0.  1.
          1    1    1    2  501    0 -0.56505212497E+02 -0.18730610330E+02 -0.11217726032E+04  0.11233509906E+04  0.00000000000E+00 0. -1.
<scales pt_clust_3="111.06499" pt_clust_4="38.68568" pt_clust_5="33.50305" pt_clust_6="38.68568"></scales>
<clustering>
<clus scale="   33.503">  1  5  2 -1</clus>
<clus scale="   38.686">  4  6 -1 -1</clus>
<clus scale="  111.065">  1  3  2 -1</clus>
<clus scale="   33.503">  1  3  2 -1</clus>
</clustering>
</event>
<event>
 6    0  0.4340992E+002  0.9504757E+02  0.7546771E-02  0.1291069E+00
          1   -1    0    0  504    0 -0.00000000000E+00  0.00000000000E+00  0.26088984624E+02  0.26088984624E+02  0.00000000000E+00 0. -1.
         21   -1    0    0  505  502  0.00000000000E+00 -0.00000000000E+00 -0.17152932293E+04  0.17152932293E+04  0.00000000000E+00 0. -1.
         21    1    1    2  503  501  0.32664044849E+02 -0.22393756736E+02 -0.29095184972E+02  0.49142140319E+02  0.00000000000E+00 0. -1.
         21    1    1    2  504  502 -0.79838321787E+02  0.10049850374E+03 -0.74207681633E+03  0.75309501938E+03  0.00000000000E+00 0. -1.
         21    1    1    2  505  503 -0.30031195006E+01 -0.88229991954E+02 -0.84701004164E+03  0.85159823911E+03  0.00000000000E+00 0. -1.
          1    1    1    2  501    0  0.50177396439E+02  0.10125244954E+02 -0.71022201735E+02  0.87546815123E+02  0.00000000000E+00 0. -1.
<scales pt_clust_3="35.69817" pt_clust_4="85.94697" pt_clust_5="88.28109" pt_clust_6="35.69817"></scales>
<clustering>
<clus scale="   35.698">  3  6 -1 -1</clus>
<clus scale="   88.281">  2  5  1 -1</clus>
<clus scale="   85.947">  2  4  1 -1</clus>
<clus scale="   88.281">  2  3  1 -1</clus>
</clustering>
</event>
<event>
 6    0  0.4340992E+002  0.1555231E+03  0.7546771E-02  0.1193846E+00
         21   -1    0    0  501  502  0.00000000000E+00  0.00000000000E+00  0.63543147492E+03  0.63543147492E+03  0.00000000000E+00 0. -1.
          1   -1    0    0  505    0 -0.00000000000E+00 -0.00000000000E+00 -0.66328900025E+03  0.66328900025E+03  0.00000000000E+00 0.  1.
         21    1    1    2  503  504  0.15805021635E+02 -0.14046069099E+03  0.43136935100E+03  0.45393669317E+03  0.00000000000E+00 0. -1.
         21    1    1    2  504  502  0.51671736732E+02 -0.38938798414E+01  0.13865194663E+03  0.14801855621E+03  0.00000000000E+00 0.  1.
         21    1    1    2  505  503 -0.10035367746E+03  0.53666479989E+01 -0.21259472071E+02  0.10272111099E+03  0.00000000000E+00 0. -1.
          1    1    1    2  501    0  0.32876919096E+02  0.13898792283E+03 -0.57661935089E+03  0.59404411480E+03  0.00000000000E+00 0.  1.
<scales pt_clust_3="155.52309" pt_clust_4="51.81825" pt_clust_5="96.20914" pt_clust_6="14000.00000"></scales>
<clustering>
<clus scale="   51.818">  1  4  2 -1</clus>
<clus scale="   96.209">  2  5  1 -1</clus>
<clus scale="  155.523">  1  3  2 -1</clus>
<clus scale="   51.818">  1  3  2 -1</clus>
</clustering>
</event>
<event>
 6    0  0.4340992E+002  0.9243280E+02  0.7546771E-02  0.1297065E+00
         -1   -1    0    0    0  501 -0.00000000000E+00  0.00000000000E+00  0.11164717901E+04  0.11164717901E+04  0.00000000000E+00 0. -1.
         21   -1    0    0  503  502  0.00000000000E+00 -0.00000000000E+00 -0.27064033818E+03  0.27064033818E+03  0.00000000000E+00 0. -1.
         21    1    1    2  503  501  0.46741904569E+02  0.47995924142E+02  0.17456201340E+03  0.18697676567E+03  0.00000000000E+00 0. -1.
         21    1    1    2  504  505  0.44627210368E+02  0.45272843526E+02 -0.15033768699E+03  0.16322572835E+03  0.00000000000E+00 0. -1.
         21    1    1    2  505  502 -0.51292456683E+02  0.60245378344E+01 -0.98167290988E+02  0.11092352405E+03  0.00000000000E+00 0. -1.
         -1    1    1    2    0  504 -0.40076658254E+02 -0.99293305502E+02  0.91977441655E+03  0.92598611026E+03  0.00000000000E+00 0. -1.
<scales pt_clust_3="14000.00000" pt_clust_4="51.10026" pt_clust_5="51.64505" pt_clust_6="92.43280"></scales>
<clustering>
<clus scale="   51.645">  2  5  1 -1</clus>
<clus scale="   51.100">  2  4  1 -1</clus>
<clus scale="   92.433">  1  6  2 -1</clus>
<clus scale="   51.645">  2  3  1 -1</clus>
</clustering>
</event>
<event>
 6    0  0.4340992E+002  0.7212594E+02  0.7546771E-02  0.1353009E+00
          4   -1    0    0  505    0 -0.00000000000E+00  0.00000000000E+00  0.23380919232E+03  0.23380919232E+03  0.00000000000E+00 0. -1.
         21   -1    0    0  504  502  0.00000000000E+00 -0.00000000000E+00 -0.27603037763E+03  0.27603037763E+03  0.00000000000E+00 0. -1.
         21    1    1    2  503  502 -0.73416381473E+02 -0.81076758470E+02 -0.10041460832E+03  0.14848063643E+03  0.00000000000E+00 0. -1.
         21    1    1    2  504  501  0.61990107325E+02  0.82232641407E+01 -0.13295158441E+03  0.14692351506E+03  0.00000000000E+00 0. -1.
         21    1    1    2  505  503 -0.20443978014E+02  0.23064686168E+02  0.10871172988E+03  0.11299635480E+03  0.00000000000E+00 0.  1.
          4    1    1    2  501    0  0.31870252162E+02  0.49788808161E+02  0.82433277537E+02  0.10143906366E+03  0.00000000000E+00 0. -1.
<scales pt_clust_3="72.12594" pt_clust_4="61.57112" pt_clust_5="30.82103" pt_clust_6="14000.00000"></scales>
<clustering>
<clus scale="   30.821">  1  5  2 -1</clus>
<clus scale="   61.571">  2  4  1 -1</clus>
<clus scale="   72.126">  2  3  1 -1</clus>
<clus scale="   61.571">  2  3  1 -1</clus>
</clustering>
</event>
<event>
 6    0  0.4340992E+002  0.1665001E+03  0.7546771E-02  0.1181548E+00
         -1   -1    0    0    0  501 -0.00000000000E+00  0.00000000000E+00  0.87646272520E+03  0.87646272520E+03  0.00000000000E+00 0.  1.
         21   -1    0    0  505  502  0.00000000000E+00 -0.00000000000E+00 -0.14882826247E+03  0.14882826247E+03  0.00000000000E+00 0.  1.
         21    1    1    2  503  501 -0.59755810297E+01  0.76615180577E+02 -0.59619322908E+02  0.97262825003E+02  0.00000000000E+00 0.  1.
         21    1    1    2  504  502  0.49343555329E+02 -0.41992658819E+02  0.26737738906E+03  0.27511604466E+03  0.00000000000E+00 0.  1.
         21    1    1    2  505  503 -0.41486929130E+02  0.65351675040E+02 -0.37939053605E+02  0.86205443608E+02  0.00000000000E+00 0.  1.
         -1    1    1    2    0  504 -0.18810451694E+01 -0.99974196799E+02  0.55781545018E+03  0.56670667440E+03  0.00000000000E+00 0.  1.
<scales pt_clust_3="41.51060" pt_clust_4="58.68591" pt_clust_5="155.38008" pt_clust_6="58.68591"></scales>
<clustering>
<clus scale="   41.511">  3  5 -1 -1</clus>
<clus scale="   58.686">  4  6 -1 -1</clus>
<clus scale="  155.380">  2  3  1 -1</clus>
<clus scale="  155.380">  2  3  1 -1</clus>
</clustering>
</event>
<event>
 6    0  0.4340992E+002  0.1512121E+03  0.7546771E-02  0.1198991E+00
         21   -1    0    0  503  502  0.00000000000E+00  0.00000000000E+00  0.85954659386E+02  0.85954659386E+02  0.00000000000E+00 0. -1.
          2   -1    0    0  504    0 -0.00000000000E+00 -0.00000000000E+00 -0.13345066494E+04  0.13345066494E+04  0.00000000000E+00 0.  1.
         21    1    1    2  503  505 -0.22130310671E+02 -0.52030121548E+02 -0.21318702490E+02  0.60426577552E+02  0.00000000000E+00 0. -1.
         21    1    1    2  504  502 -0.99427379742E+02 -0.10186969599E+02  0.21180604567E+02  0.10216749092E+03  0.00000000000E+00 0. -1.
         21    1    1    2  505  501  0.68262693175E+02  0.50563565177E+01 -0.77803500956E+03  0.78104022824E+03  0.00000000000E+00 0.  1.
          2    1    1    2  501    0  0.53294997239E+02  0.57160734630E+02 -0.47037888256E+03  0.47682701211E+03  0.00000000000E+00 0.  1.
<scales pt_clust_3="56.54100" pt_clust_4="133.49001" pt_clust_5="67.31400" pt_clust_6="67.31400"></scales>
<clustering>
<clus scale="   56.541">  1  3  2 -1</clus>
<clus scale="   67.314">  5  6 -1 -1</clus>
<clus scale="  133.490">  1  4  2 -1</clus>
<clus scale="   56.541">  1  3  2 -1</clus>
</clustering>
</event>
<event>
 6    0  0.4340992E+002  0.9623077E+02  0.7546771E-02  0.1288428E+00
         21   -1    0    0  504  502  0.00000000000E+00  0.00000000000E+00  0.14787971201E+04  0.14787971201E+04  0.00000000000E+00 0.  1.
         -2   -1    0    0    0  501 -0.00000000000E+00 -0.00000000000E+00 -0.58333946676E+02  0.58333946676E+02  0.00000000000E+00 0.  1.
         21    1    1    2  503  501  0.33127842998E+02  0.94674095147E+01  0.45201030684E+02  0.56835015611E+02  0.00000000000E+00 0. -1.
         21    1    1    2  504  505 -0.55459349435E+02 -0.80296170995E+02  0.13325907986E+04  0.13361592162E+04  0.00000000000E+00 0.  1.
         21    1    1    2  505  503  0.36893590862E+02 -0.22497487310E+02  0.14123721386E+02  0.45461560552E+02  0.00000000000E+00 0. -1.
         -2    1    1    2    0  502 -0.14562084426E+02  0.93326248791E+02  0.28547622753E+02  0.98675274416E+02  0.00000000000E+00 0.  1.
<scales pt_clust_3="34.45411" pt_clust_4="96.23077" pt_clust_5="50.74605" pt_clust_6="14000.00000"></scales>
<clustering>
<clus scale="   34.454">  2  3  1 -1</clus>
<clus scale="   50.746">  2  5  1 -1</clus>
<clus scale="   96.231">  1  4  2 -1</clus>
<clus scale="   96.231">  1  3  2 -1</clus>
</clustering>
</event>
<event>
 6    0  0.4340992E+002  0.9877821E+02  0.7546771E-02  0.1282886E+00
          2   -1    0    0  503    0 -0.00000000000E+00  0.00000000000E+00  0.14271020010E+04  0.14271020010E+04  0.00000000000E+00 0. -1.
         21   -1    0    0  505  502  0.00000000000E+00 -0.00000000000E+00 -0.45448468159E+03  0.45448468159E+03  0.00000000000E+00 0.  1.
         21    1    1    2  503  504 -0.36442787643E+02  0.29274425172E+02  0.14571428686E+03  0.15302850106E+03  0.00000000000E+00 0.  1.
         21    1    1    2  504  502 -0.59509129730E+02  0.21064875271E+01 -0.19434552062E+03  0.20326326573E+03  0.00000000000E+00 0.  1.
         21    1    1    2  505  501  0.88744256216E+02 -0.96658176080E+02 -0.23402628306E+03  0.26830327463E+03  0.00000000000E+00 0.  1.
          2    1    1    2  501    0  0.72076611567E+01  0.65277263381E+02  0.12552748362E+04  0.12569916412E+04  0.00000000000E+00 0. -1.
<scales pt_clust_3="46.74472" pt_clust_4="59.67719" pt_clust_5="98.77821" pt_clust_6="14000.00000"></scales>
<clustering>
<clus scale="   46.745">  1  3  2 -1</clus>
<clus scale="   59.677">  2  4  1 -1</clus>
<clus scale="   98.778">  2  5  1 -1</clus>
<clus scale="   59.677">  2  3  1 -1</clus>
</clustering>
</event>
<event>
 6    0  0.4340992E+002  0.8913996E+02  0.7546771E-02  0.1304948E+00
         -1   -1    0    0    0  501 -0.00000000000E+00  0.00000000000E+00  0.18328473044E+03  0.18328473044E+03  0.00000000000E+00 0.  1.
         21   -1    0    0  505  502  0.00000000000E+00 -0.00000000000E+00 -0.76519699574E+03  0.76519699574E+03  0.00000000000E+00 0.  1.
         21    1    1    2  503  501 -0.14568925110E+03  0.10284697566E+02  0.82819290320E+02  0.16789927856E+03  0.00000000000E+00 0.  1.
         21    1    1    2  504  502  0.47905296164E+02 -0.23251715964E+00 -0.65486291992E+03  0.65661283520E+03  0.00000000000E+00 0.  1.
         21    1    1    2  505  503  0.44583302617E+02  0.22910354431E+02 -0.29767078818E+02  0.58297806080E+02  0.00000000000E+00 0.  1.
         -1    1    1    2    0  504  0.53200652323E+02 -0.32962534838E+02  0.19898443117E+02  0.65671806348E+02  0.00000000000E+00 0.  1.
<scales pt_clust_3="89.13996" pt_clust_4="47.90586" pt_clust_5="67.80841" pt_clust_6="14000.00000"></scales>
<clustering>
<clus scale="   47.906">  2  4  1 -1</clus>
<clus scale="   67.808">  2  5  1 -1</clus>
<clus scale="   89.140">  2  3  1 -1</clus>
<clus scale="   47.906">  2  3  1 -1</clus>
</clustering>
</event>
<event>
 6    0  0.4340992E+002  0.9165969E+02  0.7546771E-02  0.1298882E+00
          2   -1    0    0  502    0 -0.00000000000E+00  0.00000000000E+00  0.32753910188E+04  0.32753910188E+04  0.00000000000E+00 0.  1.
         21   -1    0    0  505  502  0.00000000000E+00 -0.00000000000E+00 -0.13631889918E+02  0.13631889918E+02  0.00000000000E+00 0.  1.
         21    1    1    2  503  504  0.79122828652E+02 -0.52929375908E+01  0.17401771151E+03  0.19123441406E+03  0.00000000000E+00 0.  1.
         21    1    1    2  504  501  0.62012756971E+02 -0.27034364844E+02  0.69077562557E+03  0.69408025745E+03  0.00000000000E+00 0.  1.
         21    1    1    2  505  503 -0.26899518413E+02  0.20635956813E+02  0.14887766796E+03  0.15268918371E+03  0.00000000000E+00 0.  1.
          2    1    1    2  501    0 -0.11423606721E+03  0.11691345622E+02  0.22480881239E+04  0.22510190535E+04  0.00000000000E+00 0.  1.
<scales pt_clust_3="60.18794" pt_clust_4="91.65969" pt_clust_5="33.90320" pt_clust_6="14000.00000"></scales>
<clustering>
<clus scale="   33.903">  2  5  1 -1</clus>
<clus scale="   60.188">  2  3  1 -1</clus>
<clus scale="   91.660">  2  4  1 -1</clus>
<clus scale="   33.903">  2  3  1 -1</clus>
</clustering>
</event>
<event>
 6    0  0.4340992E+002  0.3645822E+03  0.7546771E-02  0.1056784E+00
          2   -1    0    0  503    0 -0.00000000000E+00  0.00000000000E+00  0.23165964960E+04  0.23165964960E+04  0.00000000000E+00 0. -1.
         21   -1    0    0  504  502  0.00000000000E+00 -0.00000000000E+00 -0.15326375502E+03  0.15326375502E+03  0.00000000000E+00 0. -1.
         21    1    1    2  503  505  0.29830839304E+03  0.22223723794E+03  0.29424796276E+03  0.47429858831E+03  0.00000000000E+00 0. -1.
         21    1    1    2  504  501 -0.16033457472E+03 -0.10717429218E+03  0.13205482971E+04  0.13345565967E+04  0.00000000000E+00 0. -1.
         21    1    1    2  505  502 -0.84694516989E+02  0.25596177775E+02 -0.37954851041E+01  0.88559196201E+02  0.00000000000E+00 0. -1.
          2    1    1    2  501    0 -0.53279301334E+02 -0.14065912354E+03  0.55233196622E+03  0.57244586983E+03  0.00000000000E+00 0. -1.
<scales pt_clust_3="333.15838" pt_clust_4="129.86508" pt_clust_5="88.47783" pt_clust_6="129.86508"></scales>
<clustering>
<clus scale="   88.478">  2  5  1 -1</clus>
<clus scale="  129.865">  4  6 -1 -1</clus>
<clus scale="  333.158">  2  3  1 -1</clus>
<clus scale="   88.478">  2  3  1 -1</clus>
</clustering>
</event>
<event>
 6    0  0.4340992E+002  0.8472920E+02  0.7546771E-02  0.1316142E+00
         21   -1    0    0  501  502  0.00000000000E+00  0.00000000000E+00  0.48613866755E+02  0.48613866755E+02  0.00000000000E+00 0.  1.
          2   -1    0    0  505    0 -0.00000000000E+00 -0.00000000000E+00 -0.24907632722E+04  0.24907632722E+04  0.00000000000E+00 0. -1.
         21    1    1    2  503  504 -0.67720506106E+02 -0.20270527140E+02 -0.23496449607E+03  0.24536763362E+03  0.00000000000E+00 0.  1.
         21    1    1    2  504  502 -0.20691724629E+02 -0.82256351069E+02 -0.38047926936E+01  0.84904247283E+02  0.00000000000E+00 0.  1.
         21    1    1    2  505  503  0.37542818691E+01  0.41059021386E+02 -0.29595213114E+03  0.29881031073E+03  0.00000000000E+00 0. -1.
          2    1    1    2  501    0  0.84657948866E+02  0.61467856823E+02 -0.19074279855E+04  0.19102949473E+04  0.00000000000E+00 0. -1.
<scales pt_clust_3="69.13322" pt_clust_4="14000.00000" pt_clust_5="41.23030" pt_clust_6="84.72920"></scales>
<clustering>
<clus scale="   41.230">  2  5  1 -1</clus>
<clus scale="   69.133">  2  3  1 -1</clus>
<clus scale="   84.729">  2  6  1 -1</clus>
<clus scale="   84.729">  1  3  2 -1</clus>
</clustering>
</event>
<event>
 6    0  0.4340992E+002  0.1304409E+03  0.7546771E-02  0.1226803E+00
         -2   -1    0    0    0  501 -0.00000000000E+00  0.00000000000E+00  0.23582823996E+03  0.23582823996E+03  0.00000000000E+00 0.  1.
         21   -1    0    0  505  502  0.00000000000E+00 -0.00000000000E+00 -0.67173122202E+03  0.67173122202E+03  0.00000000000E+00 0.  1.
         21    1    1    2  503  504  0.70829160216E+02  0.34848371290E+02  0.40491287809E+02  0.88717097038E+02  0.00000000000E+00 0.  1.
         21    1    1    2  504  502 -0.78752387602E+02 -0.60854802056E+02 -0.53584310740E+03  0.54500741393E+03  0.00000000000E+00 0.  1.
         21    1    1    2  505  501 -0.28737719977E+02 -0.40023627824E+02 -0.92132638079E+02  0.10448047824E+03  0.00000000000E+00 0. -1.
         -2    1    1    2    0  503  0.36660947363E+02  0.66030058590E+02  0.15158147561E+03  0.16935447277E+03  0.00000000000E+00 0.  1.
<scales pt_clust_3="14000.00000" pt_clust_4="130.44086" pt_clust_5="49.27218" pt_clust_6="74.76638"></scales>
<clustering>
<clus scale="   49.272">  2  5  1 -1</clus>
<clus scale="   74.766">  1  6  2 -1</clus>
<clus scale="  130.441">  2  4  1 -1</clus>
<clus scale="   49.272">  2  3  1 -1</clus>
</clustering>
</event>
<event>
 6    0  0.4340992E+002  0.1636571E+03  0.7546771E-02  0.1184629E+00
          2   -1    0    0  502    0 -0.00000000000E+00  0.00000000000E+00  0.20846867827E+04  0.20846867827E+04  0.00000000000E+00 0. -1.
         21   -1    0    0  504  502  0.00000000000E+00 -0.00000000000E+00 -0.11773629846E+03  0.11773629846E+03  0.00000000000E+00 0.  1.
         21    1    1    2  503  505  0.12312742080E+02  0.84436555404E+02 -0.19889809206E+02  0.87617007575E+02  0.00000000000E+00 0.  1.
         21    1    1    2  504  503  0.52674671957E+02  0.52176776425E+02 -0.38034338326E+02  0.83328554265E+02  0.00000000000E+00 0.  1.
         21    1    1    2  505  501  0.33383042161E-01 -0.48266278932E+02  0.89187433652E+03  0.89317941476E+03  0.00000000000E+00 0. -1.
          2    1    1    2  501    0 -0.65020797080E+02 -0.88347052897E+02  0.11330002953E+04  0.11382981046E+04  0.00000000000E+00 0. -1.
<scales pt_clust_3="160.83276" pt_clust_4="50.89031" pt_clust_5="41.40936" pt_clust_6="41.40936"></scales>
<clustering>
<clus scale="   41.409">  5  6 -1 -1</clus>
<clus scale="   50.890">  3  4 -1 -1</clus>
<clus scale="  160.833">  2  3  1 -1</clus>
<clus scale="  160.833">  2  3  1 -1</clus>
</clustering>
</event>
<event>
 6    0  0.4340992E+002  0.1067079E+03  0.7546771E-02  0.1266791E+00
         21   -1    0    0  505  502  0.00000000000E+00  0.00000000000E+00  0.12271196093E+03  0.12271196093E+03  0.00000000000E+00 0.  1.
          2   -1    0    0  503    0 -0.00000000000E+00 -0.00000000000E+00 -0.23433314590E+04  0.23433314590E+04  0.00000000000E+00 0.  1.
         21    1    1    2  503  504 -0.38018921250E+01  0.85604316868E+02 -0.65951645243E+03  0.66505977511E+03  0.00000000000E+00 0.  1.
         21    1    1    2  504  502 -0.66010118324E+00  0.94761346320E+02  0.82754298392E+02  0.12581105831E+03  0.00000000000E+00 0.  1.
         21    1    1    2  505  501  0.54072628494E+02 -0.56470474083E+02 -0.10694373624E+03  0.13247538004E+03  0.00000000000E+00 0.  1.
          2    1    1    2  501    0 -0.49610635185E+02 -0.12389518910E+03 -0.15369136078E+04  0.15426972065E+04  0.00000000000E+00 0.  1.
<scales pt_clust_3="106.70788" pt_clust_4="65.27273" pt_clust_5="78.18416" pt_clust_6="14000.00000"></scales>
<clustering>
<clus scale="   78.184">  1  5  2 -1</clus>
<clus scale="   65.273">  1  4  2 -1</clus>
<clus scale="  106.708">  2  3  1 -1</clus>
<clus scale="   78.184">  1  3  2 -1</clus>
</clustering>
</event>
<event>
 6    0  0.4340992E+002  0.1535457E+03  0.7546771E-02  0.1196183E+00
          2   -1    0    0  504    0 -0.00000000000E+00  0.00000000000E+00  0.32521336121E+03  0.32521336121E+03  0.00000000000E+00 0. -1.
         21   -1    0    0  503  502  0.00000000000E+00 -0.00000000000E+00 -0.27452603227E+03  0.27452603227E+03  0.00000000000E+00 0.  1.
         21    1    1    2  503  501 -0.64389487456E+02 -0.14059514062E+03 -0.19465903280E+03  0.24860639314E+03  0.00000000000E+00 0.  1.
         21    1    1    2  504  505  0.32057677785E+02  0.10085260858E+02  0.33653008222E+02  0.47559774536E+02  0.00000000000E+00 0.  1.
         21    1    1    2  505  502  0.33072119475E+02 -0.26642021778E+02  0.33429442004E+01  0.42599738109E+02  0.00000000000E+00 0.  1.
          2    1    1    2  501    0 -0.74030980428E+00  0.15715190154E+03  0.20835040932E+03  0.26097348770E+03  0.00000000000E+00 0. -1.
<scales pt_clust_3="14000.00000" pt_clust_4="33.60665" pt_clust_5="44.03058" pt_clust_6="153.54566"></scales>
<clustering>
<clus scale="   33.607">  1  4  2 -1</clus>
<clus scale="   44.031">  1  5  2 -1</clus>
<clus scale="  153.546">  1  6  2 -1</clus>
<clus scale="  153.546">  2  3  1 -1</clus>
</clustering>
</event>
<event>
 6    0  0.4340992E+002  0.8489610E+02  0.7546771E-02  0.1315704E+00
         21   -1    0    0  505  502  0.00000000000E+00  0.00000000000E+00  0.82166615139E+03  0.82166615139E+03  0.00000000000E+00 0.  1.
          2   -1    0    0  504    0 -0.00000000000E+00 -0.00000000000E+00 -0.11859398196E+03  0.11859398196E+03  0.00000000000E+00 0.  1.
         21    1    1    2  503  501  0.15432709901E+02 -0.57750645665E+02  0.32095072117E+02  0.67848354909E+02  0.00000000000E+00 0.  1.
         21    1    1    2  504  502  0.21814460350E+01 -0.82234406160E+02  0.53704494115E+03  0.54330886711E+03  0.00000000000E+00 0.  1.
         21    1    1    2  505  503 -0.16964535999E+02  0.41537562584E+02  0.20360711376E+03  0.20849225732E+03  0.00000000000E+00 0. -1.
          2    1    1    2  501    0 -0.64961993671E+00  0.98447489241E+02 -0.69674957604E+02  0.12061065401E+03  0.00000000000E+00 0.  1.
<scales pt_clust_3="14000.00000" pt_clust_4="47.51679" pt_clust_5="44.86830" pt_clust_6="84.89610"></scales>
<clustering>
<clus scale="   44.868">  1  5  2 -1</clus>
<clus scale="   47.517">  1  4  2 -1</clus>
<clus scale="   84.896">  2  6  1 -1</clus>
<clus scale="   44.868">  1  3  2 -1</clus>
</clustering>
</event>
<event>
 6    0  0.4340992E+002  0.9847353E+02  0.7546771E-02  0.1283539E+00
         -1   -1    0    0    0  501 -0.00000000000E+00  0.00000000000E+00  0.58720426010E+03  0.58720426010E+03  0.00000000000E+00 0.  1.
         21   -1    0    0  505  502  0.00000000000E+00 -0.00000000000E+00 -0.10862468009E+04  0.10862468009E+04  0.00000000000E+00 0.  1.
         21    1    1    2  503  502 -0.68083490487E+02 -0.40363107777E+01 -0.99096955257E+03  0.99331380117E+03  0.00000000000E+00 0.  1.
         21    1    1    2  504  503 -0.73396757186E+01 -0.69700829325E+02 -0.73816486931E+02  0.10178875277E+03  0.00000000000E+00 0. -1.
         21    1    1    2  505  501  0.11610834197E+02  0.43971126554E+02  0.15205806319E+03  0.15871334545E+03  0.00000000000E+00 0.  1.
         -1    1    1    2    0  504  0.63812332009E+02  0.29766013548E+02  0.41368543553E+03  0.41963516159E+03  0.00000000000E+00 0.  1.
<scales pt_clust_3="68.16461" pt_clust_4="98.47353" pt_clust_5="45.47825" pt_clust_6="14000.00000"></scales>
<clustering>
<clus scale="   45.478">  1  5  2 -1</clus>
<clus scale="   68.165">  2  3  1 -1</clus>
<clus scale="   98.474">  2  4  1 -1</clus>
<clus scale="   68.165">  2  3  1 -1</clus>
</clustering>
</event>
<event>
 6    0  0.4340992E+002  0.1283621E+03  0.7546771E-02  0.1229906E+00
         21   -1    0    0  504  502  0.00000000000E+00  0.00000000000E+00  0.24657767638E+03  0.24657767638E+03  0.00000000000E+00 0. -1.
         -1   -1    0    0    0  501 -0.00000000000E+00 -0.00000000000E+00 -0.31316972083E+03  0.31316972083E+03  0.00000000000E+00 0. -1.
         21    1    1    2  503  501 -0.41637751240E+02  0.10596123324E+02 -0.21670893162E+02  0.48120762341E+02  0.00000000000E+00 0. -1.
         21    1    1    2  504  503  0.14445459508E+03 -0.78613803984E+02  0.15063991450E+02  0.16514897534E+03  0.00000000000E+00 0. -1.
         21    1    1    2  505  502 -0.35432613390E+02  0.64774335069E+01  0.13043641677E+03  0.13531846162E+03  0.00000000000E+00 0. -1.
         -1    1    1    2    0  505 -0.67384230452E+02  0.61540247153E+02 -0.19042155951E+03  0.21115919791E+03  0.00000000000E+00 0. -1.
<scales pt_clust_3="47.14556" pt_clust_4="128.36214" pt_clust_5="36.01982" pt_clust_6="14000.00000"></scales>
<clustering>
<clus scale="   36.020">  1  5  2 -1</clus>
<clus scale="   47.146">  2  3  1 -1</clus>
<clus scale="  128.362">  1  4  2 -1</clus>
<clus scale="   36.020">  1  3  2 -1</clus>
</clustering>
</event>
<event>
 6    0  0.4340992E+002  0.9960864E+02  0.7546771E-02  0.1281121E+00
         21   -1    0    0  505  502  0.00000000000E+00  0.00000000000E+00  0.20259066663E+03  0.20259066663E+03  0.00000000000E+00 0.  1.
          2   -1    0    0  504    0 -0.00000000000E+00 -0.00000000000E+00 -0.43403090977E+03  0.43403090977E+03  0.00000000000E+00 0. -1.
         21    1    1    2  503  502 -0.12523513983E+03  0.55194215678E+02  0.91360754580E+02  0.16455099261E+03  0.00000000000E+00 0.  1.
         21    1    1    2  504  503  0.39821382836E+02 -0.71202620199E+01 -0.73364697030E+02  0.83778394783E+02  0.00000000000E+00 0. -1.
         21    1    1    2  505  501  0.37091118759E+02 -0.68038977541E+01  0.60837913647E+02  0.71577202043E+02  0.00000000000E+00 0. -1.
          2    1    1    2  501    0  0.48322638236E+02 -0.41270055904E+02 -0.31027421434E+03  0.31671498696E+03  0.00000000000E+00 0. -1.
<scales pt_clust_3="99.60864" pt_clust_4="41.89263" pt_clust_5="37.71000" pt_clust_6="14000.00000"></scales>
<clustering>
<clus scale="   37.710">  1  5  2 -1</clus>
<clus scale="   41.893">  2  4  1 -1</clus>
<clus scale="   99.609">  1  3  2 -1</clus>
<clus scale="   37.710">  1  3  2 -1</clus>
</clustering>
</event>
<event>
 6    0  0.4340992E+002  0.1362067E+03  0.7546771E-02  0.1218526E+00
          2   -1    0    0  505    0 -0.00000000000E+00  0.00000000000E+00  0.41292968728E+03  0.41292968728E+03  0.00000000000E+00 0.  1.
         21   -1    0    0  501  502  0.00000000000E+00 -0.00000000000E+00 -0.31335398455E+03  0.31335398455E+03  0.00000000000E+00 0. -1.
         21    1    1    2  503  504  0.11671777781E+02 -0.13745926258E+03 -0.20502548557E+03  0.24711683269E+03  0.00000000000E+00 0. -1.
         21    1    1    2  504  502 -0.30336352690E+02 -0.13303159294E+01 -0.65385878233E+02  0.72092836727E+02  0.00000000000E+00 0. -1.
         21    1    1    2  505  503  0.20363936933E+02  0.47137186786E+02  0.41456537153E+02  0.65994308680E+02  0.00000000000E+00 0.  1.
          2    1    1    2  501    0 -0.16993620229E+01  0.91652391726E+02  0.32853052938E+03  0.34107969373E+03  0.00000000000E+00 0.  1.
<scales pt_clust_3="136.20671" pt_clust_4="30.36551" pt_clust_5="50.70172" pt_clust_6="14000.00000"></scales>
<clustering>
<clus scale="   30.366">  2  4  1 -1</clus>
<clus scale="   50.702">  1  5  2 -1</clus>
<clus scale="  136.207">  2  3  1 -1</clus>
<clus scale="   30.366">  2  3  1 -1</clus>
</clustering>
</event>
<event>
 6    0  0.4340992E+002  0.1469535E+03  0.7546771E-02  0.1204267E+00
          1   -1    0    0  502    0 -0.00000000000E+00  0.00000000000E+00  0.62623688620E+03  0.62623688620E+03  0.00000000000E+00 0.  1.
         21   -1    0    0  503  502  0.00000000000E+00 -0.00000000000E+00 -0.13128205126E+03  0.13128205126E+03  0.00000000000E+00 0.  1.
         21    1    1    2  503  504  0.42830412840E+02  0.40194571082E+01 -0.70649151873E+02  0.82715796314E+02  0.00000000000E+00 0.  1.
         21    1    1    2  504  505  0.56395883382E+02 -0.10962604035E+03  0.42936084099E+02  0.13054452000E+03  0.00000000000E+00 0.  1.
         21    1    1    2  505  501 -0.57051876461E+02  0.48270260424E+02  0.19231579340E+03  0.20632571105E+03  0.00000000000E+00 0. -1.
          1    1    1    2  501    0 -0.42174419762E+02  0.57336322817E+02  0.33035210931E+03  0.33793291009E+03  0.00000000000E+00 0.  1.
<scales pt_clust_3="43.01860" pt_clust_4="139.85077" pt_clust_5="44.72118" pt_clust_6="44.72118"></scales>
<clustering>
<clus scale="   43.019">  2  3  1 -1</clus>
<clus scale="   44.721">  5  6 -1 -1</clus>
<clus scale="  139.851">  2  4  1 -1</clus>
<clus scale="   43.019">  2  3  1 -1</clus>
</clustering>
</event>
<event>
 6    0  0.4340992E+002  0.8183090E+02  0.7546771E-02  0.1323934E+00
         21   -1    0    0  504  502  0.00000000000E+00  0.00000000000E+00  0.57199133079E+02  0.57199133079E+02  0.00000000000E+00 0. -1.
          2   -1    0    0  505    0 -0.00000000000E+00 -0.00000000000E+00 -0.12664276382E+04  0.12664276382E+04  0.00000000000E+00 0. -1.
         21    1    1    2  503  501 -0.38347828319E+02  0.53909629113E+02 -0.35878475796E+03  0.36483325862E+03  0.00000000000E+00 0. -1.
         21    1    1    2  504  503 -0.36553423019E+02  0.61415497391E+02 -0.36829519998E+02  0.80401676584E+02  0.00000000000E+00 0. -1.
         21    1    1    2  505  502  0.39629742660E+02 -0.85820355993E+02 -0.38747370645E+02  0.10216167940E+03  0.00000000000E+00 0. -1.
          2    1    1    2  501    0  0.35271508678E+02 -0.29504770512E+02 -0.77486685652E+03  0.77623015668E+03  0.00000000000E+00 0. -1.
<scales pt_clust_3="34.45253" pt_clust_4="81.83090" pt_clust_5="14000.00000" pt_clust_6="45.98490"></scales>
<clustering>
<clus scale="   45.985">  2  6  1 -1</clus>
<clus scale="   34.453">  2  3  1 -1</clus>
<clus scale="   81.831">  1  4  2 -1</clus>
<clus scale="   81.831">  1  3  2 -1</clus>
</clustering>
</event>
<event>
 6    0  0.4340992E+002  0.1003214E+03  0.7546771E-02  0.1279622E+00
         21   -1    0    0  503  502  0.00000000000E+00  0.00000000000E+00  0.49683242103E+03  0.49683242103E+03  0.00000000000E+00 0. -1.
          2   -1    0    0  505    0 -0.00000000000E+00 -0.00000000000E+00 -0.12894428999E+04  0.12894428999E+04  0.00000000000E+00 0. -1.
         21    1    1    2  503  501 -0.99544988275E+02  0.83430720506E+02  0.45715155993E+03  0.47524460919E+03  0.00000000000E+00 0. -1.
         21    1    1    2  504  502  0.29904720564E+02 -0.10700383318E+02  0.17049350557E+02  0.36048174290E+02  0.00000000000E+00 0.  1.
         21    1    1    2  505  504  0.43213283181E+02 -0.35039363677E+02 -0.11139994490E+04  0.11153877878E+04  0.00000000000E+00 0. -1.
          2    1    1    2  501    0  0.26426984529E+02 -0.37690973512E+02 -0.15281194033E+03  0.15959474960E+03  0.00000000000E+00 0. -1.
<scales pt_clust_3="100.32138" pt_clust_4="31.76146" pt_clust_5="14000.00000" pt_clust_6="46.21972"></scales>
<clustering>
<clus scale="   31.761">  1  4  2 -1</clus>
<clus scale="   46.220">  2  6  1 -1</clus>
<clus scale="  100.321">  1  3  2 -1</clus>
<clus scale="   31.761">  1  3  2 -1</clus>
</clustering>
</event>
<event>
 6    0  0.4340992E+002  0.1587662E+03  0.7546771E-02  0.1190097E+00
         -1   -1    0    0    0  501 -0.00000000000E+00  0.00000000000E+00  0.86122280541E+03  0.86122280541E+03  0.00000000000E+00 0. -1.
         21   -1    0    0  504  502  0.00000000000E+00 -0.00000000000E+00 -0.23649819048E+04  0.23649819048E+04  0.00000000000E+00 0.  1.
         21    1    1    2  503  502 -0.32537308118E+02 -0.10954657549E+02 -0.18452412020E+04  0.18455605584E+04  0.00000000000E+00 0.  1.
         21    1    1    2  504  501  0.21952012029E+02  0.31515616534E+02  0.28939703009E+02  0.48089825617E+02  0.00000000000E+00 0.  1.
         21    1    1    2  505  503 -0.83071867441E+02 -0.99962174589E+02 -0.49701994426E+03  0.51373358514E+03  0.00000000000E+00 0.  1.
         -1    1    1    2    0  505  0.93657163530E+02  0.79401215604E+02  0.80956234391E+03  0.81882074106E+03  0.00000000000E+00 0. -1.
<scales pt_clust_3="34.33192" pt_clust_4="37.90086" pt_clust_5="14000.00000" pt_clust_6="158.76622"></scales>
<clustering>
<clus scale="   34.332">  2  3  1 -1</clus>
<clus scale="   37.901">  1  4  2 -1</clus>
<clus scale="  158.766">  1  6  2 -1</clus>
<clus scale="   34.332">  2  3  1 -1</clus>
</clustering>
</event>
<event>
 6    0  0.4340992E+002  0.1546665E+03  0.7546771E-02  0.1194853E+00
         -3   -1    0    0    0  501 -0.00000000000E+00  0.00000000000E+00  0.61045725979E+03  0.61045725979E+03  0.00000000000E+00 0.  1.
         21   -1    0    0  501  502  0.00000000000E+00 -0.00000000000E+00 -0.11712350261E+04  0.11712350261E+04  0.00000000000E+00 0. -1.
         21    1    1    2  503  505 -0.17841002443E+02  0.14891646616E+03 -0.55235992559E+03  0.57235994153E+03  0.00000000000E+00 0.  1.
         21    1    1    2  504  503  0.22745409411E+02 -0.90677974637E+02  0.31391699306E+03  0.32754194734E+03  0.00000000000E+00 0.  1.
         21    1    1    2  505  502  0.30307419255E+02 -0.10631444976E+02 -0.59849351763E+03  0.59935470127E+03  0.00000000000E+00 0. -1.
         -3    1    1    2    0  504 -0.35211826222E+02 -0.47607046545E+02  0.27615868384E+03  0.28243569577E+03  0.00000000000E+00 0.  1.
<scales pt_clust_3="138.98366" pt_clust_4="53.92425" pt_clust_5="32.11802" pt_clust_6="53.92425"></scales>
<clustering>
<clus scale="   32.118">  2  5  1 -1</clus>
<clus scale="   53.924">  4  6 -1 -1</clus>
<clus scale="  138.984">  2  3  1 -1</clus>
<clus scale="   32.118">  2  3  1 -1</clus>
</clustering>
</event>
<event>
 6    0  0.4340992E+002  0.1123898E+03  0.7546771E-02  0.1256207E+00
         21   -1    0    0  503  502  0.00000000000E+00  0.00000000000E+00  0.18756965227E+03  0.18756965227E+03  0.00000000000E+00 0. -1.
          2   -1    0    0  504    0 -0.00000000000E+00 -0.00000000000E+00 -0.47835570834E+03  0.47835570834E+03  0.00000000000E+00 0. -1.
         21    1    1    2  503  501 -0.24363641354E+02 -0.11425549427E+03  0.21736793903E+02  0.11882926071E+03  0.00000000000E+00 0. -1.
         21    1    1    2  504  505 -0.37592335160E+02  0.46425066464E+02 -0.68772079192E+02  0.91093739277E+02  0.00000000000E+00 0.  1.
         21    1    1    2  505  502  0.12940322780E+03  0.44698792454E+02  0.55978870801E+02  0.14790811806E+03  0.00000000000E+00 0. -1.
          2    1    1    2  501    0 -0.67447251289E+02  0.23131635353E+02 -0.29972964158E+03  0.30809424257E+03  0.00000000000E+00 0. -1.
<scales pt_clust_3="112.38976" pt_clust_4="59.73668" pt_clust_5="14000.00000" pt_clust_6="108.71462"></scales>
<clustering>
<clus scale="   59.737">  2  4  1 -1</clus>
<clus scale="  112.390">  1  3  2 -1</clus>
<clus scale="  108.715">  2  6  1 -1</clus>
<clus scale="  112.390">  1  3  2 -1</clus>
</clustering>
</event>
<event>
 6    0  0.4340992E+002  0.9709465E+02  0.7546771E-02  0.1286527E+00
         21   -1    0    0  505  502  0.00000000000E+00  0.00000000000E+00  0.98964519072E+03  0.98964519072E+03  0.00000000000E+00 0.  1.
          1   -1    0    0  504    0 -0.00000000000E+00 -0.00000000000E+00 -0.16090433810E+03  0.16090433810E+03  0.00000000000E+00 0. -1.
         21    1    1    2  503  502 -0.70517944963E+01  0.33003743890E+02  0.13180156700E+03  0.13605376871E+03  0.00000000000E+00 0.  1.
         21    1    1    2  504  503  0.59741871714E+02  0.23500171913E+02 -0.58618311227E+02  0.86933628287E+02  0.00000000000E+00 0.  1.
         21    1    1    2  505  501  0.56742977769E+02 -0.11294894296E+03  0.78972520250E+03  0.79977692184E+03  0.00000000000E+00 0.  1.
          1    1    1    2  501    0 -0.10943305499E+03  0.56445027161E+02 -0.34167605649E+02  0.12778520998E+03  0.00000000000E+00 0. -1.
<scales pt_clust_3="33.74870" pt_clust_4="64.29141" pt_clust_5="97.09465" pt_clust_6="14000.00000"></scales>
<clustering>
<clus scale="   33.749">  1  3  2 -1</clus>
<clus scale="   64.291">  2  4  1 -1</clus>
<clus scale="   97.095">  1  5  2 -1</clus>
<clus scale="   33.749">  1  3  2 -1</clus>
</clustering>
</event>
<event>
 6    0  0.4340992E+002  0.9381198E+02  0.7546771E-02  0.1293874E+00
         21   -1    0    0  505  502  0.00000000000E+00  0.00000000000E+00  0.25138363795E+03  0.25138363795E+03  0.00000000000E+00 0. -1.
         -1   -1    0    0    0  501 -0.00000000000E+00 -0.00000000000E+00 -0.11726369134E+04  0.11726369134E+04  0.00000000000E+00 0. -1.
         21    1    1    2  503  501 -0.75237499563E+02  0.33291441135E+02 -0.21688021264E+03  0.23196126406E+03  0.00000000000E+00 0. -1.
         21    1    1    2  504  502  0.21459429414E+02 -0.25467923359E+02  0.22697596001E+03  0.22940620884E+03  0.00000000000E+00 0. -1.
         21    1    1    2  505  503 -0.26169818147E+02  0.49699204977E+02 -0.48156946684E+02  0.73986227577E+02  0.00000000000E+00 0. -1.
         -1    1    1    2    0  504  0.79947888296E+02 -0.57522722753E+02 -0.88319207610E+03  0.88866685083E+03  0.00000000000E+00 0. -1.
<scales pt_clust_3="14000.00000" pt_clust_4="33.30349" pt_clust_5="38.25848" pt_clust_6="93.81198"></scales>
<clustering>
<clus scale="   33.303">  1  4  2 -1</clus>
<clus scale="   38.258">  1  5  2 -1</clus>
<clus scale="   93.812">  2  6  1 -1</clus>
<clus scale="   33.303">  1  3  2 -1</clus>
</clustering>
</event>
<event>
 6    0  0.4340992E+002  0.8271420E+02  0.7546771E-02  0.1321521E+00
         21   -1    0    0  504  502  0.00000000000E+00  0.00000000000E+00  0.14472019554E+03  0.14472019554E+03  0.00000000000E+00 0. -1.
         -2   -1    0    0    0  501 -0.00000000000E+00 -0.00000000000E+00 -0.27463413446E+03  0.27463413446E+03  0.00000000000E+00 0. -1.
         21    1    1    2  503  502  0.21400014282E+02  0.37035196364E+02  0.67217834795E+01  0.43298368955E+02  0.00000000000E+00 0. -1.
         21    1    1    2  504  501 -0.63825486099E+02  0.22405427675E+02 -0.35950462624E+02  0.76603731162E+02  0.00000000000E+00 0. -1.
         21    1    1    2  505  503  0.33217233697E+02 -0.11417479859E+03  0.57304580385E+02  0.13199653094E+03  0.00000000000E+00 0. -1.
         -2    1    1    2    0  505  0.92082381201E+01  0.54734174556E+02 -0.15798984016E+03  0.16745569894E+03  0.00000000000E+00 0. -1.
<scales pt_clust_3="42.77343" pt_clust_4="82.71420" pt_clust_5="14000.00000" pt_clust_6="57.09073"></scales>
<clustering>
<clus scale="   42.773">  1  3  2 -1</clus>
<clus scale="   57.091">  2  6  1 -1</clus>
<clus scale="   82.714">  2  4  1 -1</clus>
<clus scale="   42.773">  1  3  2 -1</clus>
</clustering>
</event>
<event>
 6    0  0.4340992E+002  0.1059198E+03  0.7546771E-02  0.1268318E+00
          2   -1    0    0  504    0 -0.00000000000E+00  0.00000000000E+00  0.92982646899E+03  0.92982646899E+03  0.00000000000E+00 0.  1.
         21   -1    0    0  505  502  0.00000000000E+00 -0.00000000000E+00 -0.10616461317E+04  0.10616461317E+04  0.00000000000E+00 0.  1.
         21    1    1    2  503  502  0.10269603002E+03  0.57736446709E+01 -0.60257068335E+03  0.61128654327E+03  0.00000000000E+00 0.  1.
         21    1    1    2  504  503  0.38227953445E+02  0.11064538634E+02  0.44598661835E+02  0.59773247170E+02  0.00000000000E+00 0. -1.
         21    1    1    2  505  501 -0.11155822684E+02  0.47519937099E+02 -0.43976402199E+03  0.44246467864E+03  0.00000000000E+00 0.  1.
          2    1    1    2  501    0 -0.12976816078E+03 -0.64358120404E+02  0.86591638082E+03  0.87794813160E+03  0.00000000000E+00 0.  1.
<scales pt_clust_3="105.91979" pt_clust_4="39.79699" pt_clust_5="48.81502" pt_clust_6="14000.00000"></scales>
<clustering>
<clus scale="   39.797">  1  4  2 -1</clus>
<clus scale="   48.815">  2  5  1 -1</clus>
<clus scale="  105.920">  2  3  1 -1</clus>
<clus scale="   48.815">  2  3  1 -1</clus>
</clustering>
</event>
<event>
 6    0  0.4340992E+002  0.8787464E+02  0.7546771E-02  0.1308082E+00
         21   -1    0    0  505  502  0.00000000000E+00  0.00000000000E+00  0.54724668863E+03  0.54724668863E+03  0.00000000000E+00 0. -1.
         -2   -1    0    0    0  501 -0.00000000000E+00 -0.00000000000E+00 -0.11574237182E+03  0.11574237182E+03  0.00000000000E+00 0. -1.
         21    1    1    2  503  502 -0.10660296667E+03 -0.70291494394E+02  0.61038286035E+02  0.14153006412E+03  0.00000000000E+00 0. -1.
         21    1    1    2  504  501  0.18969819577E+02 -0.42158620298E+02 -0.21970494222E+01  0.46282073704E+02  0.00000000000E+00 0.  1.
         21    1    1    2  505  504  0.36811240855E+02  0.53775532361E+02  0.39019299715E+03  0.39559758640E+03  0.00000000000E+00 0. -1.
         -2    1    1    2    0  503  0.50821906241E+02  0.58674582331E+02 -0.17529916959E+02  0.79579336227E+02  0.00000000000E+00 0. -1.
<scales pt_clust_3="14000.00000" pt_clust_4="46.22990" pt_clust_5="64.46766" pt_clust_6="87.87464"></scales>
<clustering>
<clus scale="   46.230">  2  4  1 -1</clus>
<clus scale="   64.468">  1  5  2 -1</clus>
<clus scale="   87.875">  2  6  1 -1</clus>
<clus scale="   64.468">  1  3  2 -1</clus>
</clustering>
</event>
<event>
 6    0  0.4340992E+002  0.1037770E+03  0.7546771E-02  0.1272548E+00
         -2   -1    0    0    0  501 -0.00000000000E+00  0.00000000000E+00  0.53176541275E+02  0.53176541275E+02  0.00000000000E+00 0.  1.
         21   -1    0    0  503  502  0.00000000000E+00 -0.00000000000E+00 -0.38167838536E+04  0.38167838536E+04  0.00000000000E+00 0.  1.
         21    1    1    2  503  504  0.36106566926E+02 -0.37656999803E+02 -0.90766211933E+03  0.90916019308E+03  0.00000000000E+00 0.  1.
         21    1    1    2  504  501  0.82859839281E+02 -0.35110763480E+02 -0.16561368649E+03  0.18848451351E+03  0.00000000000E+00 0.  1.
         21    1    1    2  505  502 -0.52571784629E+02  0.13903986879E+03 -0.26727407057E+04  0.26768710760E+04  0.00000000000E+00 0.  1.
         -2    1    1    2    0  505 -0.66394621578E+02 -0.66272105510E+02 -0.17590800814E+02  0.95444612297E+02  0.00000000000E+00 0.  1.
<scales pt_clust_3="52.17024" pt_clust_4="92.91843" pt_clust_5="14000.00000" pt_clust_6="103.77701"></scales>
<clustering>
<clus scale="   52.170">  2  3  1 -1</clus>
<clus scale="   92.918">  1  4  2 -1</clus>
<clus scale="  103.777">  1  6  2 -1</clus>
<clus scale="   52.170">  2  3  1 -1</clus>
</clustering>
</event>
<event>
 6    0  0.4340992E+002  0.8054201E+02  0.7546771E-02  0.1327520E+00
          2   -1    0    0  504    0 -0.00000000000E+00  0.00000000000E+00  0.92933169062E+03  0.92933169062E+03  0.00000000000E+00 0.  1.
         21   -1    0    0  505  502  0.00000000000E+00 -0.00000000000E+00 -0.59954858938E+02  0.59954858938E+02  0.00000000000E+00 0.  1.
         21    1    1    2  503  502  0.87708471831E+02  0.53626827429E+02  0.25925179164E+03  0.27889084624E+03  0.00000000000E+00 0.  1.
         21    1    1    2  504  503 -0.29301526006E+02 -0.61801864681E+02  0.14592780454E+03  0.16116132924E+03  0.00000000000E+00 0.  1.
         21    1    1    2  505  501 -0.19249502423E+02 -0.23684565789E+02 -0.35601259381E+02  0.46892981028E+02  0.00000000000E+00 0.  1.
          2    1    1    2  501    0 -0.39157443402E+02  0.31859603041E+02  0.49979849489E+03  0.50234139305E+03  0.00000000000E+00 0.  1.
<scales pt_clust_3="14000.00000" pt_clust_4="80.54201" pt_clust_5="30.52052" pt_clust_6="50.52258"></scales>
<clustering>
<clus scale="   30.521">  2  5  1 -1</clus>
<clus scale="   50.523">  1  6  2 -1</clus>
<clus scale="   80.542">  1  4  2 -1</clus>
<clus scale="   30.521">  2  3  1 -1</clus>
</clustering>
</event>
<event>
 6    0  0.4340992E+002  0.1227170E+03  0.7546771E-02  0.1238681E+00
          1   -1    0    0  504    0 -0.00000000000E+00  0.00000000000E+00  0.30969616250E+04  0.30969616250E+04  0.00000000000E+00 0.  1.
         21   -1    0    0  503  502  0.00000000000E+00 -0.00000000000E+00 -0.37484610977E+03  0.37484610977E+03  0.00000000000E+00 0.  1.
         21    1    1    2  503  505 -0.12651533119E+03 -0.73589387575E+02 -0.26864751952E+03  0.30592975784E+03  0.00000000000E+00 0.  1.
         21    1    1    2  504  502  0.37433004165E+02  0.93214231710E+02 -0.56009039954E+02  0.11500928376E+03  0.00000000000E+00 0.  1.
         21    1    1    2  505  501  0.53814083428E+02 -0.28595716423E+01  0.37913287656E+03  0.38294369144E+03  0.00000000000E+00 0.  1.
          1    1    1    2  501    0  0.35268243601E+02 -0.16765272493E+02  0.26676391981E+04  0.26679250017E+04  0.00000000000E+00 0.  1.
<scales pt_clust_3="122.71696" pt_clust_4="14000.00000" pt_clust_5="86.95598" pt_clust_6="39.05027"></scales>
<clustering>
<clus scale="   39.050">  1  6  2 -1</clus>
<clus scale="   86.956">  1  5  2 -1</clus>
<clus scale="  122.717">  2  3  1 -1</clus>
<clus scale="  122.717">  2  3  1 -1</clus>
</clustering>
</event>
<event>
 6    0  0.4340992E+002  0.1848928E+03  0.7546771E-02  0.1163150E+00
         21   -1    0    0  503  502  0.00000000000E+00  0.00000000000E+00  0.44011534840E+03  0.44011534840E+03  0.00000000000E+00 0. -1.
          2   -1    0    0  504    0 -0.00000000000E+00 -0.00000000000E+00 -0.16221016825E+03  0.16221016825E+03  0.00000000000E+00 0. -1.
         21    1    1    2  503  505 -0.81430961042E+02  0.17063029488E+03  0.24804071270E+03  0.31188121794E+03  0.00000000000E+00 0. -1.
         21    1    1    2  504  502  0.33376952430E+02  0.15054164569E+01  0.91154717171E+02  0.97084858215E+02  0.00000000000E+00 0. -1.
         21    1    1    2  505  501  0.38263938949E+02 -0.62321042561E+02 -0.23552952794E+02  0.76829570838E+02  0.00000000000E+00 0. -1.
          2    1    1    2  501    0  0.97900696632E+01 -0.10981466877E+03 -0.37737296927E+02  0.11652986965E+03  0.00000000000E+00 0. -1.
<scales pt_clust_3="180.26053" pt_clust_4="33.41088" pt_clust_5="33.75235" pt_clust_6="33.75235"></scales>
<clustering>
<clus scale="   33.411">  1  4  2 -1</clus>
<clus scale="   33.752">  5  6 -1 -1</clus>
<clus scale="  180.261">  1  3  2 -1</clus>
<clus scale="   33.411">  1  3  2 -1</clus>
</clustering>
</event>
<event>
 6    0  0.4340992E+002  0.1792868E+03  0.7546771E-02  0.1168495E+00
         21   -1    0    0  505  502  0.00000000000E+00  0.00000000000E+00  0.12504415934E+03  0.12504415934E+03  0.00000000000E+00 0. -1.
          2   -1    0    0  504    0 -0.00000000000E+00 -0.00000000000E+00 -0.27642483785E+04  0.27642483785E+04  0.00000000000E+00 0.  1.
         21    1    1    2  503  502  0.51285741522E+02  0.34040303572E+02 -0.39815600805E+02  0.73309287394E+02  0.00000000000E+00 0.  1.
         21    1    1    2  504  503 -0.27319331266E+02 -0.15865250412E+02 -0.20555754190E+03  0.20797104381E+03  0.00000000000E+00 0. -1.
         21    1    1    2  505  501  0.12646085927E+03 -0.73269065365E+02  0.53355559781E+02  0.15558766219E+03  0.00000000000E+00 0. -1.
          2    1    1    2  501    0 -0.15042726952E+03  0.55094012205E+02 -0.24471866362E+04  0.24524245444E+04  0.00000000000E+00 0.  1.
<scales pt_clust_3="60.85717" pt_clust_4="31.59196" pt_clust_5="179.28682" pt_clust_6="14000.00000"></scales>
<clustering>
<clus scale="   31.592">  2  4  1 -1</clus>
<clus scale="   60.857">  1  3  2 -1</clus>
<clus scale="  179.287">  1  5  2 -1</clus>
<clus scale="   60.857">  1  3  2 -1</clus>
</clustering>
</event>
<event>
 6    0  0.4340992E+002  0.1079121E+03  0.7546771E-02  0.1264486E+00
         21   -1    0    0  503  502  0.00000000000E+00  0.00000000000E+00  0.42766801958E+03  0.42766801958E+03  0.00000000000E+00 0.  1.
         -2   -1    0    0    0  501 -0.00000000000E+00 -0.00000000000E+00 -0.30278304474E+03  0.30278304474E+03  0.00000000000E+00 0.  1.
         21    1    1    2  503  504  0.27007312368E+02  0.37144584785E+02  0.28083677870E+03  0.28456705953E+03  0.00000000000E+00 0.  1.
         21    1    1    2  504  501 -0.82390245217E+02 -0.13159404255E+02 -0.19023808391E+03  0.20773023612E+03  0.00000000000E+00 0.  1.
         21    1    1    2  505  502  0.84295746198E+02 -0.10114307884E+03  0.69109178684E+02  0.14870028178E+03  0.00000000000E+00 0.  1.
         -2    1    1    2    0  505 -0.28912813349E+02  0.77157898309E+02 -0.34822898640E+02  0.89453486891E+02  0.00000000000E+00 0.  1.
<scales pt_clust_3="45.92510" pt_clust_4="81.49555" pt_clust_5="107.91209" pt_clust_6="14000.00000"></scales>
<clustering>
<clus scale="   45.925">  1  3  2 -1</clus>
<clus scale="   81.496">  2  4  1 -1</clus>
<clus scale="  107.912">  1  5  2 -1</clus>
<clus scale="   45.925">  1  3  2 -1</clus>
</clustering>
</event>
<event>
 6    0  0.4340992E+002  0.1655765E+03  0.7546771E-02  0.1182541E+00
          2   -1    0    0  503    0 -0.00000000000E+00  0.00000000000E+00  0.29065322386E+04  0.29065322386E+04  0.00000000000E+00 0. -1.
         21   -1    0    0  505  502  0.00000000000E+00 -0.00000000000E+00 -0.70349858322E+03  0.70349858322E+03  0.00000000000E+00 0.  1.
         21    1    1    2  503  504 -0.33761847081E+02 -0.52565511782E+02  0.14179011916E+03  0.15494332267E+03  0.00000000000E+00 0.  1.
         21    1    1    2  504  502 -0.62814221163E+02  0.29845504250E+02  0.37901130745E+00  0.69545123149E+02  0.00000000000E+00 0.  1.
         21    1    1    2  505  501 -0.83919495224E+02  0.48795853032E+02 -0.65570824997E+03  0.66285505658E+03  0.00000000000E+00 0.  1.
          2    1    1    2  501    0  0.18049556347E+03 -0.26075845500E+02  0.27165727749E+04  0.27226873195E+04  0.00000000000E+00 0. -1.
<scales pt_clust_3="62.47396" pt_clust_4="69.64911" pt_clust_5="14000.00000" pt_clust_6="165.57647"></scales>
<clustering>
<clus scale="   62.474">  1  3  2 -1</clus>
<clus scale="   69.649">  2  4  1 -1</clus>
<clus scale="  165.576">  1  6  2 -1</clus>
<clus scale="   69.649">  2  3  1 -1</clus>
</clustering>
</event>
<event>
 6    0  0.4340992E+002  0.1373248E+03  0.7546771E-02  0.1216975E+00
         21   -1    0    0  504  502  0.00000000000E+00  0.00000000000E+00  0.42860196232E+03  0.42860196232E+03  0.00000000000E+00 0.  1.
          2   -1    0    0  505    0 -0.00000000000E+00 -0.00000000000E+00 -0.14594952913E+04  0.14594952913E+04  0.00000000000E+00 0.  1.
         21    1    1    2  503  502  0.52492244041E+02 -0.76742173729E+02 -0.24247400814E+03  0.25968912480E+03  0.00000000000E+00 0. -1.
         21    1    1    2  504  501  0.13708859814E+03  0.68881271268E+01  0.38396284317E+03  0.40775997225E+03  0.00000000000E+00 0.  1.
         21    1    1    2  505  503 -0.46138195032E+02  0.68981416111E+02 -0.68846723212E+02  0.10782875362E+03  0.00000000000E+00 0. -1.
          2    1    1    2  501    0 -0.14344264714E+03  0.87263049085E+00 -0.11035354407E+04  0.11128194029E+04  0.00000000000E+00 0.  1.
<scales pt_clust_3="77.78173" pt_clust_4="14000.00000" pt_clust_5="82.98897" pt_clust_6="137.32484"></scales>
<clustering>
<clus scale="   82.989">  2  5  1 -1</clus>
<clus scale="   77.782">  2  3  1 -1</clus>
<clus scale="  137.325">  2  6  1 -1</clus>
<clus scale="  137.325">  1  3  2 -1</clus>
</clustering>
</event>
<event>
 6    0  0.4340992E+002  0.1166143E+03  0.7546771E-02  0.1248789E+00
          2   -1    0    0  505    0 -0.00000000000E+00  0.00000000000E+00  0.46859194517E+03  0.46859194517E+03  0.00000000000E+00 0. -1.
         21   -1    0    0  503  502  0.00000000000E+00 -0.00000000000E+00 -0.91538385840E+03  0.91538385840E+03  0.00000000000E+00 0.  1.
         21    1    1    2  503  504 -0.32018732787E+02  0.17693489768E+02 -0.67871810300E+03  0.67970326038E+03  0.00000000000E+00 0.  1.
         21    1    1    2  504  501 -0.61649857532E+02 -0.42033174427E+02 -0.18842249451E+03  0.20265865174E+03  0.00000000000E+00 0. -1.
         21    1    1    2  505  502  0.34265223048E+02 -0.78560121553E+02  0.25715583402E+02  0.89482341491E+02  0.00000000000E+00 0.  1.
          2    1    1    2  501    0  0.59403367271E+02  0.10289980621E+03  0.39463310088E+03  0.41213154996E+03  0.00000000000E+00 0. -1.
<scales pt_clust_3="36.58222" pt_clust_4="116.61429" pt_clust_5="81.84536" pt_clust_6="14000.00000"></scales>
<clustering>
<clus scale="   36.582">  2  3  1 -1</clus>
<clus scale="   81.845">  2  5  1 -1</clus>
<clus scale="  116.614">  2  4  1 -1</clus>
<clus scale="   36.582">  2  3  1 -1</clus>
</clustering>
</event>
<event>
 6    0  0.4340992E+002  0.1086642E+03  0.7546771E-02  0.1263064E+00
          1   -1    0    0  504    0 -0.00000000000E+00  0.00000000000E+00  0.14434814778E+04  0.14434814778E+04  0.00000000000E+00 0. -1.
         21   -1    0    0  503  502  0.00000000000E+00 -0.00000000000E+00 -0.18929977110E+03  0.18929977110E+03  0.00000000000E+00 0.  1.
         21    1    1    2  503  501  0.16989449082E+02  0.29316512360E+02 -0.17712695047E+02  0.38234001137E+02  0.00000000000E+00 0.  1.
         21    1    1    2  504  505 -0.37598509128E+02 -0.98371673687E+01  0.12860212168E+03  0.13434628186E+03  0.00000000000E+00 0.  1.
         21    1    1    2  505  502 -0.80506488610E+02 -0.11490344687E+03 -0.12282837534E+03  0.18646958626E+03  0.00000000000E+00 0.  1.
          1    1    1    2  501    0  0.10111554866E+03  0.95424101882E+02  0.12661206554E+04  0.12737313797E+04  0.00000000000E+00 0. -1.
<scales pt_clust_3="33.88361" pt_clust_4="38.44176" pt_clust_5="14000.00000" pt_clust_6="108.66415"></scales>
<clustering>
<clus scale="   33.884">  2  3  1 -1</clus>
<clus scale="   38.442">  1  4  2 -1</clus>
<clus scale="  108.664">  1  6  2 -1</clus>
<clus scale="   33.884">  2  3  1 -1</clus>
</clustering>
</event>
<event>
 6    0  0.4340992E+002  0.1237551E+03  0.7546771E-02  0.1237028E+00
          2   -1    0    0  503    0 -0.00000000000E+00  0.00000000000E+00  0.87083650952E+03  0.87083650952E+03  0.00000000000E+00 0.  1.
         21   -1    0    0  505  502  0.00000000000E+00 -0.00000000000E+00 -0.17595520769E+03  0.17595520769E+03  0.00000000000E+00 0. -1.
         21    1    1    2  503  504 -0.20450654647E+02 -0.24322034108E+02  0.86647374233E+02  0.92290617508E+02  0.00000000000E+00 0. -1.
         21    1    1    2  504  502 -0.12337067572E+03  0.12202437464E+03 -0.21116842386E+02  0.17480329707E+03  0.00000000000E+00 0. -1.
         21    1    1    2  505  501  0.40969076082E+02 -0.94498212208E+02 -0.33961142120E+02  0.10845153978E+03  0.00000000000E+00 0. -1.
          2    1    1    2  501    0  0.10285225429E+03 -0.32041283274E+01  0.66331191210E+03  0.67124626285E+03  0.00000000000E+00 0.  1.
<scales pt_clust_3="31.77720" pt_clust_4="123.75512" pt_clust_5="14000.00000" pt_clust_6="88.68958"></scales>
<clustering>
<clus scale="   31.777">  1  3  2 -1</clus>
<clus scale="   88.690">  1  6  2 -1</clus>
<clus scale="  123.755">  1  4  2 -1</clus>
<clus scale="  123.755">  2  3  1 -1</clus>
</clustering>
</event>
<event>
 6    0  0.4340992E+002  0.9665718E+02  0.7546771E-02  0.1287487E+00
         21   -1    0    0  505  502  0.00000000000E+00  0.00000000000E+00  0.43449366994E+03  0.43449366994E+03  0.00000000000E+00 0.  1.
         -3   -1    0    0    0  501 -0.00000000000E+00 -0.00000000000E+00 -0.16209023434E+03  0.16209023434E+03  0.00000000000E+00 0. -1.
         21    1    1    2  503  504  0.86862819966E+02  0.88679147672E+01  0.42958062874E+02  0.97309735230E+02  0.00000000000E+00 0.  1.
         21    1    1    2  504  501 -0.13877194765E+01 -0.31920028844E+02 -0.12845732616E+02  0.34435836757E+02  0.00000000000E+00 0. -1.
         21    1    1    2  505  503 -0.87651323676E+02  0.55157694730E+02  0.34342925994E+03  0.35870431055E+03  0.00000000000E+00 0.  1.
         -3    1    1    2    0  502  0.21762231871E+01 -0.32105580654E+02 -0.10113815459E+03  0.10613402174E+03  0.00000000000E+00 0. -1.
<scales pt_clust_3="96.65718" pt_clust_4="31.95018" pt_clust_5="14000.00000" pt_clust_6="56.01081"></scales>
<clustering>
<clus scale="   31.950">  2  4  1 -1</clus>
<clus scale="   56.011">  2  6  1 -1</clus>
<clus scale="   96.657">  2  3  1 -1</clus>
<clus scale="   96.657">  1  3  2 -1</clus>
</clustering>
</event>
<event>
 6    0  0.4340992E+002  0.1225501E+03  0.7546771E-02  0.1238949E+00
          1   -1    0    0  504    0 -0.00000000000E+00  0.00000000000E+00  0.50874711858E+03  0.50874711858E+03  0.00000000000E+00 0. -1.
         21   -1    0    0  505  502  0.00000000000E+00 -0.00000000000E+00 -0.55166495455E+03  0.55166495455E+03  0.00000000000E+00 0.  1.
         21    1    1    2  503  502 -0.90118347452E+02 -0.52473989378E+02 -0.20464783598E+03  0.22968581340E+03  0.00000000000E+00 0. -1.
         21    1    1    2  504  503  0.15732585977E+02  0.43895514749E+02  0.91424253846E+02  0.10262906347E+03  0.00000000000E+00 0. -1.
         21    1    1    2  505  501  0.72522345494E+00 -0.35822133772E+02 -0.32326187693E+03  0.32524143692E+03  0.00000000000E+00 0.  1.
          1    1    1    2  501    0  0.73660538019E+02  0.44400608401E+02  0.39356762309E+03  0.40285575934E+03  0.00000000000E+00 0. -1.
<scales pt_clust_3="122.55007" pt_clust_4="45.80608" pt_clust_5="35.82947" pt_clust_6="14000.00000"></scales>
<clustering>
<clus scale="   35.829">  2  5  1 -1</clus>
<clus scale="   45.806">  1  4  2 -1</clus>
<clus scale="  122.550">  2  3  1 -1</clus>
<clus scale="   35.829">  2  3  1 -1</clus>
</clustering>
</event>
<event>
 6    0  0.4340992E+002  0.8329602E+02  0.7546771E-02  0.1319950E+00
          2   -1    0    0  504    0 -0.00000000000E+00  0.00000000000E+00  0.15421591176E+04  0.15421591176E+04  0.00000000000E+00 0.  1.
         21   -1    0    0  503  502  0.00000000000E+00 -0.00000000000E+00 -0.43970025168E+03  0.43970025168E+03  0.00000000000E+00 0. -1.
         21    1    1    2  503  501 -0.50403074156E+02 -0.29967931736E+02  0.37462281315E+03  0.37918438648E+03  0.00000000000E+00 0. -1.
         21    1    1    2  504  505 -0.26555002521E+02  0.18145832088E+02  0.10585960438E+03  0.11063767541E+03  0.00000000000E+00 0. -1.
         21    1    1    2  505  502 -0.20197769358E+02 -0.53012603122E+02 -0.42993467372E+03  0.43366128446E+03  0.00000000000E+00 0. -1.
          2    1    1    2  501    0  0.97155846035E+02  0.64834702771E+02  0.10519111221E+04  0.10583760230E+04  0.00000000000E+00 0.  1.
<scales pt_clust_3="83.29602" pt_clust_4="32.16270" pt_clust_5="56.72020" pt_clust_6="14000.00000"></scales>
<clustering>
<clus scale="   32.163">  1  4  2 -1</clus>
<clus scale="   56.720">  2  5  1 -1</clus>
<clus scale="   83.296">  2  3  1 -1</clus>
<clus scale="   56.720">  2  3  1 -1</clus>
</clustering>
</event>
<event>
 6    0  0.4340992E+002  0.1411422E+03  0.7546771E-02  0.1211800E+00
          2   -1    0    0  504    0 -0.00000000000E+00  0.00000000000E+00  0.27306166492E+04  0.27306166492E+04  0.00000000000E+00 0.  1.
         21   -1    0    0  505  502  0.00000000000E+00 -0.00000000000E+00 -0.74930888016E+02  0.74930888016E+02  0.00000000000E+00 0.  1.
         21    1    1    2  503  501 -0.30650322971E+02  0.75498219141E+02  0.15345984634E+04  0.15367601853E+04  0.00000000000E+00 0.  1.
         21    1    1    2  504  502  0.92985782048E+02 -0.58252420986E+02 -0.25201877673E+02  0.11258256904E+03  0.00000000000E+00 0.  1.
         21    1    1    2  505  503 -0.38899621739E+01 -0.31251067434E+02  0.55899580544E+02  0.64160144377E+02  0.00000000000E+00 0.  1.
          2    1    1    2  501    0 -0.58445496903E+02  0.14005269278E+02  0.10903895949E+04  0.10920446385E+04  0.00000000000E+00 0.  1.
<scales pt_clust_3="55.13938" pt_clust_4="125.76787" pt_clust_5="31.49224" pt_clust_6="55.13938"></scales>
<clustering>
<clus scale="   31.492">  2  5  1 -1</clus>
<clus scale="   55.139">  3  6 -1 -1</clus>
<clus scale="  125.768">  2  4  1 -1</clus>
<clus scale="   31.492">  2  3  1 -1</clus>
</clustering>
</event>
<event>
 6    0  0.4340992E+002  0.1404911E+03  0.7546771E-02  0.1212670E+00
          2   -1    0    0  504    0 -0.00000000000E+00  0.00000000000E+00  0.19852761455E+04  0.19852761455E+04  0.00000000000E+00 0.  1.
         21   -1    0    0  501  502  0.00000000000E+00 -0.00000000000E+00 -0.22754240975E+03  0.22754240975E+03  0.00000000000E+00 0. -1.
         21    1    1    2  503  502  0.23130689020E+02 -0.47250209285E+02 -0.11032021177E+03  0.12222176638E+03  0.00000000000E+00 0. -1.
         21    1    1    2  504  505 -0.29635486088E+02  0.32188829304E+02  0.23544294526E+03  0.23947393018E+03  0.00000000000E+00 0. -1.
         21    1    1    2  505  503  0.76459622065E+02 -0.34062637672E+02 -0.92008594850E+02  0.12438616731E+03  0.00000000000E+00 0. -1.
          2    1    1    2  501    0 -0.69954824997E+02  0.49124017652E+02  0.17246195971E+04  0.17267366913E+04  0.00000000000E+00 0.  1.
<scales pt_clust_3="45.91522" pt_clust_4="43.75366" pt_clust_5="45.91522" pt_clust_6="128.02046"></scales>
<clustering>
<clus scale="   43.754">  1  4  2 -1</clus>
<clus scale="   45.915">  3  5 -1 -1</clus>
<clus scale="  128.020">  1  6  2 -1</clus>
<clus scale="  140.491">  2  3  1 -1</clus>
</clustering>
</event>
<event>
 6    0  0.4340992E+002  0.1338256E+03  0.7546771E-02  0.1221887E+00
         21   -1    0    0  505  502  0.00000000000E+00  0.00000000000E+00  0.24705607993E+03  0.24705607993E+03  0.00000000000E+00 0.  1.
          1   -1    0    0  504    0 -0.00000000000E+00 -0.00000000000E+00 -0.47594044629E+03  0.47594044629E+03  0.00000000000E+00 0. -1.
         21    1    1    2  503  502  0.70404143191E+02  0.28140001428E+02 -0.68134222492E+02  0.10193564310E+03  0.00000000000E+00 0. -1.
         21    1    1    2  504  503 -0.15295456359E+02 -0.41748172298E+02 -0.10407776062E+03  0.11317703447E+03  0.00000000000E+00 0. -1.
         21    1    1    2  505  501 -0.12545289169E+03  0.57792259300E+02  0.19720263987E+03  0.24076389771E+03  0.00000000000E+00 0.  1.
          1    1    1    2  501    0  0.70344204863E+02 -0.44184088430E+02 -0.25387502313E+03  0.26711995095E+03  0.00000000000E+00 0. -1.
<scales pt_clust_3="69.36866" pt_clust_4="44.46190" pt_clust_5="133.82560" pt_clust_6="14000.00000"></scales>
<clustering>
<clus scale="   44.462">  2  4  1 -1</clus>
<clus scale="   69.369">  2  3  1 -1</clus>
<clus scale="  133.826">  1  5  2 -1</clus>
<clus scale="  133.826">  1  3  2 -1</clus>
</clustering>
</event>
<event>
 6    0  0.4340992E+002  0.8041700E+02  0.7546771E-02  0.1327872E+00
         21   -1    0    0  503  502  0.00000000000E+00  0.00000000000E+00  0.98254538933E+01  0.98254538933E+01  0.00000000000E+00 0. -1.
          2   -1    0    0  504    0 -0.00000000000E+00 -0.00000000000E+00 -0.34916071583E+04  0.34916071583E+04  0.00000000000E+00 0. -1.
         21    1    1    2  503  501 -0.97609708122E+02 -0.28205497663E+02 -0.64300855167E+03  0.65098633069E+03  0.00000000000E+00 0. -1.
         21    1    1    2  504  505 -0.15320423124E+02 -0.27531786406E+02 -0.81124441583E+03  0.81185603210E+03  0.00000000000E+00 0. -1.
         21    1    1    2  505  502  0.66974227880E+02  0.26994330122E+02 -0.24959746299E+03  0.25983289743E+03  0.00000000000E+00 0. -1.
          2    1    1    2  501    0  0.45955903366E+02  0.28742953948E+02 -0.17779312739E+04  0.17787573519E+04  0.00000000000E+00 0. -1.
<scales pt_clust_3="14000.00000" pt_clust_4="31.50737" pt_clust_5="80.41700" pt_clust_6="37.29130"></scales>
<clustering>
<clus scale="   31.507">  2  4  1 -1</clus>
<clus scale="   37.291">  2  6  1 -1</clus>
<clus scale="   80.417">  1  5  2 -1</clus>
<clus scale="   80.417">  1  3  2 -1</clus>
</clustering>
</event>
<event>
 6    0  0.4340992E+002  0.1390462E+03  0.7546771E-02  0.1214618E+00
         21   -1    0    0  504  502  0.00000000000E+00  0.00000000000E+00  0.11301896585E+04  0.11301896585E+04  0.00000000000E+00 0.  1.
          2   -1    0    0  503    0 -0.00000000000E+00 -0.00000000000E+00 -0.94480432253E+03  0.94480432253E+03  0.00000000000E+00 0. -1.
         21    1    1    2  503  505  0.35894696605E+02 -0.31467928416E+02 -0.14096515983E+03  0.14882820985E+03  0.00000000000E+00 0.  1.
         21    1    1    2  504  501 -0.35912590156E+02 -0.60608082494E+02  0.50483005016E+03  0.50972191766E+03  0.00000000000E+00 0. -1.
         21    1    1    2  505  502 -0.82098793503E+02  0.13545827104E+03  0.60606497917E+03  0.62642151469E+03  0.00000000000E+00 0.  1.
          2    1    1    2  501    0  0.82116687054E+02 -0.43382260127E+02 -0.78454453352E+03  0.79002233884E+03  0.00000000000E+00 0. -1.
<scales pt_clust_3="47.73531" pt_clust_4="70.47592" pt_clust_5="14000.00000" pt_clust_6="139.04620"></scales>
<clustering>
<clus scale="   47.735">  2  3  1 -1</clus>
<clus scale="   70.476">  1  4  2 -1</clus>
<clus scale="  139.046">  2  6  1 -1</clus>
<clus scale="   70.476">  1  3  2 -1</clus>
</clustering>
</event>
<event>
 6    0  0.4340992E+002  0.2469463E+03  0.7546771E-02  0.1115250E+00
          2   -1    0    0  505    0 -0.00000000000E+00  0.00000000000E+00  0.22820412817E+03  0.22820412817E+03  0.00000000000E+00 0.  1.
         21   -1    0    0  503  502  0.00000000000E+00 -0.00000000000E+00 -0.77034786364E+03  0.77034786364E+03  0.00000000000E+00 0.  1.
         21    1    1    2  503  504  0.10348580668E+03  0.68183120648E+02 -0.94006125138E+02  0.15554871163E+03  0.00000000000E+00 0.  1.
         21    1    1    2  504  501 -0.13396536575E+03  0.53781222939E+02  0.19380836636E+01  0.14437068722E+03  0.00000000000E+00 0.  1.
         21    1    1    2  505  502  0.12019188414E+03 -0.13815772578E+03 -0.54022867975E+03  0.57042148682E+03  0.00000000000E+00 0.  1.
          2    1    1    2  501    0 -0.89712325070E+02  0.16193382190E+02  0.90152985750E+02  0.12821110613E+03  0.00000000000E+00 0.  1.
<scales pt_clust_3="123.92841" pt_clust_4="82.93528" pt_clust_5="223.80919" pt_clust_6="82.93528"></scales>
<clustering>
<clus scale="   82.935">  4  6 -1 -1</clus>
<clus scale="  123.928">  2  3  1 -1</clus>
<clus scale="  223.809">  2  5  1 -1</clus>
<clus scale="  123.928">  2  3  1 -1</clus>
</clustering>
</event>
<event>
 6    0  0.4340992E+002  0.9804703E+02  0.7546771E-02  0.1284457E+00
         21   -1    0    0  505  502  0.00000000000E+00  0.00000000000E+00  0.48277343716E+03  0.48277343716E+03  0.00000000000E+00 0.  1.
          2   -1    0    0  503    0 -0.00000000000E+00 -0.00000000000E+00 -0.24308328961E+04  0.24308328961E+04  0.00000000000E+00 0. -1.
         21    1    1    2  503  502  0.40147644304E+02  0.42646551986E+01 -0.35558019673E+03  0.35786491436E+03  0.00000000000E+00 0.  1.
         21    1    1    2  504  501 -0.46891464355E+02 -0.12612797221E+03 -0.27827150270E+03  0.30909885800E+03  0.00000000000E+00 0. -1.
         21    1    1    2  505  504 -0.40194060721E+02  0.73568966337E+02  0.46180542027E+03  0.46935296048E+03  0.00000000000E+00 0.  1.
          2    1    1    2  501    0  0.46937880773E+02  0.48294350671E+02 -0.17760131798E+04  0.17772896004E+04  0.00000000000E+00 0. -1.
<scales pt_clust_3="40.37351" pt_clust_4="14000.00000" pt_clust_5="83.80472" pt_clust_6="98.04703"></scales>
<clustering>
<clus scale="   40.374">  2  3  1 -1</clus>
<clus scale="   83.805">  1  5  2 -1</clus>
<clus scale="   98.047">  2  6  1 -1</clus>
<clus scale="   83.805">  1  3  2 -1</clus>
</clustering>
</event>
<event>
 6    0  0.4340992E+002  0.9500033E+02  0.7546771E-02  0.1291175E+00
         21   -1    0    0  504  502  0.00000000000E+00  0.00000000000E+00  0.15972984203E+03  0.15972984203E+03  0.00000000000E+00 0. -1.
          2   -1    0    0  505    0 -0.00000000000E+00 -0.00000000000E+00 -0.24845839214E+04  0.24845839214E+04  0.00000000000E+00 0.  1.
         21    1    1    2  503  501 -0.55039723886E+02  0.30050179294E+02 -0.20949549514E+03  0.21867955314E+03  0.00000000000E+00 0.  1.
         21    1    1    2  504  503  0.36676878171E+02 -0.45475000855E+02  0.14009591725E+03  0.15178944339E+03  0.00000000000E+00 0. -1.
         21    1    1    2  505  502 -0.56691318943E+02 -0.47573500704E+02 -0.16206835676E+03  0.17816648359E+03  0.00000000000E+00 0. -1.
          2    1    1    2  501    0  0.75054164658E+02  0.62998322265E+02 -0.20933861447E+04  0.20956782833E+04  0.00000000000E+00 0.  1.
<scales pt_clust_3="45.34333" pt_clust_4="58.42233" pt_clust_5="14000.00000" pt_clust_6="95.00033"></scales>
<clustering>
<clus scale="   58.422">  1  4  2 -1</clus>
<clus scale="   45.343">  1  3  2 -1</clus>
<clus scale="   95.000">  2  6  1 -1</clus>
<clus scale="   58.422">  1  3  2 -1</clus>
</clustering>
</event>
<event>
 6    0  0.4340992E+002  0.1297264E+03  0.7546771E-02  0.1227862E+00
          1   -1    0    0  505    0 -0.00000000000E+00  0.00000000000E+00  0.12734397199E+04  0.12734397199E+04  0.00000000000E+00 0.  1.
         21   -1    0    0  503  502  0.00000000000E+00 -0.00000000000E+00 -0.17850233575E+03  0.17850233575E+03  0.00000000000E+00 0.  1.
         21    1    1    2  503  501 -0.45783274697E+02 -0.11760440236E+03  0.46433212565E+03  0.48117691820E+03  0.00000000000E+00 0.  1.
         21    1    1    2  504  502 -0.29443976521E+02 -0.14276644775E+02 -0.61631940688E+02  0.69780129352E+02  0.00000000000E+00 0.  1.
         21    1    1    2  505  504  0.57140573369E+01  0.14286922805E+03 -0.52956799139E+02  0.15247520897E+03  0.00000000000E+00 0.  1.
          1    1    1    2  501    0  0.69513193882E+02 -0.10988180918E+02  0.74519399829E+03  0.74850979909E+03  0.00000000000E+00 0.  1.
<scales pt_clust_3="129.72644" pt_clust_4="32.72263" pt_clust_5="14000.00000" pt_clust_6="69.98214"></scales>
<clustering>
<clus scale="   32.723">  2  4  1 -1</clus>
<clus scale="   69.982">  1  6  2 -1</clus>
<clus scale="  129.726">  1  3  2 -1</clus>
<clus scale="   32.723">  2  3  1 -1</clus>
</clustering>
</event>
<event>
 6    0  0.4340992E+002  0.1587943E+03  0.7546771E-02  0.1190065E+00
         21   -1    0    0  504  502  0.00000000000E+00  0.00000000000E+00  0.28611097241E+03  0.28611097241E+03  0.00000000000E+00 0. -1.
          1   -1    0    0  503    0 -0.00000000000E+00 -0.00000000000E+00 -0.68806907437E+03  0.68806907437E+03  0.00000000000E+00 0.  1.
         21    1    1    2  503  505  0.33815338457E+02 -0.27759609078E+02 -0.36613332293E+02  0.57049181526E+02  0.00000000000E+00 0. -1.
         21    1    1    2  504  501 -0.44412743008E+02 -0.49082337856E+01  0.16505773720E+02  0.47634263577E+02  0.00000000000E+00 0. -1.
         21    1    1    2  505  502 -0.44042666794E+02 -0.12938379943E+03  0.21159712284E+03  0.25189931807E+03  0.00000000000E+00 0. -1.
          1    1    1    2  501    0  0.54640071346E+02  0.16205164229E+03 -0.59344766622E+03  0.61759728360E+03  0.00000000000E+00 0.  1.
<scales pt_clust_3="43.75012" pt_clust_4="43.94791" pt_clust_5="158.79427" pt_clust_6="14000.00000"></scales>
<clustering>
<clus scale="   43.750">  2  3  1 -1</clus>
<clus scale="   43.948">  1  4  2 -1</clus>
<clus scale="  158.794">  1  5  2 -1</clus>
<clus scale="   43.948">  1  3  2 -1</clus>
</clustering>
</event>
<event>
 6    0  0.4340992E+002  0.8819860E+02  0.7546771E-02  0.1307274E+00
         21   -1    0    0  501  502  0.00000000000E+00  0.00000000000E+00  0.94230307007E+03  0.94230307007E+03  0.00000000000E+00 0.  1.
          2   -1    0    0  504    0 -0.00000000000E+00 -0.00000000000E+00 -0.27548320404E+04  0.27548320404E+04  0.00000000000E+00 0. -1.
         21    1    1    2  503  505 -0.70476464030E+02 -0.20829448495E+02  0.13212179317E+03  0.15118520476E+03  0.00000000000E+00 0.  1.
         21    1    1    2  504  503 -0.32358520330E+02  0.63434730946E+01 -0.18513469319E+03  0.18804831324E+03  0.00000000000E+00 0.  1.
         21    1    1    2  505  502  0.98704365102E+00 -0.33874660335E+02  0.79759076007E+03  0.79831039540E+03  0.00000000000E+00 0.  1.
          2    1    1    2  501    0  0.10184794071E+03  0.48360635735E+02 -0.25571068304E+04  0.25595911971E+04  0.00000000000E+00 0. -1.
<scales pt_clust_3="88.19860" pt_clust_4="32.97444" pt_clust_5="33.88802" pt_clust_6="14000.00000"></scales>
<clustering>
<clus scale="   32.974">  2  4  1 -1</clus>
<clus scale="   33.888">  1  5  2 -1</clus>
<clus scale="   88.199">  1  3  2 -1</clus>
<clus scale="   33.888">  1  3  2 -1</clus>
</clustering>
</event>
<event>
 6    0  0.4340992E+002  0.1388513E+03  0.7546771E-02  0.1214883E+00
         21   -1    0    0  505  502  0.00000000000E+00  0.00000000000E+00  0.14487365880E+03  0.14487365880E+03  0.00000000000E+00 0. -1.
          2   -1    0    0  504    0 -0.00000000000E+00 -0.00000000000E+00 -0.44232256453E+03  0.44232256453E+03  0.00000000000E+00 0. -1.
         21    1    1    2  503  502  0.23631860577E+02 -0.10649929045E+03  0.83236488592E+02  0.13721835422E+03  0.00000000000E+00 0. -1.
         21    1    1    2  504  503  0.16108174753E+02  0.35158773938E+02 -0.33469819323E+02  0.51145297772E+02  0.00000000000E+00 0. -1.
         21    1    1    2  505  501  0.30057149237E+02 -0.33960784136E+02 -0.22952641050E+02  0.50829035113E+02  0.00000000000E+00 0.  1.
          2    1    1    2  501    0 -0.69797184567E+02  0.10530130065E+03 -0.32426293395E+03  0.34800353622E+03  0.00000000000E+00 0. -1.
<scales pt_clust_3="14000.00000" pt_clust_4="38.67315" pt_clust_5="44.02905" pt_clust_6="138.85133"></scales>
<clustering>
<clus scale="   38.673">  2  4  1 -1</clus>
<clus scale="   44.029">  1  5  2 -1</clus>
<clus scale="  138.851">  2  6  1 -1</clus>
<clus scale="   44.029">  1  3  2 -1</clus>
</clustering>
</event>
<event>
 6    0  0.4340992E+002  0.1210687E+03  0.7546771E-02  0.1241344E+00
          2   -1    0    0  503    0 -0.00000000000E+00  0.00000000000E+00  0.19079990962E+04  0.19079990962E+04  0.00000000000E+00 0.  1.
         21   -1    0    0  505  502  0.00000000000E+00 -0.00000000000E+00 -0.42226747755E+02  0.42226747755E+02  0.00000000000E+00 0. -1.
         21    1    1    2  503  502 -0.32339500844E+02 -0.24782055130E+02 -0.17339616208E+02  0.44279293824E+02  0.00000000000E+00 0. -1.
         21    1    1    2  504  501 -0.18937539006E+02 -0.42374350804E+02  0.34499460680E+03  0.34810270713E+03  0.00000000000E+00 0.  1.
         21    1    1    2  505  504  0.77566220744E+02  0.11991107326E+03  0.55900946896E+03  0.57696340479E+03  0.00000000000E+00 0.  1.
          2    1    1    2  501    0 -0.26289180895E+02 -0.52754667323E+02  0.97910788890E+03  0.98088043821E+03  0.00000000000E+00 0.  1.
<scales pt_clust_3="40.74302" pt_clust_4="38.20676" pt_clust_5="113.15403" pt_clust_6="38.20676"></scales>
<clustering>
<clus scale="   38.207">  4  6 -1 -1</clus>
<clus scale="   40.743">  2  3  1 -1</clus>
<clus scale="  113.154">  2  5  1 -1</clus>
<clus scale="   40.743">  2  3  1 -1</clus>
</clustering>
</event>
<event>
 6    0  0.4340992E+002  0.6887895E+02  0.7546771E-02  0.1363947E+00
          2   -1    0    0  504    0 -0.00000000000E+00  0.00000000000E+00  0.91897291405E+03  0.91897291405E+03  0.00000000000E+00 0.  1.
         21   -1    0    0  505  502  0.00000000000E+00 -0.00000000000E+00 -0.27416284506E+02  0.27416284506E+02  0.00000000000E+00 0.  1.
         21    1    1    2  503  502 -0.28251407554E+02 -0.51658677822E+02  0.11851970076E+03  0.13233926285E+03  0.00000000000E+00 0.  1.
         21    1    1    2  504  503 -0.14797108079E+02 -0.68833499271E+02  0.51076316846E+03  0.51559288134E+03  0.00000000000E+00 0.  1.
         21    1    1    2  505  501  0.50768598539E+02  0.53982010753E+02  0.11697024410E+03  0.13846857436E+03  0.00000000000E+00 0.  1.
          2    1    1    2  501    0 -0.77200829057E+01  0.66510166341E+02  0.14530351622E+03  0.15998848000E+03  0.00000000000E+00 0.  1.
<scales pt_clust_3="58.87921" pt_clust_4="68.87895" pt_clust_5="44.90982" pt_clust_6="14000.00000"></scales>
<clustering>
<clus scale="   58.879">  2  3  1 -1</clus>
<clus scale="   44.910">  2  5  1 -1</clus>
<clus scale="   68.879">  1  4  2 -1</clus>
<clus scale="   58.879">  2  3  1 -1</clus>
</clustering>
</event>
<event>
 6    0  0.4891391E+002  0.1189687E+03  0.7546771E-02  0.1244808E+00
          2   -1    0    0  503    0 -0.00000000000E+00  0.00000000000E+00  0.34820953687E+04  0.34820953687E+04  0.00000000000E+00 0. -1.
         21   -1    0    0  504  502  0.00000000000E+00 -0.00000000000E+00 -0.55921569355E+03  0.55921569355E+03  0.00000000000E+00 0.  1.
         21    1    1    2  503  505  0.40912138762E+02  0.97592775370E+01  0.77604474944E+03  0.77718369755E+03  0.00000000000E+00 0. -1.
         21    1    1    2  504  501 -0.99553651689E+02  0.20356142171E+02 -0.54002213995E+03  0.54949905707E+03  0.00000000000E+00 0.  1.
         21    1    1    2  505  502 -0.62743500241E+01  0.34902521320E+02  0.10906993554E+02  0.37101428155E+02  0.00000000000E+00 0. -1.
          2    1    1    2  501    0  0.64915862950E+02 -0.65017941028E+02  0.26759500722E+04  0.26775268795E+04  0.00000000000E+00 0. -1.
<scales pt_clust_3="42.06213" pt_clust_4="14000.00000" pt_clust_5="35.46200" pt_clust_6="118.96875"></scales>
<clustering>
<clus scale="   35.462">  2  5  1 -1</clus>
<clus scale="   42.062">  1  3  2 -1</clus>
<clus scale="  118.969">  1  6  2 -1</clus>
<clus scale="   35.462">  2  3  1 -1</clus>
</clustering>
</event>
<event>
 6    0  0.4340992E+002  0.7062625E+02  0.7546771E-02  0.1357976E+00
         21   -1    0    0  503  502  0.00000000000E+00  0.00000000000E+00  0.73575722325E+02  0.73575722325E+02  0.00000000000E+00 0.  1.
          1   -1    0    0  504    0 -0.00000000000E+00 -0.00000000000E+00 -0.77260729310E+03  0.77260729310E+03  0.00000000000E+00 0.  1.
         21    1    1    2  503  501  0.70361102162E+02 -0.46078563694E+02 -0.10233752291E+03  0.13246466444E+03  0.00000000000E+00 0.  1.
         21    1    1    2  504  505  0.28602832582E+02  0.72388211306E+02  0.22999864842E+01  0.77868254800E+02  0.00000000000E+00 0.  1.
         21    1    1    2  505  502 -0.36493196603E+02  0.42092714392E+01 -0.41638798852E+01  0.36970383553E+02  0.00000000000E+00 0.  1.
          1    1    1    2  501    0 -0.62470738141E+02 -0.30518919051E+02 -0.59483015446E+03  0.59887971263E+03  0.00000000000E+00 0.  1.
<scales pt_clust_3="14000.00000" pt_clust_4="67.65089" pt_clust_5="36.73515" pt_clust_6="70.62625"></scales>
<clustering>
<clus scale="   36.735">  1  5  2 -1</clus>
<clus scale="   70.626">  2  6  1 -1</clus>
<clus scale="   67.651">  1  4  2 -1</clus>
<clus scale="   36.735">  1  3  2 -1</clus>
</clustering>
</event>
<event>
 6    0  0.4340992E+002  0.7829123E+02  0.7546771E-02  0.1333972E+00
         21   -1    0    0  505  502  0.00000000000E+00  0.00000000000E+00  0.24800647917E+04  0.24800647917E+04  0.00000000000E+00 0.  1.
          2   -1    0    0  503    0 -0.00000000000E+00 -0.00000000000E+00 -0.13414733774E+03  0.13414733774E+03  0.00000000000E+00 0.  1.
         21    1    1    2  503  504 -0.14193942082E+02 -0.28413238712E+02  0.94271685428E+01  0.33130826018E+02  0.00000000000E+00 0. -1.
         21    1    1    2  504  502  0.64217222036E+02 -0.43874042987E+02  0.19513218822E+04  0.19528711865E+04  0.00000000000E+00 0.  1.
         21    1    1    2  505  501 -0.93334744080E+02  0.31853657685E+01  0.48806190566E+03  0.49691643640E+03  0.00000000000E+00 0.  1.
          2    1    1    2  501    0  0.43311464126E+02  0.69101915930E+02 -0.10289350240E+03  0.13129368052E+03  0.00000000000E+00 0.  1.
<scales pt_clust_3="31.76130" pt_clust_4="78.29123" pt_clust_5="14000.00000" pt_clust_6="51.36861"></scales>
<clustering>
<clus scale="   31.761">  2  3  1 -1</clus>
<clus scale="   51.369">  2  6  1 -1</clus>
<clus scale="   78.291">  1  4  2 -1</clus>
<clus scale="   78.291">  1  3  2 -1</clus>
</clustering>
</event>
<event>
 6    0  0.4340992E+002  0.1932849E+03  0.7546771E-02  0.1155532E+00
          2   -1    0    0  505    0 -0.00000000000E+00  0.00000000000E+00  0.63903164541E+03  0.63903164541E+03  0.00000000000E+00 0.  1.
         21   -1    0    0  504  502  0.00000000000E+00 -0.00000000000E+00 -0.52031942171E+02  0.52031942171E+02  0.00000000000E+00 0.  1.
         21    1    1    2  503  501  0.43747624026E+02 -0.16409516804E+02  0.10890139274E+03  0.11850164636E+03  0.00000000000E+00 0. -1.
         21    1    1    2  504  503  0.48125098616E+02 -0.78179094662E+01  0.49137768082E+02  0.69221854045E+02  0.00000000000E+00 0.  1.
         21    1    1    2  505  502 -0.13138551147E+03  0.10419361995E+03  0.22399303046E+03  0.27980589836E+03  0.00000000000E+00 0.  1.
          2    1    1    2  501    0  0.39512788826E+02 -0.79966193679E+02  0.20496751196E+03  0.22353418882E+03  0.00000000000E+00 0.  1.
<scales pt_clust_3="34.36363" pt_clust_4="48.48601" pt_clust_5="167.68561" pt_clust_6="48.48601"></scales>
<clustering>
<clus scale="   34.364">  3  6 -1 -1</clus>
<clus scale="   48.486">  3  4 -1 -1</clus>
<clus scale="  167.686">  2  5  1 -1</clus>
<clus scale="  167.686">  2  3  1 -1</clus>
</clustering>
</event>
<event>
 6    0  0.4340992E+002  0.8039792E+02  0.7546771E-02  0.1327926E+00
          1   -1    0    0  503    0 -0.00000000000E+00  0.00000000000E+00  0.27958464646E+04  0.27958464646E+04  0.00000000000E+00 0. -1.
         21   -1    0    0  505  502  0.00000000000E+00 -0.00000000000E+00 -0.13167529019E+03  0.13167529019E+03  0.00000000000E+00 0. -1.
         21    1    1    2  503  504 -0.38718756286E+02  0.29057382585E+02  0.11825204022E+04  0.11835108682E+04  0.00000000000E+00 0. -1.
         21    1    1    2  504  502  0.20214651249E+02  0.74584679862E+02 -0.97050974137E+02  0.12405804358E+03  0.00000000000E+00 0. -1.
         21    1    1    2  505  501 -0.94194318363E+00 -0.14334926546E+03  0.23328464816E+03  0.27380947068E+03  0.00000000000E+00 0. -1.
          1    1    1    2  501    0  0.19446048221E+02  0.39707203012E+02  0.13454170981E+04  0.13461433723E+04  0.00000000000E+00 0. -1.
<scales pt_clust_3="65.56405" pt_clust_4="14000.00000" pt_clust_5="80.39792" pt_clust_6="44.21324"></scales>
<clustering>
<clus scale="   44.213">  1  6  2 -1</clus>
<clus scale="   65.564">  1  3  2 -1</clus>
<clus scale="   80.398">  1  5  2 -1</clus>
<clus scale="   80.398">  2  3  1 -1</clus>
</clustering>
</event>
<event>
 6    0  0.4340992E+002  0.9581553E+02  0.7546771E-02  0.1289350E+00
          2   -1    0    0  505    0 -0.00000000000E+00  0.00000000000E+00  0.10426505719E+04  0.10426505719E+04  0.00000000000E+00 0.  1.
         21   -1    0    0  504  502  0.00000000000E+00 -0.00000000000E+00 -0.17522734267E+03  0.17522734267E+03  0.00000000000E+00 0. -1.
         21    1    1    2  503  501 -0.53281390182E+02 -0.31662576905E+02  0.75759568214E+02  0.97882263419E+02  0.00000000000E+00 0. -1.
         21    1    1    2  504  503  0.29386059864E+02 -0.17953959145E+02 -0.37331768933E+02  0.50789232471E+02  0.00000000000E+00 0. -1.
         21    1    1    2  505  502 -0.65380158067E+02 -0.51652961715E+01 -0.10801140109E+03  0.12636339707E+03  0.00000000000E+00 0. -1.
          2    1    1    2  501    0  0.89275488385E+02  0.54781832221E+02  0.93700683105E+03  0.94284302162E+03  0.00000000000E+00 0.  1.
<scales pt_clust_3="95.81553" pt_clust_4="34.43668" pt_clust_5="44.50312" pt_clust_6="14000.00000"></scales>
<clustering>
<clus scale="   34.437">  2  4  1 -1</clus>
<clus scale="   44.503">  2  5  1 -1</clus>
<clus scale="   95.816">  2  3  1 -1</clus>
<clus scale="   34.437">  2  3  1 -1</clus>
</clustering>
</event>
<event>
 6    0  0.4340992E+002  0.2679515E+03  0.7546771E-02  0.1102458E+00
         21   -1    0    0  503  502  0.00000000000E+00  0.00000000000E+00  0.47344365853E+03  0.47344365853E+03  0.00000000000E+00 0. -1.
          1   -1    0    0  504    0 -0.00000000000E+00 -0.00000000000E+00 -0.33049053182E+03  0.33049053182E+03  0.00000000000E+00 0. -1.
         21    1    1    2  503  501  0.23996779656E+03 -0.80457561619E+02 -0.72875340367E+02  0.26337953193E+03  0.00000000000E+00 0. -1.
         21    1    1    2  504  505 -0.11910440095E+03  0.37219083196E+01 -0.42669487082E+00  0.11916330389E+03  0.00000000000E+00 0.  1.
         21    1    1    2  505  502 -0.18313476231E+03  0.14828511003E+03  0.22541642829E+03  0.32609719589E+03  0.00000000000E+00 0. -1.
          1    1    1    2  501    0  0.62271366701E+02 -0.71549456727E+02 -0.91612663490E+01  0.95294158635E+02  0.00000000000E+00 0. -1.
<scales pt_clust_3="52.88277" pt_clust_4="119.16254" pt_clust_5="253.64510" pt_clust_6="52.88277"></scales>
<clustering>
<clus scale="   52.883">  3  6 -1 -1</clus>
<clus scale="  119.163">  2  4  1 -1</clus>
<clus scale="  253.645">  1  5  2 -1</clus>
<clus scale="  253.645">  1  3  2 -1</clus>
</clustering>
</event>
<event>
 6    0  0.4340992E+002  0.1472280E+03  0.7546771E-02  0.1203921E+00
          2   -1    0    0  502    0 -0.00000000000E+00  0.00000000000E+00  0.10169831692E+04  0.10169831692E+04  0.00000000000E+00 0. -1.
         21   -1    0    0  504  502  0.00000000000E+00 -0.00000000000E+00 -0.46639047452E+03  0.46639047452E+03  0.00000000000E+00 0.  1.
         21    1    1    2  503  505 -0.39771856383E+02  0.21209856801E+02 -0.20245954453E+03  0.20741631025E+03  0.00000000000E+00 0.  1.
         21    1    1    2  504  503 -0.38043259856E+02 -0.19929987732E+02 -0.21753421574E+03  0.22173323849E+03  0.00000000000E+00 0.  1.
         21    1    1    2  505  501  0.19797339529E+02  0.13885908783E+03  0.10438281739E+03  0.17484150964E+03  0.00000000000E+00 0.  1.
          2    1    1    2  501    0  0.58017776709E+02 -0.14013895690E+03  0.86620363760E+03  0.87938258537E+03  0.00000000000E+00 0. -1.
<scales pt_clust_3="88.17356" pt_clust_4="40.45630" pt_clust_5="147.22799" pt_clust_6="14000.00000"></scales>
<clustering>
<clus scale="   40.456">  3  4 -1 -1</clus>
<clus scale="   88.174">  2  3  1 -1</clus>
<clus scale="  147.228">  2  5  1 -1</clus>
<clus scale="   88.174">  2  3  1 -1</clus>
</clustering>
</event>
<event>
 6    0  0.4340992E+002  0.1908252E+03  0.7546771E-02  0.1157719E+00
         21   -1    0    0  505  502  0.00000000000E+00  0.00000000000E+00  0.86575447076E+02  0.86575447076E+02  0.00000000000E+00 0.  1.
          1   -1    0    0  503    0 -0.00000000000E+00 -0.00000000000E+00 -0.95869741044E+03  0.95869741044E+03  0.00000000000E+00 0. -1.
         21    1    1    2  503  504  0.14930225486E+03  0.72712222144E+02 -0.49954452522E+02  0.17341764006E+03  0.00000000000E+00 0.  1.
         21    1    1    2  504  502  0.26341231109E+02 -0.18623123492E+02 -0.57365239126E+01  0.32765666353E+02  0.00000000000E+00 0.  1.
         21    1    1    2  505  501 -0.37965068170E+02 -0.16496209503E+02 -0.94218909268E+02  0.10291100132E+03  0.00000000000E+00 0.  1.
          1    1    1    2  501    0 -0.13767841780E+03 -0.37592889149E+02 -0.72221207766E+03  0.73617854978E+03  0.00000000000E+00 0. -1.
<scales pt_clust_3="180.77281" pt_clust_4="32.25959" pt_clust_5="32.75401" pt_clust_6="32.75401"></scales>
<clustering>
<clus scale="   32.260">  1  4  2 -1</clus>
<clus scale="   32.754">  5  6 -1 -1</clus>
<clus scale="  180.773">  1  3  2 -1</clus>
<clus scale="   32.260">  1  3  2 -1</clus>
</clustering>
</event>
<event>
 6    0  0.4340992E+002  0.8923670E+02  0.7546771E-02  0.1304711E+00
         21   -1    0    0  504  502  0.00000000000E+00  0.00000000000E+00  0.43727411436E+02  0.43727411436E+02  0.00000000000E+00 0.  1.
          2   -1    0    0  503    0 -0.00000000000E+00 -0.00000000000E+00 -0.96074910172E+03  0.96074910172E+03  0.00000000000E+00 0.  1.
         21    1    1    2  503  505 -0.72343671007E+02 -0.13020555021E+02 -0.45871315144E+03  0.46456527732E+03  0.00000000000E+00 0.  1.
         21    1    1    2  504  501  0.72103603565E+02 -0.80655086407E+02 -0.70956287959E+02  0.12937916143E+03  0.00000000000E+00 0.  1.
         21    1    1    2  505  502  0.24953742602E+02  0.56148219654E+02 -0.85130285010E+02  0.10498798629E+03  0.00000000000E+00 0.  1.
          2    1    1    2  501    0 -0.24713675160E+02  0.37527421773E+02 -0.30222196588E+03  0.30554408812E+03  0.00000000000E+00 0.  1.
<scales pt_clust_3="89.23670" pt_clust_4="14000.00000" pt_clust_5="65.18410" pt_clust_6="44.93410"></scales>
<clustering>
<clus scale="   44.934">  2  6  1 -1</clus>
<clus scale="   65.184">  1  5  2 -1</clus>
<clus scale="   89.237">  2  3  1 -1</clus>
<clus scale="   65.184">  1  3  2 -1</clus>
</clustering>
</event>
<event>
 6    0  0.4340992E+002  0.1639934E+03  0.7546771E-02  0.1184261E+00
         21   -1    0    0  504  502  0.00000000000E+00  0.00000000000E+00  0.54333515821E+02  0.54333515821E+02  0.00000000000E+00 0.  1.
         -2   -1    0    0    0  501 -0.00000000000E+00 -0.00000000000E+00 -0.28837363127E+04  0.28837363127E+04  0.00000000000E+00 0.  1.
         21    1    1    2  503  505  0.31846863720E+02  0.15909585696E+02 -0.72391215046E+03  0.72478696127E+03  0.00000000000E+00 0.  1.
         21    1    1    2  504  501 -0.92629187474E+02  0.14075349607E+03 -0.20615019656E+03  0.26625104050E+03  0.00000000000E+00 0.  1.
         21    1    1    2  505  502  0.30279817527E+02 -0.16294903068E+03 -0.26609660706E+03  0.31349108159E+03  0.00000000000E+00 0.  1.
         -2    1    1    2    0  503  0.30502506226E+02  0.62859489179E+01 -0.16332438428E+04  0.16335407452E+04  0.00000000000E+00 0.  1.
<scales pt_clust_3="53.23757" pt_clust_4="14000.00000" pt_clust_5="163.99337" pt_clust_6="31.14348"></scales>
<clustering>
<clus scale="   31.143">  2  6  1 -1</clus>
<clus scale="   53.238">  2  3  1 -1</clus>
<clus scale="  163.993">  2  5  1 -1</clus>
<clus scale="  163.993">  1  3  2 -1</clus>
</clustering>
</event>
<event>
 6    0  0.4340992E+002  0.9125647E+02  0.7546771E-02  0.1299837E+00
         -1   -1    0    0    0  501 -0.00000000000E+00  0.00000000000E+00  0.19453816200E+03  0.19453816200E+03  0.00000000000E+00 0.  1.
         21   -1    0    0  504  502  0.00000000000E+00 -0.00000000000E+00 -0.33636310481E+03  0.33636310481E+03  0.00000000000E+00 0. -1.
         21    1    1    2  503  502 -0.64643303341E+02  0.12204045673E+02 -0.20515864212E+03  0.21544782160E+03  0.00000000000E+00 0. -1.
         21    1    1    2  504  505  0.38433672377E+02 -0.10611379513E+03 -0.75048414504E+02  0.13553431008E+03  0.00000000000E+00 0. -1.
         21    1    1    2  505  501  0.24349771401E+02  0.27030149867E+02  0.14576850084E+02  0.39192153902E+02  0.00000000000E+00 0. -1.
         -1    1    1    2    0  503  0.18598595621E+01  0.66879599593E+02  0.12380526372E+03  0.14072698122E+03  0.00000000000E+00 0.  1.
<scales pt_clust_3="65.21185" pt_clust_4="14000.00000" pt_clust_5="36.38049" pt_clust_6="91.25647"></scales>
<clustering>
<clus scale="   36.380">  1  5  2 -1</clus>
<clus scale="   65.212">  2  3  1 -1</clus>
<clus scale="   91.256">  1  6  2 -1</clus>
<clus scale="   65.212">  2  3  1 -1</clus>
</clustering>
</event>
<event>
 6    0  0.4340992E+002  0.6518698E+02  0.7546771E-02  0.1377270E+00
          2   -1    0    0  503    0 -0.00000000000E+00  0.00000000000E+00  0.26728324292E+04  0.26728324292E+04  0.00000000000E+00 0.  1.
         21   -1    0    0  504  502  0.00000000000E+00 -0.00000000000E+00 -0.12457942311E+04  0.12457942311E+04  0.00000000000E+00 0.  1.
         21    1    1    2  503  505 -0.10442557865E+03  0.75780039058E+02 -0.93089677070E+03  0.93979578287E+03  0.00000000000E+00 0.  1.
         21    1    1    2  504  501  0.84356274761E-02 -0.56904638979E+02  0.79359815181E+03  0.79563569840E+03  0.00000000000E+00 0.  1.
         21    1    1    2  505  502  0.56921753449E+02 -0.31001465446E+02 -0.30571018442E+03  0.31250582992E+03  0.00000000000E+00 0. -1.
          2    1    1    2  501    0  0.47495389575E+02  0.12126065366E+02  0.18700470014E+04  0.18706893491E+04  0.00000000000E+00 0.  1.
<scales pt_clust_3="14000.00000" pt_clust_4="65.18698" pt_clust_5="64.96869" pt_clust_6="49.01891"></scales>
<clustering>
<clus scale="   49.019">  1  6  2 -1</clus>
<clus scale="   64.969">  2  5  1 -1</clus>
<clus scale="   65.187">  1  4  2 -1</clus>
<clus scale="   64.969">  2  3  1 -1</clus>
</clustering>
</event>
<event>
 6    0  0.4340992E+002  0.1593403E+03  0.7546771E-02  0.1189444E+00
          1   -1    0    0  505    0 -0.00000000000E+00  0.00000000000E+00  0.16097779808E+04  0.16097779808E+04  0.00000000000E+00 0.  1.
         21   -1    0    0  503  502  0.00000000000E+00 -0.00000000000E+00 -0.96937122925E+03  0.96937122925E+03  0.00000000000E+00 0. -1.
         21    1    1    2  503  501  0.63645490246E+02  0.39091267129E+02 -0.14590276674E+03  0.16391001475E+03  0.00000000000E+00 0. -1.
         21    1    1    2  504  502 -0.14741532477E+03  0.97021922854E+02 -0.80015203678E+03  0.81938258064E+03  0.00000000000E+00 0. -1.
         21    1    1    2  505  504  0.82208292677E+02 -0.10431899856E+03  0.10365775398E+04  0.10450519858E+04  0.00000000000E+00 0.  1.
          1    1    1    2  501    0  0.15615418491E+01 -0.31794191418E+02  0.54988401521E+03  0.55080462889E+03  0.00000000000E+00 0.  1.
<scales pt_clust_3="74.56214" pt_clust_4="159.34026" pt_clust_5="14000.00000" pt_clust_6="31.83252"></scales>
<clustering>
<clus scale="   31.833">  1  6  2 -1</clus>
<clus scale="   74.562">  2  3  1 -1</clus>
<clus scale="  159.340">  2  4  1 -1</clus>
<clus scale="   74.562">  2  3  1 -1</clus>
</clustering>
</event>
<event>
 6    0  0.4340992E+002  0.9327915E+02  0.7546771E-02  0.1295100E+00
         21   -1    0    0  505  502  0.00000000000E+00  0.00000000000E+00  0.12796254909E+04  0.12796254909E+04  0.00000000000E+00 0. -1.
          2   -1    0    0  503    0 -0.00000000000E+00 -0.00000000000E+00 -0.67238339018E+03  0.67238339018E+03  0.00000000000E+00 0.  1.
         21    1    1    2  503  504 -0.49260553949E+01 -0.33458022298E+02 -0.30627907172E+02  0.45626461353E+02  0.00000000000E+00 0. -1.
         21    1    1    2  504  502 -0.64463324736E+02  0.10896978529E+03  0.84758883144E+03  0.85699285967E+03  0.00000000000E+00 0. -1.
         21    1    1    2  505  501  0.32236410771E+02 -0.21597391752E+02  0.41723027710E+03  0.41903071205E+03  0.00000000000E+00 0. -1.
          2    1    1    2  501    0  0.37152969360E+02 -0.53914371241E+02 -0.62694910060E+03  0.63035884804E+03  0.00000000000E+00 0.  1.
<scales pt_clust_3="33.81871" pt_clust_4="93.27915" pt_clust_5="38.82314" pt_clust_6="14000.00000"></scales>
<clustering>
<clus scale="   33.819">  2  3  1 -1</clus>
<clus scale="   38.823">  1  5  2 -1</clus>
<clus scale="   93.279">  1  4  2 -1</clus>
<clus scale="   38.823">  1  3  2 -1</clus>
</clustering>
</event>
<event>
 6    0  0.4340992E+002  0.1642924E+03  0.7546771E-02  0.1183934E+00
          1   -1    0    0  505    0 -0.00000000000E+00  0.00000000000E+00  0.11231052145E+04  0.11231052145E+04  0.00000000000E+00 0. -1.
         21   -1    0    0  504  502  0.00000000000E+00 -0.00000000000E+00 -0.65178042590E+02  0.65178042590E+02  0.00000000000E+00 0. -1.
         21    1    1    2  503  502 -0.15813455197E+02  0.10178371961E+03  0.33302836028E+02  0.10825465270E+03  0.00000000000E+00 0. -1.
         21    1    1    2  504  501  0.33535062563E+02 -0.51137070224E+02  0.29391670661E+03  0.30021097714E+03  0.00000000000E+00 0. -1.
         21    1    1    2  505  503 -0.53235310363E+02  0.30348514061E+02  0.21233864325E+02  0.64852968855E+02  0.00000000000E+00 0. -1.
          1    1    1    2  501    0  0.35513702996E+02 -0.80995163450E+02  0.70947376490E+03  0.71496465835E+03  0.00000000000E+00 0. -1.
<scales pt_clust_3="53.24410" pt_clust_4="32.86934" pt_clust_5="53.24410" pt_clust_6="154.23726"></scales>
<clustering>
<clus scale="   32.869">  4  6 -1 -1</clus>
<clus scale="   53.244">  3  5 -1 -1</clus>
<clus scale="  154.237">  1  4  2 -1</clus>
<clus scale="  164.292">  2  3  1 -1</clus>
</clustering>
</event>
<event>
 6    0  0.4340992E+002  0.1606401E+03  0.7546771E-02  0.1187976E+00
         21   -1    0    0  503  502  0.00000000000E+00  0.00000000000E+00  0.23063326260E+02  0.23063326260E+02  0.00000000000E+00 0.  1.
          2   -1    0    0  505    0 -0.00000000000E+00 -0.00000000000E+00 -0.28137060613E+04  0.28137060613E+04  0.00000000000E+00 0.  1.
         21    1    1    2  503  504  0.87529123338E+01 -0.87661419979E+02 -0.32929079897E+03  0.34087177694E+03  0.00000000000E+00 0.  1.
         21    1    1    2  504  501 -0.75611219886E+02  0.20803580657E+02 -0.96929823180E+03  0.97246537610E+03  0.00000000000E+00 0.  1.
         21    1    1    2  505  502  0.12737230348E+03 -0.21210339565E+01 -0.27666481267E+03  0.30458434144E+03  0.00000000000E+00 0.  1.
          2    1    1    2  501    0 -0.60513995922E+02  0.68978873278E+02 -0.12153888916E+04  0.12188478931E+04  0.00000000000E+00 0.  1.
<scales pt_clust_3="88.09732" pt_clust_4="45.33671" pt_clust_5="152.97119" pt_clust_6="45.33671"></scales>
<clustering>
<clus scale="   45.337">  4  6 -1 -1</clus>
<clus scale="   88.097">  1  3  2 -1</clus>
<clus scale="  152.971">  1  5  2 -1</clus>
<clus scale="   88.097">  1  3  2 -1</clus>
</clustering>
</event>
<event>
 6    0  0.4340992E+002  0.1074326E+03  0.7546771E-02  0.1265400E+00
          2   -1    0    0  503    0 -0.00000000000E+00  0.00000000000E+00  0.74477689466E+03  0.74477689466E+03  0.00000000000E+00 0. -1.
         21   -1    0    0  504  502  0.00000000000E+00 -0.00000000000E+00 -0.18128111890E+03  0.18128111890E+03  0.00000000000E+00 0.  1.
         21    1    1    2  503  505 -0.83714781092E+01  0.45168901100E+02  0.22186108275E+03  0.22656710112E+03  0.00000000000E+00 0.  1.
         21    1    1    2  504  501 -0.48924362970E+02 -0.12195692431E+02 -0.51561298186E+02  0.72117235641E+02  0.00000000000E+00 0.  1.
         21    1    1    2  505  502  0.13284829033E+03 -0.56935826054E+02 -0.67776096796E+02  0.15963695008E+03  0.00000000000E+00 0.  1.
          2    1    1    2  501    0 -0.75552449255E+02  0.23962617386E+02  0.46097208800E+03  0.46773672673E+03  0.00000000000E+00 0. -1.
<scales pt_clust_3="45.93812" pt_clust_4="50.37431" pt_clust_5="14000.00000" pt_clust_6="107.43257"></scales>
<clustering>
<clus scale="   45.938">  1  3  2 -1</clus>
<clus scale="   50.374">  2  4  1 -1</clus>
<clus scale="  107.433">  1  6  2 -1</clus>
<clus scale="   50.374">  2  3  1 -1</clus>
</clustering>
</event>
<event>
 6    0  0.4340992E+002  0.1071582E+03  0.7546771E-02  0.1265925E+00
          1   -1    0    0  503    0 -0.00000000000E+00  0.00000000000E+00  0.71103631113E+03  0.71103631113E+03  0.00000000000E+00 0. -1.
         21   -1    0    0  504  502  0.00000000000E+00 -0.00000000000E+00 -0.75562202801E+03  0.75562202801E+03  0.00000000000E+00 0. -1.
         21    1    1    2  503  505  0.31737720935E+02 -0.26501340351E+02  0.68403918160E+02  0.79929343737E+02  0.00000000000E+00 0.  1.
         21    1    1    2  504  501  0.10274942440E+01  0.35044998984E+02 -0.76191890086E+02  0.83871400447E+02  0.00000000000E+00 0. -1.
         21    1    1    2  505  502 -0.71743742453E+01 -0.14102221444E+03 -0.65502791456E+03  0.67007485064E+03  0.00000000000E+00 0. -1.
          1    1    1    2  501    0 -0.25590840933E+02  0.13247855581E+03  0.61823016961E+03  0.63278274431E+03  0.00000000000E+00 0. -1.
<scales pt_clust_3="41.16316" pt_clust_4="35.06006" pt_clust_5="107.15819" pt_clust_6="14000.00000"></scales>
<clustering>
<clus scale="   35.060">  2  4  1 -1</clus>
<clus scale="   41.163">  1  3  2 -1</clus>
<clus scale="  107.158">  2  5  1 -1</clus>
<clus scale="   35.060">  2  3  1 -1</clus>
</clustering>
</event>
<event>
 6    0  0.4340992E+002  0.2146687E+03  0.7546771E-02  0.1137921E+00
          2   -1    0    0  503    0 -0.00000000000E+00  0.00000000000E+00  0.18897031656E+04  0.18897031656E+04  0.00000000000E+00 0.  1.
         21   -1    0    0  504  502  0.00000000000E+00 -0.00000000000E+00 -0.70079563805E+03  0.70079563805E+03  0.00000000000E+00 0. -1.
         21    1    1    2  503  505 -0.17630374063E+03 -0.56556830893E+02 -0.47504363143E+03  0.50985109183E+03  0.00000000000E+00 0. -1.
         21    1    1    2  504  501  0.92898321965E+02  0.34280798593E+02  0.72280434419E+03  0.72955561224E+03  0.00000000000E+00 0.  1.
         21    1    1    2  505  502 -0.29306543783E+02  0.11411782497E+02 -0.20094973157E+03  0.20339591173E+03  0.00000000000E+00 0. -1.
          2    1    1    2  501    0  0.11271196244E+03  0.10864249802E+02  0.11420965464E+04  0.11476961878E+04  0.00000000000E+00 0.  1.
<scales pt_clust_3="210.18401" pt_clust_4="40.81438" pt_clust_5="31.45000" pt_clust_6="40.81438"></scales>
<clustering>
<clus scale="   31.450">  2  5  1 -1</clus>
<clus scale="   40.814">  4  6 -1 -1</clus>
<clus scale="  210.184">  2  3  1 -1</clus>
<clus scale="   31.450">  2  3  1 -1</clus>
</clustering>
</event>
<event>
 6    0  0.4340992E+002  0.9019456E+02  0.7546771E-02  0.1302381E+00
         21   -1    0    0  504  502  0.00000000000E+00  0.00000000000E+00  0.29665625587E+02  0.29665625587E+02  0.00000000000E+00 0.  1.
          2   -1    0    0  503    0 -0.00000000000E+00 -0.00000000000E+00 -0.98990840895E+03  0.98990840895E+03  0.00000000000E+00 0. -1.
         21    1    1    2  503  502  0.75268173289E+02 -0.15740727193E+02 -0.69809203686E+02  0.10385756266E+03  0.00000000000E+00 0.  1.
         21    1    1    2  504  505 -0.10800485252E+02  0.32536291279E+02 -0.72978637289E+02  0.80629660997E+02  0.00000000000E+00 0.  1.
         21    1    1    2  505  501  0.23509640928E+02 -0.45753100029E+02 -0.10814754860E+03  0.11975784587E+03  0.00000000000E+00 0.  1.
          2    1    1    2  501    0 -0.87977328964E+02  0.28957535944E+02 -0.70930739379E+03  0.71532896501E+03  0.00000000000E+00 0. -1.
<scales pt_clust_3="90.19456" pt_clust_4="34.28208" pt_clust_5="43.84535" pt_clust_6="14000.00000"></scales>
<clustering>
<clus scale="   34.282">  1  4  2 -1</clus>
<clus scale="   43.845">  1  5  2 -1</clus>
<clus scale="   90.195">  1  3  2 -1</clus>
<clus scale="   34.282">  1  3  2 -1</clus>
</clustering>
</event>
<event>
 6    0  0.4340992E+002  0.1230036E+03  0.7546771E-02  0.1238223E+00
         21   -1    0    0  503  502  0.00000000000E+00  0.00000000000E+00  0.69796882948E+03  0.69796882948E+03  0.00000000000E+00 0.  1.
          1   -1    0    0  505    0 -0.00000000000E+00 -0.00000000000E+00 -0.10738749565E+04  0.10738749565E+04  0.00000000000E+00 0. -1.
         21    1    1    2  503  501 -0.12816348226E+03 -0.46324720403E+02 -0.22578743503E+03  0.26372679750E+03  0.00000000000E+00 0.  1.
         21    1    1    2  504  502  0.43843426751E+01 -0.39582690548E+02  0.62562843761E+03  0.62689469116E+03  0.00000000000E+00 0.  1.
         21    1    1    2  505  504  0.45773178830E+01  0.69033697632E+02  0.23417105179E+02  0.73040838322E+02  0.00000000000E+00 0.  1.
          1    1    1    2  501    0  0.11920182170E+03  0.16873713319E+02 -0.79916423477E+03  0.80818145898E+03  0.00000000000E+00 0. -1.
<scales pt_clust_3="14000.00000" pt_clust_4="39.82476" pt_clust_5="43.07372" pt_clust_6="123.00359"></scales>
<clustering>
<clus scale="   39.825">  1  4  2 -1</clus>
<clus scale="   43.074">  1  5  2 -1</clus>
<clus scale="  123.004">  2  6  1 -1</clus>
<clus scale="   39.825">  1  3  2 -1</clus>
</clustering>
</event>
<event>
 6    0  0.4340992E+002  0.7686460E+02  0.7546771E-02  0.1338192E+00
          2   -1    0    0  503    0 -0.00000000000E+00  0.00000000000E+00  0.67864455603E+03  0.67864455603E+03  0.00000000000E+00 0.  1.
         21   -1    0    0  504  502  0.00000000000E+00 -0.00000000000E+00 -0.73608852075E+02  0.73608852075E+02  0.00000000000E+00 0.  1.
         21    1    1    2  503  505 -0.26749780581E+02 -0.67707937782E+02  0.37724078094E+03  0.38420114837E+03  0.00000000000E+00 0.  1.
         21    1    1    2  504  501  0.42061235983E+02  0.25465032330E+02 -0.67403408194E+01  0.49629100721E+02  0.00000000000E+00 0.  1.
         21    1    1    2  505  502 -0.10976364293E+02 -0.49386056746E+02 -0.14830780695E+02  0.52720159617E+02  0.00000000000E+00 0.  1.
          2    1    1    2  501    0 -0.43350911093E+01  0.91628962197E+02  0.24936604453E+03  0.26570299940E+03  0.00000000000E+00 0.  1.
<scales pt_clust_3="14000.00000" pt_clust_4="49.16925" pt_clust_5="36.59668" pt_clust_6="76.86460"></scales>
<clustering>
<clus scale="   49.169">  2  4  1 -1</clus>
<clus scale="   36.597">  2  5  1 -1</clus>
<clus scale="   76.865">  2  6  1 -1</clus>
<clus scale="   49.169">  2  3  1 -1</clus>
</clustering>
</event>
<event>
 6    0  0.4340992E+002  0.9155022E+02  0.7546771E-02  0.1299140E+00
          2   -1    0    0  504    0 -0.00000000000E+00  0.00000000000E+00  0.38279579442E+03  0.38279579442E+03  0.00000000000E+00 0.  1.
         21   -1    0    0  503  502  0.00000000000E+00 -0.00000000000E+00 -0.16461512561E+03  0.16461512561E+03  0.00000000000E+00 0.  1.
         21    1    1    2  503  505  0.46408545780E+02 -0.98286564292E+01  0.18992691504E+02  0.51098707803E+02  0.00000000000E+00 0.  1.
         21    1    1    2  504  502 -0.88083027283E+02 -0.65465556409E+01 -0.74819670987E+02  0.11575603765E+03  0.00000000000E+00 0.  1.
         21    1    1    2  505  501  0.52527248155E+01  0.10036435759E+03  0.98478196860E+01  0.10098304286E+03  0.00000000000E+00 0.  1.
          2    1    1    2  501    0  0.36421756688E+02 -0.83989145521E+02  0.26415982860E+03  0.27957313171E+03  0.00000000000E+00 0.  1.
<scales pt_clust_3="47.43791" pt_clust_4="59.71566" pt_clust_5="91.55022" pt_clust_6="14000.00000"></scales>
<clustering>
<clus scale="   47.438">  2  3  1 -1</clus>
<clus scale="   59.716">  2  4  1 -1</clus>
<clus scale="   91.550">  2  5  1 -1</clus>
<clus scale="   47.438">  2  3  1 -1</clus>
</clustering>
</event>
<event>
 6    0  0.4340992E+002  0.1006690E+03  0.7546771E-02  0.1278895E+00
         21   -1    0    0  501  502  0.00000000000E+00  0.00000000000E+00  0.99659275772E+03  0.99659275772E+03  0.00000000000E+00 0.  1.
          1   -1    0    0  504    0 -0.00000000000E+00 -0.00000000000E+00 -0.29906808724E+04  0.29906808724E+04  0.00000000000E+00 0.  1.
         21    1    1    2  503  502  0.65366633055E+02 -0.89158455658E+02  0.91145025976E+03  0.91813049342E+03  0.00000000000E+00 0.  1.
         21    1    1    2  504  505  0.46515967485E+02  0.79303283539E+01 -0.29309088401E+03  0.29686510679E+03  0.00000000000E+00 0. -1.
         21    1    1    2  505  503 -0.18607415347E+02  0.61995013047E+02  0.65822160854E+02  0.92315623857E+02  0.00000000000E+00 0. -1.
          1    1    1    2  501    0 -0.93275185193E+02  0.19233114258E+02 -0.26782696513E+04  0.26799624060E+04  0.00000000000E+00 0.  1.
<scales pt_clust_3="100.66898" pt_clust_4="47.18713" pt_clust_5="14000.00000" pt_clust_6="54.29988"></scales>
<clustering>
<clus scale="   47.187">  2  4  1 -1</clus>
<clus scale="   54.300">  2  6  1 -1</clus>
<clus scale="  100.669">  1  3  2 -1</clus>
<clus scale="  100.669">  1  3  2 -1</clus>
</clustering>
</event>
<event>
 6    0  0.4340992E+002  0.8541949E+02  0.7546771E-02  0.1314339E+00
          2   -1    0    0  503    0 -0.00000000000E+00  0.00000000000E+00  0.64944747529E+03  0.64944747529E+03  0.00000000000E+00 0.  1.
         21   -1    0    0  504  502  0.00000000000E+00 -0.00000000000E+00 -0.53847588051E+02  0.53847588051E+02  0.00000000000E+00 0. -1.
         21    1    1    2  503  505  0.26599458721E+02 -0.37478850778E+02  0.25784543289E+03  0.26190926429E+03  0.00000000000E+00 0.  1.
         21    1    1    2  504  501 -0.86779790516E+02  0.31853983156E+02  0.65090880140E+02  0.11305852892E+03  0.00000000000E+00 0. -1.
         21    1    1    2  505  502 -0.77744142908E+01 -0.48659860181E+02  0.82327576991E+01  0.49960002099E+02  0.00000000000E+00 0. -1.
          2    1    1    2  501    0  0.67954746085E+02  0.54284727803E+02  0.26443081650E+03  0.27836726802E+03  0.00000000000E+00 0.  1.
<scales pt_clust_3="45.95863" pt_clust_4="85.41949" pt_clust_5="51.78356" pt_clust_6="14000.00000"></scales>
<clustering>
<clus scale="   45.959">  1  3  2 -1</clus>
<clus scale="   51.784">  2  5  1 -1</clus>
<clus scale="   85.419">  2  4  1 -1</clus>
<clus scale="   51.784">  2  3  1 -1</clus>
</clustering>
</event>
<event>
 6    0  0.4340992E+002  0.1025500E+03  0.7546771E-02  0.1275023E+00
         21   -1    0    0  504  502  0.00000000000E+00  0.00000000000E+00  0.10852417038E+03  0.10852417038E+03  0.00000000000E+00 0.  1.
          1   -1    0    0  505    0 -0.00000000000E+00 -0.00000000000E+00 -0.69835771377E+03  0.69835771377E+03  0.00000000000E+00 0.  1.
         21    1    1    2  503  501  0.44968148238E+02 -0.13129038923E+02 -0.24241917112E+03  0.24690395004E+03  0.00000000000E+00 0.  1.
         21    1    1    2  504  503  0.40544687909E+01 -0.48661397668E+02  0.31072865179E+02  0.57878262678E+02  0.00000000000E+00 0.  1.
         21    1    1    2  505  502 -0.64645059816E+02  0.11183519081E+03 -0.96276089204E+01  0.12953294760E+03  0.00000000000E+00 0.  1.
          1    1    1    2  501    0  0.15622442787E+02 -0.50044754215E+02 -0.36885962854E+03  0.37256672383E+03  0.00000000000E+00 0.  1.
<scales pt_clust_3="46.50141" pt_clust_4="48.83001" pt_clust_5="89.98057" pt_clust_6="46.50141"></scales>
<clustering>
<clus scale="   46.501">  3  6 -1 -1</clus>
<clus scale="   48.830">  1  4  2 -1</clus>
<clus scale="   89.981">  1  5  2 -1</clus>
<clus scale="   48.830">  1  3  2 -1</clus>
</clustering>
</event>
<event>
 6    0  0.4340992E+002  0.1389890E+03  0.7546771E-02  0.1214696E+00
          2   -1    0    0  503    0 -0.00000000000E+00  0.00000000000E+00  0.12777139536E+04  0.12777139536E+04  0.00000000000E+00 0.  1.
         21   -1    0    0  504  502  0.00000000000E+00 -0.00000000000E+00 -0.48113783784E+02  0.48113783784E+02  0.00000000000E+00 0.  1.
         21    1    1    2  503  505  0.62630521570E+02  0.49806191129E+02  0.42616033430E+02  0.90660714823E+02  0.00000000000E+00 0.  1.
         21    1    1    2  504  501 -0.73781975421E+01 -0.38954312908E+02  0.21038949723E+03  0.21409254269E+03  0.00000000000E+00 0.  1.
         21    1    1    2  505  502  0.11516247275E+02  0.54352145027E+02  0.18666085170E+02  0.58610599348E+02  0.00000000000E+00 0.  1.
          2    1    1    2  501    0 -0.66768571303E+02 -0.65204023247E+02  0.95792855399E+03  0.96246388052E+03  0.00000000000E+00 0.  1.
<scales pt_clust_3="136.11182" pt_clust_4="35.52829" pt_clust_5="38.90248" pt_clust_6="35.52829"></scales>
<clustering>
<clus scale="   35.528">  4  6 -1 -1</clus>
<clus scale="   38.902">  3  5 -1 -1</clus>
<clus scale="  136.112">  2  3  1 -1</clus>
<clus scale="  136.112">  2  3  1 -1</clus>
</clustering>
</event>
<event>
 6    0  0.4340992E+002  0.1184925E+03  0.7546771E-02  0.1245605E+00
          2   -1    0    0  504    0 -0.00000000000E+00  0.00000000000E+00  0.27594527546E+04  0.27594527546E+04  0.00000000000E+00 0. -1.
         21   -1    0    0  501  502  0.00000000000E+00 -0.00000000000E+00 -0.19360517212E+02  0.19360517212E+02  0.00000000000E+00 0.  1.
         21    1    1    2  503  502  0.96984939474E+01 -0.29578334205E+02  0.10077918728E+02  0.32718543444E+02  0.00000000000E+00 0.  1.
         21    1    1    2  504  505  0.95694269062E+02 -0.51463760719E+02  0.11152137092E+04  0.11204943235E+04  0.00000000000E+00 0.  1.
         21    1    1    2  505  503 -0.25072009652E+02 -0.36754104548E+02  0.37855459619E+03  0.38116013979E+03  0.00000000000E+00 0.  1.
          2    1    1    2  501    0 -0.80320753357E+02  0.11779619947E+03  0.12362460133E+04  0.12444402651E+04  0.00000000000E+00 0. -1.
<scales pt_clust_3="31.12778" pt_clust_4="118.49245" pt_clust_5="47.73267" pt_clust_6="14000.00000"></scales>
<clustering>
<clus scale="   31.128">  2  3  1 -1</clus>
<clus scale="   47.733">  2  5  1 -1</clus>
<clus scale="  118.492">  1  4  2 -1</clus>
<clus scale="   31.128">  2  3  1 -1</clus>
</clustering>
</event>
<event>
 6    0  0.4340992E+002  0.1319085E+03  0.7546771E-02  0.1224651E+00
         21   -1    0    0  505  502  0.00000000000E+00  0.00000000000E+00  0.27527261719E+03  0.27527261719E+03  0.00000000000E+00 0.  1.
          1   -1    0    0  504    0 -0.00000000000E+00 -0.00000000000E+00 -0.40106116632E+03  0.40106116632E+03  0.00000000000E+00 0. -1.
         21    1    1    2  503  501  0.62642975272E+02  0.57125759074E+02 -0.19150443812E+03  0.20943124056E+03  0.00000000000E+00 0.  1.
         21    1    1    2  504  502 -0.83148534591E+02 -0.82084260829E+02  0.20871689122E+03  0.23919499443E+03  0.00000000000E+00 0.  1.
         21    1    1    2  505  503 -0.22237153004E+02  0.22293658809E+02  0.33564542390E+02  0.46022567319E+02  0.00000000000E+00 0.  1.
          1    1    1    2  501    0  0.42742712323E+02  0.26648429457E+01 -0.17656554463E+03  0.18168498120E+03  0.00000000000E+00 0. -1.
<scales pt_clust_3="37.62202" pt_clust_4="120.76644" pt_clust_5="31.48806" pt_clust_6="37.62202"></scales>
<clustering>
<clus scale="   31.488">  1  5  2 -1</clus>
<clus scale="   37.622">  3  6 -1 -1</clus>
<clus scale="  120.766">  1  4  2 -1</clus>
<clus scale="   31.488">  1  3  2 -1</clus>
</clustering>
</event>
<event>
 6    0  0.4340992E+002  0.9995170E+02  0.7546771E-02  0.1280398E+00
         21   -1    0    0  505  502  0.00000000000E+00  0.00000000000E+00  0.32212912917E+03  0.32212912917E+03  0.00000000000E+00 0. -1.
          1   -1    0    0  503    0 -0.00000000000E+00 -0.00000000000E+00 -0.85190841927E+02  0.85190841927E+02  0.00000000000E+00 0. -1.
         21    1    1    2  503  502 -0.71141825001E+02 -0.10442723459E+03  0.18823249672E+03  0.22671056307E+03  0.00000000000E+00 0. -1.
         21    1    1    2  504  501  0.36252908903E+02  0.18644429490E+02 -0.28673354694E+01  0.40866976492E+02  0.00000000000E+00 0.  1.
         21    1    1    2  505  504  0.18458375808E+02  0.35930000610E+02  0.72693074924E+02  0.83162249388E+02  0.00000000000E+00 0. -1.
          1    1    1    2  501    0  0.16430540290E+02  0.49852804487E+02 -0.21119948924E+02  0.56580182149E+02  0.00000000000E+00 0. -1.
<scales pt_clust_3="92.39697" pt_clust_4="33.59415" pt_clust_5="40.39402" pt_clust_6="33.59415"></scales>
<clustering>
<clus scale="   33.594">  4  6 -1 -1</clus>
<clus scale="   40.394">  1  5  2 -1</clus>
<clus scale="   92.397">  1  3  2 -1</clus>
<clus scale="   40.394">  1  3  2 -1</clus>
</clustering>
</event>
<event>
 6    0  0.4340992E+002  0.9657452E+02  0.7546771E-02  0.1287669E+00
         21   -1    0    0  505  502  0.00000000000E+00  0.00000000000E+00  0.13280298896E+02  0.13280298896E+02  0.00000000000E+00 0.  1.
          2   -1    0    0  504    0 -0.00000000000E+00 -0.00000000000E+00 -0.27311125071E+04  0.27311125071E+04  0.00000000000E+00 0.  1.
         21    1    1    2  503  501  0.77610307450E+01  0.52511597618E+02 -0.93889322992E+02  0.10785595234E+03  0.00000000000E+00 0.  1.
         21    1    1    2  504  502 -0.84282989740E+02 -0.50476280870E+02 -0.13860610357E+04  0.13895382945E+04  0.00000000000E+00 0.  1.
         21    1    1    2  505  503 -0.80925474634E+01  0.40632781615E+02 -0.17229651157E+03  0.17720778810E+03  0.00000000000E+00 0.  1.
          2    1    1    2  501    0  0.84614506458E+02 -0.42668098363E+02 -0.10655853380E+04  0.10697907710E+04  0.00000000000E+00 0.  1.
<scales pt_clust_3="36.75088" pt_clust_4="87.15610" pt_clust_5="36.75088" pt_clust_6="94.76382"></scales>
<clustering>
<clus scale="   36.751">  3  5 -1 -1</clus>
<clus scale="   94.764">  2  6  1 -1</clus>
<clus scale="   87.156">  2  4  1 -1</clus>
<clus scale="   96.575">  1  3  2 -1</clus>
</clustering>
</event>
<event>
 6    0  0.4340992E+002  0.8382537E+02  0.7546771E-02  0.1318533E+00
          1   -1    0    0  505    0 -0.00000000000E+00  0.00000000000E+00  0.18699373099E+03  0.18699373099E+03  0.00000000000E+00 0.  1.
         21   -1    0    0  501  502  0.00000000000E+00 -0.00000000000E+00 -0.19840705713E+03  0.19840705713E+03  0.00000000000E+00 0.  1.
         21    1    1    2  503  504 -0.98326469082E+01  0.48094290935E+02  0.11069633616E+03  0.12109261169E+03  0.00000000000E+00 0. -1.
         21    1    1    2  504  502  0.91177346024E+02 -0.54011987656E+01 -0.98671882346E+02  0.13445676533E+03  0.00000000000E+00 0.  1.
         21    1    1    2  505  503 -0.18192971422E+02  0.25007521235E+02  0.82322127920E+01  0.32002025794E+02  0.00000000000E+00 0. -1.
          1    1    1    2  501    0 -0.63151727694E+02 -0.67700613405E+02 -0.31669992738E+02  0.97849385313E+02  0.00000000000E+00 0.  1.
<scales pt_clust_3="69.21011" pt_clust_4="14000.00000" pt_clust_5="30.92508" pt_clust_6="83.82537"></scales>
<clustering>
<clus scale="   30.925">  1  5  2 -1</clus>
<clus scale="   69.210">  1  3  2 -1</clus>
<clus scale="   83.825">  1  6  2 -1</clus>
<clus scale="   83.825">  2  3  1 -1</clus>
</clustering>
</event>
<event>
 6    0  0.4340992E+002  0.1043079E+03  0.7546771E-02  0.1271489E+00
          1   -1    0    0  502    0 -0.00000000000E+00  0.00000000000E+00  0.60257064277E+03  0.60257064277E+03  0.00000000000E+00 0. -1.
         21   -1    0    0  505  502  0.00000000000E+00 -0.00000000000E+00 -0.71552096777E+03  0.71552096777E+03  0.00000000000E+00 0. -1.
         21    1    1    2  503  501  0.10194628990E+03 -0.52883198703E+02  0.11536693020E+03  0.16278577123E+03  0.00000000000E+00 0.  1.
         21    1    1    2  504  503  0.14557595215E+01  0.49954736849E+02 -0.22268854859E+03  0.22822748441E+03  0.00000000000E+00 0. -1.
         21    1    1    2  505  504 -0.18716652130E+02  0.43949889480E+02 -0.46029997819E+03  0.46277205596E+03  0.00000000000E+00 0. -1.
          1    1    1    2  501    0 -0.84685397289E+02 -0.41021427626E+02  0.45467127158E+03  0.46430629895E+03  0.00000000000E+00 0. -1.
<scales pt_clust_3="94.81098" pt_clust_4="42.51498" pt_clust_5="42.51498" pt_clust_6="94.09768"></scales>
<clustering>
<clus scale="   42.515">  4  5 -1 -1</clus>
<clus scale="   94.098">  1  6  2 -1</clus>
<clus scale="   94.811">  1  3  2 -1</clus>
<clus scale="  104.308">  2  3  1 -1</clus>
</clustering>
</event>
<event>
 6    0  0.4340992E+002  0.1799691E+03  0.7546771E-02  0.1167833E+00
          2   -1    0    0  503    0 -0.00000000000E+00  0.00000000000E+00  0.20570232229E+04  0.20570232229E+04  0.00000000000E+00 0. -1.
         21   -1    0    0  504  502  0.00000000000E+00 -0.00000000000E+00 -0.18380620263E+03  0.18380620263E+03  0.00000000000E+00 0. -1.
         21    1    1    2  503  502 -0.67439610902E+02 -0.27739279024E+02  0.30892103653E+03  0.31741105137E+03  0.00000000000E+00 0. -1.
         21    1    1    2  504  505 -0.70482301739E+02 -0.14334619295E+03 -0.13434765382E+03  0.20872272990E+03  0.00000000000E+00 0. -1.
         21    1    1    2  505  501  0.56917304784E+02  0.58049312431E+02  0.37180733759E+03  0.38059164276E+03  0.00000000000E+00 0.  1.
          2    1    1    2  501    0  0.81004607857E+02  0.11303615954E+03  0.13268363000E+04  0.13341040015E+04  0.00000000000E+00 0. -1.
<scales pt_clust_3="72.92166" pt_clust_4="160.90562" pt_clust_5="61.63525" pt_clust_6="61.63525"></scales>
<clustering>
<clus scale="   61.635">  5  6 -1 -1</clus>
<clus scale="   72.922">  1  3  2 -1</clus>
<clus scale="  160.906">  2  4  1 -1</clus>
<clus scale="  160.906">  2  3  1 -1</clus>
</clustering>
</event>
<event>
 6    0  0.4340992E+002  0.1005005E+03  0.7546771E-02  0.1279247E+00
          2   -1    0    0  503    0 -0.00000000000E+00  0.00000000000E+00  0.20783459914E+04  0.20783459914E+04  0.00000000000E+00 0. -1.
         21   -1    0    0  505  502  0.00000000000E+00 -0.00000000000E+00 -0.76558526865E+02  0.76558526865E+02  0.00000000000E+00 0. -1.
         21    1    1    2  503  504  0.34937946132E+02 -0.62172119360E+02  0.99600282496E+03  0.99855278270E+03  0.00000000000E+00 0. -1.
         21    1    1    2  504  502  0.19700064903E+02 -0.61915950551E+02 -0.55248905855E+02  0.85288446393E+02  0.00000000000E+00 0. -1.
         21    1    1    2  505  501 -0.41038509960E+02  0.94535782212E+02  0.94346208705E+03  0.94907422424E+03  0.00000000000E+00 0. -1.
          2    1    1    2  501    0 -0.13599501076E+02  0.29552287700E+02  0.11757145840E+03  0.12198906496E+03  0.00000000000E+00 0. -1.
<scales pt_clust_3="84.25633" pt_clust_4="64.97444" pt_clust_5="30.77915" pt_clust_6="30.77915"></scales>
<clustering>
<clus scale="   30.779">  5  6 -1 -1</clus>
<clus scale="   64.974">  2  4  1 -1</clus>
<clus scale="   84.256">  1  3  2 -1</clus>
<clus scale="   64.974">  2  3  1 -1</clus>
</clustering>
</event>
<event>
 6    0  0.4340992E+002  0.1007028E+03  0.7546771E-02  0.1278825E+00
         21   -1    0    0  504  502  0.00000000000E+00  0.00000000000E+00  0.38366894912E+03  0.38366894912E+03  0.00000000000E+00 0.  1.
          2   -1    0    0  503    0 -0.00000000000E+00 -0.00000000000E+00 -0.46958891183E+03  0.46958891183E+03  0.00000000000E+00 0.  1.
         21    1    1    2  503  505  0.78546610095E+02  0.95401003370E+02 -0.21088249186E+03  0.24442247600E+03  0.00000000000E+00 0. -1.
         21    1    1    2  504  501  0.23088183329E+02 -0.85079401850E+02  0.25924105984E+03  0.27382018906E+03  0.00000000000E+00 0.  1.
         21    1    1    2  505  502 -0.65688239754E+02 -0.65503002415E+01  0.87893002804E+02  0.10992284211E+03  0.00000000000E+00 0.  1.
          2    1    1    2  501    0 -0.35946553670E+02 -0.37713012784E+01 -0.22217153349E+03  0.22509235378E+03  0.00000000000E+00 0.  1.
<scales pt_clust_3="14000.00000" pt_clust_4="100.70281" pt_clust_5="67.63267" pt_clust_6="36.14384"></scales>
<clustering>
<clus scale="   36.144">  2  6  1 -1</clus>
<clus scale="   67.633">  1  5  2 -1</clus>
<clus scale="  100.703">  1  4  2 -1</clus>
<clus scale="   67.633">  1  3  2 -1</clus>
</clustering>
</event>
<event>
 6    0  0.4340993E+002  0.1164431E+03  0.7546771E-02  0.1249083E+00
          2   -1    0    0  503    0 -0.00000000000E+00  0.00000000000E+00  0.36873563206E+04  0.36873563206E+04  0.00000000000E+00 0. -1.
         21   -1    0    0  505  502  0.00000000000E+00 -0.00000000000E+00 -0.79569228502E+03  0.79569228502E+03  0.00000000000E+00 0.  1.
         21    1    1    2  503  504  0.61142659319E+02  0.47425918228E+01  0.74862389021E+03  0.75113157700E+03  0.00000000000E+00 0.  1.
         21    1    1    2  504  502 -0.63493960448E+02 -0.12502459085E+03 -0.75994772944E+03  0.77277628251E+03  0.00000000000E+00 0.  1.
         21    1    1    2  505  501 -0.20680870465E+02  0.44000443063E+02 -0.60664666363E+01  0.48995299881E+02  0.00000000000E+00 0. -1.
          2    1    1    2  501    0  0.23032171594E+02  0.76281555967E+02  0.29090543414E+04  0.29101454462E+04  0.00000000000E+00 0. -1.
<scales pt_clust_3="61.29826" pt_clust_4="116.44306" pt_clust_5="48.61828" pt_clust_6="14000.00000"></scales>
<clustering>
<clus scale="   48.618">  2  5  1 -1</clus>
<clus scale="   61.298">  1  3  2 -1</clus>
<clus scale="  116.443">  2  4  1 -1</clus>
<clus scale="   48.618">  2  3  1 -1</clus>
</clustering>
</event>
<event>
 6    0  0.4340992E+002  0.1546113E+03  0.7546771E-02  0.1194918E+00
         -2   -1    0    0    0  501 -0.00000000000E+00  0.00000000000E+00  0.22464334347E+03  0.22464334347E+03  0.00000000000E+00 0.  1.
         21   -1    0    0  503  502  0.00000000000E+00 -0.00000000000E+00 -0.61493825708E+03  0.61493825708E+03  0.00000000000E+00 0. -1.
         21    1    1    2  503  504 -0.11200611497E+02 -0.39215834026E+02 -0.28579557894E+03  0.28869092171E+03  0.00000000000E+00 0. -1.
         21    1    1    2  504  501  0.18503560562E+03  0.50603123271E+02 -0.23070819324E+03  0.30004186685E+03  0.00000000000E+00 0. -1.
         21    1    1    2  505  502 -0.10786012660E+03 -0.18892079065E+02  0.14402701101E+01  0.10951160641E+03  0.00000000000E+00 0.  1.
         -2    1    1    2    0  505 -0.65974867527E+02  0.75047898210E+01  0.12476858846E+03  0.14133720558E+03  0.00000000000E+00 0.  1.
<scales pt_clust_3="40.78401" pt_clust_4="14000.00000" pt_clust_5="154.61131" pt_clust_6="66.57740"></scales>
<clustering>
<clus scale="   40.784">  2  3  1 -1</clus>
<clus scale="   66.577">  1  6  2 -1</clus>
<clus scale="  154.611">  1  5  2 -1</clus>
<clus scale="   40.784">  2  3  1 -1</clus>
</clustering>
</event>
<event>
 6    0  0.4340992E+002  0.7717660E+02  0.7546771E-02  0.1337260E+00
          1   -1    0    0  505    0 -0.00000000000E+00  0.00000000000E+00  0.13382595292E+04  0.13382595292E+04  0.00000000000E+00 0.  1.
         21   -1    0    0  504  502  0.00000000000E+00 -0.00000000000E+00 -0.10925821442E+03  0.10925821442E+03  0.00000000000E+00 0. -1.
         21    1    1    2  503  502 -0.58899287749E+02 -0.37215296947E+02 -0.36233172542E+02  0.78529912878E+02  0.00000000000E+00 0. -1.
         21    1    1    2  504  501  0.75166527677E+02  0.56661458863E+02  0.29241189667E+00  0.94130830806E+02  0.00000000000E+00 0. -1.
         21    1    1    2  505  503 -0.29824715804E+02 -0.58374618195E+02  0.23174184247E+03  0.24083478003E+03  0.00000000000E+00 0. -1.
          1    1    1    2  501    0  0.13557475876E+02  0.38928456278E+02  0.10332002329E+04  0.10340222199E+04  0.00000000000E+00 0.  1.
<scales pt_clust_3="14000.00000" pt_clust_4="77.17660" pt_clust_5="34.16196" pt_clust_6="41.22172"></scales>
<clustering>
<clus scale="   41.222">  1  6  2 -1</clus>
<clus scale="   34.162">  1  5  2 -1</clus>
<clus scale="   77.177">  1  4  2 -1</clus>
<clus scale="   77.177">  2  3  1 -1</clus>
</clustering>
</event>
<event>
 6    0  0.4340992E+002  0.1235986E+03  0.7546771E-02  0.1237276E+00
          2   -1    0    0  505    0 -0.00000000000E+00  0.00000000000E+00  0.47018521035E+04  0.47018521035E+04  0.00000000000E+00 0.  1.
         21   -1    0    0  501  502  0.00000000000E+00 -0.00000000000E+00 -0.10198126484E+02  0.10198126484E+02  0.00000000000E+00 0. -1.
         21    1    1    2  503  504 -0.55215238967E+02 -0.20890815842E+02  0.64103348101E+03  0.64374612432E+03  0.00000000000E+00 0. -1.
         21    1    1    2  504  502  0.81830658360E+02  0.10656846933E+03  0.55528845575E+03  0.57131284284E+03  0.00000000000E+00 0. -1.
         21    1    1    2  505  503  0.92184300559E+01 -0.29190036227E+02  0.51524332528E+03  0.51615183998E+03  0.00000000000E+00 0. -1.
          2    1    1    2  501    0 -0.35833849448E+02 -0.56487617266E+02  0.29800887150E+04  0.29808394228E+04  0.00000000000E+00 0.  1.
<scales pt_clust_3="59.48238" pt_clust_4="123.59863" pt_clust_5="30.61107" pt_clust_6="14000.00000"></scales>
<clustering>
<clus scale="   30.611">  1  5  2 -1</clus>
<clus scale="   59.482">  1  3  2 -1</clus>
<clus scale="  123.599">  2  4  1 -1</clus>
<clus scale="  123.599">  2  3  1 -1</clus>
</clustering>
</event>
<event>
 6    0  0.4340992E+002  0.6306230E+02  0.7546771E-02  0.1385412E+00
         21   -1    0    0  505  502  0.00000000000E+00  0.00000000000E+00  0.85093978702E+02  0.85093978702E+02  0.00000000000E+00 0. -1.
          2   -1    0    0  504    0 -0.00000000000E+00 -0.00000000000E+00 -0.18889930958E+04  0.18889930958E+04  0.00000000000E+00 0.  1.
         21    1    1    2  503  502 -0.98273506194E+02 -0.92730149319E+01  0.39225849364E+02  0.10621835097E+03  0.00000000000E+00 0. -1.
         21    1    1    2  504  503  0.76733274676E+02 -0.70005211099E+02 -0.10795764474E+04  0.10845616768E+04  0.00000000000E+00 0.  1.
         21    1    1    2  505  501  0.40422118243E+02  0.22249076340E+02 -0.53194999745E+02  0.70417874429E+02  0.00000000000E+00 0.  1.
          2    1    1    2  501    0 -0.18881886725E+02  0.57029149691E+02 -0.71035351929E+03  0.71288917226E+03  0.00000000000E+00 0.  1.
<scales pt_clust_3="14000.00000" pt_clust_4="63.06230" pt_clust_5="46.14075" pt_clust_6="60.21791"></scales>
<clustering>
<clus scale="   46.141">  1  5  2 -1</clus>
<clus scale="   60.218">  2  6  1 -1</clus>
<clus scale="   63.062">  2  4  1 -1</clus>
<clus scale="   46.141">  1  3  2 -1</clus>
</clustering>
</event>
<event>
 6    0  0.4340992E+002  0.1933704E+03  0.7546771E-02  0.1155456E+00
         21   -1    0    0  505  502  0.00000000000E+00  0.00000000000E+00  0.33453946129E+02  0.33453946129E+02  0.00000000000E+00 0. -1.
          2   -1    0    0  503    0 -0.00000000000E+00 -0.00000000000E+00 -0.14526041565E+04  0.14526041565E+04  0.00000000000E+00 0. -1.
         21    1    1    2  503  504  0.80521755504E+02 -0.58050480288E+02 -0.13974201460E+03  0.17141015727E+03  0.00000000000E+00 0. -1.
         21    1    1    2  504  502  0.89745200074E+02  0.15419414198E+02 -0.19391143890E+03  0.21422792863E+03  0.00000000000E+00 0. -1.
         21    1    1    2  505  501 -0.72072465355E+02  0.17484586777E+02 -0.33513187888E+03  0.34323975189E+03  0.00000000000E+00 0. -1.
          2    1    1    2  501    0 -0.98194490223E+02  0.25146479313E+02 -0.75036487803E+03  0.75718026487E+03  0.00000000000E+00 0. -1.
<scales pt_clust_3="77.71517" pt_clust_4="77.71517" pt_clust_5="36.41863" pt_clust_6="180.61286"></scales>
<clustering>
<clus scale="   36.419">  5  6 -1 -1</clus>
<clus scale="   77.715">  3  4 -1 -1</clus>
<clus scale="  180.613">  2  5  1 -1</clus>
<clus scale="  193.370">  1  3  2 -1</clus>
</clustering>
</event>
<event>
 6    0  0.4340992E+002  0.2794378E+03  0.7546771E-02  0.1095996E+00
         21   -1    0    0  505  502  0.00000000000E+00  0.00000000000E+00  0.91607039833E+02  0.91607039833E+02  0.00000000000E+00 0.  1.
          2   -1    0    0  504    0 -0.00000000000E+00 -0.00000000000E+00 -0.39970309627E+04  0.39970309627E+04  0.00000000000E+00 0. -1.
         21    1    1    2  503  502 -0.28861869776E+03 -0.18241275965E+03 -0.82561522811E+03  0.89342916477E+03  0.00000000000E+00 0. -1.
         21    1    1    2  504  503 -0.11005669514E+02 -0.30204838109E+02 -0.28957186498E+03  0.29135085721E+03  0.00000000000E+00 0.  1.
         21    1    1    2  505  501  0.16507701026E+03  0.20270424120E+03 -0.25552313700E+03  0.36555642828E+03  0.00000000000E+00 0.  1.
          2    1    1    2  501    0  0.13454735701E+03  0.99133565609E+01 -0.25347136928E+04  0.25383015523E+04  0.00000000000E+00 0. -1.
<scales pt_clust_3="14000.00000" pt_clust_4="32.14743" pt_clust_5="279.43778" pt_clust_6="127.47054"></scales>
<clustering>
<clus scale="   32.147">  2  4  1 -1</clus>
<clus scale="  127.471">  2  6  1 -1</clus>
<clus scale="  279.438">  1  5  2 -1</clus>
<clus scale="  279.438">  1  3  2 -1</clus>
</clustering>
</event>
<event>
 6    0  0.4340992E+002  0.1808180E+03  0.7546771E-02  0.1167014E+00
         21   -1    0    0  503  502  0.00000000000E+00  0.00000000000E+00  0.49639999593E+03  0.49639999593E+03  0.00000000000E+00 0.  1.
         -2   -1    0    0    0  501 -0.00000000000E+00 -0.00000000000E+00 -0.54436859961E+03  0.54436859961E+03  0.00000000000E+00 0. -1.
         21    1    1    2  503  505  0.78048834893E+02 -0.16677840196E+03  0.44204512420E+03  0.47886380926E+03  0.00000000000E+00 0.  1.
         21    1    1    2  504  501 -0.19111288676E+02 -0.30650805482E+02 -0.50059550402E+02  0.61730639216E+02  0.00000000000E+00 0. -1.
         21    1    1    2  505  504 -0.82282025384E+02  0.11683646718E+03 -0.19873640540E+03  0.24478000449E+03  0.00000000000E+00 0. -1.
         -2    1    1    2    0  502  0.23344479166E+02  0.80592740259E+02 -0.24121777209E+03  0.25539414257E+03  0.00000000000E+00 0. -1.
<scales pt_clust_3="14000.00000" pt_clust_4="36.12081" pt_clust_5="180.81803" pt_clust_6="66.42535"></scales>
<clustering>
<clus scale="   36.121">  2  4  1 -1</clus>
<clus scale="   66.425">  2  6  1 -1</clus>
<clus scale="  180.818">  2  5  1 -1</clus>
<clus scale="  180.818">  1  3  2 -1</clus>
</clustering>
</event>
<event>
 6    0  0.4340992E+002  0.1263306E+03  0.7546771E-02  0.1233004E+00
          1   -1    0    0  504    0 -0.00000000000E+00  0.00000000000E+00  0.88507994461E+03  0.88507994461E+03  0.00000000000E+00 0.  1.
         21   -1    0    0  505  502  0.00000000000E+00 -0.00000000000E+00 -0.12237610563E+03  0.12237610563E+03  0.00000000000E+00 0. -1.
         21    1    1    2  503  502 -0.31601844376E+02  0.34034262910E+02  0.77547562068E+02  0.90391548291E+02  0.00000000000E+00 0.  1.
         21    1    1    2  504  503 -0.19778034983E+02  0.31847960266E+02  0.17290754367E+03  0.17692507425E+03  0.00000000000E+00 0.  1.
         21    1    1    2  505  501  0.85931130990E+02 -0.99439300585E+02 -0.74731940930E+02  0.15118596750E+03  0.00000000000E+00 0. -1.
          1    1    1    2  501    0 -0.34551251631E+02  0.33557077409E+02  0.58698067417E+03  0.58895346020E+03  0.00000000000E+00 0.  1.
<scales pt_clust_3="50.80145" pt_clust_4="37.48951" pt_clust_5="126.33061" pt_clust_6="14000.00000"></scales>
<clustering>
<clus scale="   37.490">  1  4  2 -1</clus>
<clus scale="   50.801">  1  3  2 -1</clus>
<clus scale="  126.331">  2  5  1 -1</clus>
<clus scale="  126.331">  2  3  1 -1</clus>
</clustering>
</event>
<event>
 6    0  0.4340992E+002  0.1546335E+03  0.7546771E-02  0.1194892E+00
         21   -1    0    0  501  502  0.00000000000E+00  0.00000000000E+00  0.32794024063E+02  0.32794024063E+02  0.00000000000E+00 0. -1.
          2   -1    0    0  504    0 -0.00000000000E+00 -0.00000000000E+00 -0.37420785399E+04  0.37420785399E+04  0.00000000000E+00 0. -1.
         21    1    1    2  503  505  0.21821858914E+02 -0.41254255800E+02 -0.37624477183E+03  0.37912825730E+03  0.00000000000E+00 0.  1.
         21    1    1    2  504  503 -0.31412175132E+02 -0.82859944122E+01 -0.44676148659E+03  0.44794107687E+03  0.00000000000E+00 0.  1.
         21    1    1    2  505  502  0.42766729224E+02  0.15238267987E+03 -0.18128635976E+03  0.24065373150E+03  0.00000000000E+00 0. -1.
          2    1    1    2  501    0 -0.33176413006E+02 -0.10284242966E+03 -0.27049918977E+04  0.27071494983E+04  0.00000000000E+00 0. -1.
<scales pt_clust_3="45.96945" pt_clust_4="32.48665" pt_clust_5="154.63350" pt_clust_6="14000.00000"></scales>
<clustering>
<clus scale="   32.487">  2  4  1 -1</clus>
<clus scale="   45.969">  2  3  1 -1</clus>
<clus scale="  154.633">  1  5  2 -1</clus>
<clus scale="  154.633">  1  3  2 -1</clus>
</clustering>
</event>
<event>
 6    0  0.4340992E+002  0.1264967E+03  0.7546771E-02  0.1232749E+00
         -2   -1    0    0    0  501 -0.00000000000E+00  0.00000000000E+00  0.97219660886E+03  0.97219660886E+03  0.00000000000E+00 0.  1.
         21   -1    0    0  504  502  0.00000000000E+00 -0.00000000000E+00 -0.48280674352E+03  0.48280674352E+03  0.00000000000E+00 0. -1.
         21    1    1    2  503  501  0.24860687613E+02 -0.41150923840E+02  0.52517991562E+02  0.71201065717E+02  0.00000000000E+00 0.  1.
         21    1    1    2  504  503  0.17003496047E+03 -0.76618305635E+02 -0.57054325323E+01  0.18658725707E+03  0.00000000000E+00 0.  1.
         21    1    1    2  505  502 -0.53595935358E+02  0.73368859502E+02 -0.36501490088E+03  0.37615341511E+03  0.00000000000E+00 0. -1.
         -2    1    1    2    0  505 -0.14129971273E+03  0.44400369974E+02  0.80759220719E+03  0.82106161449E+03  0.00000000000E+00 0.  1.
<scales pt_clust_3="48.07757" pt_clust_4="14000.00000" pt_clust_5="90.56686" pt_clust_6="126.49667"></scales>
<clustering>
<clus scale="   48.078">  1  3  2 -1</clus>
<clus scale="   90.567">  2  5  1 -1</clus>
<clus scale="  126.497">  1  6  2 -1</clus>
<clus scale="   90.567">  2  3  1 -1</clus>
</clustering>
</event>
<event>
 6    0  0.4340992E+002  0.1596694E+03  0.7546771E-02  0.1189070E+00
         21   -1    0    0  503  502  0.00000000000E+00  0.00000000000E+00  0.14491913098E+04  0.14491913098E+04  0.00000000000E+00 0.  1.
         -1   -1    0    0    0  501 -0.00000000000E+00 -0.00000000000E+00 -0.12845861079E+04  0.12845861079E+04  0.00000000000E+00 0.  1.
         21    1    1    2  503  505  0.54671105713E+02 -0.25529919961E+02  0.25902852454E+03  0.26596331164E+03  0.00000000000E+00 0. -1.
         21    1    1    2  504  502 -0.21296507881E+03  0.55667711721E+02  0.11683171734E+04  0.11888725906E+04  0.00000000000E+00 0.  1.
         21    1    1    2  505  501  0.67364352543E+02 -0.58596478487E+02 -0.88009267161E+03  0.88460986537E+03  0.00000000000E+00 0.  1.
         -1    1    1    2    0  504  0.90929620551E+02  0.28458686727E+02 -0.38264782443E+03  0.39433165011E+03  0.00000000000E+00 0.  1.
<scales pt_clust_3="60.33827" pt_clust_4="14000.00000" pt_clust_5="89.39368" pt_clust_6="159.66942"></scales>
<clustering>
<clus scale="   60.338">  1  3  2 -1</clus>
<clus scale="   89.394">  2  5  1 -1</clus>
<clus scale="  159.669">  2  6  1 -1</clus>
<clus scale="   60.338">  1  3  2 -1</clus>
</clustering>
</event>
<event>
 6    0  0.4340992E+002  0.1525602E+03  0.7546771E-02  0.1197362E+00
          2   -1    0    0  505    0 -0.00000000000E+00  0.00000000000E+00  0.12525081045E+04  0.12525081045E+04  0.00000000000E+00 0.  1.
         21   -1    0    0  503  502  0.00000000000E+00 -0.00000000000E+00 -0.35101105667E+03  0.35101105667E+03  0.00000000000E+00 0. -1.
         21    1    1    2  503  501  0.93183896819E+02  0.60048145563E+02  0.92724253522E+02  0.14452268197E+03  0.00000000000E+00 0.  1.
         21    1    1    2  504  502 -0.16155141092E+03  0.35148445653E+02 -0.29988839260E+03  0.34244316261E+03  0.00000000000E+00 0. -1.
         21    1    1    2  505  504  0.42146679770E+02 -0.48269088584E+02  0.84738444995E+03  0.84980389123E+03  0.00000000000E+00 0.  1.
          2    1    1    2  501    0  0.26220834329E+02 -0.46927502632E+02  0.26127673696E+03  0.26674942537E+03  0.00000000000E+00 0.  1.
<scales pt_clust_3="152.56022" pt_clust_4="14000.00000" pt_clust_5="109.64692" pt_clust_6="53.75614"></scales>
<clustering>
<clus scale="   53.756">  1  6  2 -1</clus>
<clus scale="  109.647">  1  5  2 -1</clus>
<clus scale="  152.560">  1  3  2 -1</clus>
<clus scale="  152.560">  2  3  1 -1</clus>
</clustering>
</event>
<event>
 6    0  0.4340992E+002  0.1281818E+03  0.7546771E-02  0.1230179E+00
          1   -1    0    0  505    0 -0.00000000000E+00  0.00000000000E+00  0.25174833462E+04  0.25174833462E+04  0.00000000000E+00 0.  1.
         21   -1    0    0  501  502  0.00000000000E+00 -0.00000000000E+00 -0.43404666240E+02  0.43404666240E+02  0.00000000000E+00 0.  1.
         21    1    1    2  503  504  0.15879677844E+03  0.18888672791E+02  0.67803223448E+03  0.69663542101E+03  0.00000000000E+00 0.  1.
         21    1    1    2  504  502 -0.38772539208E+02  0.38931915748E+02 -0.41674878942E+01  0.55103283167E+02  0.00000000000E+00 0.  1.
         21    1    1    2  505  503 -0.16595026308E+02 -0.72894421935E+02  0.69928332974E+03  0.70326820410E+03  0.00000000000E+00 0.  1.
          1    1    1    2  501    0 -0.10342921292E+03  0.15073833396E+02  0.11009306036E+04  0.11058811041E+04  0.00000000000E+00 0.  1.
<scales pt_clust_3="128.18178" pt_clust_4="54.94546" pt_clust_5="70.83158" pt_clust_6="14000.00000"></scales>
<clustering>
<clus scale="   54.945">  2  4  1 -1</clus>
<clus scale="   70.832">  1  5  2 -1</clus>
<clus scale="  128.182">  2  3  1 -1</clus>
<clus scale="   54.945">  2  3  1 -1</clus>
</clustering>
</event>
<event>
 6    0  0.4340992E+002  0.1139633E+03  0.7546771E-02  0.1253402E+00
         21   -1    0    0  505  502  0.00000000000E+00  0.00000000000E+00  0.66352263404E+02  0.66352263404E+02  0.00000000000E+00 0.  1.
          1   -1    0    0  503    0 -0.00000000000E+00 -0.00000000000E+00 -0.95532691224E+03  0.95532691224E+03  0.00000000000E+00 0.  1.
         21    1    1    2  503  502 -0.50082603608E+02  0.14265996866E+02 -0.72269368152E+02  0.89076637924E+02  0.00000000000E+00 0.  1.
         21    1    1    2  504  501 -0.49899293857E+02  0.23745674588E-01 -0.36134449824E+03  0.36477360993E+03  0.00000000000E+00 0.  1.
         21    1    1    2  505  504  0.12057121103E+03 -0.40898597768E+02 -0.17312611569E+02  0.12849061736E+03  0.00000000000E+00 0.  1.
          1    1    1    2  501    0 -0.20589313568E+02  0.26608855228E+02 -0.43804817087E+03  0.43933831043E+03  0.00000000000E+00 0.  1.
<scales pt_clust_3="56.39125" pt_clust_4="113.96326" pt_clust_5="14000.00000" pt_clust_6="33.64448"></scales>
<clustering>
<clus scale="   33.644">  2  6  1 -1</clus>
<clus scale="   56.391">  2  3  1 -1</clus>
<clus scale="  113.963">  2  4  1 -1</clus>
<clus scale="  113.963">  1  3  2 -1</clus>
</clustering>
</event>
<event>
 6    0  0.4340992E+002  0.1002598E+03  0.7546771E-02  0.1279751E+00
         21   -1    0    0  505  502  0.00000000000E+00  0.00000000000E+00  0.18134470816E+03  0.18134470816E+03  0.00000000000E+00 0. -1.
          2   -1    0    0  503    0 -0.00000000000E+00 -0.00000000000E+00 -0.26029790403E+04  0.26029790403E+04  0.00000000000E+00 0. -1.
         21    1    1    2  503  502 -0.27279648524E+02  0.64888135716E+02 -0.13113916555E+04  0.13132793776E+04  0.00000000000E+00 0. -1.
         21    1    1    2  504  501  0.22482582440E+02 -0.58429901124E+02 -0.37310225253E+03  0.37831839858E+03  0.00000000000E+00 0. -1.
         21    1    1    2  505  504  0.74537670761E+01  0.87533963344E+02  0.16434393850E+03  0.18635096862E+03  0.00000000000E+00 0. -1.
          2    1    1    2  501    0 -0.26567009913E+01 -0.93992197937E+02 -0.90148436263E+03  0.90637500374E+03  0.00000000000E+00 0. -1.
<scales pt_clust_3="70.38927" pt_clust_4="38.62350" pt_clust_5="88.38267" pt_clust_6="38.62350"></scales>
<clustering>
<clus scale="   38.623">  4  6 -1 -1</clus>
<clus scale="   70.389">  2  3  1 -1</clus>
<clus scale="   88.383">  1  5  2 -1</clus>
<clus scale="   88.383">  1  3  2 -1</clus>
</clustering>
</event>
<event>
 6    0  0.4340992E+002  0.1259065E+03  0.7546771E-02  0.1233659E+00
         21   -1    0    0  505  502  0.00000000000E+00  0.00000000000E+00  0.54284396637E+03  0.54284396637E+03  0.00000000000E+00 0.  1.
          2   -1    0    0  504    0 -0.00000000000E+00 -0.00000000000E+00 -0.28042568154E+03  0.28042568154E+03  0.00000000000E+00 0. -1.
         21    1    1    2  503  501 -0.32720515105E+02  0.32168524718E+02  0.22933499234E+03  0.23388027878E+03  0.00000000000E+00 0.  1.
         21    1    1    2  504  502  0.89583205343E+02  0.39566263618E+01 -0.86531664465E+02  0.12461354070E+03  0.00000000000E+00 0. -1.
         21    1    1    2  505  503 -0.79993243756E+02 -0.59396455629E+01  0.28448475424E+03  0.29557701844E+03  0.00000000000E+00 0.  1.
          2    1    1    2  501    0  0.23130553518E+02 -0.30185505517E+02 -0.16486979728E+03  0.16919881000E+03  0.00000000000E+00 0. -1.
<scales pt_clust_3="40.80208" pt_clust_4="113.71232" pt_clust_5="40.80208" pt_clust_6="38.02877"></scales>
<clustering>
<clus scale="   38.029">  2  6  1 -1</clus>
<clus scale="   40.802">  3  5 -1 -1</clus>
<clus scale="  113.712">  2  4  1 -1</clus>
<clus scale="  125.906">  1  3  2 -1</clus>
</clustering>
</event>
<event>
 6    0  0.4340992E+002  0.1040485E+03  0.7546771E-02  0.1272006E+00
         21   -1    0    0  503  502  0.00000000000E+00  0.00000000000E+00  0.30275062059E+03  0.30275062059E+03  0.00000000000E+00 0. -1.
         -1   -1    0    0    0  501 -0.00000000000E+00 -0.00000000000E+00 -0.69538671982E+03  0.69538671982E+03  0.00000000000E+00 0. -1.
         21    1    1    2  503  505  0.96893249189E+02 -0.15804458645E+02  0.49388092041E+02  0.10989661636E+03  0.00000000000E+00 0. -1.
         21    1    1    2  504  502 -0.10338317288E+03 -0.43095322583E+02  0.19970985725E+03  0.22897448405E+03  0.00000000000E+00 0. -1.
         21    1    1    2  505  501  0.34265067358E+02  0.21191641350E+02 -0.43840787106E+02  0.59541541114E+02  0.00000000000E+00 0. -1.
         -1    1    1    2    0  504 -0.27775143663E+02  0.37708139878E+02 -0.59789326141E+03  0.59972469889E+03  0.00000000000E+00 0. -1.
<scales pt_clust_3="14000.00000" pt_clust_4="104.04848" pt_clust_5="40.28871" pt_clust_6="57.56826"></scales>
<clustering>
<clus scale="   40.289">  2  5  1 -1</clus>
<clus scale="   57.568">  2  6  1 -1</clus>
<clus scale="  104.048">  1  4  2 -1</clus>
<clus scale="  104.048">  1  3  2 -1</clus>
</clustering>
</event>
<event>
 6    0  0.4340992E+002  0.1068703E+03  0.7546771E-02  0.1266478E+00
         -1   -1    0    0    0  501 -0.00000000000E+00  0.00000000000E+00  0.53624324137E+03  0.53624324137E+03  0.00000000000E+00 0. -1.
         21   -1    0    0  503  502  0.00000000000E+00 -0.00000000000E+00 -0.31267842899E+04  0.31267842899E+04  0.00000000000E+00 0.  1.
         21    1    1    2  503  505  0.17808600306E+02 -0.42263515607E+02 -0.30683362034E+04  0.30686789353E+04  0.00000000000E+00 0.  1.
         21    1    1    2  504  501  0.43877488000E+02  0.65001095020E+02  0.14845695085E+03  0.16789831019E+03  0.00000000000E+00 0. -1.
         21    1    1    2  505  504 -0.74202118566E+02 -0.80599757151E+02  0.19834794790E+02  0.11133595258E+03  0.00000000000E+00 0. -1.
         -1    1    1    2    0  502  0.12516030260E+02  0.57862177738E+02  0.30950340925E+03  0.31511433316E+03  0.00000000000E+00 0. -1.
<scales pt_clust_3="45.86230" pt_clust_4="14000.00000" pt_clust_5="106.87034" pt_clust_6="57.40703"></scales>
<clustering>
<clus scale="   45.862">  2  3  1 -1</clus>
<clus scale="   57.407">  1  6  2 -1</clus>
<clus scale="  106.870">  2  5  1 -1</clus>
<clus scale="   45.862">  2  3  1 -1</clus>
</clustering>
</event>
<event>
 6    0  0.4340992E+002  0.9661817E+02  0.7546771E-02  0.1287573E+00
         -3   -1    0    0    0  501 -0.00000000000E+00  0.00000000000E+00  0.67139808598E+02  0.67139808598E+02  0.00000000000E+00 0. -1.
         21   -1    0    0  503  502  0.00000000000E+00 -0.00000000000E+00 -0.40690986209E+03  0.40690986209E+03  0.00000000000E+00 0. -1.
         21    1    1    2  503  504  0.35040825267E+02  0.80460363148E+02 -0.83581451101E+02  0.12119236132E+03  0.00000000000E+00 0. -1.
         21    1    1    2  504  505 -0.51416547147E+02 -0.86032523479E+01 -0.67107901127E+02  0.84977336185E+02  0.00000000000E+00 0. -1.
         21    1    1    2  505  501 -0.74263810141E+01  0.37248253901E+02  0.10302519168E+02  0.39353849301E+02  0.00000000000E+00 0. -1.
         -3    1    1    2    0  502  0.23802102894E+02 -0.10910536470E+03 -0.19938322044E+03  0.22852612389E+03  0.00000000000E+00 0. -1.
<scales pt_clust_3="96.61817" pt_clust_4="52.98987" pt_clust_5="37.98136" pt_clust_6="14000.00000"></scales>
<clustering>
<clus scale="   37.981">  1  5  2 -1</clus>
<clus scale="   52.990">  1  4  2 -1</clus>
<clus scale="   96.618">  1  3  2 -1</clus>
<clus scale="   96.618">  2  3  1 -1</clus>
</clustering>
</event>
<event>
 6    0  0.4340992E+002  0.8653354E+02  0.7546771E-02  0.1311470E+00
         21   -1    0    0  505  502  0.00000000000E+00  0.00000000000E+00  0.25867384314E+03  0.25867384314E+03  0.00000000000E+00 0. -1.
          2   -1    0    0  503    0 -0.00000000000E+00 -0.00000000000E+00 -0.21602445700E+04  0.21602445700E+04  0.00000000000E+00 0. -1.
         21    1    1    2  503  504  0.48403569884E+01 -0.71784315288E+02 -0.83909438413E+03  0.84217326154E+03  0.00000000000E+00 0.  1.
         21    1    1    2  504  502  0.36160886884E+01 -0.52598225363E+02  0.24152153299E+03  0.24720902149E+03  0.00000000000E+00 0. -1.
         21    1    1    2  505  501 -0.91170965682E+00 -0.32469987957E+02 -0.25144971475E+02  0.41077985867E+02  0.00000000000E+00 0.  1.
          2    1    1    2  501    0 -0.75447360200E+01  0.15685252861E+03 -0.12788529043E+04  0.12884581443E+04  0.00000000000E+00 0. -1.
<scales pt_clust_3="72.14587" pt_clust_4="14000.00000" pt_clust_5="32.48279" pt_clust_6="86.53354"></scales>
<clustering>
<clus scale="   32.483">  1  5  2 -1</clus>
<clus scale="   72.146">  2  3  1 -1</clus>
<clus scale="   86.534">  2  6  1 -1</clus>
<clus scale="   32.483">  1  3  2 -1</clus>
</clustering>
</event>
<event>
 6    0  0.4340992E+002  0.7751700E+02  0.7546771E-02  0.1336249E+00
         21   -1    0    0  505  502  0.00000000000E+00  0.00000000000E+00  0.47794764428E+03  0.47794764428E+03  0.00000000000E+00 0. -1.
          1   -1    0    0  504    0 -0.00000000000E+00 -0.00000000000E+00 -0.22552253211E+03  0.22552253211E+03  0.00000000000E+00 0. -1.
         21    1    1    2  503  502  0.23521805278E+02 -0.43174764030E+02 -0.76055676717E+02  0.90563798139E+02  0.00000000000E+00 0. -1.
         21    1    1    2  504  503  0.29806006599E+02 -0.30751053132E+02 -0.91171927836E+01  0.43785254394E+02  0.00000000000E+00 0. -1.
         21    1    1    2  505  501  0.61702730844E+02  0.24460899447E+02  0.41608172066E+03  0.42134256949E+03  0.00000000000E+00 0. -1.
          1    1    1    2  501    0 -0.11503054272E+03  0.49464917715E+02 -0.78483738991E+02  0.14777855436E+03  0.00000000000E+00 0. -1.
<scales pt_clust_3="14000.00000" pt_clust_4="42.82552" pt_clust_5="66.59284" pt_clust_6="77.51700"></scales>
<clustering>
<clus scale="   42.826">  2  4  1 -1</clus>
<clus scale="   66.593">  1  5  2 -1</clus>
<clus scale="   77.517">  1  6  2 -1</clus>
<clus scale="   66.593">  1  3  2 -1</clus>
</clustering>
</event>
<event>
 6    0  0.4340992E+002  0.4631137E+03  0.7546771E-02  0.1023882E+00
         21   -1    0    0  504  502  0.00000000000E+00  0.00000000000E+00  0.36863207120E+03  0.36863207120E+03  0.00000000000E+00 0. -1.
         -2   -1    0    0    0  501 -0.00000000000E+00 -0.00000000000E+00 -0.30962395554E+04  0.30962395554E+04  0.00000000000E+00 0.  1.
         21    1    1    2  503  505  0.88068286218E+02 -0.35323969097E+02 -0.28446833794E+03  0.29987670987E+03  0.00000000000E+00 0.  1.
         21    1    1    2  504  501 -0.49049867257E+03 -0.98357550577E+02 -0.54170985132E+03  0.73736878057E+03  0.00000000000E+00 0. -1.
         21    1    1    2  505  502  0.72116827742E+02  0.76496595603E+02  0.23900216022E+03  0.26110265907E+03  0.00000000000E+00 0. -1.
         -2    1    1    2    0  503  0.33031355861E+03  0.57184924072E+02 -0.21404314551E+04  0.21665234770E+04  0.00000000000E+00 0.  1.
<scales pt_clust_3="88.17861" pt_clust_4="432.44037" pt_clust_5="105.13118" pt_clust_6="88.17861"></scales>
<clustering>
<clus scale="   88.179">  3  6 -1 -1</clus>
<clus scale="  105.131">  1  5  2 -1</clus>
<clus scale="  432.440">  1  4  2 -1</clus>
<clus scale="  105.131">  1  3  2 -1</clus>
</clustering>
</event>
<event>
 6    0  0.4340992E+002  0.1054981E+03  0.7546771E-02  0.1269141E+00
          1   -1    0    0  503    0 -0.00000000000E+00  0.00000000000E+00  0.19624262498E+03  0.19624262498E+03  0.00000000000E+00 0. -1.
         21   -1    0    0  504  502  0.00000000000E+00 -0.00000000000E+00 -0.28822104898E+03  0.28822104898E+03  0.00000000000E+00 0.  1.
         21    1    1    2  503  505  0.40575717473E+02 -0.28841494986E+02 -0.12029301770E+02  0.51214497777E+02  0.00000000000E+00 0.  1.
         21    1    1    2  504  501 -0.39490952848E+02 -0.52485183885E+02 -0.20529858777E+03  0.21554985508E+03  0.00000000000E+00 0.  1.
         21    1    1    2  505  502 -0.37484740902E+02 -0.21890890709E+02 -0.90814808453E+01  0.44348508327E+02  0.00000000000E+00 0.  1.
          1    1    1    2  501    0  0.36399976276E+02  0.10321756958E+03  0.13443094639E+03  0.17335081278E+03  0.00000000000E+00 0. -1.
<scales pt_clust_3="47.86050" pt_clust_4="105.49805" pt_clust_5="43.40872" pt_clust_6="14000.00000"></scales>
<clustering>
<clus scale="   43.409">  2  5  1 -1</clus>
<clus scale="   47.861">  2  3  1 -1</clus>
<clus scale="  105.498">  2  4  1 -1</clus>
<clus scale="   43.409">  2  3  1 -1</clus>
</clustering>
</event>
<event>
 6    0  0.4340992E+002  0.1087053E+03  0.7546771E-02  0.1262986E+00
          2   -1    0    0  503    0 -0.00000000000E+00  0.00000000000E+00  0.24480081139E+03  0.24480081139E+03  0.00000000000E+00 0.  1.
         21   -1    0    0  505  502  0.00000000000E+00 -0.00000000000E+00 -0.73115028108E+03  0.73115028108E+03  0.00000000000E+00 0. -1.
         21    1    1    2  503  504  0.53481377633E+02 -0.10523958661E+02 -0.20597270447E+02  0.58268851107E+02  0.00000000000E+00 0. -1.
         21    1    1    2  504  502  0.35836072169E+02  0.55032680838E+02 -0.14518209818E+03  0.15934447484E+03  0.00000000000E+00 0. -1.
         21    1    1    2  505  501 -0.51793605064E+02 -0.15676874038E+03 -0.50939369612E+03  0.53548198208E+03  0.00000000000E+00 0. -1.
          2    1    1    2  501    0 -0.37523844738E+02  0.11226001821E+03  0.18882359506E+03  0.22285578445E+03  0.00000000000E+00 0.  1.
<scales pt_clust_3="54.50699" pt_clust_4="66.32917" pt_clust_5="14000.00000" pt_clust_6="108.70531"></scales>
<clustering>
<clus scale="   54.507">  1  3  2 -1</clus>
<clus scale="   66.329">  2  4  1 -1</clus>
<clus scale="  108.705">  1  6  2 -1</clus>
<clus scale="   66.329">  2  3  1 -1</clus>
</clustering>
</event>
<event>
 6    0  0.4340992E+002  0.5844418E+02  0.7546771E-02  0.1404479E+00
         21   -1    0    0  505  502  0.00000000000E+00  0.00000000000E+00  0.74689676772E+03  0.74689676772E+03  0.00000000000E+00 0.  1.
          4   -1    0    0  504    0 -0.00000000000E+00 -0.00000000000E+00 -0.67860414769E+03  0.67860414769E+03  0.00000000000E+00 0. -1.
         21    1    1    2  503  502  0.41749710142E+02 -0.89452834974E+02  0.19093472231E+03  0.21494398378E+03  0.00000000000E+00 0.  1.
         21    1    1    2  504  503 -0.11248946967E+02 -0.43145847589E+02 -0.63775554102E+02  0.77816606666E+02  0.00000000000E+00 0.  1.
         21    1    1    2  505  501 -0.28489194162E+02  0.45801856703E+02  0.53240409853E+03  0.53512948751E+03  0.00000000000E+00 0.  1.
          4    1    1    2  501    0 -0.20115690138E+01  0.86796825860E+02 -0.59127064671E+03  0.59761083746E+03  0.00000000000E+00 0. -1.
<scales pt_clust_3="58.44418" pt_clust_4="44.58815" pt_clust_5="14000.00000" pt_clust_6="46.45955"></scales>
<clustering>
<clus scale="   44.588">  2  4  1 -1</clus>
<clus scale="   46.460">  2  6  1 -1</clus>
<clus scale="   58.444">  2  3  1 -1</clus>
<clus scale="   58.444">  1  3  2 -1</clus>
</clustering>
</event>
<event>
 6    0  0.4340992E+002  0.1700687E+03  0.7546771E-02  0.1177776E+00
         21   -1    0    0  505  502  0.00000000000E+00  0.00000000000E+00  0.12713064571E+03  0.12713064571E+03  0.00000000000E+00 0. -1.
          2   -1    0    0  504    0 -0.00000000000E+00 -0.00000000000E+00 -0.13392009058E+04  0.13392009058E+04  0.00000000000E+00 0.  1.
         21    1    1    2  503  502 -0.25160000120E+02  0.30764030721E+02  0.20419402124E+02  0.44681127731E+02  0.00000000000E+00 0.  1.
         21    1    1    2  504  503 -0.13783589570E+02  0.73552308800E+02 -0.32592729226E+03  0.33440772915E+03  0.00000000000E+00 0. -1.
         21    1    1    2  505  501  0.17669011562E+03 -0.11063707051E+03 -0.43150895449E+02  0.21288954438E+03  0.00000000000E+00 0. -1.
          2    1    1    2  501    0 -0.13774652593E+03  0.63207309907E+01 -0.86341147447E+03  0.87435315022E+03  0.00000000000E+00 0.  1.
<scales pt_clust_3="39.74231" pt_clust_4="76.40083" pt_clust_5="170.06875" pt_clust_6="14000.00000"></scales>
<clustering>
<clus scale="   39.742">  1  3  2 -1</clus>
<clus scale="   76.401">  2  4  1 -1</clus>
<clus scale="  170.069">  1  5  2 -1</clus>
<clus scale="   39.742">  1  3  2 -1</clus>
</clustering>
</event>
<event>
 6    0  0.4340992E+002  0.7753987E+02  0.7546771E-02  0.1336182E+00
         21   -1    0    0  505  502  0.00000000000E+00  0.00000000000E+00  0.22540073426E+04  0.22540073426E+04  0.00000000000E+00 0.  1.
         -2   -1    0    0    0  501 -0.00000000000E+00 -0.00000000000E+00 -0.42975112330E+03  0.42975112330E+03  0.00000000000E+00 0.  1.
         21    1    1    2  503  502  0.36681951008E+02  0.20855028070E+02  0.18693081722E+04  0.18697843567E+04  0.00000000000E+00 0.  1.
         21    1    1    2  504  503 -0.14428471482E+03 -0.49829113871E+02  0.26976937716E+03  0.30996215313E+03  0.00000000000E+00 0.  1.
         21    1    1    2  505  501  0.32227372095E+02  0.15196133633E+02  0.87490851444E+02  0.94467852076E+02  0.00000000000E+00 0.  1.
         -2    1    1    2    0  504  0.75375391718E+02  0.13777952167E+02 -0.40231218158E+03  0.40954410397E+03  0.00000000000E+00 0.  1.
<scales pt_clust_3="72.94010" pt_clust_4="14000.00000" pt_clust_5="35.63041" pt_clust_6="77.53987"></scales>
<clustering>
<clus scale="   35.630">  1  5  2 -1</clus>
<clus scale="   72.940">  1  3  2 -1</clus>
<clus scale="   77.540">  2  6  1 -1</clus>
<clus scale="   35.630">  1  3  2 -1</clus>
</clustering>
</event>
<event>
 6    0  0.4340992E+002  0.1141547E+03  0.7546771E-02  0.1253064E+00
         21   -1    0    0  501  502  0.00000000000E+00  0.00000000000E+00  0.19513846524E+03  0.19513846524E+03  0.00000000000E+00 0.  1.
          1   -1    0    0  504    0 -0.00000000000E+00 -0.00000000000E+00 -0.94474033264E+03  0.94474033264E+03  0.00000000000E+00 0.  1.
         21    1    1    2  503  505 -0.23629162361E+02 -0.56961808583E+02 -0.56650796871E+02  0.83739463439E+02  0.00000000000E+00 0. -1.
         21    1    1    2  504  503 -0.26650802717E+02  0.35199014074E+02 -0.10483563233E+03  0.11375300297E+03  0.00000000000E+00 0.  1.
         21    1    1    2  505  502  0.11220360599E+03 -0.26288259698E+02  0.15611337654E+03  0.19404151136E+03  0.00000000000E+00 0.  1.
          1    1    1    2  501    0 -0.61923640911E+02  0.48051054207E+02 -0.74422881474E+03  0.74834482012E+03  0.00000000000E+00 0.  1.
<scales pt_clust_3="59.88024" pt_clust_4="44.15015" pt_clust_5="14000.00000" pt_clust_6="114.15475"></scales>
<clustering>
<clus scale="   44.150">  2  4  1 -1</clus>
<clus scale="   59.880">  2  3  1 -1</clus>
<clus scale="  114.155">  2  6  1 -1</clus>
<clus scale="  114.155">  1  3  2 -1</clus>
</clustering>
</event>
<event>
 6    0  0.4340992E+002  0.1066787E+03  0.7546771E-02  0.1266847E+00
         21   -1    0    0  501  502  0.00000000000E+00  0.00000000000E+00  0.51374899155E+03  0.51374899155E+03  0.00000000000E+00 0.  1.
          1   -1    0    0  505    0 -0.00000000000E+00 -0.00000000000E+00 -0.31589717104E+03  0.31589717104E+03  0.00000000000E+00 0. -1.
         21    1    1    2  503  502 -0.71326733411E+02  0.80635912378E+02  0.46905915102E+03  0.48125475625E+03  0.00000000000E+00 0.  1.
         21    1    1    2  504  503 -0.19625452643E+02 -0.33765366830E+02  0.66454055881E+01  0.39615903423E+02  0.00000000000E+00 0. -1.
         21    1    1    2  505  504  0.38383327538E+02 -0.64674394928E+01 -0.22508263968E+02  0.44963647019E+02  0.00000000000E+00 0.  1.
          1    1    1    2  501    0  0.52568858517E+02 -0.40403106055E+02 -0.25534447213E+03  0.26381185590E+03  0.00000000000E+00 0. -1.
<scales pt_clust_3="106.67873" pt_clust_4="38.31352" pt_clust_5="38.92438" pt_clust_6="14000.00000"></scales>
<clustering>
<clus scale="   38.924">  2  5  1 -1</clus>
<clus scale="   38.314">  2  4  1 -1</clus>
<clus scale="  106.679">  1  3  2 -1</clus>
<clus scale="  106.679">  1  3  2 -1</clus>
</clustering>
</event>
<event>
 6    0  0.4340992E+002  0.1137957E+03  0.7546771E-02  0.1253698E+00
          2   -1    0    0  505    0 -0.00000000000E+00  0.00000000000E+00  0.46064954366E+03  0.46064954366E+03  0.00000000000E+00 0.  1.
         21   -1    0    0  503  502  0.00000000000E+00 -0.00000000000E+00 -0.24984572252E+03  0.24984572252E+03  0.00000000000E+00 0.  1.
         21    1    1    2  503  501  0.11670318128E+03 -0.14609304127E+02  0.31133125322E+02  0.12166485023E+03  0.00000000000E+00 0.  1.
         21    1    1    2  504  502 -0.93681216202E+02 -0.74985407026E+02 -0.17696823875E+03  0.21381473069E+03  0.00000000000E+00 0.  1.
         21    1    1    2  505  504 -0.84812549937E+01  0.35701776930E+02  0.43364118730E+02  0.56806648866E+02  0.00000000000E+00 0. -1.
          2    1    1    2  501    0 -0.14540710089E+02  0.53892934223E+02  0.31327481583E+03  0.31820903639E+03  0.00000000000E+00 0.  1.
<scales pt_clust_3="113.79567" pt_clust_4="14000.00000" pt_clust_5="36.69535" pt_clust_6="84.03181"></scales>
<clustering>
<clus scale="   36.695">  1  5  2 -1</clus>
<clus scale="   84.032">  1  6  2 -1</clus>
<clus scale="  113.796">  1  3  2 -1</clus>
<clus scale="  113.796">  2  3  1 -1</clus>
</clustering>
</event>
<event>
 6    0  0.4340992E+002  0.1777177E+03  0.7546771E-02  0.1170030E+00
         21   -1    0    0  503  502  0.00000000000E+00  0.00000000000E+00  0.81282694080E+03  0.81282694080E+03  0.00000000000E+00 0.  1.
          2   -1    0    0  504    0 -0.00000000000E+00 -0.00000000000E+00 -0.26579977162E+03  0.26579977162E+03  0.00000000000E+00 0.  1.
         21    1    1    2  503  505 -0.20834727457E+01  0.30618949751E+02  0.22757431004E+03  0.22963433439E+03  0.00000000000E+00 0.  1.
         21    1    1    2  504  502 -0.15049890058E+03  0.66561112150E+02  0.53362431298E+03  0.55842206988E+03  0.00000000000E+00 0.  1.
         21    1    1    2  505  501  0.11898258830E+03 -0.10409170965E+03 -0.15062949279E+03  0.21836021715E+03  0.00000000000E+00 0.  1.
          2    1    1    2  501    0  0.33599785024E+02  0.69116477485E+01 -0.63541961049E+02  0.72210091000E+02  0.00000000000E+00 0.  1.
<scales pt_clust_3="30.68975" pt_clust_4="14000.00000" pt_clust_5="177.71771" pt_clust_6="34.33467"></scales>
<clustering>
<clus scale="   30.690">  1  3  2 -1</clus>
<clus scale="   34.335">  2  6  1 -1</clus>
<clus scale="  177.718">  2  5  1 -1</clus>
<clus scale="   30.690">  1  3  2 -1</clus>
</clustering>
</event>
<event>
 6    0  0.4340992E+002  0.1679368E+03  0.7546771E-02  0.1180017E+00
          2   -1    0    0  503    0 -0.00000000000E+00  0.00000000000E+00  0.13632663781E+03  0.13632663781E+03  0.00000000000E+00 0. -1.
         21   -1    0    0  504  502  0.00000000000E+00 -0.00000000000E+00 -0.31488678678E+03  0.31488678678E+03  0.00000000000E+00 0.  1.
         21    1    1    2  503  502 -0.48461798886E+02 -0.16466049733E+03 -0.12657278567E+03  0.21326578582E+03  0.00000000000E+00 0.  1.
         21    1    1    2  504  505 -0.24421280127E+02  0.26790816652E+02 -0.63966317488E+02  0.73524394270E+02  0.00000000000E+00 0. -1.
         21    1    1    2  505  501  0.51132048654E+02  0.43897695245E+02  0.15948444841E+01  0.67409476903E+02  0.00000000000E+00 0. -1.
          2    1    1    2  501    0  0.21751030359E+02  0.93971985430E+02  0.10384109704E+02  0.97013767589E+02  0.00000000000E+00 0. -1.
<scales pt_clust_3="160.09766" pt_clust_4="36.25116" pt_clust_5="41.59283" pt_clust_6="41.59283"></scales>
<clustering>
<clus scale="   36.251">  2  4  1 -1</clus>
<clus scale="   41.593">  5  6 -1 -1</clus>
<clus scale="  160.098">  2  3  1 -1</clus>
<clus scale="   36.251">  2  3  1 -1</clus>
</clustering>
</event>
<event>
 6    0  0.4340992E+002  0.1500445E+03  0.7546771E-02  0.1200418E+00
         21   -1    0    0  504  502  0.00000000000E+00  0.00000000000E+00  0.79988568737E+02  0.79988568737E+02  0.00000000000E+00 0. -1.
         -3   -1    0    0    0  501 -0.00000000000E+00 -0.00000000000E+00 -0.19905614966E+04  0.19905614966E+04  0.00000000000E+00 0.  1.
         21    1    1    2  503  502 -0.32591131473E+02 -0.87889200807E+01 -0.21699246895E+03  0.21960227355E+03  0.00000000000E+00 0. -1.
         21    1    1    2  504  505  0.81037873217E+02  0.49436561339E+02  0.17417663959E+02  0.96511582260E+02  0.00000000000E+00 0. -1.
         21    1    1    2  505  501  0.48018267283E+02  0.12685208071E+01 -0.86081572812E+01  0.48800240877E+02  0.00000000000E+00 0.  1.
         -3    1    1    2    0  503 -0.96465009027E+02 -0.41916162065E+02 -0.17023899656E+04  0.17056359686E+04  0.00000000000E+00 0.  1.
<scales pt_clust_3="32.47878" pt_clust_4="145.04454" pt_clust_5="30.27573" pt_clust_6="32.47878"></scales>
<clustering>
<clus scale="   30.276">  4  5 -1 -1</clus>
<clus scale="   32.479">  3  6 -1 -1</clus>
<clus scale="  145.045">  1  4  2 -1</clus>
<clus scale="  145.045">  1  3  2 -1</clus>
</clustering>
</event>
<event>
 6    0  0.4340992E+002  0.1251885E+03  0.7546771E-02  0.1234775E+00
         21   -1    0    0  501  502  0.00000000000E+00  0.00000000000E+00  0.41459436219E+03  0.41459436219E+03  0.00000000000E+00 0.  1.
          2   -1    0    0  505    0 -0.00000000000E+00 -0.00000000000E+00 -0.33281103038E+03  0.33281103038E+03  0.00000000000E+00 0.  1.
         21    1    1    2  503  502  0.27557525307E+02 -0.16390589471E+02  0.20100904860E+03  0.20355025483E+03  0.00000000000E+00 0.  1.
         21    1    1    2  504  503 -0.16664720463E+03 -0.94500666094E+01  0.11785019743E+03  0.20432636541E+03  0.00000000000E+00 0.  1.
         21    1    1    2  505  504  0.53005210493E+02 -0.11282542669E+01 -0.24339056267E+03  0.24909795522E+03  0.00000000000E+00 0.  1.
          2    1    1    2  501    0  0.86084468826E+02  0.26968910348E+02  0.63146484660E+01  0.90430817113E+02  0.00000000000E+00 0.  1.
<scales pt_clust_3="32.06351" pt_clust_4="125.18846" pt_clust_5="53.39264" pt_clust_6="14000.00000"></scales>
<clustering>
<clus scale="   32.064">  1  3  2 -1</clus>
<clus scale="   53.393">  2  5  1 -1</clus>
<clus scale="  125.188">  1  4  2 -1</clus>
<clus scale="   32.064">  1  3  2 -1</clus>
</clustering>
</event>
<event>
 6    0  0.4340992E+002  0.1614336E+03  0.7546771E-02  0.1187088E+00
          2   -1    0    0  504    0 -0.00000000000E+00  0.00000000000E+00  0.22082843490E+04  0.22082843490E+04  0.00000000000E+00 0.  1.
         21   -1    0    0  501  502  0.00000000000E+00 -0.00000000000E+00 -0.60960633779E+02  0.60960633779E+02  0.00000000000E+00 0. -1.
         21    1    1    2  503  505  0.10299866538E+03  0.69149483019E+02  0.29005819958E+02  0.12740374274E+03  0.00000000000E+00 0. -1.
         21    1    1    2  504  503 -0.14151486566E+03 -0.10010879784E+02  0.13804555957E+04  0.13877263154E+04  0.00000000000E+00 0.  1.
         21    1    1    2  505  502  0.55781398215E+02 -0.36563327359E+01  0.10829506697E+03  0.12187187816E+03  0.00000000000E+00 0. -1.
          2    1    1    2  501    0 -0.17265197935E+02 -0.55482270499E+02  0.62956723256E+03  0.63224304640E+03  0.00000000000E+00 0.  1.
<scales pt_clust_3="14000.00000" pt_clust_4="161.43364" pt_clust_5="55.90110" pt_clust_6="57.79900"></scales>
<clustering>
<clus scale="   55.901">  2  5  1 -1</clus>
<clus scale="   57.799">  1  6  2 -1</clus>
<clus scale="  161.434">  1  4  2 -1</clus>
<clus scale="   55.901">  2  3  1 -1</clus>
</clustering>
</event>
<event>
 6    0  0.4340992E+002  0.9860247E+02  0.7546771E-02  0.1283262E+00
         -1   -1    0    0    0  501 -0.00000000000E+00  0.00000000000E+00  0.10364805628E+03  0.10364805628E+03  0.00000000000E+00 0. -1.
         21   -1    0    0  503  502  0.00000000000E+00 -0.00000000000E+00 -0.22309345945E+04  0.22309345945E+04  0.00000000000E+00 0.  1.
         21    1    1    2  503  505 -0.96124358785E+02  0.67154302397E+02 -0.19838425215E+04  0.19873048943E+04  0.00000000000E+00 0.  1.
         21    1    1    2  504  502  0.41832040293E+02  0.21133403722E+02 -0.20814869434E+03  0.21335983526E+03  0.00000000000E+00 0.  1.
         21    1    1    2  505  501  0.25773184788E+02 -0.52735878517E+02  0.51472545629E+01  0.58922187388E+02  0.00000000000E+00 0. -1.
         -1    1    1    2    0  504  0.28519133704E+02 -0.35551827603E+02  0.59557423145E+02  0.74995733777E+02  0.00000000000E+00 0. -1.
<scales pt_clust_3="14000.00000" pt_clust_4="47.64959" pt_clust_5="98.60247" pt_clust_6="45.57712"></scales>
<clustering>
<clus scale="   45.577">  1  6  2 -1</clus>
<clus scale="   47.650">  2  4  1 -1</clus>
<clus scale="   98.602">  1  5  2 -1</clus>
<clus scale="   47.650">  2  3  1 -1</clus>
</clustering>
</event>
<event>
 6    0  0.4340992E+002  0.6927193E+02  0.7546771E-02  0.1362587E+00
         21   -1    0    0  503  502  0.00000000000E+00  0.00000000000E+00  0.10372868245E+03  0.10372868245E+03  0.00000000000E+00 0.  1.
         -1   -1    0    0    0  501 -0.00000000000E+00 -0.00000000000E+00 -0.74381564295E+03  0.74381564295E+03  0.00000000000E+00 0.  1.
         21    1    1    2  503  501 -0.37619600575E+02  0.45517784275E+02  0.60508072595E+02  0.84547796434E+02  0.00000000000E+00 0.  1.
         21    1    1    2  504  502  0.11582994224E+02 -0.87399421837E+02 -0.68466098836E+02  0.11162630238E+03  0.00000000000E+00 0.  1.
         21    1    1    2  505  504 -0.49040418646E+02  0.46715650752E+02 -0.16725744376E+03  0.18045045630E+03  0.00000000000E+00 0.  1.
         -1    1    1    2    0  505  0.75077024998E+02 -0.48340131905E+01 -0.46487149050E+03  0.47091977029E+03  0.00000000000E+00 0.  1.
<scales pt_clust_3="59.05170" pt_clust_4="57.75048" pt_clust_5="69.27193" pt_clust_6="14000.00000"></scales>
<clustering>
<clus scale="   59.052">  1  3  2 -1</clus>
<clus scale="   57.750">  1  4  2 -1</clus>
<clus scale="   69.272">  1  5  2 -1</clus>
<clus scale="   59.052">  1  3  2 -1</clus>
</clustering>
</event>
<event>
 6    0  0.4340992E+002  0.1060573E+03  0.7546771E-02  0.1268050E+00
         21   -1    0    0  501  502  0.00000000000E+00  0.00000000000E+00  0.11718189892E+03  0.11718189892E+03  0.00000000000E+00 0.  1.
         -1   -1    0    0    0  501 -0.00000000000E+00 -0.00000000000E+00 -0.23016605175E+03  0.23016605175E+03  0.00000000000E+00 0.  1.
         21    1    1    2  503  504  0.12809082162E+01  0.13002081535E+03  0.15132978806E+02  0.13090477531E+03  0.00000000000E+00 0.  1.
         21    1    1    2  504  502  0.37789413719E+02 -0.45827576055E+02 -0.84120341269E+01  0.59991406338E+02  0.00000000000E+00 0.  1.
         21    1    1    2  505  503 -0.16222791523E+02 -0.43479788657E+02 -0.29811648375E+02  0.55158003637E+02  0.00000000000E+00 0. -1.
         -1    1    1    2    0  505 -0.22847530412E+02 -0.40713450639E+02 -0.89893449131E+02  0.10129376538E+03  0.00000000000E+00 0.  1.
<scales pt_clust_3="98.56625" pt_clust_4="59.39871" pt_clust_5="39.03474" pt_clust_6="39.03474"></scales>
<clustering>
<clus scale="   39.035">  5  6 -1 -1</clus>
<clus scale="   59.399">  1  4  2 -1</clus>
<clus scale="   98.566">  1  3  2 -1</clus>
<clus scale="   59.399">  1  3  2 -1</clus>
</clustering>
</event>
<event>
 6    0  0.4340992E+002  0.1386683E+03  0.7546771E-02  0.1215132E+00
          1   -1    0    0  505    0 -0.00000000000E+00  0.00000000000E+00  0.13106769414E+04  0.13106769414E+04  0.00000000000E+00 0.  1.
         21   -1    0    0  504  502  0.00000000000E+00 -0.00000000000E+00 -0.27519844997E+03  0.27519844997E+03  0.00000000000E+00 0.  1.
         21    1    1    2  503  502 -0.24692054695E+02  0.16064160292E+03  0.10553757001E+03  0.19378751466E+03  0.00000000000E+00 0.  1.
         21    1    1    2  504  501 -0.57663249326E+02 -0.12600628618E+03 -0.20749768435E+03  0.24951537726E+03  0.00000000000E+00 0.  1.
         21    1    1    2  505  503  0.29106018883E+02  0.17214391047E+02  0.37243774898E+03  0.37396974806E+03  0.00000000000E+00 0.  1.
          1    1    1    2  501    0  0.53249285138E+02 -0.51849707788E+02  0.76500085680E+03  0.76860275141E+03  0.00000000000E+00 0.  1.
<scales pt_clust_3="14000.00000" pt_clust_4="138.66829" pt_clust_5="33.81561" pt_clust_6="85.81497"></scales>
<clustering>
<clus scale="   33.816">  1  5  2 -1</clus>
<clus scale="   85.815">  1  6  2 -1</clus>
<clus scale="  138.668">  2  4  1 -1</clus>
<clus scale="  138.668">  2  3  1 -1</clus>
</clustering>
</event>
<event>
 6    0  0.4340992E+002  0.2100758E+03  0.7546771E-02  0.1141506E+00
          2   -1    0    0  503    0 -0.00000000000E+00  0.00000000000E+00  0.85435791068E+03  0.85435791068E+03  0.00000000000E+00 0.  1.
         21   -1    0    0  504  502  0.00000000000E+00 -0.00000000000E+00 -0.16620971626E+03  0.16620971626E+03  0.00000000000E+00 0.  1.
         21    1    1    2  503  505 -0.23002154521E+03 -0.41245769212E+02  0.79738476031E+01  0.23382623246E+03  0.00000000000E+00 0.  1.
         21    1    1    2  504  501  0.40136788649E+02 -0.15681092138E+01  0.26968386547E+02  0.48380932633E+02  0.00000000000E+00 0. -1.
         21    1    1    2  505  502 -0.16374175370E+02  0.25970973302E+02 -0.18264077251E+02  0.35723683897E+02  0.00000000000E+00 0.  1.
          2    1    1    2  501    0  0.20625893193E+03  0.16842905124E+02  0.67147003751E+03  0.70263677795E+03  0.00000000000E+00 0.  1.
<scales pt_clust_3="210.07581" pt_clust_4="38.87992" pt_clust_5="30.70187" pt_clust_6="14000.00000"></scales>
<clustering>
<clus scale="   30.702">  2  5  1 -1</clus>
<clus scale="   38.880">  2  4  1 -1</clus>
<clus scale="  210.076">  2  3  1 -1</clus>
<clus scale="   30.702">  2  3  1 -1</clus>
</clustering>
</event>
<event>
 6    0  0.4340992E+002  0.1256487E+03  0.7546771E-02  0.1234059E+00
          2   -1    0    0  505    0 -0.00000000000E+00  0.00000000000E+00  0.24258475689E+04  0.24258475689E+04  0.00000000000E+00 0.  1.
         21   -1    0    0  504  502  0.00000000000E+00 -0.00000000000E+00 -0.33292756985E+03  0.33292756985E+03  0.00000000000E+00 0.  1.
         21    1    1    2  503  502 -0.30431884807E+02 -0.15170456023E+02 -0.57499438676E+02  0.66801405650E+02  0.00000000000E+00 0.  1.
         21    1    1    2  504  501 -0.99996073023E+01  0.13425298119E+03 -0.25160540410E+03  0.28535790593E+03  0.00000000000E+00 0.  1.
         21    1    1    2  505  503  0.32642624205E+02 -0.43480665286E+01  0.44669747760E+03  0.44790968184E+03  0.00000000000E+00 0.  1.
          2    1    1    2  501    0  0.77888679038E+01 -0.11473445864E+03  0.19553273643E+04  0.19587061454E+04  0.00000000000E+00 0.  1.
<scales pt_clust_3="33.93948" pt_clust_4="125.64872" pt_clust_5="32.93094" pt_clust_6="14000.00000"></scales>
<clustering>
<clus scale="   32.931">  1  5  2 -1</clus>
<clus scale="   33.939">  2  3  1 -1</clus>
<clus scale="  125.649">  2  4  1 -1</clus>
<clus scale="   33.939">  2  3  1 -1</clus>
</clustering>
</event>
<event>
 6    0  0.4340992E+002  0.1116755E+03  0.7546771E-02  0.1257498E+00
         -2   -1    0    0    0  501 -0.00000000000E+00  0.00000000000E+00  0.26710842408E+03  0.26710842408E+03  0.00000000000E+00 0.  1.
         21   -1    0    0  504  502  0.00000000000E+00 -0.00000000000E+00 -0.48624370352E+03  0.48624370352E+03  0.00000000000E+00 0. -1.
         21    1    1    2  503  502  0.74800529451E+02  0.43534241794E+02 -0.54672240588E+02  0.10236895675E+03  0.00000000000E+00 0.  1.
         21    1    1    2  504  501 -0.97906131484E+02 -0.72299333006E+02 -0.38578625562E+03  0.40452915737E+03  0.00000000000E+00 0. -1.
         21    1    1    2  505  503  0.63769981225E+02  0.16097275040E+02  0.13026239495E+03  0.14592472137E+03  0.00000000000E+00 0.  1.
         -2    1    1    2    0  505 -0.40664379192E+02  0.12667816172E+02  0.91060821829E+02  0.10052929212E+03  0.00000000000E+00 0.  1.
<scales pt_clust_3="111.67549" pt_clust_4="14000.00000" pt_clust_5="40.65197" pt_clust_6="42.59185"></scales>
<clustering>
<clus scale="   42.592">  1  6  2 -1</clus>
<clus scale="   40.652">  1  5  2 -1</clus>
<clus scale="  111.675">  1  3  2 -1</clus>
<clus scale="  111.675">  2  3  1 -1</clus>
</clustering>
</event>
<event>
 6    0  0.4340992E+002  0.1826750E+03  0.7546771E-02  0.1165239E+00
          1   -1    0    0  503    0 -0.00000000000E+00  0.00000000000E+00  0.27612208146E+03  0.27612208146E+03  0.00000000000E+00 0. -1.
         21   -1    0    0  501  502  0.00000000000E+00 -0.00000000000E+00 -0.10178006059E+04  0.10178006059E+04  0.00000000000E+00 0.  1.
         21    1    1    2  503  504 -0.22292506657E+02 -0.30985917775E+02  0.12567742834E+02  0.40187449699E+02  0.00000000000E+00 0. -1.
         21    1    1    2  504  505  0.47207635908E+02  0.98219803634E+02 -0.44825544523E+03  0.46131186294E+03  0.00000000000E+00 0.  1.
         21    1    1    2  505  502 -0.17700555380E+02  0.63234641909E+02 -0.52948105108E+03  0.53353735862E+03  0.00000000000E+00 0.  1.
          1    1    1    2  501    0 -0.72145738714E+01 -0.13046852777E+03  0.22349022907E+03  0.25888601605E+03  0.00000000000E+00 0. -1.
<scales pt_clust_3="38.17176" pt_clust_4="64.29276" pt_clust_5="64.29276" pt_clust_6="162.94799"></scales>
<clustering>
<clus scale="   38.172">  1  3  2 -1</clus>
<clus scale="   64.293">  4  5 -1 -1</clus>
<clus scale="  162.948">  1  6  2 -1</clus>
<clus scale="  182.675">  2  3  1 -1</clus>
</clustering>
</event>
<event>
 6    0  0.4340992E+002  0.2283598E+03  0.7546771E-02  0.1127800E+00
         21   -1    0    0  505  502  0.00000000000E+00  0.00000000000E+00  0.23118097173E+03  0.23118097173E+03  0.00000000000E+00 0.  1.
          2   -1    0    0  504    0 -0.00000000000E+00 -0.00000000000E+00 -0.95219580063E+03  0.95219580063E+03  0.00000000000E+00 0. -1.
         21    1    1    2  503  502  0.84055051663E+01 -0.62575911754E+02  0.11349302217E+03  0.12987325872E+03  0.00000000000E+00 0. -1.
         21    1    1    2  504  503  0.99359466245E+02 -0.13289657326E+03  0.19765812866E+02  0.16710622393E+03  0.00000000000E+00 0.  1.
         21    1    1    2  505  501 -0.46818052009E+02  0.20725180618E+02 -0.20040149213E+03  0.20683863554E+03  0.00000000000E+00 0. -1.
          2    1    1    2  501    0 -0.60946919402E+02  0.17474730440E+03 -0.65387217181E+03  0.67955865416E+03  0.00000000000E+00 0. -1.
<scales pt_clust_3="63.13792" pt_clust_4="214.60271" pt_clust_5="41.05955" pt_clust_6="41.05955"></scales>
<clustering>
<clus scale="   41.060">  5  6 -1 -1</clus>
<clus scale="   63.138">  1  3  2 -1</clus>
<clus scale="  214.603">  1  4  2 -1</clus>
<clus scale="   63.138">  1  3  2 -1</clus>
</clustering>
</event>
<event>
 6    0  0.4340992E+002  0.1966443E+03  0.7546771E-02  0.1152602E+00
         21   -1    0    0  505  502  0.00000000000E+00  0.00000000000E+00  0.27458421730E+03  0.27458421730E+03  0.00000000000E+00 0. -1.
         -1   -1    0    0    0  501 -0.00000000000E+00 -0.00000000000E+00 -0.13211679892E+04  0.13211679892E+04  0.00000000000E+00 0.  1.
         21    1    1    2  503  501  0.45216846551E+02 -0.24303287179E+02 -0.55876738681E+03  0.56112049111E+03  0.00000000000E+00 0.  1.
         21    1    1    2  504  502  0.59318688907E+01 -0.19145953414E+03  0.18491074463E+03  0.26624034961E+03  0.00000000000E+00 0. -1.
         21    1    1    2  505  503  0.36585698323E+02  0.13607634686E+01  0.17316743675E+02  0.40499810006E+02  0.00000000000E+00 0. -1.
         -1    1    1    2    0  504 -0.87734413765E+02  0.21440205785E+03 -0.69004387343E+03  0.72789155582E+03  0.00000000000E+00 0.  1.
<scales pt_clust_3="51.48565" pt_clust_4="14000.00000" pt_clust_5="36.61100" pt_clust_6="196.64428"></scales>
<clustering>
<clus scale="   36.611">  1  5  2 -1</clus>
<clus scale="   51.486">  2  3  1 -1</clus>
<clus scale="  196.644">  2  6  1 -1</clus>
<clus scale="   36.611">  1  3  2 -1</clus>
</clustering>
</event>
<event>
 6    0  0.4340992E+002  0.7421695E+02  0.7546771E-02  0.1346313E+00
         21   -1    0    0  504  502  0.00000000000E+00  0.00000000000E+00  0.10677401369E+04  0.10677401369E+04  0.00000000000E+00 0. -1.
          4   -1    0    0  505    0 -0.00000000000E+00 -0.00000000000E+00 -0.91523084819E+02  0.91523084819E+02  0.00000000000E+00 0.  1.
         21    1    1    2  503  502 -0.13389994237E+02 -0.67452939129E+02  0.74630354272E+03  0.74946525524E+03  0.00000000000E+00 0. -1.
         21    1    1    2  504  501 -0.78516090964E+01 -0.41753149905E+02 -0.13196245445E+00  0.42485182199E+02  0.00000000000E+00 0.  1.
         21    1    1    2  505  503 -0.12014972662E+02  0.12262198214E+03  0.27994792814E+03  0.30586165589E+03  0.00000000000E+00 0.  1.
          4    1    1    2  501    0  0.33256575995E+02 -0.13415893103E+02 -0.49902456318E+02  0.61451128397E+02  0.00000000000E+00 0.  1.
<scales pt_clust_3="74.21695" pt_clust_4="51.13623" pt_clust_5="14000.00000" pt_clust_6="35.86065"></scales>
<clustering>
<clus scale="   35.861">  2  6  1 -1</clus>
<clus scale="   51.136">  2  4  1 -1</clus>
<clus scale="   74.217">  1  3  2 -1</clus>
<clus scale="   74.217">  1  3  2 -1</clus>
</clustering>
</event>
<event>
 6    0  0.4340992E+002  0.2493173E+03  0.7546771E-02  0.1113737E+00
         21   -1    0    0  505  502  0.00000000000E+00  0.00000000000E+00  0.61947069426E+03  0.61947069426E+03  0.00000000000E+00 0. -1.
          2   -1    0    0  504    0 -0.00000000000E+00 -0.00000000000E+00 -0.36129120549E+03  0.36129120549E+03  0.00000000000E+00 0. -1.
         21    1    1    2  503  502  0.72166773104E+02 -0.18724644887E+03  0.38976705912E+03  0.43839210318E+03  0.00000000000E+00 0. -1.
         21    1    1    2  504  503  0.19147421904E+03  0.14561609955E+03 -0.21428376862E+02  0.24150693642E+03  0.00000000000E+00 0.  1.
         21    1    1    2  505  501 -0.38950818839E+02  0.34816413397E+02 -0.43840862975E+01  0.52426797944E+02  0.00000000000E+00 0. -1.
          2    1    1    2  501    0 -0.22469017330E+03  0.68139359195E+01 -0.10577510719E+03  0.24843606221E+03  0.00000000000E+00 0. -1.
<scales pt_clust_3="200.67206" pt_clust_4="234.55354" pt_clust_5="40.74611" pt_clust_6="40.74611"></scales>
<clustering>
<clus scale="   40.746">  5  6 -1 -1</clus>
<clus scale="  200.672">  1  3  2 -1</clus>
<clus scale="  234.554">  1  4  2 -1</clus>
<clus scale="  200.672">  1  3  2 -1</clus>
</clustering>
</event>
<event>
 6    0  0.4340992E+002  0.6562495E+02  0.7546771E-02  0.1375636E+00
          2   -1    0    0  505    0 -0.00000000000E+00  0.00000000000E+00  0.16703654292E+04  0.16703654292E+04  0.00000000000E+00 0.  1.
         21   -1    0    0  504  502  0.00000000000E+00 -0.00000000000E+00 -0.84122166894E+02  0.84122166894E+02  0.00000000000E+00 0.  1.
         21    1    1    2  503  502  0.36764781071E+02 -0.42812831360E+02  0.32369647581E+02  0.65056757841E+02  0.00000000000E+00 0.  1.
         21    1    1    2  504  501  0.15585837802E+02  0.83212029483E+02 -0.35163149608E+02  0.91671191118E+02  0.00000000000E+00 0.  1.
         21    1    1    2  505  503  0.17621862165E+02 -0.34516956001E+02  0.10276191172E+03  0.10982695834E+03  0.00000000000E+00 0.  1.
          2    1    1    2  501    0 -0.69972481039E+02 -0.58822421224E+01  0.14862748527E+04  0.14879326888E+04  0.00000000000E+00 0.  1.
<scales pt_clust_3="57.60600" pt_clust_4="14000.00000" pt_clust_5="38.75500" pt_clust_6="65.62495"></scales>
<clustering>
<clus scale="   38.755">  1  5  2 -1</clus>
<clus scale="   57.606">  2  3  1 -1</clus>
<clus scale="   65.625">  1  6  2 -1</clus>
<clus scale="   57.606">  2  3  1 -1</clus>
</clustering>
</event>
<event>
 6    0  0.4340992E+002  0.1106939E+03  0.7546771E-02  0.1259290E+00
         21   -1    0    0  504  502  0.00000000000E+00  0.00000000000E+00  0.40089321766E+03  0.40089321766E+03  0.00000000000E+00 0.  1.
          1   -1    0    0  503    0 -0.00000000000E+00 -0.00000000000E+00 -0.73018989461E+03  0.73018989461E+03  0.00000000000E+00 0.  1.
         21    1    1    2  503  502 -0.96061861138E+02 -0.74414008383E+02  0.65861584567E+02  0.13821387098E+03  0.00000000000E+00 0. -1.
         21    1    1    2  504  505  0.70456440042E+02 -0.27784558062E+02  0.28951125460E+03  0.29925383565E+03  0.00000000000E+00 0.  1.
         21    1    1    2  505  501  0.97578059298E+01  0.57650946307E+02 -0.48038718918E+03  0.48393253447E+03  0.00000000000E+00 0.  1.
          1    1    1    2  501    0  0.15847615166E+02  0.44547620138E+02 -0.20428232693E+03  0.20968287117E+03  0.00000000000E+00 0.  1.
<scales pt_clust_3="104.99205" pt_clust_4="75.73699" pt_clust_5="31.53535" pt_clust_6="31.53535"></scales>
<clustering>
<clus scale="   31.535">  5  6 -1 -1</clus>
<clus scale="   75.737">  1  4  2 -1</clus>
<clus scale="  104.992">  1  3  2 -1</clus>
<clus scale="   75.737">  1  3  2 -1</clus>
</clustering>
</event>
<event>
 6    0  0.4340992E+002  0.8308302E+02  0.7546771E-02  0.1320523E+00
          2   -1    0    0  503    0 -0.00000000000E+00  0.00000000000E+00  0.83822677533E+03  0.83822677533E+03  0.00000000000E+00 0.  1.
         21   -1    0    0  504  502  0.00000000000E+00 -0.00000000000E+00 -0.13028903269E+03  0.13028903269E+03  0.00000000000E+00 0. -1.
         21    1    1    2  503  505 -0.34223054709E+02 -0.71960313007E+02  0.14914959713E+03  0.16910087654E+03  0.00000000000E+00 0.  1.
         21    1    1    2  504  501  0.28612544454E+02  0.65825500099E+02 -0.26991819728E+02  0.76682674026E+02  0.00000000000E+00 0.  1.
         21    1    1    2  505  502  0.55839159576E+02 -0.20574266629E+02 -0.54042348489E+02  0.80385867040E+02  0.00000000000E+00 0. -1.
          2    1    1    2  501    0 -0.50228649322E+02  0.26709079537E+02  0.63982231373E+03  0.64234639042E+03  0.00000000000E+00 0.  1.
<scales pt_clust_3="83.08302" pt_clust_4="14000.00000" pt_clust_5="55.74533" pt_clust_6="56.88842"></scales>
<clustering>
<clus scale="   56.888">  1  6  2 -1</clus>
<clus scale="   55.745">  2  5  1 -1</clus>
<clus scale="   83.083">  1  3  2 -1</clus>
<clus scale="   55.745">  2  3  1 -1</clus>
</clustering>
</event>
<event>
 6    0  0.4340992E+002  0.1619419E+03  0.7546771E-02  0.1186522E+00
         21   -1    0    0  505  502  0.00000000000E+00  0.00000000000E+00  0.77722975413E+03  0.77722975413E+03  0.00000000000E+00 0.  1.
         -2   -1    0    0    0  501 -0.00000000000E+00 -0.00000000000E+00 -0.13356032279E+03  0.13356032279E+03  0.00000000000E+00 0.  1.
         21    1    1    2  503  501 -0.16040807214E+03 -0.59022244874E+02  0.56832955397E+03  0.59347523698E+03  0.00000000000E+00 0.  1.
         21    1    1    2  504  502  0.69537807588E+02  0.65592057574E+02 -0.32605990566E+02  0.10099987783E+03  0.00000000000E+00 0.  1.
         21    1    1    2  505  503  0.28472580646E+02 -0.25283843791E+02  0.13901923881E+03  0.14413989512E+03  0.00000000000E+00 0.  1.
         -2    1    1    2    0  504  0.62397683911E+02  0.18714031090E+02 -0.31073370871E+02  0.72175066986E+02  0.00000000000E+00 0.  1.
<scales pt_clust_3="157.49654" pt_clust_4="31.10791" pt_clust_5="38.07835" pt_clust_6="31.10791"></scales>
<clustering>
<clus scale="   31.108">  4  6 -1 -1</clus>
<clus scale="   38.078">  1  5  2 -1</clus>
<clus scale="  157.497">  1  3  2 -1</clus>
<clus scale="   38.078">  1  3  2 -1</clus>
</clustering>
</event>
<event>
 6    0  0.4340992E+002  0.7380728E+02  0.7546771E-02  0.1347605E+00
         21   -1    0    0  503  502  0.00000000000E+00  0.00000000000E+00  0.17511576171E+04  0.17511576171E+04  0.00000000000E+00 0. -1.
          2   -1    0    0  504    0 -0.00000000000E+00 -0.00000000000E+00 -0.97287536902E+03  0.97287536902E+03  0.00000000000E+00 0. -1.
         21    1    1    2  503  505  0.11062224072E+03  0.98522850676E+01  0.11253604539E+03  0.15810980101E+03  0.00000000000E+00 0. -1.
         21    1    1    2  504  502 -0.45133871424E+02 -0.48968225745E+02  0.16130368695E+04  0.16144110059E+04  0.00000000000E+00 0. -1.
         21    1    1    2  505  501 -0.35529262778E+02  0.17254054898E+02 -0.23821173183E+03  0.24146399340E+03  0.00000000000E+00 0. -1.
          2    1    1    2  501    0 -0.29959106520E+02  0.21861885779E+02 -0.70907893501E+03  0.71004818583E+03  0.00000000000E+00 0. -1.
<scales pt_clust_3="14000.00000" pt_clust_4="66.60655" pt_clust_5="73.80728" pt_clust_6="37.08760"></scales>
<clustering>
<clus scale="   37.088">  2  6  1 -1</clus>
<clus scale="   66.607">  1  4  2 -1</clus>
<clus scale="   73.807">  2  5  1 -1</clus>
<clus scale="   66.607">  1  3  2 -1</clus>
</clustering>
</event>
<event>
 6    0  0.4340992E+002  0.1038601E+03  0.7546771E-02  0.1272382E+00
          2   -1    0    0  505    0 -0.00000000000E+00  0.00000000000E+00  0.41282617152E+03  0.41282617152E+03  0.00000000000E+00 0. -1.
         21   -1    0    0  504  502  0.00000000000E+00 -0.00000000000E+00 -0.33396254016E+03  0.33396254016E+03  0.00000000000E+00 0. -1.
         21    1    1    2  503  502 -0.34239523880E+02  0.13825998556E+03 -0.18697607101E+03  0.23504939849E+03  0.00000000000E+00 0. -1.
         21    1    1    2  504  501  0.40857994424E+02 -0.33870084323E+02 -0.97705552603E+02  0.11118872843E+03  0.00000000000E+00 0. -1.
         21    1    1    2  505  503 -0.51933786156E+02 -0.45742598826E+02  0.72547270128E+02  0.10026270441E+03  0.00000000000E+00 0. -1.
          2    1    1    2  501    0  0.45315315612E+02 -0.58647302409E+02  0.29099798484E+03  0.30028788036E+03  0.00000000000E+00 0. -1.
<scales pt_clust_3="14000.00000" pt_clust_4="53.07126" pt_clust_5="68.77954" pt_clust_6="103.86007"></scales>
<clustering>
<clus scale="   53.071">  2  4  1 -1</clus>
<clus scale="   68.780">  1  5  2 -1</clus>
<clus scale="  103.860">  1  6  2 -1</clus>
<clus scale="   53.071">  2  3  1 -1</clus>
</clustering>
</event>
<event>
 6    0  0.4340992E+002  0.2213729E+03  0.7546771E-02  0.1132864E+00
         21   -1    0    0  503  502  0.00000000000E+00  0.00000000000E+00  0.67172332577E+03  0.67172332577E+03  0.00000000000E+00 0. -1.
          1   -1    0    0  505    0 -0.00000000000E+00 -0.00000000000E+00 -0.13256456104E+04  0.13256456104E+04  0.00000000000E+00 0. -1.
         21    1    1    2  503  501  0.31778894557E+02  0.22523540663E+02  0.15811936492E+03  0.16284637418E+03  0.00000000000E+00 0. -1.
         21    1    1    2  504  502 -0.19004023613E+02 -0.13663589642E+03  0.45618386184E+03  0.47658602257E+03  0.00000000000E+00 0. -1.
         21    1    1    2  505  504  0.21193693963E+03  0.57346486605E+02 -0.36952654874E+03  0.42983224184E+03  0.00000000000E+00 0. -1.
          1    1    1    2  501    0 -0.22471181057E+03  0.56765869153E+02 -0.89869896269E+03  0.92810429762E+03  0.00000000000E+00 0. -1.
<scales pt_clust_3="38.95135" pt_clust_4="116.51730" pt_clust_5="14000.00000" pt_clust_6="221.37287"></scales>
<clustering>
<clus scale="   38.951">  1  3  2 -1</clus>
<clus scale="  116.517">  1  4  2 -1</clus>
<clus scale="  221.373">  2  6  1 -1</clus>
<clus scale="   38.951">  1  3  2 -1</clus>
</clustering>
</event>
<event>
 6    0  0.4340992E+002  0.1645773E+03  0.7546771E-02  0.1183624E+00
         21   -1    0    0  503  502  0.00000000000E+00  0.00000000000E+00  0.39162848650E+03  0.39162848650E+03  0.00000000000E+00 0. -1.
          2   -1    0    0  505    0 -0.00000000000E+00 -0.00000000000E+00 -0.64960124335E+03  0.64960124335E+03  0.00000000000E+00 0.  1.
         21    1    1    2  503  504 -0.16284967522E+03  0.13855949182E+02  0.30035354434E+03  0.34194188928E+03  0.00000000000E+00 0. -1.
         21    1    1    2  504  501 -0.24582431496E+02 -0.28512422673E+02 -0.18293241564E+03  0.18676595749E+03  0.00000000000E+00 0. -1.
         21    1    1    2  505  502  0.17796831809E+03  0.94806386175E+02 -0.99099348426E+02  0.22468122744E+03  0.00000000000E+00 0. -1.
          2    1    1    2  501    0  0.94637886220E+01 -0.80149912684E+02 -0.27629453713E+03  0.28784065565E+03  0.00000000000E+00 0.  1.
<scales pt_clust_3="14000.00000" pt_clust_4="32.93888" pt_clust_5="164.57729" pt_clust_6="119.84174"></scales>
<clustering>
<clus scale="   32.939">  4  6 -1 -1</clus>
<clus scale="  119.842">  2  4  1 -1</clus>
<clus scale="  164.577">  2  5  1 -1</clus>
<clus scale="  164.577">  1  3  2 -1</clus>
</clustering>
</event>
<event>
 6    0  0.4340992E+002  0.1155984E+03  0.7546771E-02  0.1250540E+00
         21   -1    0    0  504  502  0.00000000000E+00  0.00000000000E+00  0.93463386334E+02  0.93463386334E+02  0.00000000000E+00 0.  1.
          2   -1    0    0  505    0 -0.00000000000E+00 -0.00000000000E+00 -0.99127729265E+03  0.99127729265E+03  0.00000000000E+00 0.  1.
         21    1    1    2  503  502  0.19780375441E+02  0.31312655340E+02 -0.12937912931E+03  0.13457601844E+03  0.00000000000E+00 0.  1.
         21    1    1    2  504  501 -0.96725560389E+02  0.65214405935E+02  0.44328054373E+02  0.12479474820E+03  0.00000000000E+00 0.  1.
         21    1    1    2  505  503  0.46712322012E+01 -0.31661604745E+02 -0.79438248684E+02  0.85642938876E+02  0.00000000000E+00 0.  1.
          2    1    1    2  501    0  0.72273952747E+02 -0.64865456530E+02 -0.73332458269E+03  0.73972697347E+03  0.00000000000E+00 0.  1.
<scales pt_clust_3="33.64848" pt_clust_4="14000.00000" pt_clust_5="32.00434" pt_clust_6="115.59841"></scales>
<clustering>
<clus scale="   32.004">  2  5  1 -1</clus>
<clus scale="   33.648">  2  3  1 -1</clus>
<clus scale="  115.598">  2  6  1 -1</clus>
<clus scale="  115.598">  1  3  2 -1</clus>
</clustering>
</event>
<event>
 6    0  0.4340992E+002  0.9453759E+02  0.7546771E-02  0.1292221E+00
          2   -1    0    0  503    0 -0.00000000000E+00  0.00000000000E+00  0.18909698179E+03  0.18909698179E+03  0.00000000000E+00 0. -1.
         21   -1    0    0  505  502  0.00000000000E+00 -0.00000000000E+00 -0.17489178625E+03  0.17489178625E+03  0.00000000000E+00 0. -1.
         21    1    1    2  503  502  0.14788795022E+02 -0.31202919401E+02  0.20370587374E+02  0.40091039738E+02  0.00000000000E+00 0. -1.
         21    1    1    2  504  501  0.70519924871E+02  0.52622036135E+02 -0.86864200711E+02  0.12364274284E+03  0.00000000000E+00 0. -1.
         21    1    1    2  505  504  0.24618555534E+02 -0.35620290769E+02 -0.22511286630E+02  0.48802012425E+02  0.00000000000E+00 0. -1.
          2    1    1    2  501    0 -0.10992727543E+03  0.14201174034E+02  0.10321009551E+03  0.15145297304E+03  0.00000000000E+00 0. -1.
<scales pt_clust_3="34.53014" pt_clust_4="94.53759" pt_clust_5="46.12188" pt_clust_6="14000.00000"></scales>
<clustering>
<clus scale="   34.530">  1  3  2 -1</clus>
<clus scale="   46.122">  2  5  1 -1</clus>
<clus scale="   94.538">  2  4  1 -1</clus>
<clus scale="   46.122">  2  3  1 -1</clus>
</clustering>
</event>
<event>
 6    0  0.4340992E+002  0.1457895E+03  0.7546771E-02  0.1205744E+00
          2   -1    0    0  504    0 -0.00000000000E+00  0.00000000000E+00  0.12395993457E+04  0.12395993457E+04  0.00000000000E+00 0. -1.
         21   -1    0    0  501  502  0.00000000000E+00 -0.00000000000E+00 -0.13003317493E+03  0.13003317493E+03  0.00000000000E+00 0. -1.
         21    1    1    2  503  502 -0.11498608973E+03  0.92801626439E+02 -0.71410922490E+02  0.16411417536E+03  0.00000000000E+00 0. -1.
         21    1    1    2  504  505  0.19528091833E+01  0.32639478715E+02  0.34873128674E+03  0.35026084478E+03  0.00000000000E+00 0.  1.
         21    1    1    2  505  503  0.41017554315E+02 -0.33133856717E+02  0.93939296049E+02  0.10772596514E+03  0.00000000000E+00 0. -1.
          2    1    1    2  501    0  0.72015726236E+02 -0.92307248436E+02  0.73830651049E+03  0.74753153537E+03  0.00000000000E+00 0. -1.
<scales pt_clust_3="14000.00000" pt_clust_4="32.69784" pt_clust_5="50.66693" pt_clust_6="145.78951"></scales>
<clustering>
<clus scale="   32.698">  1  4  2 -1</clus>
<clus scale="   50.667">  1  5  2 -1</clus>
<clus scale="  145.790">  1  6  2 -1</clus>
<clus scale="  145.790">  2  3  1 -1</clus>
</clustering>
</event>
<event>
 6    0  0.4340992E+002  0.1550253E+03  0.7546771E-02  0.1194430E+00
         21   -1    0    0  503  502  0.00000000000E+00  0.00000000000E+00  0.52031817028E+03  0.52031817028E+03  0.00000000000E+00 0. -1.
          2   -1    0    0  504    0 -0.00000000000E+00 -0.00000000000E+00 -0.16966363161E+03  0.16966363161E+03  0.00000000000E+00 0. -1.
         21    1    1    2  503  501 -0.38763972051E+02  0.49914125332E+02 -0.42047555007E+02  0.75908249347E+02  0.00000000000E+00 0. -1.
         21    1    1    2  504  505  0.89043917275E+02 -0.13356606901E+03  0.86291487521E+02  0.18224964970E+03  0.00000000000E+00 0. -1.
         21    1    1    2  505  502  0.27335065580E+02  0.41203953185E+02  0.33517349650E+03  0.33880118702E+03  0.00000000000E+00 0. -1.
          2    1    1    2  501    0 -0.77615010805E+02  0.42447990497E+02 -0.28762890343E+02  0.93022715830E+02  0.00000000000E+00 0. -1.
<scales pt_clust_3="32.17086" pt_clust_4="150.28019" pt_clust_5="49.44665" pt_clust_6="32.17086"></scales>
<clustering>
<clus scale="   32.171">  3  6 -1 -1</clus>
<clus scale="   49.447">  1  5  2 -1</clus>
<clus scale="  150.280">  1  4  2 -1</clus>
<clus scale="   49.447">  1  3  2 -1</clus>
</clustering>
</event>
<event>
 6    0  0.4340992E+002  0.1077309E+03  0.7546771E-02  0.1264831E+00
         21   -1    0    0  503  502  0.00000000000E+00  0.00000000000E+00  0.11084471734E+04  0.11084471734E+04  0.00000000000E+00 0. -1.
         -1   -1    0    0    0  501 -0.00000000000E+00 -0.00000000000E+00 -0.13631410362E+03  0.13631410362E+03  0.00000000000E+00 0.  1.
         21    1    1    2  503  504  0.78049566235E+02 -0.10261449248E+03  0.88584802323E+03  0.89518053437E+03  0.00000000000E+00 0. -1.
         21    1    1    2  504  505 -0.77784774673E+02  0.23138004474E+02  0.18621060865E+03  0.20312614109E+03  0.00000000000E+00 0. -1.
         21    1    1    2  505  501 -0.30535550189E+02  0.12196983685E+02 -0.25020577899E+02  0.41318465058E+02  0.00000000000E+00 0.  1.
         -1    1    1    2    0  502  0.30270758627E+02  0.67279504323E+02 -0.74904984224E+02  0.10513613647E+03  0.00000000000E+00 0.  1.
<scales pt_clust_3="107.73090" pt_clust_4="14000.00000" pt_clust_5="32.88140" pt_clust_6="78.00862"></scales>
<clustering>
<clus scale="   32.881">  2  5  1 -1</clus>
<clus scale="   78.009">  2  6  1 -1</clus>
<clus scale="  107.731">  1  3  2 -1</clus>
<clus scale="  107.731">  1  3  2 -1</clus>
</clustering>
</event>
<event>
 6    0  0.4340992E+002  0.2019642E+03  0.7546771E-02  0.1148092E+00
         21   -1    0    0  503  502  0.00000000000E+00  0.00000000000E+00  0.10702975960E+03  0.10702975960E+03  0.00000000000E+00 0.  1.
          1   -1    0    0  505    0 -0.00000000000E+00 -0.00000000000E+00 -0.14632952240E+04  0.14632952240E+04  0.00000000000E+00 0.  1.
         21    1    1    2  503  504 -0.33279672583E+02  0.25199085362E+02  0.73555013855E+02  0.84574644980E+02  0.00000000000E+00 0.  1.
         21    1    1    2  504  501  0.14394377626E+02 -0.56788083112E+02 -0.18921816561E+03  0.19807977859E+03  0.00000000000E+00 0.  1.
         21    1    1    2  505  502 -0.98257855160E+02  0.12636434458E+03 -0.35606390130E+03  0.39038962011E+03  0.00000000000E+00 0. -1.
          1    1    1    2  501    0  0.11714315012E+03 -0.94775346827E+02 -0.88453841140E+03  0.89728093996E+03  0.00000000000E+00 0.  1.
<scales pt_clust_3="41.74363" pt_clust_4="50.00330" pt_clust_5="184.93570" pt_clust_6="50.00330"></scales>
<clustering>
<clus scale="   41.744">  1  3  2 -1</clus>
<clus scale="   50.003">  4  6 -1 -1</clus>
<clus scale="  184.936">  1  5  2 -1</clus>
<clus scale="   41.744">  1  3  2 -1</clus>
</clustering>
</event>
<event>
 6    0  0.4340992E+002  0.1303535E+03  0.7546771E-02  0.1226932E+00
         -4   -1    0    0    0  501 -0.00000000000E+00  0.00000000000E+00  0.47612917789E+03  0.47612917789E+03  0.00000000000E+00 0.  1.
         21   -1    0    0  503  502  0.00000000000E+00 -0.00000000000E+00 -0.29577098715E+03  0.29577098715E+03  0.00000000000E+00 0.  1.
         21    1    1    2  503  501  0.12039462114E+02 -0.29174763825E+02  0.11626343609E+02  0.33634615472E+02  0.00000000000E+00 0.  1.
         21    1    1    2  504  502  0.42502949134E+01  0.32253376694E+02 -0.10805012542E+03  0.11284137060E+03  0.00000000000E+00 0.  1.
         21    1    1    2  505  504 -0.11294207821E+03  0.45139401247E+02 -0.14544595616E+03  0.18959959055E+03  0.00000000000E+00 0.  1.
         -4    1    1    2    0  505  0.96652321182E+02 -0.48218014116E+02  0.42222792872E+03  0.43582458841E+03  0.00000000000E+00 0.  1.
<scales pt_clust_3="31.56130" pt_clust_4="32.38784" pt_clust_5="130.35347" pt_clust_6="14000.00000"></scales>
<clustering>
<clus scale="   31.561">  1  3  2 -1</clus>
<clus scale="   32.388">  2  4  1 -1</clus>
<clus scale="  130.353">  2  5  1 -1</clus>
<clus scale="   32.388">  2  3  1 -1</clus>
</clustering>
</event>
<event>
 6    0  0.4340992E+002  0.1341291E+03  0.7546771E-02  0.1221454E+00
          2   -1    0    0  502    0 -0.00000000000E+00  0.00000000000E+00  0.78810330173E+03  0.78810330173E+03  0.00000000000E+00 0.  1.
         21   -1    0    0  504  502  0.00000000000E+00 -0.00000000000E+00 -0.12931094100E+04  0.12931094100E+04  0.00000000000E+00 0.  1.
         21    1    1    2  503  501 -0.32922914441E+02  0.88404201866E+01 -0.10409407386E+02  0.35643051027E+02  0.00000000000E+00 0.  1.
         21    1    1    2  504  505  0.87554202967E+02 -0.12145057426E+03 -0.79495410503E+03  0.80893016358E+03  0.00000000000E+00 0.  1.
         21    1    1    2  505  503 -0.21919961444E+02  0.12120000410E+03 -0.45965732028E+03  0.47587264871E+03  0.00000000000E+00 0.  1.
          2    1    1    2  501    0 -0.32711327083E+02 -0.85898500213E+01  0.76001472438E+03  0.76076684846E+03  0.00000000000E+00 0.  1.
<scales pt_clust_3="48.06902" pt_clust_4="134.12910" pt_clust_5="14000.00000" pt_clust_6="33.82036"></scales>
<clustering>
<clus scale="   33.820">  1  6  2 -1</clus>
<clus scale="   48.069">  1  3  2 -1</clus>
<clus scale="  134.129">  2  4  1 -1</clus>
<clus scale="  134.129">  2  3  1 -1</clus>
</clustering>
</event>
<event>
 6    0  0.4340992E+002  0.1045683E+03  0.7546771E-02  0.1270972E+00
          1   -1    0    0  504    0 -0.00000000000E+00  0.00000000000E+00  0.45197987412E+03  0.45197987412E+03  0.00000000000E+00 0. -1.
         21   -1    0    0  505  502  0.00000000000E+00 -0.00000000000E+00 -0.76095457937E+02  0.76095457937E+02  0.00000000000E+00 0.  1.
         21    1    1    2  503  502 -0.10398685502E+03  0.59367370099E+02  0.46397355476E+02  0.12841520644E+03  0.00000000000E+00 0.  1.
         21    1    1    2  504  503  0.74095139208E+02 -0.46675576529E+01  0.80110486892E+02  0.10922255197E+03  0.00000000000E+00 0.  1.
         21    1    1    2  505  501  0.23322786676E+02  0.39839383858E+02  0.41904901971E+02  0.62347010303E+02  0.00000000000E+00 0.  1.
          1    1    1    2  501    0  0.65689291410E+01 -0.94539196305E+02  0.20747167184E+03  0.22809056334E+03  0.00000000000E+00 0. -1.
<scales pt_clust_3="104.56834" pt_clust_4="79.35653" pt_clust_5="46.16415" pt_clust_6="14000.00000"></scales>
<clustering>
<clus scale="   46.164">  2  5  1 -1</clus>
<clus scale="   79.357">  1  4  2 -1</clus>
<clus scale="  104.568">  2  3  1 -1</clus>
<clus scale="   46.164">  2  3  1 -1</clus>
</clustering>
</event>
<event>
 6    0  0.4340992E+002  0.1194294E+03  0.7546771E-02  0.1244041E+00
          1   -1    0    0  504    0 -0.00000000000E+00  0.00000000000E+00  0.90794673416E+03  0.90794673416E+03  0.00000000000E+00 0.  1.
         21   -1    0    0  505  502  0.00000000000E+00 -0.00000000000E+00 -0.66881865908E+03  0.66881865908E+03  0.00000000000E+00 0.  1.
         21    1    1    2  503  501  0.52876281758E+02  0.18699999305E+02  0.52325777150E+02  0.76704485533E+02  0.00000000000E+00 0. -1.
         21    1    1    2  504  502 -0.17906811197E+03  0.25805078998E+02  0.36161193541E+03  0.40434450987E+03  0.00000000000E+00 0.  1.
         21    1    1    2  505  503  0.25321973694E+02 -0.24087569657E+02 -0.62902124738E+03  0.62999138329E+03  0.00000000000E+00 0.  1.
          1    1    1    2  501    0  0.10086985652E+03 -0.20417508646E+02  0.45421160990E+03  0.46572501455E+03  0.00000000000E+00 0.  1.
<scales pt_clust_3="61.75758" pt_clust_4="119.42936" pt_clust_5="34.94872" pt_clust_6="14000.00000"></scales>
<clustering>
<clus scale="   34.949">  2  5  1 -1</clus>
<clus scale="   61.758">  2  3  1 -1</clus>
<clus scale="  119.429">  2  4  1 -1</clus>
<clus scale="   34.949">  2  3  1 -1</clus>
</clustering>
</event>
<event>
 6    0  0.4340992E+002  0.7387950E+02  0.7546771E-02  0.1347376E+00
         21   -1    0    0  504  502  0.00000000000E+00  0.00000000000E+00  0.46449707254E+02  0.46449707254E+02  0.00000000000E+00 0.  1.
         -2   -1    0    0    0  501 -0.00000000000E+00 -0.00000000000E+00 -0.13288830583E+04  0.13288830583E+04  0.00000000000E+00 0.  1.
         21    1    1    2  503  505  0.60630962128E+02  0.14149945610E+01 -0.51641912323E+03  0.51996810154E+03  0.00000000000E+00 0.  1.
         21    1    1    2  504  501 -0.10340794976E+03 -0.36433896720E+02 -0.62841629915E+02  0.12637129166E+03  0.00000000000E+00 0.  1.
         21    1    1    2  505  502  0.30788398263E+02  0.66547946755E+02 -0.95584730390E+02  0.12046989403E+03  0.00000000000E+00 0. -1.
         -2    1    1    2    0  503  0.11988589372E+02 -0.31529044596E+02 -0.60758786750E+03  0.60852347831E+03  0.00000000000E+00 0.  1.
<scales pt_clust_3="14000.00000" pt_clust_4="73.87950" pt_clust_5="69.88454" pt_clust_6="33.73139"></scales>
<clustering>
<clus scale="   33.731">  2  6  1 -1</clus>
<clus scale="   69.885">  1  5  2 -1</clus>
<clus scale="   73.880">  1  4  2 -1</clus>
<clus scale="   69.885">  1  3  2 -1</clus>
</clustering>
</event>
<event>
 6    0  0.4340992E+002  0.9077421E+02  0.7546771E-02  0.1300988E+00
          2   -1    0    0  505    0 -0.00000000000E+00  0.00000000000E+00  0.96893106515E+03  0.96893106515E+03  0.00000000000E+00 0.  1.
         21   -1    0    0  503  502  0.00000000000E+00 -0.00000000000E+00 -0.35510444031E+03  0.35510444031E+03  0.00000000000E+00 0.  1.
         21    1    1    2  503  501 -0.10571547164E+03 -0.75624554253E+02 -0.28970901110E+03  0.31753132958E+03  0.00000000000E+00 0.  1.
         21    1    1    2  504  502 -0.35406943520E+02 -0.24575251866E+02  0.21850709832E+02  0.48322336180E+02  0.00000000000E+00 0.  1.
         21    1    1    2  505  504  0.60380202240E+02  0.59362448917E+02  0.14037930359E+02  0.85829672333E+02  0.00000000000E+00 0. -1.
          2    1    1    2  501    0  0.80742212921E+02  0.40837357202E+02  0.86764699575E+03  0.87235216738E+03  0.00000000000E+00 0.  1.
<scales pt_clust_3="90.77421" pt_clust_4="43.09982" pt_clust_5="80.21748" pt_clust_6="14000.00000"></scales>
<clustering>
<clus scale="   43.100">  2  4  1 -1</clus>
<clus scale="   80.217">  2  5  1 -1</clus>
<clus scale="   90.774">  2  3  1 -1</clus>
<clus scale="   43.100">  2  3  1 -1</clus>
</clustering>
</event>
<event>
 6    0  0.4340992E+002  0.1372719E+03  0.7546771E-02  0.1217048E+00
         21   -1    0    0  503  502  0.00000000000E+00  0.00000000000E+00  0.48021216584E+02  0.48021216584E+02  0.00000000000E+00 0.  1.
          1   -1    0    0  504    0 -0.00000000000E+00 -0.00000000000E+00 -0.52613143238E+03  0.52613143238E+03  0.00000000000E+00 0.  1.
         21    1    1    2  503  505 -0.17717272880E+01  0.38950251989E+02 -0.41265192312E+02  0.56772152013E+02  0.00000000000E+00 0.  1.
         21    1    1    2  504  502 -0.12623064854E+03  0.11656550016E+02 -0.14593673907E+03  0.19330696728E+03  0.00000000000E+00 0.  1.
         21    1    1    2  505  501  0.73190386410E+02 -0.23908710647E+02 -0.11962040254E+03  0.14225856674E+03  0.00000000000E+00 0.  1.
          1    1    1    2  501    0  0.54811989422E+02 -0.26698091358E+02 -0.17128788187E+03  0.18181496293E+03  0.00000000000E+00 0.  1.
<scales pt_clust_3="38.99053" pt_clust_4="131.88334" pt_clust_5="33.88876" pt_clust_6="33.88876"></scales>
<clustering>
<clus scale="   33.889">  5  6 -1 -1</clus>
<clus scale="   38.991">  1  3  2 -1</clus>
<clus scale="  131.883">  1  4  2 -1</clus>
<clus scale="   38.991">  1  3  2 -1</clus>
</clustering>
</event>
<event>
 6    0  0.4340992E+002  0.2135955E+03  0.7546771E-02  0.1138750E+00
          1   -1    0    0  503    0 -0.00000000000E+00  0.00000000000E+00  0.26166756152E+04  0.26166756152E+04  0.00000000000E+00 0. -1.
         21   -1    0    0  505  502  0.00000000000E+00 -0.00000000000E+00 -0.47149590214E+03  0.47149590214E+03  0.00000000000E+00 0. -1.
         21    1    1    2  503  502  0.95241171410E+00 -0.37227357511E+02  0.12249259729E+02  0.39202392775E+02  0.00000000000E+00 0. -1.
         21    1    1    2  504  501 -0.10590752327E+03 -0.54760662138E+02  0.11366594811E+04  0.11428954062E+04  0.00000000000E+00 0. -1.
         21    1    1    2  505  504  0.15468081067E+03  0.16313591267E+03 -0.42572193175E+03  0.48143394393E+03  0.00000000000E+00 0. -1.
          1    1    1    2  501    0 -0.49725699116E+02 -0.71147893023E+02  0.14219929040E+04  0.14246397744E+04  0.00000000000E+00 0. -1.
<scales pt_clust_3="37.23954" pt_clust_4="63.05185" pt_clust_5="200.40665" pt_clust_6="63.05185"></scales>
<clustering>
<clus scale="   37.240">  2  3  1 -1</clus>
<clus scale="   63.052">  4  6 -1 -1</clus>
<clus scale="  200.407">  2  5  1 -1</clus>
<clus scale="   37.240">  2  3  1 -1</clus>
</clustering>
</event>
<event>
 6    0  0.4340992E+002  0.1304073E+03  0.7546771E-02  0.1226853E+00
          2   -1    0    0  505    0 -0.00000000000E+00  0.00000000000E+00  0.11539112281E+04  0.11539112281E+04  0.00000000000E+00 0.  1.
         21   -1    0    0  503  502  0.00000000000E+00 -0.00000000000E+00 -0.25072931715E+03  0.25072931715E+03  0.00000000000E+00 0.  1.
         21    1    1    2  503  504 -0.15038827746E+02 -0.65782853421E+02 -0.15662515796E+03  0.17054322106E+03  0.00000000000E+00 0.  1.
         21    1    1    2  504  501 -0.81571955431E+02 -0.31776629321E+02 -0.56665086623E+02  0.10428168644E+03  0.00000000000E+00 0. -1.
         21    1    1    2  505  502  0.51178560360E+01  0.49347078183E+02  0.15378518342E+03  0.16158963214E+03  0.00000000000E+00 0.  1.
          2    1    1    2  501    0  0.91492927142E+02  0.48212404559E+02  0.96268697215E+03  0.96822600565E+03  0.00000000000E+00 0.  1.
<scales pt_clust_3="67.13600" pt_clust_4="14000.00000" pt_clust_5="49.61176" pt_clust_6="130.40729"></scales>
<clustering>
<clus scale="   49.612">  1  5  2 -1</clus>
<clus scale="   67.136">  2  3  1 -1</clus>
<clus scale="  130.407">  1  6  2 -1</clus>
<clus scale="   67.136">  2  3  1 -1</clus>
</clustering>
</event>
<event>
 6    0  0.4340992E+002  0.3123211E+03  0.7546771E-02  0.1079239E+00
          2   -1    0    0  505    0 -0.00000000000E+00  0.00000000000E+00  0.25735679717E+04  0.25735679717E+04  0.00000000000E+00 0. -1.
         21   -1    0    0  504  502  0.00000000000E+00 -0.00000000000E+00 -0.24123980868E+03  0.24123980868E+03  0.00000000000E+00 0. -1.
         21    1    1    2  503  502  0.63420590335E+02 -0.34010653626E+03  0.10143434310E+02  0.34611777843E+03  0.00000000000E+00 0. -1.
         21    1    1    2  504  501 -0.48615913280E+02  0.25927668531E+03  0.18917349454E+03  0.32461441374E+03  0.00000000000E+00 0. -1.
         21    1    1    2  505  503  0.54518809543E+02  0.17443408916E+02  0.17013234057E+04  0.17022860817E+04  0.00000000000E+00 0. -1.
          2    1    1    2  501    0 -0.69323486597E+02  0.63386442038E+02  0.43168782847E+03  0.44178950653E+03  0.00000000000E+00 0. -1.
<scales pt_clust_3="312.32112" pt_clust_4="14000.00000" pt_clust_5="57.24136" pt_clust_6="83.46819"></scales>
<clustering>
<clus scale="   57.241">  1  5  2 -1</clus>
<clus scale="   83.468">  1  6  2 -1</clus>
<clus scale="  312.321">  2  3  1 -1</clus>
<clus scale="  312.321">  2  3  1 -1</clus>
</clustering>
</event>
<event>
 6    0  0.4340992E+002  0.1815079E+03  0.7546771E-02  0.1166352E+00
         21   -1    0    0  505  502  0.00000000000E+00  0.00000000000E+00  0.97258308595E+03  0.97258308595E+03  0.00000000000E+00 0.  1.
          2   -1    0    0  504    0 -0.00000000000E+00 -0.00000000000E+00 -0.37323107216E+03  0.37323107216E+03  0.00000000000E+00 0.  1.
         21    1    1    2  503  501  0.12612428996E+02 -0.39350932757E+02 -0.44839622848E+02  0.60976725488E+02  0.00000000000E+00 0.  1.
         21    1    1    2  504  502  0.22855436503E+02  0.62325699961E+02  0.10235861556E+03  0.12200061489E+03  0.00000000000E+00 0.  1.
         21    1    1    2  505  503  0.25046543128E+02  0.99659634789E+02  0.83396973147E+03  0.84027667178E+03  0.00000000000E+00 0.  1.
          2    1    1    2  501    0 -0.60514408628E+02 -0.12263440199E+03 -0.29213671039E+03  0.32256014596E+03  0.00000000000E+00 0.  1.
<scales pt_clust_3="38.92276" pt_clust_4="66.38421" pt_clust_5="167.12718" pt_clust_6="38.92276"></scales>
<clustering>
<clus scale="   38.923">  3  6 -1 -1</clus>
<clus scale="   66.384">  1  4  2 -1</clus>
<clus scale="  167.127">  1  5  2 -1</clus>
<clus scale="   66.384">  1  3  2 -1</clus>
</clustering>
</event>
<event>
 6    0  0.4340992E+002  0.9058516E+02  0.7546771E-02  0.1301441E+00
          2   -1    0    0  504    0 -0.00000000000E+00  0.00000000000E+00  0.12943398987E+04  0.12943398987E+04  0.00000000000E+00 0. -1.
         21   -1    0    0  503  502  0.00000000000E+00 -0.00000000000E+00 -0.85802023209E+02  0.85802023209E+02  0.00000000000E+00 0. -1.
         21    1    1    2  503  501 -0.94897525075E+01 -0.65392060380E+02 -0.15301184566E+02  0.67825535107E+02  0.00000000000E+00 0. -1.
         21    1    1    2  504  505  0.63533068288E+02 -0.66890141202E+02  0.32402982616E+03  0.33690661911E+03  0.00000000000E+00 0. -1.
         21    1    1    2  505  502 -0.21153420667E+02  0.46517810155E+02 -0.17118527654E+02  0.53892651230E+02  0.00000000000E+00 0. -1.
          2    1    1    2  501    0 -0.32889895113E+02  0.85764391427E+02  0.91692776152E+03  0.92151711643E+03  0.00000000000E+00 0. -1.
<scales pt_clust_3="38.12826" pt_clust_4="90.58516" pt_clust_5="51.10160" pt_clust_6="14000.00000"></scales>
<clustering>
<clus scale="   51.102">  2  5  1 -1</clus>
<clus scale="   38.128">  2  3  1 -1</clus>
<clus scale="   90.585">  2  4  1 -1</clus>
<clus scale="   51.102">  2  3  1 -1</clus>
</clustering>
</event>
<event>
 6    0  0.4340992E+002  0.2431148E+03  0.7546771E-02  0.1117735E+00
          2   -1    0    0  503    0 -0.00000000000E+00  0.00000000000E+00  0.17550575581E+04  0.17550575581E+04  0.00000000000E+00 0. -1.
         21   -1    0    0  505  502  0.00000000000E+00 -0.00000000000E+00 -0.16674143363E+03  0.16674143363E+03  0.00000000000E+00 0.  1.
         21    1    1    2  503  502 -0.14064882722E+03 -0.18931985609E+03 -0.46450921775E+02  0.24037842799E+03  0.00000000000E+00 0.  1.
         21    1    1    2  504  501  0.72635508507E+02  0.81431613064E+02  0.50851155481E+03  0.52008751771E+03  0.00000000000E+00 0. -1.
         21    1    1    2  505  504  0.31612177694E+02 -0.61191156064E+01  0.36940796986E+01  0.32410177092E+02  0.00000000000E+00 0. -1.
          2    1    1    2  501    0  0.36401141019E+02  0.11400735864E+03  0.11225614117E+04  0.11289228689E+04  0.00000000000E+00 0. -1.
<scales pt_clust_3="224.39684" pt_clust_4="89.55186" pt_clust_5="32.19897" pt_clust_6="89.55186"></scales>
<clustering>
<clus scale="   32.199">  2  5  1 -1</clus>
<clus scale="   89.552">  4  6 -1 -1</clus>
<clus scale="  224.397">  2  3  1 -1</clus>
<clus scale="   32.199">  2  3  1 -1</clus>
</clustering>
</event>
<event>
 6    0  0.4340992E+002  0.1393216E+03  0.7546771E-02  0.1214245E+00
          2   -1    0    0  505    0 -0.00000000000E+00  0.00000000000E+00  0.85144085152E+03  0.85144085152E+03  0.00000000000E+00 0. -1.
         21   -1    0    0  503  502  0.00000000000E+00 -0.00000000000E+00 -0.92157059592E+02  0.92157059592E+02  0.00000000000E+00 0.  1.
         21    1    1    2  503  501  0.62108868544E+01  0.36095530089E+02  0.36333729229E+02  0.51590719007E+02  0.00000000000E+00 0. -1.
         21    1    1    2  504  502  0.30478307340E+02 -0.39287697632E+02 -0.23675429615E+02  0.55072464726E+02  0.00000000000E+00 0.  1.
         21    1    1    2  505  504  0.86929295490E+02 -0.23641638016E+02  0.11282320643E+02  0.90790529361E+02  0.00000000000E+00 0.  1.
          2    1    1    2  501    0 -0.12361848968E+03  0.26833805558E+02  0.73534317167E+03  0.74614419801E+03  0.00000000000E+00 0. -1.
<scales pt_clust_3="36.62598" pt_clust_4="38.83774" pt_clust_5="38.83774" pt_clust_6="126.62037"></scales>
<clustering>
<clus scale="   36.626">  2  3  1 -1</clus>
<clus scale="   38.838">  4  5 -1 -1</clus>
<clus scale="  126.620">  1  6  2 -1</clus>
<clus scale="   36.626">  2  3  1 -1</clus>
</clustering>
</event>
<event>
 6    0  0.4340992E+002  0.9963833E+02  0.7546771E-02  0.1281058E+00
         21   -1    0    0  505  502  0.00000000000E+00  0.00000000000E+00  0.80959415499E+02  0.80959415499E+02  0.00000000000E+00 0. -1.
          1   -1    0    0  503    0 -0.00000000000E+00 -0.00000000000E+00 -0.24720010565E+04  0.24720010565E+04  0.00000000000E+00 0.  1.
         21    1    1    2  503  504  0.40000154268E+02  0.86836733949E+02 -0.63506279124E+02  0.11477664480E+03  0.00000000000E+00 0. -1.
         21    1    1    2  504  502  0.29927315581E+02 -0.10367603881E+02 -0.30730727772E+02  0.44130590949E+02  0.00000000000E+00 0.  1.
         21    1    1    2  505  501 -0.68062267150E+02  0.23648422183E+02  0.20242765536E+02  0.74843100136E+02  0.00000000000E+00 0. -1.
          1    1    1    2  501    0 -0.18652026998E+01 -0.10011755225E+03 -0.23170473997E+04  0.23192101361E+04  0.00000000000E+00 0.  1.
<scales pt_clust_3="99.63833" pt_clust_4="31.67225" pt_clust_5="51.77617" pt_clust_6="14000.00000"></scales>
<clustering>
<clus scale="   31.672">  1  4  2 -1</clus>
<clus scale="   51.776">  1  5  2 -1</clus>
<clus scale="   99.638">  1  3  2 -1</clus>
<clus scale="   31.672">  1  3  2 -1</clus>
</clustering>
</event>
<event>
 6    0  0.4340992E+002  0.9644406E+02  0.7546771E-02  0.1287956E+00
         21   -1    0    0  503  502  0.00000000000E+00  0.00000000000E+00  0.34538547085E+02  0.34538547085E+02  0.00000000000E+00 0.  1.
          2   -1    0    0  505    0 -0.00000000000E+00 -0.00000000000E+00 -0.35728392768E+04  0.35728392768E+04  0.00000000000E+00 0.  1.
         21    1    1    2  503  501  0.41655495021E+02 -0.61836716344E+02 -0.97360898050E+02  0.12262994831E+03  0.00000000000E+00 0.  1.
         21    1    1    2  504  502 -0.74108398431E+02  0.13235121571E+03 -0.25539229840E+03  0.29704229514E+03  0.00000000000E+00 0.  1.
         21    1    1    2  505  504 -0.93609708705E+01 -0.59886169508E+02 -0.25373287405E+04  0.25380526233E+04  0.00000000000E+00 0.  1.
          2    1    1    2  501    0  0.41813874281E+02 -0.10628329856E+02 -0.64821879277E+03  0.64965295718E+03  0.00000000000E+00 0.  1.
<scales pt_clust_3="96.44406" pt_clust_4="14000.00000" pt_clust_5="74.17204" pt_clust_6="43.14350"></scales>
<clustering>
<clus scale="   43.143">  2  6  1 -1</clus>
<clus scale="   74.172">  2  5  1 -1</clus>
<clus scale="   96.444">  1  3  2 -1</clus>
<clus scale="   96.444">  1  3  2 -1</clus>
</clustering>
</event>
<event>
 6    0  0.4340992E+002  0.1439411E+03  0.7546771E-02  0.1208122E+00
         21   -1    0    0  503  502  0.00000000000E+00  0.00000000000E+00  0.45588550304E+02  0.45588550304E+02  0.00000000000E+00 0.  1.
          2   -1    0    0  505    0 -0.00000000000E+00 -0.00000000000E+00 -0.24424862417E+04  0.24424862417E+04  0.00000000000E+00 0. -1.
         21    1    1    2  503  501  0.36370636887E+02 -0.46013401636E+02 -0.66396241267E+03  0.66654792911E+03  0.00000000000E+00 0. -1.
         21    1    1    2  504  502 -0.13247790127E+03  0.50238727969E+01 -0.75415865283E+02  0.15252274047E+03  0.00000000000E+00 0.  1.
         21    1    1    2  505  504 -0.12140547919E+02  0.65411481941E+02 -0.31735711822E+03  0.32425544769E+03  0.00000000000E+00 0.  1.
          2    1    1    2  501    0  0.10824781231E+03 -0.24421953102E+02 -0.13401622952E+04  0.13447486747E+04  0.00000000000E+00 0. -1.
<scales pt_clust_3="39.30269" pt_clust_4="133.40352" pt_clust_5="66.52860" pt_clust_6="39.30269"></scales>
<clustering>
<clus scale="   39.303">  3  6 -1 -1</clus>
<clus scale="   66.529">  2  5  1 -1</clus>
<clus scale="  133.404">  1  4  2 -1</clus>
<clus scale="  133.404">  1  3  2 -1</clus>
</clustering>
</event>
<event>
 6    0  0.4340992E+002  0.9795520E+02  0.7546771E-02  0.1284656E+00
          2   -1    0    0  505    0 -0.00000000000E+00  0.00000000000E+00  0.29137893210E+04  0.29137893210E+04  0.00000000000E+00 0.  1.
         21   -1    0    0  504  502  0.00000000000E+00 -0.00000000000E+00 -0.45810440293E+02  0.45810440293E+02  0.00000000000E+00 0.  1.
         21    1    1    2  503  502  0.37200116124E+02 -0.16507271955E+02  0.56850286311E+02  0.69916333719E+02  0.00000000000E+00 0.  1.
         21    1    1    2  504  501 -0.13477378147E+03  0.33266007361E+02  0.88634861908E+02  0.16470196770E+03  0.00000000000E+00 0.  1.
         21    1    1    2  505  503  0.35852207530E+02 -0.21186342156E+02  0.53717859549E+03  0.53879039090E+03  0.00000000000E+00 0.  1.
          2    1    1    2  501    0  0.61721457819E+02  0.44276067501E+01  0.21853151370E+04  0.21861910690E+04  0.00000000000E+00 0.  1.
<scales pt_clust_3="40.69814" pt_clust_4="97.95520" pt_clust_5="42.47377" pt_clust_6="14000.00000"></scales>
<clustering>
<clus scale="   40.698">  2  3  1 -1</clus>
<clus scale="   42.474">  1  5  2 -1</clus>
<clus scale="   97.955">  2  4  1 -1</clus>
<clus scale="   40.698">  2  3  1 -1</clus>
</clustering>
</event>
<event>
 6    0  0.4340992E+002  0.1214128E+03  0.7546771E-02  0.1240784E+00
         21   -1    0    0  505  502  0.00000000000E+00  0.00000000000E+00  0.32437332204E+03  0.32437332204E+03  0.00000000000E+00 0. -1.
          2   -1    0    0  504    0 -0.00000000000E+00 -0.00000000000E+00 -0.95982592686E+03  0.95982592686E+03  0.00000000000E+00 0. -1.
         21    1    1    2  503  502  0.60508247969E+02 -0.31163970152E+02  0.83176924567E+02  0.10747484305E+03  0.00000000000E+00 0. -1.
         21    1    1    2  504  503 -0.56136628404E+01  0.48563021830E+02 -0.14517593661E+03  0.15318594215E+03  0.00000000000E+00 0.  1.
         21    1    1    2  505  501 -0.32333553164E+02 -0.90107528143E+02  0.21293922931E+03  0.23346935702E+03  0.00000000000E+00 0. -1.
          2    1    1    2  501    0 -0.22561031965E+02  0.72708476466E+02 -0.78639282209E+03  0.79006910669E+03  0.00000000000E+00 0. -1.
<scales pt_clust_3="67.65674" pt_clust_4="48.88640" pt_clust_5="121.41275" pt_clust_6="14000.00000"></scales>
<clustering>
<clus scale="   48.886">  2  4  1 -1</clus>
<clus scale="   67.657">  1  3  2 -1</clus>
<clus scale="  121.413">  1  5  2 -1</clus>
<clus scale="   67.657">  1  3  2 -1</clus>
</clustering>
</event>
<event>
 6    0  0.4340992E+002  0.7457856E+02  0.7546771E-02  0.1345181E+00
         21   -1    0    0  504  502  0.00000000000E+00  0.00000000000E+00  0.69404267535E+02  0.69404267535E+02  0.00000000000E+00 0. -1.
          2   -1    0    0  503    0 -0.00000000000E+00 -0.00000000000E+00 -0.19264854712E+04  0.19264854712E+04  0.00000000000E+00 0. -1.
         21    1    1    2  503  502 -0.68898158906E+02 -0.53127506674E+02  0.39549824021E+01  0.87092652686E+02  0.00000000000E+00 0. -1.
         21    1    1    2  504  505  0.30293898025E+02 -0.27444030981E+02 -0.56453854590E+01  0.41264578890E+02  0.00000000000E+00 0. -1.
         21    1    1    2  505  501 -0.29442569523E+02  0.50488018228E+02 -0.15720946227E+03  0.16772215093E+03  0.00000000000E+00 0. -1.
          2    1    1    2  501    0  0.68046830404E+02  0.30083519427E+02 -0.16981813383E+04  0.16998103562E+04  0.00000000000E+00 0. -1.
<scales pt_clust_3="74.57856" pt_clust_4="40.87658" pt_clust_5="54.49027" pt_clust_6="14000.00000"></scales>
<clustering>
<clus scale="   40.877">  1  4  2 -1</clus>
<clus scale="   54.490">  1  5  2 -1</clus>
<clus scale="   74.579">  1  3  2 -1</clus>
<clus scale="   40.877">  1  3  2 -1</clus>
</clustering>
</event>
<event>
 6    0  0.4340992E+002  0.1052286E+03  0.7546771E-02  0.1269670E+00
         21   -1    0    0  503  502  0.00000000000E+00  0.00000000000E+00  0.43145308232E+02  0.43145308232E+02  0.00000000000E+00 0.  1.
          2   -1    0    0  505    0 -0.00000000000E+00 -0.00000000000E+00 -0.25547827751E+04  0.25547827751E+04  0.00000000000E+00 0.  1.
         21    1    1    2  503  501  0.10031990333E+03 -0.50297876514E+02 -0.38242832677E+02  0.11856000016E+03  0.00000000000E+00 0.  1.
         21    1    1    2  504  502 -0.36546421428E+02  0.47279101726E+02 -0.56993988559E+03  0.57306406934E+03  0.00000000000E+00 0.  1.
         21    1    1    2  505  504 -0.18078159579E+02  0.30534486320E+02 -0.13034620069E+04  0.13039449291E+04  0.00000000000E+00 0.  1.
          2    1    1    2  501    0 -0.45695322326E+02 -0.27515711532E+02 -0.59999274174E+03  0.60235908477E+03  0.00000000000E+00 0.  1.
<scales pt_clust_3="105.22858" pt_clust_4="14000.00000" pt_clust_5="35.48485" pt_clust_6="55.87830"></scales>
<clustering>
<clus scale="   35.485">  2  5  1 -1</clus>
<clus scale="   55.878">  2  6  1 -1</clus>
<clus scale="  105.229">  1  3  2 -1</clus>
<clus scale="  105.229">  1  3  2 -1</clus>
</clustering>
</event>
<event>
 6    0  0.4340992E+002  0.1645701E+03  0.7546771E-02  0.1183632E+00
         21   -1    0    0  503  502  0.00000000000E+00  0.00000000000E+00  0.15210614285E+04  0.15210614285E+04  0.00000000000E+00 0.  1.
         -2   -1    0    0    0  501 -0.00000000000E+00 -0.00000000000E+00 -0.16564380197E+03  0.16564380197E+03  0.00000000000E+00 0.  1.
         21    1    1    2  503  504 -0.19482978716E+03  0.25541115911E+02  0.12375231281E+04  0.12530261318E+04  0.00000000000E+00 0.  1.
         21    1    1    2  504  501  0.37234405012E+02  0.86657185338E+01 -0.65557363129E+02  0.75889811271E+02  0.00000000000E+00 0.  1.
         21    1    1    2  505  502  0.31321938191E+02  0.20998610620E+01  0.21934936420E+03  0.22158433339E+03  0.00000000000E+00 0.  1.
         -2    1    1    2    0  505  0.12627344396E+03 -0.36306695507E+02 -0.35897502633E+02  0.13620495396E+03  0.00000000000E+00 0.  1.
<scales pt_clust_3="14000.00000" pt_clust_4="38.35259" pt_clust_5="31.39225" pt_clust_6="164.57007"></scales>
<clustering>
<clus scale="   31.392">  1  5  2 -1</clus>
<clus scale="   38.353">  2  4  1 -1</clus>
<clus scale="  164.570">  2  6  1 -1</clus>
<clus scale="   31.392">  1  3  2 -1</clus>
</clustering>
</event>
<event>
 6    0  0.4340992E+002  0.6576065E+02  0.7546771E-02  0.1375133E+00
         21   -1    0    0  503  502  0.00000000000E+00  0.00000000000E+00  0.12937923220E+04  0.12937923220E+04  0.00000000000E+00 0. -1.
         -3   -1    0    0    0  501 -0.00000000000E+00 -0.00000000000E+00 -0.13943353767E+03  0.13943353767E+03  0.00000000000E+00 0. -1.
         21    1    1    2  503  505  0.13605139944E+02 -0.55366597574E+02  0.10947079994E+04  0.10961916638E+04  0.00000000000E+00 0. -1.
         21    1    1    2  504  502 -0.70598146415E+02  0.29112955696E+02  0.12761661189E+03  0.14872007967E+03  0.00000000000E+00 0.  1.
         21    1    1    2  505  501 -0.48050563400E+02  0.67458387656E+01  0.17411914474E+02  0.51551311810E+02  0.00000000000E+00 0.  1.
         -3    1    1    2    0  504  0.10504356987E+03  0.19507803112E+02 -0.85377741355E+02  0.13676280442E+03  0.00000000000E+00 0. -1.
<scales pt_clust_3="56.90511" pt_clust_4="14000.00000" pt_clust_5="48.52178" pt_clust_6="65.76065"></scales>
<clustering>
<clus scale="   48.522">  2  5  1 -1</clus>
<clus scale="   56.905">  1  3  2 -1</clus>
<clus scale="   65.761">  2  6  1 -1</clus>
<clus scale="   56.905">  1  3  2 -1</clus>
</clustering>
</event>
<event>
 6    0  0.4340992E+002  0.1901689E+03  0.7546771E-02  0.1158309E+00
         21   -1    0    0  503  502  0.00000000000E+00  0.00000000000E+00  0.24038760280E+04  0.24038760280E+04  0.00000000000E+00 0. -1.
          2   -1    0    0  505    0 -0.00000000000E+00 -0.00000000000E+00 -0.86912092758E+03  0.86912092758E+03  0.00000000000E+00 0.  1.
         21    1    1    2  503  501 -0.20420330607E+03 -0.86434731069E+02 -0.37915941800E+03  0.43924004508E+03  0.00000000000E+00 0.  1.
         21    1    1    2  504  502  0.41099399553E+02 -0.44525172263E+02  0.23384844951E+04  0.23392694128E+04  0.00000000000E+00 0. -1.
         21    1    1    2  505  504  0.37001928200E+02  0.30107120361E+02 -0.88596450799E+01  0.48518807672E+02  0.00000000000E+00 0.  1.
          2    1    1    2  501    0  0.12610197832E+03  0.10085278297E+03 -0.41571033158E+03  0.44596869010E+03  0.00000000000E+00 0.  1.
<scales pt_clust_3="14000.00000" pt_clust_4="60.59555" pt_clust_5="47.70305" pt_clust_6="190.16888"></scales>
<clustering>
<clus scale="   47.703">  2  5  1 -1</clus>
<clus scale="   60.596">  1  4  2 -1</clus>
<clus scale="  190.169">  2  6  1 -1</clus>
<clus scale="   60.596">  1  3  2 -1</clus>
</clustering>
</event>
<event>
 6    0  0.4340992E+002  0.8197764E+02  0.7546771E-02  0.1323531E+00
         21   -1    0    0  503  502  0.00000000000E+00  0.00000000000E+00  0.19427480404E+03  0.19427480404E+03  0.00000000000E+00 0.  1.
          2   -1    0    0  505    0 -0.00000000000E+00 -0.00000000000E+00 -0.62645192667E+03  0.62645192667E+03  0.00000000000E+00 0.  1.
         21    1    1    2  503  501 -0.92040503693E+02  0.75601939419E+00 -0.25744979582E+02  0.95576303857E+02  0.00000000000E+00 0. -1.
         21    1    1    2  504  502  0.28023661282E+02  0.12976829189E+02  0.13916022883E+03  0.14254575748E+03  0.00000000000E+00 0.  1.
         21    1    1    2  505  504  0.10554901243E+03 -0.14287868403E+02 -0.14527172011E+03  0.18013497681E+03  0.00000000000E+00 0. -1.
          2    1    1    2  501    0 -0.41532170020E+02  0.55501981980E+00 -0.40032065177E+03  0.40246969255E+03  0.00000000000E+00 0.  1.
<scales pt_clust_3="81.97764" pt_clust_4="30.88242" pt_clust_5="14000.00000" pt_clust_6="40.97663"></scales>
<clustering>
<clus scale="   30.882">  1  4  2 -1</clus>
<clus scale="   40.977">  2  6  1 -1</clus>
<clus scale="   81.978">  1  3  2 -1</clus>
<clus scale="   30.882">  1  3  2 -1</clus>
</clustering>
</event>
<event>
 6    0  0.4340992E+002  0.8051536E+02  0.7546771E-02  0.1327595E+00
          1   -1    0    0  505    0 -0.00000000000E+00  0.00000000000E+00  0.11550529142E+04  0.11550529142E+04  0.00000000000E+00 0. -1.
         21   -1    0    0  503  502  0.00000000000E+00 -0.00000000000E+00 -0.93701549935E+03  0.93701549935E+03  0.00000000000E+00 0. -1.
         21    1    1    2  503  504  0.45794410374E+02 -0.42186358715E+02 -0.64104107572E+03  0.64405782166E+03  0.00000000000E+00 0. -1.
         21    1    1    2  504  501 -0.55026520705E+02 -0.39990325682E+02 -0.26838725392E+03  0.27687336852E+03  0.00000000000E+00 0. -1.
         21    1    1    2  505  502  0.13777161721E+02 -0.50579625280E+02  0.20592596537E+02  0.56321964727E+02  0.00000000000E+00 0. -1.
          1    1    1    2  501    0 -0.45450513905E+01  0.13275630968E+03  0.11068731479E+04  0.11148152586E+04  0.00000000000E+00 0. -1.
<scales pt_clust_3="62.32408" pt_clust_4="14000.00000" pt_clust_5="52.42241" pt_clust_6="80.51536"></scales>
<clustering>
<clus scale="   52.422">  1  5  2 -1</clus>
<clus scale="   62.324">  2  3  1 -1</clus>
<clus scale="   80.515">  1  6  2 -1</clus>
<clus scale="   62.324">  2  3  1 -1</clus>
</clustering>
</event>
<event>
 6    0  0.4340992E+002  0.2355885E+03  0.7546771E-02  0.1122767E+00
         21   -1    0    0  505  502  0.00000000000E+00  0.00000000000E+00  0.48048887542E+03  0.48048887542E+03  0.00000000000E+00 0. -1.
         -2   -1    0    0    0  501 -0.00000000000E+00 -0.00000000000E+00 -0.18944271931E+03  0.18944271931E+03  0.00000000000E+00 0.  1.
         21    1    1    2  503  502 -0.33893762851E+02  0.14269855942E+02  0.17460934707E+03  0.17844001803E+03  0.00000000000E+00 0. -1.
         21    1    1    2  504  503  0.14753857078E+02  0.84538389795E+02 -0.19582020019E+02  0.88021992455E+02  0.00000000000E+00 0.  1.
         21    1    1    2  505  501 -0.26625394112E+02 -0.23363303817E+03  0.10612803856E+03  0.25798540405E+03  0.00000000000E+00 0. -1.
         -2    1    1    2    0  504  0.45765299885E+02  0.13482479243E+03  0.29890790502E+02  0.14548418019E+03  0.00000000000E+00 0.  1.
<scales pt_clust_3="36.77521" pt_clust_4="39.93607" pt_clust_5="229.92573" pt_clust_6="39.93607"></scales>
<clustering>
<clus scale="   36.775">  1  3  2 -1</clus>
<clus scale="   39.936">  4  6 -1 -1</clus>
<clus scale="  229.926">  1  5  2 -1</clus>
<clus scale="   36.775">  1  3  2 -1</clus>
</clustering>
</event>
<event>
 6    0  0.4340992E+002  0.1219036E+03  0.7546771E-02  0.1239989E+00
         21   -1    0    0  504  502  0.00000000000E+00  0.00000000000E+00  0.50181979535E+03  0.50181979535E+03  0.00000000000E+00 0. -1.
          1   -1    0    0  505    0 -0.00000000000E+00 -0.00000000000E+00 -0.81205726136E+03  0.81205726136E+03  0.00000000000E+00 0. -1.
         21    1    1    2  503  501 -0.18956430950E+02  0.47663693032E+02 -0.24951518493E+03  0.25473319654E+03  0.00000000000E+00 0. -1.
         21    1    1    2  504  503  0.43067346363E+02 -0.14051122405E+03  0.45380175837E+03  0.47700548876E+03  0.00000000000E+00 0. -1.
         21    1    1    2  505  502 -0.21963792722E+02  0.26158397410E+02  0.22554279586E+02  0.40931228584E+02  0.00000000000E+00 0.  1.
          1    1    1    2  501    0 -0.21471226910E+01  0.66689133604E+02 -0.53707831903E+03  0.54120714283E+03  0.00000000000E+00 0. -1.
<scales pt_clust_3="31.24332" pt_clust_4="116.57932" pt_clust_5="34.15655" pt_clust_6="31.24332"></scales>
<clustering>
<clus scale="   31.243">  3  6 -1 -1</clus>
<clus scale="   34.157">  1  5  2 -1</clus>
<clus scale="  116.579">  1  4  2 -1</clus>
<clus scale="   34.157">  1  3  2 -1</clus>
</clustering>
</event>
<event>
 6    0  0.4340992E+002  0.1022244E+03  0.7546771E-02  0.1275687E+00
         21   -1    0    0  504  502  0.00000000000E+00  0.00000000000E+00  0.85846008073E+02  0.85846008073E+02  0.00000000000E+00 0.  1.
          2   -1    0    0  503    0 -0.00000000000E+00 -0.00000000000E+00 -0.10606732831E+04  0.10606732831E+04  0.00000000000E+00 0.  1.
         21    1    1    2  503  505  0.55932378726E+02 -0.54110082199E+02 -0.45172779331E+03  0.45838229812E+03  0.00000000000E+00 0.  1.
         21    1    1    2  504  501 -0.58098432089E+02  0.18743505071E+02  0.12523639212E+02  0.62318442958E+02  0.00000000000E+00 0.  1.
         21    1    1    2  505  502  0.46053849349E+02  0.94530038299E+02 -0.22624728646E+02  0.10755818670E+03  0.00000000000E+00 0.  1.
          2    1    1    2  501    0 -0.43887795985E+02 -0.59163461171E+02 -0.51299839228E+03  0.51826036338E+03  0.00000000000E+00 0.  1.
<scales pt_clust_3="74.08104" pt_clust_4="61.04709" pt_clust_5="102.22443" pt_clust_6="14000.00000"></scales>
<clustering>
<clus scale="   61.047">  1  4  2 -1</clus>
<clus scale="   74.081">  2  3  1 -1</clus>
<clus scale="  102.224">  1  5  2 -1</clus>
<clus scale="   61.047">  1  3  2 -1</clus>
</clustering>
</event>
<event>
 6    0  0.4340992E+002  0.1185922E+03  0.7546771E-02  0.1245438E+00
         21   -1    0    0  501  502  0.00000000000E+00  0.00000000000E+00  0.49010100771E+03  0.49010100771E+03  0.00000000000E+00 0.  1.
          2   -1    0    0  504    0 -0.00000000000E+00 -0.00000000000E+00 -0.10387090489E+04  0.10387090489E+04  0.00000000000E+00 0. -1.
         21    1    1    2  503  502 -0.13560276747E+02  0.83467665649E+02  0.28544010459E+03  0.29770251196E+03  0.00000000000E+00 0.  1.
         21    1    1    2  504  505  0.53282110909E+02 -0.37303523843E+02 -0.81952534106E+02  0.10462673693E+03  0.00000000000E+00 0.  1.
         21    1    1    2  505  503  0.19346155642E+02  0.23892493871E+02  0.18367711865E+03  0.18623213718E+03  0.00000000000E+00 0.  1.
          2    1    1    2  501    0 -0.59067989803E+02 -0.70056635677E+02 -0.93577273036E+03  0.94024867057E+03  0.00000000000E+00 0. -1.
<scales pt_clust_3="30.51984" pt_clust_4="65.04257" pt_clust_5="30.51984" pt_clust_6="107.24739"></scales>
<clustering>
<clus scale="   30.520">  3  5 -1 -1</clus>
<clus scale="   65.043">  2  4  1 -1</clus>
<clus scale="  107.247">  2  6  1 -1</clus>
<clus scale="  118.592">  1  3  2 -1</clus>
</clustering>
</event>
<event>
 6    0  0.4340992E+002  0.3581144E+03  0.7546771E-02  0.1059333E+00
         21   -1    0    0  503  502  0.00000000000E+00  0.00000000000E+00  0.14213474960E+03  0.14213474960E+03  0.00000000000E+00 0.  1.
          1   -1    0    0  505    0 -0.00000000000E+00 -0.00000000000E+00 -0.11906253270E+04  0.11906253270E+04  0.00000000000E+00 0.  1.
         21    1    1    2  503  501  0.90761848555E+02 -0.79832884089E+02 -0.87195572616E+02  0.14904385401E+03  0.00000000000E+00 0.  1.
         21    1    1    2  504  502 -0.24863907453E+02  0.17416539582E+02  0.33748907053E+01  0.30544060505E+02  0.00000000000E+00 0.  1.
         21    1    1    2  505  504 -0.20636138060E+03  0.27621880058E+03 -0.72414662520E+03  0.80204125828E+03  0.00000000000E+00 0.  1.
          1    1    1    2  501    0  0.14046343950E+03 -0.21380245607E+03 -0.24052327031E+03  0.35113090382E+03  0.00000000000E+00 0.  1.
<scales pt_clust_3="37.93599" pt_clust_4="30.35704" pt_clust_5="353.77626" pt_clust_6="37.93599"></scales>
<clustering>
<clus scale="   30.357">  1  4  2 -1</clus>
<clus scale="   37.936">  3  6 -1 -1</clus>
<clus scale="  353.776">  2  5  1 -1</clus>
<clus scale="   30.357">  1  3  2 -1</clus>
</clustering>
</event>
<event>
 6    0  0.4340992E+002  0.9524909E+02  0.7546771E-02  0.1290616E+00
         21   -1    0    0  501  502  0.00000000000E+00  0.00000000000E+00  0.24897027575E+03  0.24897027575E+03  0.00000000000E+00 0. -1.
          1   -1    0    0  503    0 -0.00000000000E+00 -0.00000000000E+00 -0.15847114574E+04  0.15847114574E+04  0.00000000000E+00 0. -1.
         21    1    1    2  503  505 -0.20025188538E+02  0.35162410678E+02 -0.10811135236E+03  0.11543599010E+03  0.00000000000E+00 0. -1.
         21    1    1    2  504  502  0.43886819138E+01 -0.33872242956E+02  0.11830445354E+03  0.12313623796E+03  0.00000000000E+00 0. -1.
         21    1    1    2  505  504 -0.85944929951E+02 -0.16475812306E+02  0.10718136869E+03  0.13836845439E+03  0.00000000000E+00 0. -1.
          1    1    1    2  501    0  0.10158143657E+03  0.15185644584E+02 -0.14531156515E+04  0.14567410507E+04  0.00000000000E+00 0. -1.
<scales pt_clust_3="39.56404" pt_clust_4="34.15537" pt_clust_5="14000.00000" pt_clust_6="95.24909"></scales>
<clustering>
<clus scale="   34.155">  1  4  2 -1</clus>
<clus scale="   39.564">  2  3  1 -1</clus>
<clus scale="   95.249">  2  6  1 -1</clus>
<clus scale="   34.155">  1  3  2 -1</clus>
</clustering>
</event>
<event>
 6    0  0.4340992E+002  0.1207230E+03  0.7546771E-02  0.1241909E+00
         21   -1    0    0  503  502  0.00000000000E+00  0.00000000000E+00  0.41270491294E+03  0.41270491294E+03  0.00000000000E+00 0. -1.
          2   -1    0    0  505    0 -0.00000000000E+00 -0.00000000000E+00 -0.37619541234E+03  0.37619541234E+03  0.00000000000E+00 0.  1.
         21    1    1    2  503  501  0.89881499943E+02  0.56939521794E+02  0.16149247002E+03  0.19339237588E+03  0.00000000000E+00 0. -1.
         21    1    1    2  504  502 -0.57103517351E+02  0.67714373634E+02  0.20514455662E+03  0.22345097270E+03  0.00000000000E+00 0. -1.
         21    1    1    2  505  504  0.32869838559E+02 -0.41462166123E+02 -0.50996182845E+02  0.73485700454E+02  0.00000000000E+00 0. -1.
          2    1    1    2  501    0 -0.65647821150E+02 -0.83191729304E+02 -0.27913134319E+03  0.29857127625E+03  0.00000000000E+00 0.  1.
<scales pt_clust_3="14000.00000" pt_clust_4="87.03605" pt_clust_5="52.91066" pt_clust_6="120.72300"></scales>
<clustering>
<clus scale="   52.911">  2  5  1 -1</clus>
<clus scale="   87.036">  1  4  2 -1</clus>
<clus scale="  120.723">  2  6  1 -1</clus>
<clus scale="   87.036">  1  3  2 -1</clus>
</clustering>
</event>
<event>
 6    0  0.4340992E+002  0.1077536E+03  0.7546771E-02  0.1264787E+00
          2   -1    0    0  503    0 -0.00000000000E+00  0.00000000000E+00  0.47915457273E+03  0.47915457273E+03  0.00000000000E+00 0.  1.
         21   -1    0    0  505  502  0.00000000000E+00 -0.00000000000E+00 -0.26976452334E+03  0.26976452334E+03  0.00000000000E+00 0. -1.
         21    1    1    2  503  504 -0.61765619163E+02  0.14479280017E+03  0.24677424748E+03  0.29270715043E+03  0.00000000000E+00 0.  1.
         21    1    1    2  504  502 -0.49748629225E+02 -0.10311473886E+03 -0.79706871767E+02  0.13950183112E+03  0.00000000000E+00 0. -1.
         21    1    1    2  505  501  0.38719537752E+02  0.42170464891E+00 -0.12423407951E+03  0.13012873222E+03  0.00000000000E+00 0.  1.
          2    1    1    2  501    0  0.72794710637E+02 -0.42099765960E+02  0.16655675318E+03  0.18658138230E+03  0.00000000000E+00 0.  1.
<scales pt_clust_3="107.75359" pt_clust_4="14000.00000" pt_clust_5="38.72183" pt_clust_6="86.44192"></scales>
<clustering>
<clus scale="   38.722">  2  5  1 -1</clus>
<clus scale="   86.442">  1  6  2 -1</clus>
<clus scale="  107.754">  1  3  2 -1</clus>
<clus scale="   38.722">  2  3  1 -1</clus>
</clustering>
</event>
<event>
 6    0  0.4340992E+002  0.8084207E+02  0.7546771E-02  0.1326679E+00
         -1   -1    0    0    0  501 -0.00000000000E+00  0.00000000000E+00  0.12199997925E+04  0.12199997925E+04  0.00000000000E+00 0. -1.
         21   -1    0    0  503  502  0.00000000000E+00 -0.00000000000E+00 -0.59531174772E+02  0.59531174772E+02  0.00000000000E+00 0.  1.
         21    1    1    2  503  501  0.51376777699E+02 -0.87477036874E+02  0.11946360225E+02  0.10214950215E+03  0.00000000000E+00 0.  1.
         21    1    1    2  504  505  0.51152095994E+02  0.51059088144E+02  0.80254459948E+03  0.80579240600E+03  0.00000000000E+00 0. -1.
         21    1    1    2  505  502 -0.71681606194E+02  0.37051349746E+01  0.10986783732E+03  0.13123613210E+03  0.00000000000E+00 0. -1.
         -1    1    1    2    0  504 -0.30847267500E+02  0.32712813756E+02  0.23610982073E+03  0.24035292705E+03  0.00000000000E+00 0. -1.
<scales pt_clust_3="80.84207" pt_clust_4="14000.00000" pt_clust_5="75.86339" pt_clust_6="44.96312"></scales>
<clustering>
<clus scale="   44.963">  1  6  2 -1</clus>
<clus scale="   75.863">  2  5  1 -1</clus>
<clus scale="   80.842">  2  3  1 -1</clus>
<clus scale="   75.863">  2  3  1 -1</clus>
</clustering>
</event>
<event>
 6    0  0.4340992E+002  0.6838520E+02  0.7546771E-02  0.1365672E+00
         21   -1    0    0  504  502  0.00000000000E+00  0.00000000000E+00  0.44947656586E+03  0.44947656586E+03  0.00000000000E+00 0.  1.
          2   -1    0    0  505    0 -0.00000000000E+00 -0.00000000000E+00 -0.16733085004E+04  0.16733085004E+04  0.00000000000E+00 0.  1.
         21    1    1    2  503  502 -0.42807726161E+01  0.83760456770E+02  0.41359479662E+03  0.42201279000E+03  0.00000000000E+00 0.  1.
         21    1    1    2  504  501 -0.44907997354E+01 -0.31462798801E+02  0.18898291164E+02  0.36975943526E+02  0.00000000000E+00 0. -1.
         21    1    1    2  505  503  0.57393578394E+02  0.89476480299E+01 -0.32309752684E+03  0.32827746663E+03  0.00000000000E+00 0.  1.
          2    1    1    2  501    0 -0.48622006042E+02 -0.61245305998E+02 -0.13332274955E+04  0.13355188661E+04  0.00000000000E+00 0.  1.
<scales pt_clust_3="53.29662" pt_clust_4="31.78168" pt_clust_5="68.38520" pt_clust_6="14000.00000"></scales>
<clustering>
<clus scale="   31.782">  1  4  2 -1</clus>
<clus scale="   53.297">  1  3  2 -1</clus>
<clus scale="   68.385">  1  5  2 -1</clus>
<clus scale="   31.782">  1  3  2 -1</clus>
</clustering>
</event>
<event>
 6    0  0.4340992E+002  0.1695565E+03  0.7546771E-02  0.1178311E+00
          2   -1    0    0  505    0 -0.00000000000E+00  0.00000000000E+00  0.13592039870E+04  0.13592039870E+04  0.00000000000E+00 0.  1.
         21   -1    0    0  503  502  0.00000000000E+00 -0.00000000000E+00 -0.12313036577E+03  0.12313036577E+03  0.00000000000E+00 0.  1.
         21    1    1    2  503  504  0.78892956464E+02 -0.95435310538E+02 -0.54536825214E+02  0.13530063703E+03  0.00000000000E+00 0.  1.
         21    1    1    2  504  501  0.31438405522E+01 -0.42731611383E+02  0.21580115889E+01  0.42901414415E+02  0.00000000000E+00 0.  1.
         21    1    1    2  505  502 -0.11150666585E+03  0.10586666401E+03  0.87843037403E+03  0.89178551743E+03  0.00000000000E+00 0.  1.
          2    1    1    2  501    0  0.29469868831E+02  0.32300257915E+02  0.41002206083E+03  0.41234678390E+03  0.00000000000E+00 0.  1.
<scales pt_clust_3="33.23630" pt_clust_4="33.23630" pt_clust_5="159.86591" pt_clust_6="43.72390"></scales>
<clustering>
<clus scale="   33.236">  3  4 -1 -1</clus>
<clus scale="   43.724">  1  6  2 -1</clus>
<clus scale="  159.866">  1  5  2 -1</clus>
<clus scale="  169.556">  2  3  1 -1</clus>
</clustering>
</event>
<event>
 6    0  0.4340992E+002  0.1320217E+03  0.7546771E-02  0.1224486E+00
          2   -1    0    0  504    0 -0.00000000000E+00  0.00000000000E+00  0.20521168404E+04  0.20521168404E+04  0.00000000000E+00 0. -1.
         21   -1    0    0  503  502  0.00000000000E+00 -0.00000000000E+00 -0.34881582941E+03  0.34881582941E+03  0.00000000000E+00 0.  1.
         21    1    1    2  503  501  0.43791690932E+02  0.84826569112E+02 -0.31868821867E+03  0.33267918441E+03  0.00000000000E+00 0.  1.
         21    1    1    2  504  505 -0.31565540064E+02  0.39010937576E+02  0.43175454592E+03  0.43466104552E+03  0.00000000000E+00 0.  1.
         21    1    1    2  505  502  0.98129383333E+02 -0.11038941108E+03  0.26240698182E+03  0.30111895002E+03  0.00000000000E+00 0. -1.
          2    1    1    2  501    0 -0.11035553420E+03 -0.13448095608E+02  0.13278277020E+04  0.13324734899E+04  0.00000000000E+00 0. -1.
<scales pt_clust_3="95.55082" pt_clust_4="50.18203" pt_clust_5="14000.00000" pt_clust_6="132.02168"></scales>
<clustering>
<clus scale="   50.182">  1  4  2 -1</clus>
<clus scale="   95.551">  2  3  1 -1</clus>
<clus scale="  132.022">  1  6  2 -1</clus>
<clus scale="   95.551">  2  3  1 -1</clus>
</clustering>
</event>
<event>
 6    0  0.4340992E+002  0.1161299E+03  0.7546771E-02  0.1249621E+00
          2   -1    0    0  504    0 -0.00000000000E+00  0.00000000000E+00  0.14101548227E+04  0.14101548227E+04  0.00000000000E+00 0. -1.
         21   -1    0    0  501  502  0.00000000000E+00 -0.00000000000E+00 -0.59329342656E+02  0.59329342656E+02  0.00000000000E+00 0. -1.
         21    1    1    2  503  502  0.56786080016E+02 -0.22542391876E+02 -0.15833515611E+02  0.63115121260E+02  0.00000000000E+00 0. -1.
         21    1    1    2  504  505 -0.43384489509E+02 -0.23816424169E+01  0.19011617315E+03  0.19501806440E+03  0.00000000000E+00 0. -1.
         21    1    1    2  505  503  0.45873665838E+02 -0.67222242298E+02  0.98573436757E+02  0.12782779632E+03  0.00000000000E+00 0. -1.
          2    1    1    2  501    0 -0.59275256344E+02  0.92146276591E+02  0.10779693857E+04  0.10835231833E+04  0.00000000000E+00 0. -1.
<scales pt_clust_3="60.33197" pt_clust_4="43.44981" pt_clust_5="14000.00000" pt_clust_6="116.12995"></scales>
<clustering>
<clus scale="   43.450">  1  4  2 -1</clus>
<clus scale="   60.332">  2  3  1 -1</clus>
<clus scale="  116.130">  1  6  2 -1</clus>
<clus scale="   60.332">  2  3  1 -1</clus>
</clustering>
</event>
<event>
 6    0  0.4340992E+002  0.1536338E+03  0.7546771E-02  0.1196078E+00
         21   -1    0    0  503  502  0.00000000000E+00  0.00000000000E+00  0.96434787094E+03  0.96434787094E+03  0.00000000000E+00 0. -1.
          1   -1    0    0  505    0 -0.00000000000E+00 -0.00000000000E+00 -0.76113517782E+03  0.76113517782E+03  0.00000000000E+00 0.  1.
         21    1    1    2  503  501  0.28916671924E+02  0.25686481091E+02  0.10205774654E+03  0.10914097698E+03  0.00000000000E+00 0. -1.
         21    1    1    2  504  502 -0.65748595590E+02  0.57287025664E+02  0.78708785033E+03  0.79190401266E+03  0.00000000000E+00 0. -1.
         21    1    1    2  505  504 -0.11316833487E+03 -0.12249055089E+03 -0.56352895457E+02  0.17603026984E+03  0.00000000000E+00 0. -1.
          1    1    1    2  501    0  0.15000025853E+03  0.39517044136E+02 -0.62958000830E+03  0.64840778927E+03  0.00000000000E+00 0.  1.
<scales pt_clust_3="38.67776" pt_clust_4="89.88299" pt_clust_5="14000.00000" pt_clust_6="153.63384"></scales>
<clustering>
<clus scale="   38.678">  1  3  2 -1</clus>
<clus scale="   89.883">  1  4  2 -1</clus>
<clus scale="  153.634">  2  6  1 -1</clus>
<clus scale="   38.678">  1  3  2 -1</clus>
</clustering>
</event>
<event>
 6    0  0.4340992E+002  0.9708147E+02  0.7546771E-02  0.1286556E+00
         -2   -1    0    0    0  501 -0.00000000000E+00  0.00000000000E+00  0.60050199838E+03  0.60050199838E+03  0.00000000000E+00 0. -1.
         21   -1    0    0  505  502  0.00000000000E+00 -0.00000000000E+00 -0.17111986352E+04  0.17111986352E+04  0.00000000000E+00 0. -1.
         21    1    1    2  503  504 -0.26710897051E+02  0.11209531842E+03  0.36894504881E+03  0.38652203233E+03  0.00000000000E+00 0. -1.
         21    1    1    2  504  502 -0.23256433400E+02 -0.20595005256E+02 -0.44689035559E+03  0.44796875544E+03  0.00000000000E+00 0. -1.
         21    1    1    2  505  501  0.39733076306E+02 -0.10362584705E+02 -0.12471073779E+04  0.12477831993E+04  0.00000000000E+00 0. -1.
         -2    1    1    2    0  503  0.10234254145E+02 -0.81137728461E+02  0.21435604778E+03  0.22942664657E+03  0.00000000000E+00 0. -1.
<scales pt_clust_3="14000.00000" pt_clust_4="31.06471" pt_clust_5="34.97773" pt_clust_6="97.08147"></scales>
<clustering>
<clus scale="   31.065">  2  4  1 -1</clus>
<clus scale="   34.978">  2  5  1 -1</clus>
<clus scale="   97.081">  1  6  2 -1</clus>
<clus scale="   31.065">  2  3  1 -1</clus>
</clustering>
</event>
<event>
 6    0  0.4340992E+002  0.1116877E+03  0.7546771E-02  0.1257476E+00
         21   -1    0    0  503  502  0.00000000000E+00  0.00000000000E+00  0.86100924659E+03  0.86100924659E+03  0.00000000000E+00 0.  1.
          3   -1    0    0  504    0 -0.00000000000E+00 -0.00000000000E+00 -0.37230200913E+03  0.37230200913E+03  0.00000000000E+00 0.  1.
         21    1    1    2  503  505  0.66063505300E+00  0.39401050204E+02  0.24527368180E+03  0.24841911798E+03  0.00000000000E+00 0.  1.
         21    1    1    2  504  502  0.32572059307E+02 -0.61228741683E+02 -0.15293124386E+02  0.71019557229E+02  0.00000000000E+00 0.  1.
         21    1    1    2  505  501 -0.11203326402E+03 -0.20805793524E+02  0.57447087901E+03  0.58566297828E+03  0.00000000000E+00 0.  1.
          3    1    1    2  501    0  0.78800569659E+02  0.42633485003E+02 -0.31574419896E+03  0.32820960224E+03  0.00000000000E+00 0.  1.
<scales pt_clust_3="39.40659" pt_clust_4="67.79490" pt_clust_5="14000.00000" pt_clust_6="111.68775"></scales>
<clustering>
<clus scale="   39.407">  1  3  2 -1</clus>
<clus scale="   67.795">  2  4  1 -1</clus>
<clus scale="  111.688">  2  6  1 -1</clus>
<clus scale="   39.407">  1  3  2 -1</clus>
</clustering>
</event>
<event>
 6    0  0.4340992E+002  0.6870288E+02  0.7546771E-02  0.1364560E+00
         21   -1    0    0  501  502  0.00000000000E+00  0.00000000000E+00  0.30644484311E+03  0.30644484311E+03  0.00000000000E+00 0. -1.
          3   -1    0    0  504    0 -0.00000000000E+00 -0.00000000000E+00 -0.65296506329E+03  0.65296506329E+03  0.00000000000E+00 0. -1.
         21    1    1    2  503  502 -0.27150034053E+02 -0.26440680089E+02  0.21509942728E+03  0.21841244820E+03  0.00000000000E+00 0. -1.
         21    1    1    2  504  505 -0.69627809570E+02  0.94219951477E+02 -0.44738560694E+03  0.46247087737E+03  0.00000000000E+00 0. -1.
         21    1    1    2  505  503  0.79628185971E+02 -0.13473234393E+02  0.56488969314E+02  0.98555465095E+02  0.00000000000E+00 0. -1.
          3    1    1    2  501    0  0.17149657652E+02 -0.54306036995E+02 -0.17072300983E+03  0.17997111573E+03  0.00000000000E+00 0. -1.
<scales pt_clust_3="37.89768" pt_clust_4="68.70288" pt_clust_5="14000.00000" pt_clust_6="57.85432"></scales>
<clustering>
<clus scale="   37.898">  1  3  2 -1</clus>
<clus scale="   57.854">  2  6  1 -1</clus>
<clus scale="   68.703">  2  4  1 -1</clus>
<clus scale="   37.898">  1  3  2 -1</clus>
</clustering>
</event>
<event>
 6    0  0.4340992E+002  0.9645636E+02  0.7546771E-02  0.1287929E+00
         -4   -1    0    0    0  501 -0.00000000000E+00  0.00000000000E+00  0.11215227256E+04  0.11215227256E+04  0.00000000000E+00 0. -1.
         21   -1    0    0  504  502  0.00000000000E+00 -0.00000000000E+00 -0.21861690437E+03  0.21861690437E+03  0.00000000000E+00 0. -1.
         21    1    1    2  503  501 -0.40240146734E+02 -0.83812259989E+01  0.84231589660E+02  0.93725530434E+02  0.00000000000E+00 0. -1.
         21    1    1    2  504  505 -0.14582019821E+02  0.39782448528E+02 -0.18249172585E+03  0.18734595944E+03  0.00000000000E+00 0. -1.
         21    1    1    2  505  503 -0.57051036052E+02 -0.93011406845E+02  0.97214524612E+02  0.14613899655E+03  0.00000000000E+00 0. -1.
         -4    1    1    2    0  502  0.11187320261E+03  0.61610184316E+02  0.90395143277E+03  0.91292914351E+03  0.00000000000E+00 0. -1.
<scales pt_clust_3="41.10370" pt_clust_4="42.38489" pt_clust_5="14000.00000" pt_clust_6="96.45636"></scales>
<clustering>
<clus scale="   41.104">  1  3  2 -1</clus>
<clus scale="   42.385">  2  4  1 -1</clus>
<clus scale="   96.456">  1  6  2 -1</clus>
<clus scale="   42.385">  2  3  1 -1</clus>
</clustering>
</event>
<event>
 6    0  0.4340992E+002  0.3228488E+03  0.7546771E-02  0.1074346E+00
          2   -1    0    0  505    0 -0.00000000000E+00  0.00000000000E+00  0.13555845299E+04  0.13555845299E+04  0.00000000000E+00 0.  1.
         21   -1    0    0  504  502  0.00000000000E+00 -0.00000000000E+00 -0.46830096589E+03  0.46830096589E+03  0.00000000000E+00 0. -1.
         21    1    1    2  503  501 -0.12934810350E+02 -0.62075928062E+02  0.16587740437E+03  0.17758390536E+03  0.00000000000E+00 0. -1.
         21    1    1    2  504  503  0.29216981784E+02 -0.46939877760E+02 -0.86800908258E+02  0.10291443933E+03  0.00000000000E+00 0. -1.
         21    1    1    2  505  502  0.20819092340E+03  0.22630293351E+03 -0.28618614165E+03  0.42007021553E+03  0.00000000000E+00 0. -1.
          2    1    1    2  501    0 -0.22447309483E+03 -0.11728712769E+03  0.10943932095E+04  0.11233169356E+04  0.00000000000E+00 0.  1.
<scales pt_clust_3="62.67743" pt_clust_4="55.29000" pt_clust_5="297.83218" pt_clust_6="62.67743"></scales>
<clustering>
<clus scale="   55.290">  2  4  1 -1</clus>
<clus scale="   62.677">  3  6 -1 -1</clus>
<clus scale="  297.832">  2  5  1 -1</clus>
<clus scale="   55.290">  2  3  1 -1</clus>
</clustering>
</event>
<event>
 6    0  0.4340992E+002  0.8951393E+02  0.7546771E-02  0.1304033E+00
         21   -1    0    0  504  502  0.00000000000E+00  0.00000000000E+00  0.16483106172E+03  0.16483106172E+03  0.00000000000E+00 0. -1.
         -3   -1    0    0    0  501 -0.00000000000E+00 -0.00000000000E+00 -0.10915125096E+04  0.10915125096E+04  0.00000000000E+00 0. -1.
         21    1    1    2  503  502  0.20828108252E+02  0.24278146965E+02  0.48013858476E+02  0.57693752861E+02  0.00000000000E+00 0. -1.
         21    1    1    2  504  501 -0.47642496193E+02 -0.37210362199E+02  0.83943593283E+02  0.10344537376E+03  0.00000000000E+00 0. -1.
         21    1    1    2  505  503  0.10931370042E+03  0.37533318257E+02 -0.19058522095E+03  0.22289226438E+03  0.00000000000E+00 0. -1.
         -3    1    1    2    0  505 -0.82499312480E+02 -0.24601103022E+02 -0.86805367869E+03  0.87231218031E+03  0.00000000000E+00 0. -1.
<scales pt_clust_3="31.98810" pt_clust_4="34.61833" pt_clust_5="89.51393" pt_clust_6="14000.00000"></scales>
<clustering>
<clus scale="   31.988">  1  3  2 -1</clus>
<clus scale="   34.618">  1  4  2 -1</clus>
<clus scale="   89.514">  1  5  2 -1</clus>
<clus scale="   31.988">  1  3  2 -1</clus>
</clustering>
</event>
<event>
 6    0  0.4340992E+002  0.9718145E+02  0.7546771E-02  0.1286337E+00
         21   -1    0    0  503  502  0.00000000000E+00  0.00000000000E+00  0.10671130476E+04  0.10671130476E+04  0.00000000000E+00 0. -1.
          4   -1    0    0  505    0 -0.00000000000E+00 -0.00000000000E+00 -0.22680316827E+02  0.22680316827E+02  0.00000000000E+00 0. -1.
         21    1    1    2  503  501 -0.46377903229E+02  0.47908724415E+02  0.36138697042E+03  0.36748700409E+03  0.00000000000E+00 0. -1.
         21    1    1    2  504  502  0.40269945793E+02 -0.36620030682E+01  0.12574027299E+03  0.13208215267E+03  0.00000000000E+00 0. -1.
         21    1    1    2  505  504  0.65674841644E+02 -0.57145746568E+02  0.49670520017E+03  0.50427658785E+03  0.00000000000E+00 0. -1.
          4    1    1    2  501    0 -0.59566884208E+02  0.12899025221E+02  0.60600287182E+02  0.85947619818E+02  0.00000000000E+00 0. -1.
<scales pt_clust_3="82.77702" pt_clust_4="34.69912" pt_clust_5="34.69912" pt_clust_6="60.94751"></scales>
<clustering>
<clus scale="   34.699">  4  5 -1 -1</clus>
<clus scale="   60.948">  2  6  1 -1</clus>
<clus scale="   82.777">  1  3  2 -1</clus>
<clus scale="   82.777">  1  3  2 -1</clus>
</clustering>
</event>
<event>
 6    0  0.4340992E+002  0.9668349E+02  0.7546771E-02  0.1287429E+00
         21   -1    0    0  504  502  0.00000000000E+00  0.00000000000E+00  0.36907743493E+03  0.36907743493E+03  0.00000000000E+00 0.  1.
          1   -1    0    0  503    0 -0.00000000000E+00 -0.00000000000E+00 -0.13259086650E+03  0.13259086650E+03  0.00000000000E+00 0.  1.
         21    1    1    2  503  505  0.12808057572E+02  0.37651496716E+02 -0.27584290856E+02  0.48400151299E+02  0.00000000000E+00 0.  1.
         21    1    1    2  504  501  0.90634620014E+02  0.44180014179E+02  0.18371517934E+03  0.20956568211E+03  0.00000000000E+00 0.  1.
         21    1    1    2  505  502 -0.25891141107E+02 -0.11473376899E+03  0.10313756363E+03  0.15643383894E+03  0.00000000000E+00 0.  1.
          1    1    1    2  501    0 -0.77551536479E+02  0.32902258093E+02 -0.22781883678E+02  0.87268629081E+02  0.00000000000E+00 0.  1.
<scales pt_clust_3="39.77036" pt_clust_4="14000.00000" pt_clust_5="96.68349" pt_clust_6="88.98083"></scales>
<clustering>
<clus scale="   39.770">  2  3  1 -1</clus>
<clus scale="   88.981">  2  6  1 -1</clus>
<clus scale="   96.683">  2  5  1 -1</clus>
<clus scale="   96.683">  1  3  2 -1</clus>
</clustering>
</event>
<event>
 6    0  0.4340992E+002  0.1007203E+03  0.7546771E-02  0.1278788E+00
          1   -1    0    0  505    0 -0.00000000000E+00  0.00000000000E+00  0.71811438887E+03  0.71811438887E+03  0.00000000000E+00 0.  1.
         21   -1    0    0  504  502  0.00000000000E+00 -0.00000000000E+00 -0.13259343817E+03  0.13259343817E+03  0.00000000000E+00 0. -1.
         21    1    1    2  503  501  0.41299024664E+01 -0.40627494902E+02  0.22729650709E+03  0.23093581700E+03  0.00000000000E+00 0. -1.
         21    1    1    2  504  503  0.34130001950E+01 -0.37943272885E+02 -0.55351546094E+02  0.67194748177E+02  0.00000000000E+00 0. -1.
         21    1    1    2  505  502 -0.54245908034E+02  0.11186821215E+03 -0.10379691030E+02  0.12475918168E+03  0.00000000000E+00 0. -1.
          1    1    1    2  501    0  0.46703005373E+02 -0.33297444361E+02  0.42395568073E+03  0.42781808019E+03  0.00000000000E+00 0.  1.
<scales pt_clust_3="35.58328" pt_clust_4="38.09646" pt_clust_5="91.46682" pt_clust_6="35.58328"></scales>
<clustering>
<clus scale="   35.583">  3  6 -1 -1</clus>
<clus scale="   38.096">  2  4  1 -1</clus>
<clus scale="   91.467">  2  5  1 -1</clus>
<clus scale="   38.096">  2  3  1 -1</clus>
</clustering>
</event>
<event>
 6    0  0.4340992E+002  0.1048897E+03  0.7546771E-02  0.1270337E+00
         -4   -1    0    0    0  501 -0.00000000000E+00  0.00000000000E+00  0.35066780965E+03  0.35066780965E+03  0.00000000000E+00 0. -1.
         21   -1    0    0  504  502  0.00000000000E+00 -0.00000000000E+00 -0.16155763229E+03  0.16155763229E+03  0.00000000000E+00 0. -1.
         21    1    1    2  503  502 -0.83223976024E+02  0.79966361577E+02  0.14171476452E+03  0.18276740315E+03  0.00000000000E+00 0. -1.
         21    1    1    2  504  505  0.56683197020E+02 -0.87017022434E+02 -0.10530084954E+03  0.14789596320E+03  0.00000000000E+00 0. -1.
         21    1    1    2  505  501  0.24980872486E+02 -0.26670885636E+02  0.14519902378E+02  0.39321847564E+02  0.00000000000E+00 0. -1.
         -4    1    1    2    0  503  0.15599065184E+01  0.33721546494E+02  0.13817636000E+03  0.14224022803E+03  0.00000000000E+00 0. -1.
<scales pt_clust_3="104.88973" pt_clust_4="14000.00000" pt_clust_5="33.67353" pt_clust_6="33.75761"></scales>
<clustering>
<clus scale="   33.758">  1  6  2 -1</clus>
<clus scale="   33.674">  1  5  2 -1</clus>
<clus scale="  104.890">  1  3  2 -1</clus>
<clus scale="  104.890">  2  3  1 -1</clus>
</clustering>
</event>
<event>
 6    0  0.4340992E+002  0.9667322E+02  0.7546771E-02  0.1287451E+00
         21   -1    0    0  504  502  0.00000000000E+00  0.00000000000E+00  0.75390389027E+02  0.75390389027E+02  0.00000000000E+00 0. -1.
         -2   -1    0    0    0  501 -0.00000000000E+00 -0.00000000000E+00 -0.10469730791E+04  0.10469730791E+04  0.00000000000E+00 0. -1.
         21    1    1    2  503  501  0.82854761105E+02  0.92690557046E+02 -0.78101877089E+03  0.79085192754E+03  0.00000000000E+00 0. -1.
         21    1    1    2  504  503  0.43931583908E+01 -0.69494037991E+02  0.38079535020E+02  0.79364804191E+02  0.00000000000E+00 0. -1.
         21    1    1    2  505  502 -0.52647846275E+02 -0.15002028619E+02 -0.66421576977E+02  0.86073703697E+02  0.00000000000E+00 0. -1.
         -2    1    1    2    0  505 -0.34600073221E+02 -0.81944904360E+01 -0.16222187719E+03  0.16607303266E+03  0.00000000000E+00 0. -1.
<scales pt_clust_3="14000.00000" pt_clust_4="96.67322" pt_clust_5="57.81160" pt_clust_6="35.55720"></scales>
<clustering>
<clus scale="   35.557">  2  6  1 -1</clus>
<clus scale="   57.812">  1  5  2 -1</clus>
<clus scale="   96.673">  1  4  2 -1</clus>
<clus scale="   57.812">  1  3  2 -1</clus>
</clustering>
</event>
<event>
 6    0  0.4340992E+002  0.1217544E+03  0.7546771E-02  0.1240231E+00
          2   -1    0    0  505    0 -0.00000000000E+00  0.00000000000E+00  0.18202297945E+04  0.18202297945E+04  0.00000000000E+00 0. -1.
         21   -1    0    0  501  502  0.00000000000E+00 -0.00000000000E+00 -0.43649715809E+02  0.43649715809E+02  0.00000000000E+00 0. -1.
         21    1    1    2  503  504 -0.15999208518E+03 -0.47121471649E+02  0.36510887921E+03  0.40140054072E+03  0.00000000000E+00 0. -1.
         21    1    1    2  504  502  0.30893283101E+02  0.66129923237E+02  0.41621535840E+02  0.84023293995E+02  0.00000000000E+00 0. -1.
         21    1    1    2  505  503  0.41489506582E+02 -0.38390725655E+02  0.75241254137E+03  0.75453287495E+03  0.00000000000E+00 0.  1.
          2    1    1    2  501    0  0.87609295497E+02  0.19382274067E+02  0.61743712229E+03  0.62392280067E+03  0.00000000000E+00 0. -1.
<scales pt_clust_3="121.75445" pt_clust_4="72.04573" pt_clust_5="56.52634" pt_clust_6="14000.00000"></scales>
<clustering>
<clus scale="   56.526">  1  5  2 -1</clus>
<clus scale="   72.046">  2  4  1 -1</clus>
<clus scale="  121.754">  2  3  1 -1</clus>
<clus scale="   72.046">  2  3  1 -1</clus>
</clustering>
</event>
<event>
 6    0  0.4340992E+002  0.1149691E+03  0.7546771E-02  0.1251635E+00
         -1   -1    0    0    0  501 -0.00000000000E+00  0.00000000000E+00  0.63770789640E+02  0.63770789640E+02  0.00000000000E+00 0.  1.
         21   -1    0    0  504  502  0.00000000000E+00 -0.00000000000E+00 -0.68864962683E+03  0.68864962683E+03  0.00000000000E+00 0.  1.
         21    1    1    2  503  502  0.52736277727E+02  0.49799091482E+01 -0.18453318650E+03  0.19198544581E+03  0.00000000000E+00 0. -1.
         21    1    1    2  504  505  0.48258472439E+02 -0.79594954068E+02 -0.33387740673E+03  0.34660980886E+03  0.00000000000E+00 0.  1.
         21    1    1    2  505  501 -0.37062093707E+02 -0.39789947882E+02 -0.31371076201E+02  0.62777250373E+02  0.00000000000E+00 0.  1.
         -1    1    1    2    0  503 -0.63932656459E+02  0.11440499280E+03 -0.75097167761E+02  0.15104791142E+03  0.00000000000E+00 0.  1.
<scales pt_clust_3="52.97088" pt_clust_4="114.96907" pt_clust_5="50.76069" pt_clust_6="14000.00000"></scales>
<clustering>
<clus scale="   52.971">  2  3  1 -1</clus>
<clus scale="   50.761">  1  5  2 -1</clus>
<clus scale="  114.969">  2  4  1 -1</clus>
<clus scale="   52.971">  2  3  1 -1</clus>
</clustering>
</event>
<event>
 6    0  0.4340992E+002  0.1680556E+03  0.7546771E-02  0.1179891E+00
         21   -1    0    0  503  502  0.00000000000E+00  0.00000000000E+00  0.47422944377E+03  0.47422944377E+03  0.00000000000E+00 0.  1.
         -1   -1    0    0    0  501 -0.00000000000E+00 -0.00000000000E+00 -0.67411053716E+03  0.67411053716E+03  0.00000000000E+00 0. -1.
         21    1    1    2  503  505 -0.51152755826E+02 -0.19957475877E+02  0.27662127986E+03  0.28201815144E+03  0.00000000000E+00 0.  1.
         21    1    1    2  504  501 -0.92685514751E+02 -0.11482859525E+03 -0.99558678326E+02  0.17801163266E+03  0.00000000000E+00 0. -1.
         21    1    1    2  505  504 -0.21681884787E+02  0.61190572240E+02  0.13253860057E+03  0.14758343708E+03  0.00000000000E+00 0.  1.
         -1    1    1    2    0  502  0.16552015536E+03  0.73595498887E+02 -0.50948229549E+03  0.54072675975E+03  0.00000000000E+00 0. -1.
<scales pt_clust_3="54.90815" pt_clust_4="14000.00000" pt_clust_5="74.90047" pt_clust_6="168.05561"></scales>
<clustering>
<clus scale="   54.908">  1  3  2 -1</clus>
<clus scale="   74.900">  1  5  2 -1</clus>
<clus scale="  168.056">  2  6  1 -1</clus>
<clus scale="   54.908">  1  3  2 -1</clus>
</clustering>
</event>
<event>
 6    0  0.4340992E+002  0.6234408E+03  0.7546771E-02  0.9857933E-01
          1   -1    0    0  504    0 -0.00000000000E+00  0.00000000000E+00  0.20695226714E+04  0.20695226714E+04  0.00000000000E+00 0. -1.
         21   -1    0    0  505  502  0.00000000000E+00 -0.00000000000E+00 -0.79296259721E+03  0.79296259721E+03  0.00000000000E+00 0.  1.
         21    1    1    2  503  502  0.12084548725E+03  0.96698525382E+01 -0.28155081820E+03  0.30654200538E+03  0.00000000000E+00 0.  1.
         21    1    1    2  504  503  0.44938894238E+03  0.24022311334E+03 -0.30062459789E+03  0.59163562653E+03  0.00000000000E+00 0.  1.
         21    1    1    2  505  501 -0.26098172841E+02 -0.48125894999E+02  0.14642813039E+03  0.15632790463E+03  0.00000000000E+00 0.  1.
          1    1    1    2  501    0 -0.54413625679E+03 -0.20176707088E+03  0.17123073599E+04  0.18079797321E+04  0.00000000000E+00 0. -1.
<scales pt_clust_3="121.23175" pt_clust_4="610.47963" pt_clust_5="38.84224" pt_clust_6="38.84224"></scales>
<clustering>
<clus scale="   38.842">  5  6 -1 -1</clus>
<clus scale="  121.232">  2  3  1 -1</clus>
<clus scale="  610.480">  2  4  1 -1</clus>
<clus scale="  121.232">  2  3  1 -1</clus>
</clustering>
</event>
<event>
 6    0  0.4340992E+002  0.3389685E+03  0.7546771E-02  0.1067236E+00
         21   -1    0    0  505  502  0.00000000000E+00  0.00000000000E+00  0.78780046880E+02  0.78780046880E+02  0.00000000000E+00 0.  1.
          2   -1    0    0  504    0 -0.00000000000E+00 -0.00000000000E+00 -0.23670506764E+04  0.23670506764E+04  0.00000000000E+00 0.  1.
         21    1    1    2  503  502 -0.51670743790E+02 -0.23711918785E+02 -0.11833006763E+02  0.58070137811E+02  0.00000000000E+00 0. -1.
         21    1    1    2  504  503 -0.21082906438E+03 -0.17670826777E+03 -0.45179380476E+03  0.52895401342E+03  0.00000000000E+00 0.  1.
         21    1    1    2  505  501  0.18232007367E+03  0.62442374345E+02 -0.11051982263E+04  0.11218746716E+04  0.00000000000E+00 0.  1.
          2    1    1    2  501    0  0.80179734505E+02  0.13797781221E+03 -0.71944559174E+03  0.73693190049E+03  0.00000000000E+00 0.  1.
<scales pt_clust_3="56.85174" pt_clust_4="313.26862" pt_clust_5="117.73958" pt_clust_6="117.73958"></scales>
<clustering>
<clus scale="   56.852">  1  3  2 -1</clus>
<clus scale="  117.740">  5  6 -1 -1</clus>
<clus scale="  313.269">  1  4  2 -1</clus>
<clus scale="   56.852">  1  3  2 -1</clus>
</clustering>
</event>
<event>
 6    0  0.4340992E+002  0.1401718E+03  0.7546771E-02  0.1213098E+00
          2   -1    0    0  505    0 -0.00000000000E+00  0.00000000000E+00  0.13186303369E+04  0.13186303369E+04  0.00000000000E+00 0.  1.
         21   -1    0    0  504  502  0.00000000000E+00 -0.00000000000E+00 -0.23293357081E+02  0.23293357081E+02  0.00000000000E+00 0.  1.
         21    1    1    2  503  501  0.43684605442E+02 -0.42598816852E+02  0.22145707138E+03  0.22970902989E+03  0.00000000000E+00 0.  1.
         21    1    1    2  504  503  0.28776860959E+02  0.19254740085E+02  0.27900445102E+02  0.44466701916E+02  0.00000000000E+00 0.  1.
         21    1    1    2  505  502 -0.10222423226E+03  0.93037463764E+02  0.64003729311E+03  0.65479271522E+03  0.00000000000E+00 0.  1.
          2    1    1    2  501    0  0.29762765864E+02 -0.69693386997E+02  0.40594217025E+03  0.41295524698E+03  0.00000000000E+00 0.  1.
<scales pt_clust_3="33.37566" pt_clust_4="34.62445" pt_clust_5="135.14671" pt_clust_6="33.37566"></scales>
<clustering>
<clus scale="   33.376">  3  6 -1 -1</clus>
<clus scale="   34.624">  2  4  1 -1</clus>
<clus scale="  135.147">  2  5  1 -1</clus>
<clus scale="   34.624">  2  3  1 -1</clus>
</clustering>
</event>
<event>
 6    0  0.4340992E+002  0.7836010E+02  0.7546771E-02  0.1333771E+00
         21   -1    0    0  505  502  0.00000000000E+00  0.00000000000E+00  0.14760278655E+03  0.14760278655E+03  0.00000000000E+00 0. -1.
         -1   -1    0    0    0  501 -0.00000000000E+00 -0.00000000000E+00 -0.42475808761E+03  0.42475808761E+03  0.00000000000E+00 0. -1.
         21    1    1    2  503  502 -0.61805294509E+02  0.49032980351E+01  0.55391610903E+02  0.83139445027E+02  0.00000000000E+00 0. -1.
         21    1    1    2  504  501 -0.62809212314E+02  0.38433213380E+02 -0.41374932270E+02  0.84462974507E+02  0.00000000000E+00 0. -1.
         21    1    1    2  505  504  0.44841710593E+02 -0.32038008274E+02  0.37301730115E+02  0.66547968058E+02  0.00000000000E+00 0. -1.
         -1    1    1    2    0  503  0.79772796230E+02 -0.11298503141E+02 -0.32847370981E+03  0.33821048657E+03  0.00000000000E+00 0. -1.
<scales pt_clust_3="34.57623" pt_clust_4="78.36010" pt_clust_5="55.11092" pt_clust_6="14000.00000"></scales>
<clustering>
<clus scale="   55.111">  1  5  2 -1</clus>
<clus scale="   34.576">  1  3  2 -1</clus>
<clus scale="   78.360">  1  4  2 -1</clus>
<clus scale="   55.111">  1  3  2 -1</clus>
</clustering>
</event>
<event>
 6    0  0.4340992E+002  0.2131184E+03  0.7546771E-02  0.1139120E+00
         21   -1    0    0  503  502  0.00000000000E+00  0.00000000000E+00  0.25051368222E+03  0.25051368222E+03  0.00000000000E+00 0. -1.
          2   -1    0    0  502    0 -0.00000000000E+00 -0.00000000000E+00 -0.10990790388E+04  0.10990790388E+04  0.00000000000E+00 0. -1.
         21    1    1    2  503  504  0.32000035852E+02  0.55349880642E+01  0.18317477662E+03  0.18603128010E+03  0.00000000000E+00 0. -1.
         21    1    1    2  504  505 -0.66018391395E+02  0.19261961185E+03 -0.14093234415E+03  0.24763414243E+03  0.00000000000E+00 0. -1.
         21    1    1    2  505  501 -0.91125647424E+01 -0.86213105246E+02 -0.26806039697E+03  0.28173057125E+03  0.00000000000E+00 0. -1.
          2    1    1    2  501    0  0.43130920286E+02 -0.11194149466E+03 -0.62274739203E+03  0.63419672720E+03  0.00000000000E+00 0. -1.
<scales pt_clust_3="32.47520" pt_clust_4="201.14091" pt_clust_5="59.43962" pt_clust_6="59.43962"></scales>
<clustering>
<clus scale="   32.475">  1  3  2 -1</clus>
<clus scale="   59.440">  5  6 -1 -1</clus>
<clus scale="  201.141">  1  4  2 -1</clus>
<clus scale="   32.475">  1  3  2 -1</clus>
</clustering>
</event>
<event>
 6    0  0.4340992E+002  0.2487327E+03  0.7546771E-02  0.1114108E+00
         21   -1    0    0  505  502  0.00000000000E+00  0.00000000000E+00  0.52422064754E+02  0.52422064754E+02  0.00000000000E+00 0.  1.
          1   -1    0    0  502    0 -0.00000000000E+00 -0.00000000000E+00 -0.15551681720E+04  0.15551681720E+04  0.00000000000E+00 0.  1.
         21    1    1    2  503  504 -0.26972695613E+01 -0.35510720000E+02 -0.75745507660E+02  0.83699871139E+02  0.00000000000E+00 0. -1.
         21    1    1    2  504  501 -0.18676254222E+02 -0.27538894064E+02 -0.16358356818E+03  0.16693345062E+03  0.00000000000E+00 0.  1.
         21    1    1    2  505  503 -0.51593745396E+02  0.20967408347E+03 -0.24978171130E+03  0.33017577007E+03  0.00000000000E+00 0.  1.
          1    1    1    2  501    0  0.72967269179E+02 -0.14662446940E+03 -0.10136353201E+04  0.10267811449E+04  0.00000000000E+00 0.  1.
<scales pt_clust_3="65.96046" pt_clust_4="32.15450" pt_clust_5="215.92854" pt_clust_6="65.96046"></scales>
<clustering>
<clus scale="   32.154">  3  4 -1 -1</clus>
<clus scale="   65.960">  3  6 -1 -1</clus>
<clus scale="  215.929">  1  5  2 -1</clus>
<clus scale="  215.929">  1  3  2 -1</clus>
</clustering>
</event>
<event>
 6    0  0.4340992E+002  0.6659711E+02  0.7546771E-02  0.1372063E+00
         21   -1    0    0  505  502  0.00000000000E+00  0.00000000000E+00  0.25692313452E+02  0.25692313452E+02  0.00000000000E+00 0.  1.
          2   -1    0    0  504    0 -0.00000000000E+00 -0.00000000000E+00 -0.18080238488E+04  0.18080238488E+04  0.00000000000E+00 0.  1.
         21    1    1    2  503  502  0.51976305195E+02  0.31681687160E+02 -0.54202401254E+02  0.81505618854E+02  0.00000000000E+00 0.  1.
         21    1    1    2  504  503 -0.52797921226E+02  0.37308497226E+02 -0.47669649018E+03  0.48106037896E+03  0.00000000000E+00 0. -1.
         21    1    1    2  505  501 -0.58034085839E+02 -0.64200313247E+02 -0.19828426348E+03  0.21634760106E+03  0.00000000000E+00 0. -1.
          2    1    1    2  501    0  0.58855701870E+02 -0.47898711400E+01 -0.10531483804E+04  0.10548025633E+04  0.00000000000E+00 0.  1.
<scales pt_clust_3="14000.00000" pt_clust_4="37.57626" pt_clust_5="66.59711" pt_clust_6="59.05029"></scales>
<clustering>
<clus scale="   59.050">  2  6  1 -1</clus>
<clus scale="   37.576">  2  4  1 -1</clus>
<clus scale="   66.597">  2  5  1 -1</clus>
<clus scale="   66.597">  1  3  2 -1</clus>
</clustering>
</event>
<event>
 6    0  0.4340992E+002  0.1855574E+03  0.7546771E-02  0.1162530E+00
         21   -1    0    0  503  502  0.00000000000E+00  0.00000000000E+00  0.30820503913E+03  0.30820503913E+03  0.00000000000E+00 0.  1.
          1   -1    0    0  505    0 -0.00000000000E+00 -0.00000000000E+00 -0.29958036479E+03  0.29958036479E+03  0.00000000000E+00 0.  1.
         21    1    1    2  503  504 -0.13634349724E+02 -0.19548099153E+03  0.16098631995E+03  0.25360463078E+03  0.00000000000E+00 0.  1.
         21    1    1    2  504  501  0.71788015362E+02  0.13261236194E+02  0.12117966569E+02  0.74001517881E+02  0.00000000000E+00 0. -1.
         21    1    1    2  505  502 -0.94428421004E+02  0.14562977820E+03 -0.14071051621E+03  0.22343725823E+03  0.00000000000E+00 0.  1.
          1    1    1    2  501    0  0.36274755366E+02  0.36589977138E+02 -0.23769095957E+02  0.56741997026E+02  0.00000000000E+00 0.  1.
<scales pt_clust_3="14000.00000" pt_clust_4="44.41779" pt_clust_5="185.55739" pt_clust_6="130.22334"></scales>
<clustering>
<clus scale="   44.418">  4  6 -1 -1</clus>
<clus scale="  130.223">  2  4  1 -1</clus>
<clus scale="  185.557">  2  5  1 -1</clus>
<clus scale="  185.557">  1  3  2 -1</clus>
</clustering>
</event>
<event>
 6    0  0.4340992E+002  0.1014567E+03  0.7546771E-02  0.1277262E+00
          1   -1    0    0  504    0 -0.00000000000E+00  0.00000000000E+00  0.14508718237E+04  0.14508718237E+04  0.00000000000E+00 0.  1.
         21   -1    0    0  503  502  0.00000000000E+00 -0.00000000000E+00 -0.92596253110E+03  0.92596253110E+03  0.00000000000E+00 0.  1.
         21    1    1    2  503  501 -0.78674791670E+01  0.64631981836E+02 -0.33626527246E+03  0.34251061847E+03  0.00000000000E+00 0.  1.
         21    1    1    2  504  505 -0.47539651606E+02 -0.88384713993E+02  0.86729140651E+03  0.87307861040E+03  0.00000000000E+00 0. -1.
         21    1    1    2  505  502 -0.23927579757E+02  0.32748440193E+02 -0.58021027213E+03  0.58162612501E+03  0.00000000000E+00 0.  1.
          1    1    1    2  501    0  0.79334710530E+02 -0.89957080362E+01  0.57409343072E+03  0.57961900094E+03  0.00000000000E+00 0.  1.
<scales pt_clust_3="14000.00000" pt_clust_4="101.45666" pt_clust_5="40.55847" pt_clust_6="79.62354"></scales>
<clustering>
<clus scale="   40.558">  2  5  1 -1</clus>
<clus scale="   79.624">  1  6  2 -1</clus>
<clus scale="  101.457">  1  4  2 -1</clus>
<clus scale="   40.558">  2  3  1 -1</clus>
</clustering>
</event>
<event>
 6    0  0.4340992E+002  0.7106506E+02  0.7546771E-02  0.1356508E+00
         21   -1    0    0  505  502  0.00000000000E+00  0.00000000000E+00  0.20854358737E+03  0.20854358737E+03  0.00000000000E+00 0. -1.
         -1   -1    0    0    0  501 -0.00000000000E+00 -0.00000000000E+00 -0.26063396482E+03  0.26063396482E+03  0.00000000000E+00 0. -1.
         21    1    1    2  503  504 -0.38633269664E+02 -0.57610561750E+02  0.41671066271E+02  0.80919615139E+02  0.00000000000E+00 0. -1.
         21    1    1    2  504  501  0.86181404779E+02 -0.40816552374E+01 -0.14022135436E+03  0.16463876414E+03  0.00000000000E+00 0. -1.
         21    1    1    2  505  503  0.99262630222E+01  0.50344796158E+02  0.11946224810E+03  0.13001676014E+03  0.00000000000E+00 0.  1.
         -1    1    1    2    0  502 -0.57474398137E+02  0.11347420830E+02 -0.73002337462E+02  0.93602412766E+02  0.00000000000E+00 0. -1.
<scales pt_clust_3="37.63510" pt_clust_4="71.06506" pt_clust_5="51.31403" pt_clust_6="14000.00000"></scales>
<clustering>
<clus scale="   51.314">  1  5  2 -1</clus>
<clus scale="   37.635">  1  3  2 -1</clus>
<clus scale="   71.065">  1  4  2 -1</clus>
<clus scale="   51.314">  1  3  2 -1</clus>
</clustering>
</event>
<event>
 6    0  0.4340992E+002  0.2013594E+03  0.7546771E-02  0.1148597E+00
          1   -1    0    0  505    0 -0.00000000000E+00  0.00000000000E+00  0.11820280922E+04  0.11820280922E+04  0.00000000000E+00 0.  1.
         21   -1    0    0  503  502  0.00000000000E+00 -0.00000000000E+00 -0.22812900448E+03  0.22812900448E+03  0.00000000000E+00 0.  1.
         21    1    1    2  503  504  0.28595633150E+02  0.99276001153E+02  0.40747899948E+02  0.11105775970E+03  0.00000000000E+00 0.  1.
         21    1    1    2  504  501 -0.46833480893E+02 -0.37958100559E+02  0.25103406601E+03  0.25817105692E+03  0.00000000000E+00 0.  1.
         21    1    1    2  505  502  0.15751690907E+03 -0.81697222441E+02 -0.14033126195E+03  0.22622748701E+03  0.00000000000E+00 0.  1.
          1    1    1    2  501    0 -0.13927906133E+03  0.20379321847E+02  0.80244838367E+03  0.81470079302E+03  0.00000000000E+00 0.  1.
<scales pt_clust_3="103.31232" pt_clust_4="51.86837" pt_clust_5="185.10469" pt_clust_6="51.86837"></scales>
<clustering>
<clus scale="   51.868">  4  6 -1 -1</clus>
<clus scale="  103.312">  2  3  1 -1</clus>
<clus scale="  185.105">  2  5  1 -1</clus>
<clus scale="  103.312">  2  3  1 -1</clus>
</clustering>
</event>
<event>
 6    0  0.4340992E+002  0.1285043E+03  0.7546771E-02  0.1229692E+00
          1   -1    0    0  504    0 -0.00000000000E+00  0.00000000000E+00  0.38483387849E+03  0.38483387849E+03  0.00000000000E+00 0.  1.
         21   -1    0    0  503  502  0.00000000000E+00 -0.00000000000E+00 -0.11906918104E+04  0.11906918104E+04  0.00000000000E+00 0.  1.
         21    1    1    2  503  501  0.26193823433E+02  0.98111862218E+02 -0.44771016816E+02  0.11097971815E+03  0.00000000000E+00 0.  1.
         21    1    1    2  504  505 -0.52628916256E+02 -0.53378873986E+02  0.17298446556E+03  0.18852780256E+03  0.00000000000E+00 0.  1.
         21    1    1    2  505  502  0.49590230926E+02 -0.12464349998E+03 -0.10905645435E+04  0.10987839718E+04  0.00000000000E+00 0.  1.
          1    1    1    2  501    0 -0.23155138102E+02  0.79910511748E+02  0.15649316292E+03  0.17723419633E+03  0.00000000000E+00 0.  1.
<scales pt_clust_3="14000.00000" pt_clust_4="74.96070" pt_clust_5="128.50428" pt_clust_6="75.47122"></scales>
<clustering>
<clus scale="   74.961">  1  4  2 -1</clus>
<clus scale="   75.471">  1  6  2 -1</clus>
<clus scale="  128.504">  2  5  1 -1</clus>
<clus scale="  128.504">  2  3  1 -1</clus>
</clustering>
</event>
<event>
 6    0  0.4340992E+002  0.2210152E+03  0.7546771E-02  0.1133128E+00
         21   -1    0    0  505  502  0.00000000000E+00  0.00000000000E+00  0.58035249108E+03  0.58035249108E+03  0.00000000000E+00 0.  1.
          2   -1    0    0  504    0 -0.00000000000E+00 -0.00000000000E+00 -0.32884454067E+03  0.32884454067E+03  0.00000000000E+00 0. -1.
         21    1    1    2  503  501 -0.47517292660E+02  0.23142732181E+02 -0.29891201228E+02  0.60720367797E+02  0.00000000000E+00 0.  1.
         21    1    1    2  504  502  0.22985994251E+03 -0.94491126359E+02  0.46755412186E+03  0.52950072993E+03  0.00000000000E+00 0.  1.
         21    1    1    2  505  503 -0.37742086543E+02  0.61706828251E+01  0.31578926125E+02  0.49596078457E+02  0.00000000000E+00 0. -1.
          2    1    1    2  501    0 -0.14460056331E+03  0.65177711354E+02 -0.21773389635E+03  0.26937985556E+03  0.00000000000E+00 0. -1.
<scales pt_clust_3="31.29033" pt_clust_4="214.26505" pt_clust_5="38.24320" pt_clust_6="31.29033"></scales>
<clustering>
<clus scale="   31.290">  3  6 -1 -1</clus>
<clus scale="   38.243">  1  5  2 -1</clus>
<clus scale="  214.265">  1  4  2 -1</clus>
<clus scale="   38.243">  1  3  2 -1</clus>
</clustering>
</event>
<event>
 6    0  0.4340992E+002  0.6993157E+02  0.7546771E-02  0.1360326E+00
         21   -1    0    0  503  502  0.00000000000E+00  0.00000000000E+00  0.15822848958E+03  0.15822848958E+03  0.00000000000E+00 0. -1.
          2   -1    0    0  505    0 -0.00000000000E+00 -0.00000000000E+00 -0.18288624686E+04  0.18288624686E+04  0.00000000000E+00 0.  1.
         21    1    1    2  503  501 -0.18455796797E+02 -0.35552342657E+02  0.26351512305E+02  0.47947760162E+02  0.00000000000E+00 0. -1.
         21    1    1    2  504  502  0.34730374589E+02  0.10282810205E+03  0.93156530914E+02  0.14303131385E+03  0.00000000000E+00 0. -1.
         21    1    1    2  505  504 -0.59380036768E+02  0.10848600488E+01 -0.51536826510E+03  0.51877896484E+03  0.00000000000E+00 0.  1.
          2    1    1    2  501    0  0.43105458975E+02 -0.68360619446E+02 -0.12747737571E+04  0.12773329193E+04  0.00000000000E+00 0.  1.
<scales pt_clust_3="40.05728" pt_clust_4="14000.00000" pt_clust_5="59.64284" pt_clust_6="69.93157"></scales>
<clustering>
<clus scale="   40.057">  1  3  2 -1</clus>
<clus scale="   59.643">  2  5  1 -1</clus>
<clus scale="   69.932">  2  6  1 -1</clus>
<clus scale="   40.057">  1  3  2 -1</clus>
</clustering>
</event>
<event>
 6    0  0.4340992E+002  0.2580258E+03  0.7546771E-02  0.1108335E+00
         21   -1    0    0  505  502  0.00000000000E+00  0.00000000000E+00  0.49411363888E+03  0.49411363888E+03  0.00000000000E+00 0. -1.
          2   -1    0    0  504    0 -0.00000000000E+00 -0.00000000000E+00 -0.33466551872E+04  0.33466551872E+04  0.00000000000E+00 0.  1.
         21    1    1    2  503  501  0.96426052639E+02  0.11005094362E+03 -0.84389374284E+03  0.85648458423E+03  0.00000000000E+00 0.  1.
         21    1    1    2  504  502 -0.22843831274E+03 -0.33317190234E+03  0.35036047908E+03  0.53473362017E+03  0.00000000000E+00 0. -1.
         21    1    1    2  505  503  0.12023986094E+03  0.77181732277E+02 -0.75967735438E+02  0.16182008770E+03  0.00000000000E+00 0. -1.
          2    1    1    2  501    0  0.11772399164E+02  0.14593922645E+03 -0.22830405491E+04  0.22877305340E+04  0.00000000000E+00 0.  1.
<scales pt_clust_3="258.02582" pt_clust_4="14000.00000" pt_clust_5="142.87982" pt_clust_6="146.86455"></scales>
<clustering>
<clus scale="  142.880">  1  5  2 -1</clus>
<clus scale="  146.865">  2  6  1 -1</clus>
<clus scale="  258.026">  2  3  1 -1</clus>
<clus scale="  142.880">  1  3  2 -1</clus>
</clustering>
</event>
<event>
 6    0  0.4340992E+002  0.8083374E+02  0.7546771E-02  0.1326702E+00
          2   -1    0    0  503    0 -0.00000000000E+00  0.00000000000E+00  0.21337141620E+04  0.21337141620E+04  0.00000000000E+00 0. -1.
         21   -1    0    0  505  502  0.00000000000E+00 -0.00000000000E+00 -0.24108293895E+03  0.24108293895E+03  0.00000000000E+00 0.  1.
         21    1    1    2  503  504 -0.27155191631E+02  0.61874092201E+02  0.42706978977E+03  0.43238225340E+03  0.00000000000E+00 0. -1.
         21    1    1    2  504  502 -0.28557810227E+02  0.20592204060E+02 -0.18917711448E+03  0.19242548697E+03  0.00000000000E+00 0.  1.
         21    1    1    2  505  501 -0.52785580313E+02 -0.30527656991E+01 -0.29396061945E+02  0.60495994291E+02  0.00000000000E+00 0.  1.
          2    1    1    2  501    0  0.10849858217E+03 -0.79413530562E+02  0.16841346097E+04  0.16894933663E+04  0.00000000000E+00 0. -1.
<scales pt_clust_3="69.17960" pt_clust_4="35.20777" pt_clust_5="80.83374" pt_clust_6="14000.00000"></scales>
<clustering>
<clus scale="   35.208">  2  4  1 -1</clus>
<clus scale="   69.180">  1  3  2 -1</clus>
<clus scale="   80.834">  2  5  1 -1</clus>
<clus scale="   35.208">  2  3  1 -1</clus>
</clustering>
</event>
<event>
 6    0  0.4340992E+002  0.9343953E+02  0.7546771E-02  0.1294730E+00
         21   -1    0    0  503  502  0.00000000000E+00  0.00000000000E+00  0.33996155602E+02  0.33996155602E+02  0.00000000000E+00 0.  1.
         -1   -1    0    0    0  501 -0.00000000000E+00 -0.00000000000E+00 -0.85819168358E+03  0.85819168358E+03  0.00000000000E+00 0.  1.
         21    1    1    2  503  501  0.40321499525E+02 -0.16007254975E+02 -0.83733807833E+02  0.94304857298E+02  0.00000000000E+00 0.  1.
         21    1    1    2  504  505 -0.58917736829E+02 -0.44371312688E+02 -0.67240913984E+02  0.99807081994E+02  0.00000000000E+00 0.  1.
         21    1    1    2  505  502 -0.67360125175E+02  0.11072067357E+02 -0.14036553674E+03  0.15608478800E+03  0.00000000000E+00 0. -1.
         -1    1    1    2    0  504  0.85956362479E+02  0.49306500306E+02 -0.53285526942E+03  0.54199111189E+03  0.00000000000E+00 0.  1.
<scales pt_clust_3="43.38266" pt_clust_4="93.43953" pt_clust_5="56.71792" pt_clust_6="14000.00000"></scales>
<clustering>
<clus scale="   43.383">  1  3  2 -1</clus>
<clus scale="   56.718">  1  5  2 -1</clus>
<clus scale="   93.440">  1  4  2 -1</clus>
<clus scale="   43.383">  1  3  2 -1</clus>
</clustering>
</event>
<event>
 6    0  0.4340992E+002  0.1654678E+03  0.7546771E-02  0.1182658E+00
          1   -1    0    0  504    0 -0.00000000000E+00  0.00000000000E+00  0.65871647499E+03  0.65871647499E+03  0.00000000000E+00 0.  1.
         21   -1    0    0  505  502  0.00000000000E+00 -0.00000000000E+00 -0.13898600319E+04  0.13898600319E+04  0.00000000000E+00 0.  1.
         21    1    1    2  503  502  0.17809894344E+03 -0.59999900822E+02  0.72794273238E+01  0.18807501646E+03  0.00000000000E+00 0.  1.
         21    1    1    2  504  503  0.20620478330E+01 -0.41087889739E+02  0.10276361761E+03  0.11069249220E+03  0.00000000000E+00 0.  1.
         21    1    1    2  505  501 -0.24752780614E+02  0.20723405941E+02 -0.12784422181E+04  0.12788497428E+04  0.00000000000E+00 0.  1.
          1    1    1    2  501    0 -0.15540821066E+03  0.80364384620E+02  0.43725561629E+03  0.47095925538E+03  0.00000000000E+00 0.  1.
<scales pt_clust_3="14000.00000" pt_clust_4="40.36641" pt_clust_5="32.28250" pt_clust_6="165.46780"></scales>
<clustering>
<clus scale="   32.282">  2  5  1 -1</clus>
<clus scale="   40.366">  1  4  2 -1</clus>
<clus scale="  165.468">  1  6  2 -1</clus>
<clus scale="   32.282">  2  3  1 -1</clus>
</clustering>
</event>
<event>
 6    0  0.4340992E+002  0.1696910E+03  0.7546771E-02  0.1178170E+00
         21   -1    0    0  501  502  0.00000000000E+00  0.00000000000E+00  0.68954869973E+03  0.68954869973E+03  0.00000000000E+00 0. -1.
          2   -1    0    0  504    0 -0.00000000000E+00 -0.00000000000E+00 -0.61161716190E+03  0.61161716190E+03  0.00000000000E+00 0. -1.
         21    1    1    2  503  505  0.55490256828E+02  0.22538817647E+03 -0.11671163021E+03  0.25980878222E+03  0.00000000000E+00 0. -1.
         21    1    1    2  504  503  0.64499163027E+02 -0.12366586540E+03 -0.23093371256E+03  0.26978466949E+03  0.00000000000E+00 0. -1.
         21    1    1    2  505  502  0.14267932473E+02 -0.40449506346E+02  0.56614160402E+03  0.56776408152E+03  0.00000000000E+00 0. -1.
          2    1    1    2  501    0 -0.13425735233E+03 -0.61272804718E+02 -0.14056472342E+03  0.20380832839E+03  0.00000000000E+00 0. -1.
<scales pt_clust_3="169.69102" pt_clust_4="146.20681" pt_clust_5="42.89215" pt_clust_6="14000.00000"></scales>
<clustering>
<clus scale="   42.892">  1  5  2 -1</clus>
<clus scale="  146.207">  2  4  1 -1</clus>
<clus scale="  169.691">  1  3  2 -1</clus>
<clus scale="   42.892">  1  3  2 -1</clus>
</clustering>
</event>
<event>
 6    0  0.4340992E+002  0.1921789E+03  0.7546771E-02  0.1156511E+00
          2   -1    0    0  503    0 -0.00000000000E+00  0.00000000000E+00  0.15266435424E+04  0.15266435424E+04  0.00000000000E+00 0. -1.
         21   -1    0    0  504  502  0.00000000000E+00 -0.00000000000E+00 -0.91776481765E+02  0.91776481765E+02  0.00000000000E+00 0. -1.
         21    1    1    2  503  502  0.12758980972E+03  0.81610583472E+02  0.94716764667E+02  0.17863569740E+03  0.00000000000E+00 0. -1.
         21    1    1    2  504  505  0.52558982619E+02 -0.36502888671E+02 -0.18656559458E+02  0.66655643018E+02  0.00000000000E+00 0. -1.
         21    1    1    2  505  501 -0.41712971142E+02 -0.13337560380E+02  0.15820419809E+03  0.16415368035E+03  0.00000000000E+00 0.  1.
          2    1    1    2  501    0 -0.13843582119E+03 -0.31770134421E+02  0.12006026574E+04  0.12089750034E+04  0.00000000000E+00 0. -1.
<scales pt_clust_3="179.70734" pt_clust_4="63.99146" pt_clust_5="37.81583" pt_clust_6="37.81583"></scales>
<clustering>
<clus scale="   37.816">  5  6 -1 -1</clus>
<clus scale="   63.991">  2  4  1 -1</clus>
<clus scale="  179.707">  2  3  1 -1</clus>
<clus scale="   63.991">  2  3  1 -1</clus>
</clustering>
</event>
<event>
 6    0  0.4340992E+002  0.9050442E+02  0.7546771E-02  0.1301635E+00
         21   -1    0    0  505  502  0.00000000000E+00  0.00000000000E+00  0.34635417534E+03  0.34635417534E+03  0.00000000000E+00 0. -1.
          2   -1    0    0  503    0 -0.00000000000E+00 -0.00000000000E+00 -0.13709380553E+04  0.13709380553E+04  0.00000000000E+00 0. -1.
         21    1    1    2  503  504  0.31155448673E+02  0.40089808882E+01 -0.33984686589E+03  0.34129551149E+03  0.00000000000E+00 0.  1.
         21    1    1    2  504  502 -0.40310892545E+02 -0.60738865385E+02  0.32238902620E+03  0.33052815620E+03  0.00000000000E+00 0. -1.
         21    1    1    2  505  501  0.45225542197E+02 -0.30030085506E+02 -0.26605897605E+02  0.60456839894E+02  0.00000000000E+00 0. -1.
          2    1    1    2  501    0 -0.36070098326E+02  0.86759970004E+02 -0.98052014266E+03  0.98501172305E+03  0.00000000000E+00 0. -1.
<scales pt_clust_3="31.41232" pt_clust_4="14000.00000" pt_clust_5="55.29740" pt_clust_6="90.50442"></scales>
<clustering>
<clus scale="   31.412">  2  3  1 -1</clus>
<clus scale="   55.297">  1  5  2 -1</clus>
<clus scale="   90.504">  2  6  1 -1</clus>
<clus scale="   55.297">  1  3  2 -1</clus>
</clustering>
</event>
<event>
 6    0  0.4340992E+002  0.9986330E+02  0.7546771E-02  0.1280584E+00
         21   -1    0    0  505  502  0.00000000000E+00  0.00000000000E+00  0.13061920385E+03  0.13061920385E+03  0.00000000000E+00 0. -1.
          1   -1    0    0  503    0 -0.00000000000E+00 -0.00000000000E+00 -0.15543118405E+04  0.15543118405E+04  0.00000000000E+00 0. -1.
         21    1    1    2  503  504  0.73036657267E+02  0.40257748835E+01 -0.24812253899E+03  0.25868002344E+03  0.00000000000E+00 0. -1.
         21    1    1    2  504  502  0.88510804911E+01 -0.30324325523E+02  0.92924533921E+02  0.98147212639E+02  0.00000000000E+00 0. -1.
         21    1    1    2  505  501  0.30339342800E+02  0.18081772644E+02  0.15940066075E+02  0.38749347478E+02  0.00000000000E+00 0. -1.
          1    1    1    2  501    0 -0.11222708056E+03  0.82167779952E+01 -0.12844346977E+04  0.12893544608E+04  0.00000000000E+00 0. -1.
<scales pt_clust_3="14000.00000" pt_clust_4="31.58966" pt_clust_5="37.64992" pt_clust_6="99.86330"></scales>
<clustering>
<clus scale="   31.590">  1  4  2 -1</clus>
<clus scale="   37.650">  1  5  2 -1</clus>
<clus scale="   99.863">  2  6  1 -1</clus>
<clus scale="   31.590">  1  3  2 -1</clus>
</clustering>
</event>
<event>
 6    0  0.4340992E+002  0.1596840E+03  0.7546771E-02  0.1189054E+00
          2   -1    0    0  505    0 -0.00000000000E+00  0.00000000000E+00  0.12191185084E+04  0.12191185084E+04  0.00000000000E+00 0. -1.
         21   -1    0    0  504  502  0.00000000000E+00 -0.00000000000E+00 -0.77762454820E+02  0.77762454820E+02  0.00000000000E+00 0.  1.
         21    1    1    2  503  502 -0.49127824568E+02  0.12230536097E+03  0.53515320485E+02  0.14225341470E+03  0.00000000000E+00 0.  1.
         21    1    1    2  504  501 -0.57909724557E+01 -0.46000318775E+02  0.19543971207E+03  0.20086374920E+03  0.00000000000E+00 0.  1.
         21    1    1    2  505  503  0.15199182810E+03  0.37035468246E+00  0.20432914102E+03  0.25466065821E+03  0.00000000000E+00 0.  1.
          2    1    1    2  501    0 -0.97073031072E+02 -0.76675396874E+02  0.68807187998E+03  0.69910314108E+03  0.00000000000E+00 0. -1.
<scales pt_clust_3="131.80343" pt_clust_4="37.32626" pt_clust_5="147.58608" pt_clust_6="37.32626"></scales>
<clustering>
<clus scale="   37.326">  4  6 -1 -1</clus>
<clus scale="  131.803">  2  3  1 -1</clus>
<clus scale="  147.586">  2  5  1 -1</clus>
<clus scale="  131.803">  2  3  1 -1</clus>
</clustering>
</event>
<event>
 6    0  0.4340992E+002  0.2764696E+03  0.7546771E-02  0.1097633E+00
          2   -1    0    0  503    0 -0.00000000000E+00  0.00000000000E+00  0.37684871262E+04  0.37684871262E+04  0.00000000000E+00 0.  1.
         21   -1    0    0  504  502  0.00000000000E+00 -0.00000000000E+00 -0.22386816448E+03  0.22386816448E+03  0.00000000000E+00 0.  1.
         21    1    1    2  503  505  0.18423636772E+03 -0.12731838980E+03  0.65887639524E+03  0.69589590872E+03  0.00000000000E+00 0. -1.
         21    1    1    2  504  501  0.20413190861E+03  0.14464651327E+03 -0.15964405948E+02  0.25069366201E+03  0.00000000000E+00 0.  1.
         21    1    1    2  505  502 -0.72085320280E+02 -0.34784987864E+01 -0.43053926832E+02  0.84035908808E+02  0.00000000000E+00 0.  1.
          2    1    1    2  501    0 -0.31628295605E+03 -0.13849624675E+02  0.29447608993E+04  0.29617298112E+04  0.00000000000E+00 0.  1.
<scales pt_clust_3="14000.00000" pt_clust_4="202.19569" pt_clust_5="72.16920" pt_clust_6="276.46965"></scales>
<clustering>
<clus scale="   72.169">  2  5  1 -1</clus>
<clus scale="  202.196">  2  4  1 -1</clus>
<clus scale="  276.470">  1  6  2 -1</clus>
<clus scale="   72.169">  2  3  1 -1</clus>
</clustering>
</event>
<event>
 6    0  0.4340992E+002  0.1440862E+03  0.7546771E-02  0.1207934E+00
          4   -1    0    0  505    0 -0.00000000000E+00  0.00000000000E+00  0.11016139584E+03  0.11016139584E+03  0.00000000000E+00 0. -1.
         21   -1    0    0  504  502  0.00000000000E+00 -0.00000000000E+00 -0.58301218460E+03  0.58301218460E+03  0.00000000000E+00 0.  1.
         21    1    1    2  503  501 -0.41838951823E+02  0.11217711034E+03 -0.31004297529E+02  0.12367484966E+03  0.00000000000E+00 0.  1.
         21    1    1    2  504  503  0.45164306428E+02  0.10227612943E+02 -0.77773578646E+02  0.90516010612E+02  0.00000000000E+00 0.  1.
         21    1    1    2  505  502 -0.13875641255E+01 -0.15899947268E+03 -0.39828333537E+03  0.42885005874E+03  0.00000000000E+00 0.  1.
          4    1    1    2  501    0 -0.19377904801E+01  0.36594749392E+02  0.34210422782E+02  0.50132661429E+02  0.00000000000E+00 0. -1.
<scales pt_clust_3="144.08624" pt_clust_4="47.01015" pt_clust_5="14000.00000" pt_clust_6="36.64602"></scales>
<clustering>
<clus scale="   36.646">  1  6  2 -1</clus>
<clus scale="   47.010">  2  4  1 -1</clus>
<clus scale="  144.086">  1  3  2 -1</clus>
<clus scale="   47.010">  2  3  1 -1</clus>
</clustering>
</event>
<event>
 6    0  0.4340992E+002  0.1094280E+03  0.7546771E-02  0.1261633E+00
         21   -1    0    0  501  502  0.00000000000E+00  0.00000000000E+00  0.35499644816E+03  0.35499644816E+03  0.00000000000E+00 0. -1.
          2   -1    0    0  504    0 -0.00000000000E+00 -0.00000000000E+00 -0.73395225716E+03  0.73395225716E+03  0.00000000000E+00 0. -1.
         21    1    1    2  503  502  0.10477454603E+03 -0.34814192978E+02  0.32287076425E+03  0.34122611848E+03  0.00000000000E+00 0. -1.
         21    1    1    2  504  505 -0.20971456949E+02 -0.33501536989E+02 -0.28170849921E+03  0.28446763175E+03  0.00000000000E+00 0. -1.
         21    1    1    2  505  503 -0.19095760860E+02  0.51759059012E+02 -0.21710419107E+02  0.59287355907E+02  0.00000000000E+00 0.  1.
          2    1    1    2  501    0 -0.64707328223E+02  0.16556670955E+02 -0.39840765492E+03  0.40396759917E+03  0.00000000000E+00 0. -1.
<scales pt_clust_3="109.42805" pt_clust_4="39.52411" pt_clust_5="53.07242" pt_clust_6="14000.00000"></scales>
<clustering>
<clus scale="   39.524">  2  4  1 -1</clus>
<clus scale="   53.072">  2  5  1 -1</clus>
<clus scale="  109.428">  1  3  2 -1</clus>
<clus scale="  109.428">  1  3  2 -1</clus>
</clustering>
</event>
<event>
 6    0  0.4340992E+002  0.7762991E+02  0.7546771E-02  0.1335915E+00
         21   -1    0    0  501  502  0.00000000000E+00  0.00000000000E+00  0.11802987973E+03  0.11802987973E+03  0.00000000000E+00 0. -1.
          2   -1    0    0  503    0 -0.00000000000E+00 -0.00000000000E+00 -0.57482785207E+03  0.57482785207E+03  0.00000000000E+00 0.  1.
         21    1    1    2  503  504  0.30159807570E+02 -0.13292310359E+02 -0.96818572367E+02  0.10227480365E+03  0.00000000000E+00 0. -1.
         21    1    1    2  504  505 -0.64666471037E+02 -0.39178142656E+02  0.11167472178E+01  0.75616972055E+02  0.00000000000E+00 0. -1.
         21    1    1    2  505  502  0.86415843242E+02 -0.16435342275E+02  0.45696446687E+02  0.99126099886E+02  0.00000000000E+00 0. -1.
          2    1    1    2  501    0 -0.51909179774E+02  0.68905795291E+02 -0.40679259388E+03  0.41583985620E+03  0.00000000000E+00 0.  1.
<scales pt_clust_3="32.95906" pt_clust_4="77.62991" pt_clust_5="14000.00000" pt_clust_6="62.93734"></scales>
<clustering>
<clus scale="   32.959">  2  3  1 -1</clus>
<clus scale="   62.937">  2  6  1 -1</clus>
<clus scale="   77.630">  2  4  1 -1</clus>
<clus scale="   77.630">  1  3  2 -1</clus>
</clustering>
</event>
<event>
 6    0  0.4340992E+002  0.1580681E+03  0.7546771E-02  0.1190895E+00
          1   -1    0    0  504    0 -0.00000000000E+00  0.00000000000E+00  0.21360078870E+04  0.21360078870E+04  0.00000000000E+00 0.  1.
         21   -1    0    0  503  502  0.00000000000E+00 -0.00000000000E+00 -0.93529303030E+02  0.93529303030E+02  0.00000000000E+00 0.  1.
         21    1    1    2  503  501 -0.46449117110E+02 -0.75059535913E+01 -0.63913932213E+02  0.79365298151E+02  0.00000000000E+00 0.  1.
         21    1    1    2  504  505  0.14146317308E+03  0.61438918550E+02  0.11772061709E+04  0.11872661618E+04  0.00000000000E+00 0.  1.
         21    1    1    2  505  502  0.57370509443E+02  0.70580473609E+01  0.84238835655E+02  0.10216346127E+03  0.00000000000E+00 0.  1.
          1    1    1    2  501    0 -0.15238456541E+03 -0.60991012320E+02  0.84494750957E+03  0.86074226880E+03  0.00000000000E+00 0.  1.
<scales pt_clust_3="47.05167" pt_clust_4="14000.00000" pt_clust_5="38.55927" pt_clust_6="158.06812"></scales>
<clustering>
<clus scale="   47.052">  2  3  1 -1</clus>
<clus scale="   38.559">  2  5  1 -1</clus>
<clus scale="  158.068">  2  6  1 -1</clus>
<clus scale="   47.052">  2  3  1 -1</clus>
</clustering>
</event>
<event>
 6    0  0.4340992E+002  0.1389853E+03  0.7546771E-02  0.1214701E+00
         21   -1    0    0  501  502  0.00000000000E+00  0.00000000000E+00  0.25344516458E+03  0.25344516458E+03  0.00000000000E+00 0.  1.
          2   -1    0    0  505    0 -0.00000000000E+00 -0.00000000000E+00 -0.18686942405E+04  0.18686942405E+04  0.00000000000E+00 0.  1.
         21    1    1    2  503  502 -0.51946706769E+02  0.69416650207E+02  0.21639130618E+03  0.23311441195E+03  0.00000000000E+00 0.  1.
         21    1    1    2  504  503 -0.96639941393E+02 -0.13967895194E+02 -0.82302452731E+02  0.12770307003E+03  0.00000000000E+00 0. -1.
         21    1    1    2  505  504  0.13092097235E+02 -0.67028318956E+02 -0.51243661367E+03  0.51696758272E+03  0.00000000000E+00 0.  1.
          2    1    1    2  501    0  0.13549455093E+03  0.11579563944E+02 -0.12369013157E+04  0.12443543404E+04  0.00000000000E+00 0.  1.
<scales pt_clust_3="86.32174" pt_clust_4="14000.00000" pt_clust_5="68.29494" pt_clust_6="138.98532"></scales>
<clustering>
<clus scale="   68.295">  2  5  1 -1</clus>
<clus scale="   86.322">  1  3  2 -1</clus>
<clus scale="  138.985">  2  6  1 -1</clus>
<clus scale="   86.322">  1  3  2 -1</clus>
</clustering>
</event>
<event>
 6    0  0.4340992E+002  0.8825606E+02  0.7546771E-02  0.1307131E+00
         21   -1    0    0  503  502  0.00000000000E+00  0.00000000000E+00  0.81519232128E+03  0.81519232128E+03  0.00000000000E+00 0.  1.
          1   -1    0    0  504    0 -0.00000000000E+00 -0.00000000000E+00 -0.79977873144E+03  0.79977873144E+03  0.00000000000E+00 0. -1.
         21    1    1    2  503  501  0.76880549754E+02  0.11146721274E+03  0.70388761956E+03  0.71679379142E+03  0.00000000000E+00 0.  1.
         21    1    1    2  504  505 -0.29316362411E+02 -0.55995169995E+02  0.76164074419E+02  0.98974109745E+02  0.00000000000E+00 0.  1.
         21    1    1    2  505  502 -0.30290072324E+01 -0.30158109442E+02  0.24479336080E+01  0.30408532173E+02  0.00000000000E+00 0. -1.
          1    1    1    2  501    0 -0.44535180110E+02 -0.25313933301E+02 -0.76708603775E+03  0.76879461938E+03  0.00000000000E+00 0. -1.
<scales pt_clust_3="14000.00000" pt_clust_4="88.25606" pt_clust_5="30.30984" pt_clust_6="51.24549"></scales>
<clustering>
<clus scale="   30.310">  1  5  2 -1</clus>
<clus scale="   51.245">  2  6  1 -1</clus>
<clus scale="   88.256">  2  4  1 -1</clus>
<clus scale="   30.310">  1  3  2 -1</clus>
</clustering>
</event>
<event>
 6    0  0.4340992E+002  0.1263192E+03  0.7546771E-02  0.1233022E+00
          2   -1    0    0  503    0 -0.00000000000E+00  0.00000000000E+00  0.33103843638E+04  0.33103843638E+04  0.00000000000E+00 0. -1.
         21   -1    0    0  505  502  0.00000000000E+00 -0.00000000000E+00 -0.10535426412E+03  0.10535426412E+03  0.00000000000E+00 0.  1.
         21    1    1    2  503  504 -0.12591653057E+03  0.18667290943E+02  0.37750130226E+03  0.39838508209E+03  0.00000000000E+00 0.  1.
         21    1    1    2  504  502  0.32114587349E+02  0.37713440391E+02 -0.43921803982E+01  0.49728679405E+02  0.00000000000E+00 0.  1.
         21    1    1    2  505  501 -0.32183352439E+02 -0.69401560593E+02 -0.44443250499E+02  0.88473427095E+02  0.00000000000E+00 0.  1.
          2    1    1    2  501    0  0.12598529566E+03  0.13020829259E+02  0.28763642283E+04  0.28791514393E+04  0.00000000000E+00 0. -1.
<scales pt_clust_3="14000.00000" pt_clust_4="49.53433" pt_clust_5="37.71194" pt_clust_6="126.31924"></scales>
<clustering>
<clus scale="   49.534">  2  4  1 -1</clus>
<clus scale="   37.712">  2  5  1 -1</clus>
<clus scale="  126.319">  1  6  2 -1</clus>
<clus scale="   49.534">  2  3  1 -1</clus>
</clustering>
</event>
<event>
 6    0  0.4340992E+002  0.1533955E+03  0.7546771E-02  0.1196362E+00
         21   -1    0    0  503  502  0.00000000000E+00  0.00000000000E+00  0.58975317979E+03  0.58975317979E+03  0.00000000000E+00 0.  1.
          1   -1    0    0  505    0 -0.00000000000E+00 -0.00000000000E+00 -0.27332342536E+04  0.27332342536E+04  0.00000000000E+00 0. -1.
         21    1    1    2  503  501  0.19331536537E+02 -0.11874391649E+03 -0.20181551764E+03  0.23495388732E+03  0.00000000000E+00 0.  1.
         21    1    1    2  504  502 -0.53623182282E+02 -0.20767608994E+02  0.55527253222E+03  0.55824217352E+03  0.00000000000E+00 0.  1.
         21    1    1    2  505  504  0.17560106042E+03  0.71854275859E+02 -0.67587477175E+03  0.70200105161E+03  0.00000000000E+00 0.  1.
          1    1    1    2  501    0 -0.14130941468E+03  0.67657249625E+02 -0.18210633166E+04  0.18277903209E+04  0.00000000000E+00 0. -1.
<scales pt_clust_3="129.39572" pt_clust_4="57.50425" pt_clust_5="153.39548" pt_clust_6="14000.00000"></scales>
<clustering>
<clus scale="   57.504">  1  4  2 -1</clus>
<clus scale="  129.396">  1  3  2 -1</clus>
<clus scale="  153.395">  1  5  2 -1</clus>
<clus scale="   57.504">  1  3  2 -1</clus>
</clustering>
</event>
<event>
 6    0  0.4340992E+002  0.7525990E+02  0.7546771E-02  0.1343068E+00
         21   -1    0    0  501  502  0.00000000000E+00  0.00000000000E+00  0.40004052422E+03  0.40004052422E+03  0.00000000000E+00 0.  1.
          1   -1    0    0  504    0 -0.00000000000E+00 -0.00000000000E+00 -0.70072918753E+03  0.70072918753E+03  0.00000000000E+00 0. -1.
         21    1    1    2  503  505  0.24987860081E+02  0.49421443001E+02  0.48762608177E+02  0.73787967420E+02  0.00000000000E+00 0.  1.
         21    1    1    2  504  503  0.83270242403E+02 -0.34545651235E+02 -0.13889395380E+03  0.16558642967E+03  0.00000000000E+00 0. -1.
         21    1    1    2  505  502 -0.41452624054E+02  0.27084939985E+02  0.32060503074E+03  0.32440638056E+03  0.00000000000E+00 0.  1.
          1    1    1    2  501    0 -0.66805478430E+02 -0.41960731751E+02 -0.53116234842E+03  0.53698893410E+03  0.00000000000E+00 0. -1.
<scales pt_clust_3="71.25164" pt_clust_4="14000.00000" pt_clust_5="49.51681" pt_clust_6="75.25990"></scales>
<clustering>
<clus scale="   49.517">  1  5  2 -1</clus>
<clus scale="   71.252">  1  3  2 -1</clus>
<clus scale="   75.260">  2  6  1 -1</clus>
<clus scale="   49.517">  1  3  2 -1</clus>
</clustering>
</event>
<event>
 6    0  0.4340992E+002  0.1143261E+03  0.7546771E-02  0.1252762E+00
         21   -1    0    0  505  502  0.00000000000E+00  0.00000000000E+00  0.62029810462E+02  0.62029810462E+02  0.00000000000E+00 0. -1.
          1   -1    0    0  504    0 -0.00000000000E+00 -0.00000000000E+00 -0.44404660644E+04  0.44404660644E+04  0.00000000000E+00 0. -1.
         21    1    1    2  503  501 -0.39187504384E+02  0.35562267314E+02 -0.13157648927E+04  0.13168286100E+04  0.00000000000E+00 0. -1.
         21    1    1    2  504  502 -0.30386702412E+02  0.52891416370E+02  0.16225031945E+01  0.61020374677E+02  0.00000000000E+00 0. -1.
         21    1    1    2  505  503  0.11916733096E+03 -0.10229853452E+03 -0.17596500137E+03  0.23585912032E+03  0.00000000000E+00 0. -1.
          1    1    1    2  501    0 -0.49593124164E+02  0.13844850837E+02 -0.28883288631E+04  0.28887877698E+04  0.00000000000E+00 0. -1.
<scales pt_clust_3="49.14017" pt_clust_4="60.99880" pt_clust_5="102.90134" pt_clust_6="49.14017"></scales>
<clustering>
<clus scale="   49.140">  3  6 -1 -1</clus>
<clus scale="   60.999">  1  4  2 -1</clus>
<clus scale="  102.901">  1  5  2 -1</clus>
<clus scale="   60.999">  1  3  2 -1</clus>
</clustering>
</event>
<event>
 6    0  0.4340992E+002  0.8647958E+02  0.7546771E-02  0.1311608E+00
         21   -1    0    0  504  502  0.00000000000E+00  0.00000000000E+00  0.12668858580E+03  0.12668858580E+03  0.00000000000E+00 0. -1.
          2   -1    0    0  503    0 -0.00000000000E+00 -0.00000000000E+00 -0.49012796957E+03  0.49012796957E+03  0.00000000000E+00 0. -1.
         21    1    1    2  503  505  0.30569376088E+02  0.89096293361E+01 -0.32618301265E+02  0.45583130945E+02  0.00000000000E+00 0.  1.
         21    1    1    2  504  501 -0.80778927874E+02 -0.40731575932E+02 -0.57810313286E+02  0.10736074138E+03  0.00000000000E+00 0. -1.
         21    1    1    2  505  502  0.40136411294E+02 -0.49430031968E+02  0.79570350920E+02  0.10191025619E+03  0.00000000000E+00 0. -1.
          2    1    1    2  501    0  0.10073140492E+02  0.81251978565E+02 -0.35258112014E+03  0.36196242686E+03  0.00000000000E+00 0. -1.
<scales pt_clust_3="31.84130" pt_clust_4="14000.00000" pt_clust_5="63.98312" pt_clust_6="86.47958"></scales>
<clustering>
<clus scale="   31.841">  2  3  1 -1</clus>
<clus scale="   63.983">  1  5  2 -1</clus>
<clus scale="   86.480">  2  6  1 -1</clus>
<clus scale="   63.983">  1  3  2 -1</clus>
</clustering>
</event>
<event>
 6    0  0.4340992E+002  0.1334729E+03  0.7546771E-02  0.1222392E+00
          1   -1    0    0  503    0 -0.00000000000E+00  0.00000000000E+00  0.46820294743E+03  0.46820294743E+03  0.00000000000E+00 0.  1.
         21   -1    0    0  505  502  0.00000000000E+00 -0.00000000000E+00 -0.22993449633E+03  0.22993449633E+03  0.00000000000E+00 0.  1.
         21    1    1    2  503  502 -0.44015750293E+02  0.12568713002E+02  0.10819811948E+03  0.11748273013E+03  0.00000000000E+00 0.  1.
         21    1    1    2  504  501  0.58558893859E+02  0.14088324432E+03 -0.16389036840E+03  0.22391356688E+03  0.00000000000E+00 0.  1.
         21    1    1    2  505  504 -0.27584171427E+02 -0.13145734399E+02 -0.21620353287E+00  0.30557218299E+02  0.00000000000E+00 0.  1.
          1    1    1    2  501    0  0.13041027861E+02 -0.14030622293E+03  0.29417690355E+03  0.32618392845E+03  0.00000000000E+00 0.  1.
<scales pt_clust_3="46.27297" pt_clust_4="133.47286" pt_clust_5="30.55645" pt_clust_6="14000.00000"></scales>
<clustering>
<clus scale="   30.556">  2  5  1 -1</clus>
<clus scale="   46.273">  1  3  2 -1</clus>
<clus scale="  133.473">  2  4  1 -1</clus>
<clus scale="   30.556">  2  3  1 -1</clus>
</clustering>
</event>
<event>
 6    0  0.4340992E+002  0.1183329E+03  0.7546771E-02  0.1245873E+00
         21   -1    0    0  505  502  0.00000000000E+00  0.00000000000E+00  0.19124605380E+04  0.19124605380E+04  0.00000000000E+00 0. -1.
          1   -1    0    0  503    0 -0.00000000000E+00 -0.00000000000E+00 -0.30975578427E+03  0.30975578427E+03  0.00000000000E+00 0.  1.
         21    1    1    2  503  502 -0.18723611031E+02  0.41066043113E+02  0.24160273631E+03  0.24578217124E+03  0.00000000000E+00 0.  1.
         21    1    1    2  504  501  0.78018345911E+01 -0.13662235775E+03 -0.93814215910E+02  0.16591456948E+03  0.00000000000E+00 0.  1.
         21    1    1    2  505  504  0.91525505480E+02  0.81518202550E+01  0.16113848154E+04  0.16140026003E+04  0.00000000000E+00 0. -1.
          1    1    1    2  501    0 -0.80603729040E+02  0.87404494380E+02 -0.15646858205E+03  0.19651698131E+03  0.00000000000E+00 0.  1.
<scales pt_clust_3="45.13306" pt_clust_4="118.33291" pt_clust_5="87.63897" pt_clust_6="14000.00000"></scales>
<clustering>
<clus scale="   45.133">  1  3  2 -1</clus>
<clus scale="   87.639">  1  5  2 -1</clus>
<clus scale="  118.333">  1  4  2 -1</clus>
<clus scale="   45.133">  1  3  2 -1</clus>
</clustering>
</event>
<event>
 6    0  0.4340992E+002  0.9003476E+02  0.7546771E-02  0.1302768E+00
          1   -1    0    0  505    0 -0.00000000000E+00  0.00000000000E+00  0.83827595118E+03  0.83827595118E+03  0.00000000000E+00 0.  1.
         21   -1    0    0  503  502  0.00000000000E+00 -0.00000000000E+00 -0.29260914934E+03  0.29260914934E+03  0.00000000000E+00 0.  1.
         21    1    1    2  503  504 -0.34865381569E+02  0.80757192030E+02 -0.45831417900E+02  0.99185874818E+02  0.00000000000E+00 0.  1.
         21    1    1    2  504  501  0.86319493010E+02 -0.78616147742E+02 -0.18714075769E+03  0.22057474187E+03  0.00000000000E+00 0.  1.
         21    1    1    2  505  502  0.37014005340E+02  0.15976039085E+02  0.16347915128E+02  0.43503157876E+02  0.00000000000E+00 0.  1.
          1    1    1    2  501    0 -0.88468116781E+02 -0.18117083374E+02  0.76229106230E+03  0.76762132596E+03  0.00000000000E+00 0.  1.
<scales pt_clust_3="88.58271" pt_clust_4="90.03476" pt_clust_5="40.31464" pt_clust_6="14000.00000"></scales>
<clustering>
<clus scale="   40.315">  2  5  1 -1</clus>
<clus scale="   88.583">  2  3  1 -1</clus>
<clus scale="   90.035">  2  4  1 -1</clus>
<clus scale="   40.315">  2  3  1 -1</clus>
</clustering>
</event>
<event>
 6    0  0.4340992E+002  0.1050412E+03  0.7546771E-02  0.1270038E+00
         21   -1    0    0  501  502  0.00000000000E+00  0.00000000000E+00  0.81586809499E+02  0.81586809499E+02  0.00000000000E+00 0.  1.
         -1   -1    0    0    0  501 -0.00000000000E+00 -0.00000000000E+00 -0.41783835391E+03  0.41783835391E+03  0.00000000000E+00 0.  1.
         21    1    1    2  503  504 -0.10237890001E+02 -0.46266961138E+02 -0.11659031929E+03  0.12585209031E+03  0.00000000000E+00 0.  1.
         21    1    1    2  504  505  0.74709107005E+02  0.93503188543E+02 -0.14119944696E+02  0.12051418910E+03  0.00000000000E+00 0.  1.
         21    1    1    2  505  502 -0.30148333074E+02 -0.80416980661E+01  0.88459819837E+01  0.32432118219E+02  0.00000000000E+00 0.  1.
         -1    1    1    2    0  503 -0.34322883930E+02 -0.39194529339E+02 -0.21438726241E+03  0.22062676577E+03  0.00000000000E+00 0.  1.
<scales pt_clust_3="33.17749" pt_clust_4="99.10375" pt_clust_5="31.20242" pt_clust_6="33.17749"></scales>
<clustering>
<clus scale="   31.202">  1  5  2 -1</clus>
<clus scale="   33.177">  3  6 -1 -1</clus>
<clus scale="   99.104">  1  4  2 -1</clus>
<clus scale="   31.202">  1  3  2 -1</clus>
</clustering>
</event>
<event>
 6    0  0.4340992E+002  0.1902393E+03  0.7546771E-02  0.1158246E+00
         21   -1    0    0  501  502  0.00000000000E+00  0.00000000000E+00  0.36411217879E+03  0.36411217879E+03  0.00000000000E+00 0.  1.
          1   -1    0    0  503    0 -0.00000000000E+00 -0.00000000000E+00 -0.18677677733E+04  0.18677677733E+04  0.00000000000E+00 0. -1.
         21    1    1    2  503  505 -0.73671926545E+02  0.20082511934E+01 -0.23904315154E+03  0.25014638541E+03  0.00000000000E+00 0. -1.
         21    1    1    2  504  502  0.90159672096E+02  0.59020606587E+02  0.19112585872E+03  0.21941124024E+03  0.00000000000E+00 0.  1.
         21    1    1    2  505  504  0.77684811204E+02 -0.30461566607E+02  0.14028768306E+03  0.16322827864E+03  0.00000000000E+00 0.  1.
          1    1    1    2  501    0 -0.94172556754E+02 -0.30567291173E+02 -0.15960259848E+04  0.15990940478E+04  0.00000000000E+00 0. -1.
<scales pt_clust_3="73.69929" pt_clust_4="76.62922" pt_clust_5="76.62922" pt_clust_6="169.11626"></scales>
<clustering>
<clus scale="   73.699">  2  3  1 -1</clus>
<clus scale="   76.629">  4  5 -1 -1</clus>
<clus scale="  169.116">  2  6  1 -1</clus>
<clus scale="  190.239">  1  3  2 -1</clus>
</clustering>
</event>
<event>
 6    0  0.4340992E+002  0.1089435E+03  0.7546771E-02  0.1262539E+00
         21   -1    0    0  505  502  0.00000000000E+00  0.00000000000E+00  0.35935390645E+02  0.35935390645E+02  0.00000000000E+00 0. -1.
          2   -1    0    0  503    0 -0.00000000000E+00 -0.00000000000E+00 -0.28043375138E+04  0.28043375138E+04  0.00000000000E+00 0. -1.
         21    1    1    2  503  502 -0.41840509559E+02 -0.17185001576E+02 -0.74089715690E+02  0.86805751482E+02  0.00000000000E+00 0. -1.
         21    1    1    2  504  501  0.65902603685E+02 -0.59346216091E+02 -0.12917196923E+04  0.12947605531E+04  0.00000000000E+00 0. -1.
         21    1    1    2  505  504 -0.54411635865E+02  0.78237531034E+02 -0.53533478870E+02  0.10930494380E+03  0.00000000000E+00 0. -1.
          2    1    1    2  501    0  0.30349541739E+02 -0.17063133671E+01 -0.13490592363E+04  0.13494016560E+04  0.00000000000E+00 0. -1.
<scales pt_clust_3="43.72195" pt_clust_4="14000.00000" pt_clust_5="108.94355" pt_clust_6="30.39747"></scales>
<clustering>
<clus scale="   30.397">  2  6  1 -1</clus>
<clus scale="   43.722">  1  3  2 -1</clus>
<clus scale="  108.944">  1  5  2 -1</clus>
<clus scale="   43.722">  1  3  2 -1</clus>
</clustering>
</event>
<event>
 6    0  0.4340992E+002  0.9696716E+02  0.7546771E-02  0.1286806E+00
          1   -1    0    0  503    0 -0.00000000000E+00  0.00000000000E+00  0.30486446984E+03  0.30486446984E+03  0.00000000000E+00 0. -1.
         21   -1    0    0  504  502  0.00000000000E+00 -0.00000000000E+00 -0.18055602904E+03  0.18055602904E+03  0.00000000000E+00 0. -1.
         21    1    1    2  503  505 -0.68267990565E+02  0.50397652518E+02  0.15798390684E+03  0.17933030066E+03  0.00000000000E+00 0. -1.
         21    1    1    2  504  501 -0.31813863720E+02  0.12987137671E+02 -0.18289472301E+02  0.38926757722E+02  0.00000000000E+00 0. -1.
         21    1    1    2  505  502 -0.38365129478E+02  0.40965449962E+01 -0.88595269504E+02  0.96632223504E+02  0.00000000000E+00 0. -1.
          1    1    1    2  501    0  0.13844698376E+03 -0.67481335185E+02  0.73209275774E+02  0.17053121700E+03  0.00000000000E+00 0. -1.
<scales pt_clust_3="96.96716" pt_clust_4="34.36259" pt_clust_5="58.99196" pt_clust_6="14000.00000"></scales>
<clustering>
<clus scale="   34.363">  2  4  1 -1</clus>
<clus scale="   58.992">  2  5  1 -1</clus>
<clus scale="   96.967">  1  3  2 -1</clus>
<clus scale="   34.363">  2  3  1 -1</clus>
</clustering>
</event>
<event>
 6    0  0.4340992E+002  0.2585609E+03  0.7546771E-02  0.1108011E+00
         21   -1    0    0  503  502  0.00000000000E+00  0.00000000000E+00  0.15964195563E+04  0.15964195563E+04  0.00000000000E+00 0.  1.
          1   -1    0    0  505    0 -0.00000000000E+00 -0.00000000000E+00 -0.48428393537E+03  0.48428393537E+03  0.00000000000E+00 0. -1.
         21    1    1    2  503  504  0.13639303027E+02  0.36866114518E+02  0.52295631090E+02  0.65421510360E+02  0.00000000000E+00 0.  1.
         21    1    1    2  504  501  0.11244354862E+03  0.61837149091E+02 -0.13476115727E+03  0.18608587841E+03  0.00000000000E+00 0.  1.
         21    1    1    2  505  502 -0.22431239047E+03 -0.14997506034E+03  0.14897207899E+04  0.15139605672E+04  0.00000000000E+00 0.  1.
          1    1    1    2  501    0  0.98229538818E+02  0.51271796734E+02 -0.29511964276E+03  0.31523553571E+03  0.00000000000E+00 0. -1.
<scales pt_clust_3="39.30828" pt_clust_4="89.75089" pt_clust_5="239.80174" pt_clust_6="89.75089"></scales>
<clustering>
<clus scale="   39.308">  1  3  2 -1</clus>
<clus scale="   89.751">  4  6 -1 -1</clus>
<clus scale="  239.802">  1  5  2 -1</clus>
<clus scale="   39.308">  1  3  2 -1</clus>
</clustering>
</event>
<event>
 6    0  0.4340992E+002  0.1674781E+03  0.7546771E-02  0.1180504E+00
          1   -1    0    0  502    0 -0.00000000000E+00  0.00000000000E+00  0.13229756225E+03  0.13229756225E+03  0.00000000000E+00 0. -1.
         21   -1    0    0  504  502  0.00000000000E+00 -0.00000000000E+00 -0.90962605134E+03  0.90962605134E+03  0.00000000000E+00 0. -1.
         21    1    1    2  503  505 -0.12090211515E+03  0.95756134610E+02 -0.53282573567E+03  0.55469795687E+03  0.00000000000E+00 0. -1.
         21    1    1    2  504  503 -0.20294031094E+02 -0.22189553344E+02 -0.30651675813E+03  0.30798822541E+03  0.00000000000E+00 0. -1.
         21    1    1    2  505  501  0.97261311555E+02 -0.24861772988E+02  0.51430702355E+02  0.11279622168E+03  0.00000000000E+00 0. -1.
          1    1    1    2  501    0  0.43934834687E+02 -0.48704808278E+02  0.10583302349E+02  0.66441209629E+02  0.00000000000E+00 0. -1.
<scales pt_clust_3="158.48345" pt_clust_4="30.07032" pt_clust_5="43.97439" pt_clust_6="43.97439"></scales>
<clustering>
<clus scale="   30.070">  2  4  1 -1</clus>
<clus scale="   43.974">  5  6 -1 -1</clus>
<clus scale="  158.483">  2  3  1 -1</clus>
<clus scale="   30.070">  2  3  1 -1</clus>
</clustering>
</event>
<event>
 6    0  0.4340992E+002  0.1093327E+03  0.7546771E-02  0.1261811E+00
          2   -1    0    0  505    0 -0.00000000000E+00  0.00000000000E+00  0.12661158033E+04  0.12661158033E+04  0.00000000000E+00 0. -1.
         21   -1    0    0  504  502  0.00000000000E+00 -0.00000000000E+00 -0.69676401382E+03  0.69676401382E+03  0.00000000000E+00 0.  1.
         21    1    1    2  503  502  0.96125244660E+02 -0.26741171880E+02  0.24253386252E+03  0.26225527145E+03  0.00000000000E+00 0.  1.
         21    1    1    2  504  501  0.10910128867E+03  0.39517405359E-01 -0.65917748288E+03  0.66814522874E+03  0.00000000000E+00 0.  1.
         21    1    1    2  505  503 -0.45421478273E+02  0.45230632021E+00  0.14652192134E+02  0.47728419247E+02  0.00000000000E+00 0.  1.
          2    1    1    2  501    0 -0.15980505506E+03  0.26249348155E+02  0.97134321766E+03  0.98475089764E+03  0.00000000000E+00 0. -1.
<scales pt_clust_3="90.83879" pt_clust_4="109.33271" pt_clust_5="45.42373" pt_clust_6="14000.00000"></scales>
<clustering>
<clus scale="   45.424">  1  5  2 -1</clus>
<clus scale="   90.839">  1  3  2 -1</clus>
<clus scale="  109.333">  2  4  1 -1</clus>
<clus scale="  109.333">  2  3  1 -1</clus>
</clustering>
</event>
<event>
 6    0  0.4340992E+002  0.1211603E+03  0.7546771E-02  0.1241195E+00
         21   -1    0    0  504  502  0.00000000000E+00  0.00000000000E+00  0.85934691021E+02  0.85934691021E+02  0.00000000000E+00 0.  1.
          2   -1    0    0  503    0 -0.00000000000E+00 -0.00000000000E+00 -0.10933307100E+04  0.10933307100E+04  0.00000000000E+00 0.  1.
         21    1    1    2  503  505  0.14282266890E+03  0.24905907461E+02 -0.60956525415E+03  0.62656876561E+03  0.00000000000E+00 0.  1.
         21    1    1    2  504  501 -0.44879304561E+02 -0.50970242221E+02  0.48544430924E+02  0.83478616087E+02  0.00000000000E+00 0.  1.
         21    1    1    2  505  502  0.52795439173E+01  0.30523425829E+02 -0.44136899123E+02  0.53922342053E+02  0.00000000000E+00 0. -1.
          2    1    1    2  501    0 -0.10322290825E+03 -0.44590910684E+01 -0.40223829665E+03  0.41529567728E+03  0.00000000000E+00 0.  1.
<scales pt_clust_3="14000.00000" pt_clust_4="48.25214" pt_clust_5="30.97665" pt_clust_6="121.16030"></scales>
<clustering>
<clus scale="   30.977">  1  5  2 -1</clus>
<clus scale="   48.252">  1  4  2 -1</clus>
<clus scale="  121.160">  2  6  1 -1</clus>
<clus scale="   30.977">  1  3  2 -1</clus>
</clustering>
</event>
<event>
 6    0  0.4340992E+002  0.9987430E+02  0.7546771E-02  0.1280561E+00
         21   -1    0    0  503  502  0.00000000000E+00  0.00000000000E+00  0.98715392372E+03  0.98715392372E+03  0.00000000000E+00 0.  1.
          1   -1    0    0  505    0 -0.00000000000E+00 -0.00000000000E+00 -0.35545146302E+02  0.35545146302E+02  0.00000000000E+00 0.  1.
         21    1    1    2  503  504 -0.83895616149E+02 -0.93753294291E+02  0.47357833004E+03  0.49000468292E+03  0.00000000000E+00 0.  1.
         21    1    1    2  504  501 -0.12695981162E+02  0.59580412513E+02  0.94391291415E+02  0.11234201969E+03  0.00000000000E+00 0.  1.
         21    1    1    2  505  502  0.96268999169E+02  0.21913158253E+01  0.37508028298E+03  0.38724377431E+03  0.00000000000E+00 0.  1.
          1    1    1    2  501    0  0.32259814244E+00  0.31981565952E+02  0.85588729880E+01  0.33108593101E+02  0.00000000000E+00 0.  1.
<scales pt_clust_3="14000.00000" pt_clust_4="73.00627" pt_clust_5="99.87430" pt_clust_6="31.98319"></scales>
<clustering>
<clus scale="   31.983">  2  6  1 -1</clus>
<clus scale="   73.006">  2  4  1 -1</clus>
<clus scale="   99.874">  1  5  2 -1</clus>
<clus scale="   99.874">  1  3  2 -1</clus>
</clustering>
</event>
<event>
 6    0  0.4340992E+002  0.1373733E+03  0.7546771E-02  0.1216908E+00
         21   -1    0    0  504  502  0.00000000000E+00  0.00000000000E+00  0.13573999408E+02  0.13573999408E+02  0.00000000000E+00 0.  1.
          2   -1    0    0  503    0 -0.00000000000E+00 -0.00000000000E+00 -0.24770653545E+04  0.24770653545E+04  0.00000000000E+00 0.  1.
         21    1    1    2  503  502 -0.13161704460E+02 -0.44901673390E+02 -0.34239431321E+03  0.34557670126E+03  0.00000000000E+00 0. -1.
         21    1    1    2  504  505 -0.11677003124E+03 -0.31334594762E+02 -0.43826114572E+03  0.45463164086E+03  0.00000000000E+00 0.  1.
         21    1    1    2  505  501  0.31842024784E+02  0.27083940333E+02 -0.25674098493E+03  0.26012187088E+03  0.00000000000E+00 0.  1.
          2    1    1    2  501    0  0.98089710912E+02  0.49152327820E+02 -0.14260949113E+04  0.14303091409E+04  0.00000000000E+00 0.  1.
<scales pt_clust_3="46.79093" pt_clust_4="126.27465" pt_clust_5="33.38979" pt_clust_6="33.38979"></scales>
<clustering>
<clus scale="   33.390">  5  6 -1 -1</clus>
<clus scale="   46.791">  2  3  1 -1</clus>
<clus scale="  126.275">  1  4  2 -1</clus>
<clus scale="  126.275">  1  3  2 -1</clus>
</clustering>
</event>
<event>
 6    0  0.4340992E+002  0.1454590E+03  0.7546771E-02  0.1206167E+00
          2   -1    0    0  504    0 -0.00000000000E+00  0.00000000000E+00  0.48433360116E+03  0.48433360116E+03  0.00000000000E+00 0. -1.
         21   -1    0    0  503  502  0.00000000000E+00 -0.00000000000E+00 -0.11197971839E+04  0.11197971839E+04  0.00000000000E+00 0. -1.
         21    1    1    2  503  501 -0.96618136226E+02 -0.11823747321E+03 -0.21032766693E+03  0.25990939151E+03  0.00000000000E+00 0. -1.
         21    1    1    2  504  505  0.11697659623E+03 -0.65413962703E+02 -0.80775250583E+03  0.81879583612E+03  0.00000000000E+00 0. -1.
         21    1    1    2  505  502  0.45901491349E+02  0.53586414375E+02 -0.38042293913E+02  0.80160257234E+02  0.00000000000E+00 0. -1.
          2    1    1    2  501    0 -0.66259951354E+02  0.13006502154E+03  0.42065888390E+03  0.44526530022E+03  0.00000000000E+00 0. -1.
<scales pt_clust_3="137.05750" pt_clust_4="145.45901" pt_clust_5="70.55814" pt_clust_6="14000.00000"></scales>
<clustering>
<clus scale="   70.558">  2  5  1 -1</clus>
<clus scale="  137.057">  2  3  1 -1</clus>
<clus scale="  145.459">  2  4  1 -1</clus>
<clus scale="   70.558">  2  3  1 -1</clus>
</clustering>
</event>
<event>
 6    0  0.4340992E+002  0.8934665E+02  0.7546771E-02  0.1304442E+00
         21   -1    0    0  501  502  0.00000000000E+00  0.00000000000E+00  0.28096959936E+03  0.28096959936E+03  0.00000000000E+00 0. -1.
          2   -1    0    0  505    0 -0.00000000000E+00 -0.00000000000E+00 -0.13794294707E+04  0.13794294707E+04  0.00000000000E+00 0.  1.
         21    1    1    2  503  502  0.56282486505E+02  0.69690104257E+02  0.26228402348E+03  0.27715940880E+03  0.00000000000E+00 0. -1.
         21    1    1    2  504  503  0.60002957533E+02 -0.33016202985E+02 -0.35706278348E+03  0.36357152793E+03  0.00000000000E+00 0. -1.
         21    1    1    2  505  504 -0.37656077672E+02 -0.23029301441E+02 -0.71157832612E+02  0.83736288743E+02  0.00000000000E+00 0. -1.
          2    1    1    2  501    0 -0.78629366366E+02 -0.13644599830E+02 -0.93252327875E+03  0.93593184462E+03  0.00000000000E+00 0.  1.
<scales pt_clust_3="89.34665" pt_clust_4="63.32366" pt_clust_5="44.13988" pt_clust_6="14000.00000"></scales>
<clustering>
<clus scale="   44.140">  2  5  1 -1</clus>
<clus scale="   63.324">  2  4  1 -1</clus>
<clus scale="   89.347">  1  3  2 -1</clus>
<clus scale="   89.347">  1  3  2 -1</clus>
</clustering>
</event>
<event>
 6    0  0.4340992E+002  0.1203533E+03  0.7546771E-02  0.1242515E+00
          3   -1    0    0  503    0 -0.00000000000E+00  0.00000000000E+00  0.11919953587E+04  0.11919953587E+04  0.00000000000E+00 0. -1.
         21   -1    0    0  504  502  0.00000000000E+00 -0.00000000000E+00 -0.25438449335E+03  0.25438449335E+03  0.00000000000E+00 0.  1.
         21    1    1    2  503  505 -0.25981190372E+02 -0.32047385971E+02  0.12769383350E+03  0.13419304123E+03  0.00000000000E+00 0. -1.
         21    1    1    2  504  501  0.96833349401E+02 -0.80430293720E+02 -0.21625161299E+03  0.25022088207E+03  0.00000000000E+00 0.  1.
         21    1    1    2  505  502 -0.75501340863E+02  0.40559037761E+02  0.94743810342E+02  0.12775710397E+03  0.00000000000E+00 0. -1.
          3    1    1    2  501    0  0.46491818345E+01  0.71918641929E+02  0.93142483455E+03  0.93420882482E+03  0.00000000000E+00 0. -1.
<scales pt_clust_3="41.25600" pt_clust_4="120.35332" pt_clust_5="14000.00000" pt_clust_6="47.37638"></scales>
<clustering>
<clus scale="   41.256">  1  3  2 -1</clus>
<clus scale="   47.376">  1  6  2 -1</clus>
<clus scale="  120.353">  2  4  1 -1</clus>
<clus scale="  120.353">  2  3  1 -1</clus>
</clustering>
</event>
<event>
 6    0  0.4340992E+002  0.1468942E+03  0.7546771E-02  0.1204342E+00
         21   -1    0    0  503  502  0.00000000000E+00  0.00000000000E+00  0.23432022132E+03  0.23432022132E+03  0.00000000000E+00 0.  1.
          2   -1    0    0  504    0 -0.00000000000E+00 -0.00000000000E+00 -0.31551250402E+04  0.31551250402E+04  0.00000000000E+00 0. -1.
         21    1    1    2  503  501  0.64100226221E+02 -0.24856714652E+02  0.29816992864E+02  0.74938296807E+02  0.00000000000E+00 0. -1.
         21    1    1    2  504  505 -0.54023435997E+02 -0.61066012513E+01 -0.56772593914E+03  0.57032321029E+03  0.00000000000E+00 0. -1.
         21    1    1    2  505  502  0.83333827007E+02  0.40304486563E+01  0.17003591345E+03  0.18940164493E+03  0.00000000000E+00 0.  1.
          2    1    1    2  501    0 -0.93410617231E+02  0.26932867247E+02 -0.25529317861E+04  0.25547821095E+04  0.00000000000E+00 0. -1.
<scales pt_clust_3="68.33117" pt_clust_4="54.36747" pt_clust_5="146.89423" pt_clust_6="14000.00000"></scales>
<clustering>
<clus scale="   54.367">  2  4  1 -1</clus>
<clus scale="   68.331">  1  3  2 -1</clus>
<clus scale="  146.894">  1  5  2 -1</clus>
<clus scale="   68.331">  1  3  2 -1</clus>
</clustering>
</event>
<event>
 6    0  0.4340992E+002  0.9943165E+02  0.7546771E-02  0.1281496E+00
         21   -1    0    0  501  502  0.00000000000E+00  0.00000000000E+00  0.37847225266E+03  0.37847225266E+03  0.00000000000E+00 0.  1.
          1   -1    0    0  503    0 -0.00000000000E+00 -0.00000000000E+00 -0.58328539108E+03  0.58328539108E+03  0.00000000000E+00 0.  1.
         21    1    1    2  503  504 -0.19977660935E+02 -0.35570627114E+02 -0.11071620264E+03  0.11799344888E+03  0.00000000000E+00 0. -1.
         21    1    1    2  504  505  0.64225815305E+01 -0.46142221701E+02 -0.29320639454E+02  0.55045926962E+02  0.00000000000E+00 0. -1.
         21    1    1    2  505  502 -0.63587712160E+02  0.77599421783E+02  0.35139581979E+03  0.36543684757E+03  0.00000000000E+00 0.  1.
          1    1    1    2  501    0  0.77142791564E+02  0.41134270321E+01 -0.41617211611E+03  0.42328142033E+03  0.00000000000E+00 0.  1.
<scales pt_clust_3="40.79677" pt_clust_4="49.55835" pt_clust_5="14000.00000" pt_clust_6="99.43165"></scales>
<clustering>
<clus scale="   40.797">  2  3  1 -1</clus>
<clus scale="   49.558">  2  4  1 -1</clus>
<clus scale="   99.432">  2  6  1 -1</clus>
<clus scale="   99.432">  1  3  2 -1</clus>
</clustering>
</event>
<event>
 6    0  0.4340992E+002  0.8778748E+02  0.7546771E-02  0.1308300E+00
         21   -1    0    0  503  502  0.00000000000E+00  0.00000000000E+00  0.70560547886E+03  0.70560547886E+03  0.00000000000E+00 0.  1.
          2   -1    0    0  504    0 -0.00000000000E+00 -0.00000000000E+00 -0.88879074913E+03  0.88879074913E+03  0.00000000000E+00 0. -1.
         21    1    1    2  503  505 -0.36229255549E+02 -0.27197614304E+02  0.35056746127E+02  0.57282149318E+02  0.00000000000E+00 0.  1.
         21    1    1    2  504  502 -0.32151123192E+02  0.84777068128E+02  0.65171700463E+03  0.65799384505E+03  0.00000000000E+00 0.  1.
         21    1    1    2  505  501  0.65815477149E+02 -0.28475807655E+01 -0.33899677270E+03  0.34533838138E+03  0.00000000000E+00 0. -1.
          2    1    1    2  501    0  0.25649015925E+01 -0.54731873058E+02 -0.53096224831E+03  0.53378185224E+03  0.00000000000E+00 0. -1.
<scales pt_clust_3="45.30198" pt_clust_4="87.78748" pt_clust_5="14000.00000" pt_clust_6="54.84645"></scales>
<clustering>
<clus scale="   45.302">  1  3  2 -1</clus>
<clus scale="   54.846">  2  6  1 -1</clus>
<clus scale="   87.787">  1  4  2 -1</clus>
<clus scale="   45.302">  1  3  2 -1</clus>
</clustering>
</event>
<event>
 6    0  0.4340992E+002  0.1888234E+03  0.7546771E-02  0.1159527E+00
          2   -1    0    0  502    0 -0.00000000000E+00  0.00000000000E+00  0.28431012682E+04  0.28431012682E+04  0.00000000000E+00 0.  1.
         21   -1    0    0  504  502  0.00000000000E+00 -0.00000000000E+00 -0.23772401445E+03  0.23772401445E+03  0.00000000000E+00 0. -1.
         21    1    1    2  503  501  0.46297286872E+02 -0.11485812713E+02  0.79875622719E+03  0.80017927562E+03  0.00000000000E+00 0. -1.
         21    1    1    2  504  505 -0.29261781812E+02  0.32878983782E+02 -0.21560721911E+03  0.22005397606E+03  0.00000000000E+00 0. -1.
         21    1    1    2  505  503 -0.96117159796E+02  0.10229256061E+03  0.29030759658E+03  0.32246050455E+03  0.00000000000E+00 0. -1.
          2    1    1    2  501    0  0.79081654735E+02 -0.12368573168E+03  0.17319206491E+04  0.17381315264E+04  0.00000000000E+00 0.  1.
<scales pt_clust_3="39.09962" pt_clust_4="44.01454" pt_clust_5="175.92387" pt_clust_6="39.09962"></scales>
<clustering>
<clus scale="   39.100">  3  6 -1 -1</clus>
<clus scale="   44.015">  2  4  1 -1</clus>
<clus scale="  175.924">  2  5  1 -1</clus>
<clus scale="   44.015">  2  3  1 -1</clus>
</clustering>
</event>
<event>
 6    0  0.4340992E+002  0.2331047E+03  0.7546771E-02  0.1124473E+00
         21   -1    0    0  504  502  0.00000000000E+00  0.00000000000E+00  0.42913584938E+03  0.42913584938E+03  0.00000000000E+00 0.  1.
          1   -1    0    0  503    0 -0.00000000000E+00 -0.00000000000E+00 -0.13016775696E+04  0.13016775696E+04  0.00000000000E+00 0. -1.
         21    1    1    2  503  502 -0.85973181860E+02 -0.37436646658E+02  0.28963481309E+02  0.98141600566E+02  0.00000000000E+00 0.  1.
         21    1    1    2  504  505  0.33363406900E+01 -0.10099734755E+03  0.30799805782E+03  0.32415181474E+03  0.00000000000E+00 0.  1.
         21    1    1    2  505  501 -0.18158158294E+03  0.40633380933E+02 -0.27168214391E+03  0.32929338018E+03  0.00000000000E+00 0. -1.
          1    1    1    2  501    0  0.26421842411E+03  0.97800613273E+02 -0.93782111544E+03  0.97922662349E+03  0.00000000000E+00 0. -1.
<scales pt_clust_3="93.77041" pt_clust_4="151.08334" pt_clust_5="233.10473" pt_clust_6="14000.00000"></scales>
<clustering>
<clus scale="   93.770">  1  3  2 -1</clus>
<clus scale="  151.083">  1  4  2 -1</clus>
<clus scale="  233.105">  1  5  2 -1</clus>
<clus scale="   93.770">  1  3  2 -1</clus>
</clustering>
</event>
<event>
 6    0  0.4340992E+002  0.1495155E+03  0.7546771E-02  0.1201070E+00
          1   -1    0    0  504    0 -0.00000000000E+00  0.00000000000E+00  0.36863787869E+03  0.36863787869E+03  0.00000000000E+00 0.  1.
         21   -1    0    0  505  502  0.00000000000E+00 -0.00000000000E+00 -0.25974883168E+03  0.25974883168E+03  0.00000000000E+00 0.  1.
         21    1    1    2  503  501  0.13743777221E+02 -0.39236497003E+02  0.51801871015E+02  0.66421592499E+02  0.00000000000E+00 0.  1.
         21    1    1    2  504  502 -0.31155711627E+02 -0.33280427367E+02 -0.58726976952E+02  0.74344623442E+02  0.00000000000E+00 0. -1.
         21    1    1    2  505  503 -0.60552168107E+02  0.13787381725E+03 -0.14415010188E+03  0.20845864438E+03  0.00000000000E+00 0.  1.
          1    1    1    2  501    0  0.77964102513E+02 -0.65356892884E+02  0.25996425483E+03  0.27916185004E+03  0.00000000000E+00 0.  1.
<scales pt_clust_3="34.30433" pt_clust_4="45.58799" pt_clust_5="139.55354" pt_clust_6="34.30433"></scales>
<clustering>
<clus scale="   34.304">  3  6 -1 -1</clus>
<clus scale="   45.588">  2  4  1 -1</clus>
<clus scale="  139.554">  2  5  1 -1</clus>
<clus scale="   45.588">  2  3  1 -1</clus>
</clustering>
</event>
<event>
 6    0  0.4340992E+002  0.9947703E+02  0.7546771E-02  0.1281400E+00
          3   -1    0    0  504    0 -0.00000000000E+00  0.00000000000E+00  0.53775718411E+03  0.53775718411E+03  0.00000000000E+00 0.  1.
         21   -1    0    0  503  502  0.00000000000E+00 -0.00000000000E+00 -0.21128799798E+03  0.21128799798E+03  0.00000000000E+00 0.  1.
         21    1    1    2  503  505 -0.16889586248E+02 -0.25576211939E+02 -0.87721679910E+02  0.92921977308E+02  0.00000000000E+00 0.  1.
         21    1    1    2  504  502  0.12278274256E+03  0.16882635889E+02  0.38276826090E+03  0.40233340256E+03  0.00000000000E+00 0.  1.
         21    1    1    2  505  501 -0.77349568388E+02  0.58347187851E+02 -0.81867842519E+02  0.12684515639E+03  0.00000000000E+00 0.  1.
          3    1    1    2  501    0 -0.28543587921E+02 -0.49653611801E+02  0.11329044766E+03  0.12694464584E+03  0.00000000000E+00 0.  1.
<scales pt_clust_3="30.64965" pt_clust_4="14000.00000" pt_clust_5="99.47703" pt_clust_6="58.99978"></scales>
<clustering>
<clus scale="   30.650">  2  3  1 -1</clus>
<clus scale="   59.000">  1  6  2 -1</clus>
<clus scale="   99.477">  2  5  1 -1</clus>
<clus scale="   30.650">  2  3  1 -1</clus>
</clustering>
</event>
<event>
 6    0  0.4340992E+002  0.9702203E+02  0.7546771E-02  0.1286686E+00
         21   -1    0    0  503  502  0.00000000000E+00  0.00000000000E+00  0.58630374278E+02  0.58630374278E+02  0.00000000000E+00 0.  1.
         -1   -1    0    0    0  501 -0.00000000000E+00 -0.00000000000E+00 -0.33700974162E+04  0.33700974162E+04  0.00000000000E+00 0.  1.
         21    1    1    2  503  504 -0.30912621728E+02 -0.13124257823E+02 -0.31281383149E+02  0.45895111474E+02  0.00000000000E+00 0.  1.
         21    1    1    2  504  501  0.11477337340E+02 -0.10544319385E+03 -0.24466726867E+03  0.26666846225E+03  0.00000000000E+00 0.  1.
         21    1    1    2  505  502  0.58566924206E+02  0.30122011058E+02  0.12142510085E+02  0.66969102669E+02  0.00000000000E+00 0.  1.
         -1    1    1    2    0  505 -0.39131639817E+02  0.88445440616E+02 -0.30476609002E+04  0.30491951141E+04  0.00000000000E+00 0.  1.
<scales pt_clust_3="33.58327" pt_clust_4="14000.00000" pt_clust_5="40.09104" pt_clust_6="97.02203"></scales>
<clustering>
<clus scale="   33.583">  1  3  2 -1</clus>
<clus scale="   40.091">  1  5  2 -1</clus>
<clus scale="   97.022">  2  6  1 -1</clus>
<clus scale="   33.583">  1  3  2 -1</clus>
</clustering>
</event>
<event>
 6    0  0.4340992E+002  0.8753480E+02  0.7546771E-02  0.1308934E+00
         21   -1    0    0  505  502  0.00000000000E+00  0.00000000000E+00  0.18330014524E+03  0.18330014524E+03  0.00000000000E+00 0.  1.
          2   -1    0    0  504    0 -0.00000000000E+00 -0.00000000000E+00 -0.15016901026E+04  0.15016901026E+04  0.00000000000E+00 0. -1.
         21    1    1    2  503  502 -0.45039492333E+02 -0.14310739966E+02  0.54259944038E+02  0.71954809951E+02  0.00000000000E+00 0. -1.
         21    1    1    2  504  503 -0.37010811938E+02 -0.67490464473E+02 -0.45288298121E+03  0.45937757636E+03  0.00000000000E+00 0. -1.
         21    1    1    2  505  501 -0.28892725197E+02  0.64319711082E+02  0.10295585876E+03  0.12478671266E+03  0.00000000000E+00 0.  1.
          2    1    1    2  501    0  0.11094302947E+03  0.17481493357E+02 -0.10227227789E+04  0.10288711489E+04  0.00000000000E+00 0. -1.
<scales pt_clust_3="47.25837" pt_clust_4="77.90157" pt_clust_5="87.53480" pt_clust_6="14000.00000"></scales>
<clustering>
<clus scale="   47.258">  1  3  2 -1</clus>
<clus scale="   77.902">  2  4  1 -1</clus>
<clus scale="   87.535">  1  5  2 -1</clus>
<clus scale="   47.258">  1  3  2 -1</clus>
</clustering>
</event>
<event>
 6    0  0.4340992E+002  0.8104077E+02  0.7546771E-02  0.1326124E+00
          1   -1    0    0  505    0 -0.00000000000E+00  0.00000000000E+00  0.71874166536E+03  0.71874166536E+03  0.00000000000E+00 0. -1.
         21   -1    0    0  501  502  0.00000000000E+00 -0.00000000000E+00 -0.15994741691E+03  0.15994741691E+03  0.00000000000E+00 0. -1.
         21    1    1    2  503  504 -0.14450553839E+02 -0.57344063483E+02  0.10984417407E+03  0.12475136352E+03  0.00000000000E+00 0.  1.
         21    1    1    2  504  502 -0.80194995625E+02  0.14204322474E+02 -0.12507472808E+03  0.14925376948E+03  0.00000000000E+00 0. -1.
         21    1    1    2  505  503  0.31104716702E+02  0.48285660929E+02  0.48122156047E+02  0.74931637878E+02  0.00000000000E+00 0. -1.
          1    1    1    2  501    0  0.63540832762E+02 -0.51459199194E+01  0.52590264641E+03  0.52975231138E+03  0.00000000000E+00 0. -1.
<scales pt_clust_3="49.53215" pt_clust_4="81.04077" pt_clust_5="57.43700" pt_clust_6="14000.00000"></scales>
<clustering>
<clus scale="   57.437">  1  5  2 -1</clus>
<clus scale="   49.532">  1  3  2 -1</clus>
<clus scale="   81.041">  2  4  1 -1</clus>
<clus scale="   81.041">  2  3  1 -1</clus>
</clustering>
</event>
<event>
 6    0  0.4340992E+002  0.8570442E+02  0.7546771E-02  0.1313601E+00
          2   -1    0    0  505    0 -0.00000000000E+00  0.00000000000E+00  0.24944561872E+04  0.24944561872E+04  0.00000000000E+00 0.  1.
         21   -1    0    0  504  502  0.00000000000E+00 -0.00000000000E+00 -0.50108890778E+03  0.50108890778E+03  0.00000000000E+00 0.  1.
         21    1    1    2  503  501 -0.62102622079E+02 -0.79610713785E+02  0.41223609731E+03  0.42442101897E+03  0.00000000000E+00 0. -1.
         21    1    1    2  504  503  0.63269017687E+01  0.12629296791E+03 -0.43300687359E+03  0.45109300150E+03  0.00000000000E+00 0.  1.
         21    1    1    2  505  502 -0.12574098524E+02 -0.41108814246E+02 -0.43554150189E+02  0.61196458730E+02  0.00000000000E+00 0. -1.
          2    1    1    2  501    0  0.68349818833E+02 -0.55734398762E+01  0.20576922059E+04  0.20588346158E+04  0.00000000000E+00 0.  1.
<scales pt_clust_3="14000.00000" pt_clust_4="85.70442" pt_clust_5="42.98887" pt_clust_6="68.56500"></scales>
<clustering>
<clus scale="   42.989">  2  5  1 -1</clus>
<clus scale="   68.565">  1  6  2 -1</clus>
<clus scale="   85.704">  2  4  1 -1</clus>
<clus scale="   42.989">  2  3  1 -1</clus>
</clustering>
</event>
<event>
 6    0  0.4340992E+002  0.2905457E+03  0.7546771E-02  0.1090065E+00
          2   -1    0    0  504    0 -0.00000000000E+00  0.00000000000E+00  0.67803887814E+03  0.67803887814E+03  0.00000000000E+00 0. -1.
         21   -1    0    0  503  502  0.00000000000E+00 -0.00000000000E+00 -0.26924238270E+03  0.26924238270E+03  0.00000000000E+00 0. -1.
         21    1    1    2  503  505 -0.13180661375E+02 -0.38704915608E+02 -0.10096555655E+03  0.10893045458E+03  0.00000000000E+00 0. -1.
         21    1    1    2  504  502 -0.18540767079E+03 -0.17417580699E+03  0.87038385332E+01  0.25453678110E+03  0.00000000000E+00 0. -1.
         21    1    1    2  505  501  0.15719393206E+03  0.15787120446E+03  0.31831158313E+03  0.38852993891E+03  0.00000000000E+00 0. -1.
          2    1    1    2  501    0  0.41394400112E+02  0.55009518139E+02  0.18274663032E+03  0.19528408624E+03  0.00000000000E+00 0. -1.
<scales pt_clust_3="40.88765" pt_clust_4="281.76732" pt_clust_5="39.40160" pt_clust_6="39.40160"></scales>
<clustering>
<clus scale="   39.402">  5  6 -1 -1</clus>
<clus scale="   40.888">  2  3  1 -1</clus>
<clus scale="  281.767">  2  4  1 -1</clus>
<clus scale="   40.888">  2  3  1 -1</clus>
</clustering>
</event>
<event>
 6    0  0.4340992E+002  0.1327507E+03  0.7546771E-02  0.1223430E+00
         21   -1    0    0  505  502  0.00000000000E+00  0.00000000000E+00  0.44283754957E+03  0.44283754957E+03  0.00000000000E+00 0. -1.
         -3   -1    0    0    0  501 -0.00000000000E+00 -0.00000000000E+00 -0.29214333439E+03  0.29214333439E+03  0.00000000000E+00 0.  1.
         21    1    1    2  503  502 -0.11618911177E+03 -0.13446763017E+03  0.31425411712E+03  0.36102230317E+03  0.00000000000E+00 0. -1.
         21    1    1    2  504  501  0.28195370900E+02  0.92189532511E+02 -0.44960413543E+02  0.10637352881E+03  0.00000000000E+00 0. -1.
         21    1    1    2  505  504  0.47387292170E+02  0.12511496254E+02  0.62609674219E+02  0.79511409895E+02  0.00000000000E+00 0. -1.
         -3    1    1    2    0  503  0.40606448702E+02  0.29766601408E+02 -0.18120916261E+03  0.18807364209E+03  0.00000000000E+00 0.  1.
<scales pt_clust_3="14000.00000" pt_clust_4="132.75074" pt_clust_5="49.01115" pt_clust_6="50.76952"></scales>
<clustering>
<clus scale="   49.011">  1  5  2 -1</clus>
<clus scale="   50.770">  2  6  1 -1</clus>
<clus scale="  132.751">  2  4  1 -1</clus>
<clus scale="   49.011">  1  3  2 -1</clus>
</clustering>
</event>
<event>
 6    0  0.4340992E+002  0.8970335E+02  0.7546771E-02  0.1303572E+00
          3   -1    0    0  503    0 -0.00000000000E+00  0.00000000000E+00  0.59369386228E+03  0.59369386228E+03  0.00000000000E+00 0.  1.
         21   -1    0    0  504  502  0.00000000000E+00 -0.00000000000E+00 -0.67016250033E+03  0.67016250033E+03  0.00000000000E+00 0. -1.
         21    1    1    2  503  505 -0.22703963611E+02 -0.32718275458E+02  0.13382823065E+02  0.42012563190E+02  0.00000000000E+00 0. -1.
         21    1    1    2  504  501 -0.13497108530E+03  0.26105388717E+02 -0.52513550335E+03  0.54283144904E+03  0.00000000000E+00 0. -1.
         21    1    1    2  505  502  0.73959838938E+02  0.38998180404E+02 -0.10335781539E+03  0.13294267130E+03  0.00000000000E+00 0. -1.
          3    1    1    2  501    0  0.83715209970E+02 -0.32385293663E+02  0.53864185762E+03  0.54606967908E+03  0.00000000000E+00 0.  1.
<scales pt_clust_3="39.82406" pt_clust_4="14000.00000" pt_clust_5="82.68938" pt_clust_6="89.70335"></scales>
<clustering>
<clus scale="   39.824">  1  3  2 -1</clus>
<clus scale="   82.689">  2  5  1 -1</clus>
<clus scale="   89.703">  1  6  2 -1</clus>
<clus scale="   82.689">  2  3  1 -1</clus>
</clustering>
</event>
<event>
 6    0  0.4340992E+002  0.1441664E+03  0.7546771E-02  0.1207830E+00
         21   -1    0    0  501  502  0.00000000000E+00  0.00000000000E+00  0.14425272836E+03  0.14425272836E+03  0.00000000000E+00 0. -1.
          2   -1    0    0  504    0 -0.00000000000E+00 -0.00000000000E+00 -0.47658270376E+03  0.47658270376E+03  0.00000000000E+00 0. -1.
         21    1    1    2  503  505 -0.56768277586E+02  0.13161397748E+02  0.50574916804E+02  0.77160105887E+02  0.00000000000E+00 0. -1.
         21    1    1    2  504  503 -0.71916180809E+02  0.66008892835E+02 -0.40173063745E+02  0.10556034315E+03  0.00000000000E+00 0. -1.
         21    1    1    2  505  502 -0.30257287355E+01  0.30957418171E+02  0.19878488811E+02  0.36914375135E+02  0.00000000000E+00 0. -1.
          2    1    1    2  501    0  0.13171018713E+03 -0.11012770875E+03 -0.36261031726E+03  0.40120060794E+03  0.00000000000E+00 0. -1.
<scales pt_clust_3="65.79115" pt_clust_4="14000.00000" pt_clust_5="31.10493" pt_clust_6="144.16637"></scales>
<clustering>
<clus scale="   31.105">  1  5  2 -1</clus>
<clus scale="   65.791">  1  3  2 -1</clus>
<clus scale="  144.166">  2  6  1 -1</clus>
<clus scale="   31.105">  1  3  2 -1</clus>
</clustering>
</event>
