<event>
 5    0  0.5815084E-005  0.3862390E+03  0.7546771E-02  0.1048652E+00
         21   -1    0    0  502  501  0.00000000000E+00  0.00000000000E+00  0.15169643746E+04  0.15169643746E+04  0.00000000000E+00 0. -1.
         21   -1    0    0  501  502 -0.00000000000E+00 -0.00000000000E+00 -0.98341514332E+02  0.98341514332E+02  0.00000000000E+00 0. -1.
         25    1    1    2    0    0  0.14590566489E+02 -0.54433959290E+02  0.13826468454E+03  0.19472561091E+03  0.12500000000E+03 0.  0.
         25    1    1    2    0    0 -0.20119276445E+02 -0.21497576848E+03  0.92177658689E+03  0.95494316190E+03  0.12500000000E+03 0.  0.
         25    1    1    2    0    0  0.55287099561E+01  0.26940972777E+03  0.35858158881E+03  0.46563711610E+03  0.12500000000E+03 0.  0.
</event>
<event>
 5    0  0.5815084E-005  0.3236056E+03  0.7546771E-02  0.1074002E+00
         21   -1    0    0  502  501  0.00000000000E+00  0.00000000000E+00  0.30687481420E+02  0.30687481420E+02  0.00000000000E+00 0. -1.
         21   -1    0    0  501  502 -0.00000000000E+00 -0.00000000000E+00 -0.34124850925E+04  0.34124850925E+04  0.00000000000E+00 0. -1.
         25    1    1    2    0    0  0.16535552017E+03 -0.27205988415E+02 -0.12698939424E+04  0.12869880492E+04  0.12500000000E+03 0.  0.
         25    1    1    2    0    0 -0.45932129795E+02  0.10963527035E+01 -0.22694718793E+03  0.26313682495E+03  0.12500000000E+03 0.  0.
         25    1    1    2    0    0 -0.11942339038E+03  0.26109635711E+02 -0.18849564808E+04  0.18930476998E+04  0.12500000000E+03 0.  0.
</event>
<event>
 5    0  0.5815084E-005  0.3261250E+03  0.7546771E-02  0.1072864E+00
         21   -1    0    0  502  501  0.00000000000E+00  0.00000000000E+00  0.35218394787E+03  0.35218394787E+03  0.00000000000E+00 0.  1.
         21   -1    0    0  501  502 -0.00000000000E+00 -0.00000000000E+00 -0.30199419341E+03  0.30199419341E+03  0.00000000000E+00 0.  1.
         25    1    1    2    0    0  0.61839669584E+02 -0.38247127372E+02  0.39808010955E+02  0.14998888366E+03  0.12500000000E+03 0.  0.
         25    1    1    2    0    0  0.12012775196E+03  0.11210404508E+03  0.12846735573E+03  0.24316014312E+03  0.12500000000E+03 0.  0.
         25    1    1    2    0    0 -0.18196742154E+03 -0.73856917709E+02 -0.11808561222E+03  0.26102911449E+03  0.12500000000E+03 0.  0.
</event>
<event>
 5    0  0.5958583E-005  0.2961257E+03  0.7546771E-02  0.1087194E+00
         21   -1    0    0  502  501  0.00000000000E+00  0.00000000000E+00  0.23296577789E+03  0.23296577789E+03  0.00000000000E+00 0. -1.
         21   -1    0    0  501  502 -0.00000000000E+00 -0.00000000000E+00 -0.37640906713E+03  0.37640906713E+03  0.00000000000E+00 0. -1.
         25    1    1    2    0    0 -0.47454899251E+02 -0.34422938951E+02 -0.19908400145E+03  0.24227328747E+03  0.12500000000E+03 0.  0.
         25    1    1    2    0    0  0.48545598754E+02  0.12238581837E+03 -0.41186337347E+02  0.18616196733E+03  0.12500000000E+03 0.  0.
         25    1    1    2    0    0 -0.10906995022E+01 -0.87962879420E+02  0.96827049557E+02  0.18093959021E+03  0.12500000000E+03 0.  0.
</event>
<event>
 5    0  0.5815084E-005  0.6346315E+03  0.7546771E-02  0.9836052E-01
         21   -1    0    0  502  501  0.00000000000E+00  0.00000000000E+00  0.14729586970E+04  0.14729586970E+04  0.00000000000E+00 0. -1.
         21   -1    0    0  501  502 -0.00000000000E+00 -0.00000000000E+00 -0.27343408407E+03  0.27343408407E+03  0.00000000000E+00 0. -1.
         25    1    1    2    0    0 -0.17079445418E+03 -0.10706450922E+03  0.10553099075E+04  0.10816365173E+04  0.12500000000E+03 0.  0.
         25    1    1    2    0    0  0.18667579609E+03 -0.14434672045E+03 -0.10699414766E+03  0.28767442741E+03  0.12500000000E+03 0.  0.
         25    1    1    2    0    0 -0.15881341915E+02  0.25141122967E+03  0.25120885306E+03  0.37708183632E+03  0.12500000000E+03 0.  0.
</event>
<event>
 5    0  0.5815084E-005  0.2669624E+03  0.7546771E-02  0.1103031E+00
         21   -1    0    0  502  501  0.00000000000E+00  0.00000000000E+00  0.11105845084E+03  0.11105845084E+03  0.00000000000E+00 0. -1.
         21   -1    0    0  501  502 -0.00000000000E+00 -0.00000000000E+00 -0.64172427618E+03  0.64172427618E+03  0.00000000000E+00 0. -1.
         25    1    1    2    0    0  0.16781042241E+03 -0.42064698226E+01 -0.15561164535E+03  0.26080263884E+03  0.12500000000E+03 0.  0.
         25    1    1    2    0    0 -0.14028096426E+03 -0.12318537396E+02 -0.20272568765E+03  0.27668248902E+03  0.12500000000E+03 0.  0.
         25    1    1    2    0    0 -0.27529458148E+02  0.16525007218E+02 -0.17232849234E+03  0.21529759916E+03  0.12500000000E+03 0.  0.
</event>
<event>
 5    0  0.5815084E-005  0.2913533E+03  0.7546771E-02  0.1089645E+00
         21   -1    0    0  502  501  0.00000000000E+00  0.00000000000E+00  0.90878980309E+03  0.90878980309E+03  0.00000000000E+00 0. -1.
         21   -1    0    0  501  502 -0.00000000000E+00 -0.00000000000E+00 -0.93406344738E+02  0.93406344738E+02  0.00000000000E+00 0. -1.
         25    1    1    2    0    0  0.88135146292E+02  0.27812567588E+02  0.18529823186E+03  0.24187140728E+03  0.12500000000E+03 0.  0.
         25    1    1    2    0    0  0.46720968097E+02  0.12609711890E+03  0.31151849954E+03  0.36159660924E+03  0.12500000000E+03 0.  0.
         25    1    1    2    0    0 -0.13485611439E+03 -0.15390968648E+03  0.31856672695E+03  0.39872813131E+03  0.12500000000E+03 0.  0.
</event>
<event>
 5    0  0.5815084E-005  0.4747555E+03  0.7546771E-02  0.1020587E+00
         21   -1    0    0  502  501  0.00000000000E+00  0.00000000000E+00  0.44268371700E+03  0.44268371700E+03  0.00000000000E+00 0.  1.
         21   -1    0    0  501  502 -0.00000000000E+00 -0.00000000000E+00 -0.50915092038E+03  0.50915092038E+03  0.00000000000E+00 0.  1.
         25    1    1    2    0    0 -0.14783046931E+03 -0.24712216099E+02 -0.21315374589E+03  0.28900529523E+03  0.12500000000E+03 0.  0.
         25    1    1    2    0    0 -0.20144241329E+03 -0.73392281327E+02 -0.99426875011E+01  0.24837336787E+03  0.12500000000E+03 0.  0.
         25    1    1    2    0    0  0.34927288260E+03  0.98104497426E+02  0.15662923001E+03  0.41445597429E+03  0.12500000000E+03 0.  0.
</event>
<event>
 5    0  0.5824522E-005  0.2457412E+03  0.7546771E-02  0.1116026E+00
         21   -1    0    0  502  501  0.00000000000E+00  0.00000000000E+00  0.14334035721E+03  0.14334035721E+03  0.00000000000E+00 0.  1.
         21   -1    0    0  501  502 -0.00000000000E+00 -0.00000000000E+00 -0.42129607466E+03  0.42129607466E+03  0.00000000000E+00 0.  1.
         25    1    1    2    0    0 -0.38646536956E+01  0.65359270299E+02  0.44494482932E+01  0.14117920297E+03  0.12500000000E+03 0.  0.
         25    1    1    2    0    0  0.55265074238E+02 -0.91632634278E+02 -0.21332769992E+03  0.26941506203E+03  0.12500000000E+03 0.  0.
         25    1    1    2    0    0 -0.51400420542E+02  0.26273363979E+02 -0.69077465823E+02  0.15404216686E+03  0.12500000000E+03 0.  0.
</event>
<event>
 5    0  0.5815084E-005  0.2862087E+03  0.7546771E-02  0.1092345E+00
         21   -1    0    0  502  501  0.00000000000E+00  0.00000000000E+00  0.42438988616E+03  0.42438988616E+03  0.00000000000E+00 0.  1.
         21   -1    0    0  501  502 -0.00000000000E+00 -0.00000000000E+00 -0.19301922793E+03  0.19301922793E+03  0.00000000000E+00 0.  1.
         25    1    1    2    0    0 -0.59910459833E+02  0.30547488306E+02 -0.36142047562E+01  0.14198758648E+03  0.12500000000E+03 0.  0.
         25    1    1    2    0    0 -0.52005780653E+02 -0.15042634490E+03  0.15217149242E+03  0.25320712779E+03  0.12500000000E+03 0.  0.
         25    1    1    2    0    0  0.11191624049E+03  0.11987885659E+03  0.82813370560E+02  0.22221439982E+03  0.12500000000E+03 0.  0.
</event>
<event>
 5    0  0.5815084E-005  0.3809682E+03  0.7546771E-02  0.1050576E+00
         21   -1    0    0  502  501  0.00000000000E+00  0.00000000000E+00  0.33504131804E+03  0.33504131804E+03  0.00000000000E+00 0. -1.
         21   -1    0    0  501  502 -0.00000000000E+00 -0.00000000000E+00 -0.43319059493E+03  0.43319059493E+03  0.00000000000E+00 0. -1.
         25    1    1    2    0    0 -0.18138918311E+03  0.20511608311E+03 -0.10767148582E+03  0.31967607380E+03  0.12500000000E+03 0.  0.
         25    1    1    2    0    0  0.19947146342E+03 -0.63807191825E+02 -0.51838650396E+02  0.24934407578E+03  0.12500000000E+03 0.  0.
         25    1    1    2    0    0 -0.18082280312E+02 -0.14130889129E+03  0.61360859330E+02  0.19921176340E+03  0.12500000000E+03 0.  0.
</event>
<event>
 5    0  0.5815084E-005  0.3296333E+03  0.7546771E-02  0.1071299E+00
         21   -1    0    0  502  501  0.00000000000E+00  0.00000000000E+00  0.57023237108E+03  0.57023237108E+03  0.00000000000E+00 0. -1.
         21   -1    0    0  501  502 -0.00000000000E+00 -0.00000000000E+00 -0.19055060710E+03  0.19055060710E+03  0.00000000000E+00 0. -1.
         25    1    1    2    0    0  0.20906339377E+03 -0.90996386274E+02  0.11542206967E+03  0.28449094730E+03  0.12500000000E+03 0.  0.
         25    1    1    2    0    0 -0.18349078117E+03  0.56520714070E+02  0.66727540953E+02  0.23862318122E+03  0.12500000000E+03 0.  0.
         25    1    1    2    0    0 -0.25572612594E+02  0.34475672204E+02  0.19753215336E+03  0.23766884967E+03  0.12500000000E+03 0.  0.
</event>
<event>
 5    0  0.5815084E-005  0.2823181E+03  0.7546771E-02  0.1094430E+00
         21   -1    0    0  502  501  0.00000000000E+00  0.00000000000E+00  0.12491657766E+03  0.12491657766E+03  0.00000000000E+00 0.  1.
         21   -1    0    0  501  502 -0.00000000000E+00 -0.00000000000E+00 -0.63805381014E+03  0.63805381014E+03  0.00000000000E+00 0.  1.
         25    1    1    2    0    0 -0.13665733844E+03  0.11532146742E+03 -0.20724133989E+03  0.30091234929E+03  0.12500000000E+03 0.  0.
         25    1    1    2    0    0  0.10607118180E+03 -0.13896515670E+03 -0.17741487355E+03  0.27868162434E+03  0.12500000000E+03 0.  0.
         25    1    1    2    0    0  0.30586156632E+02  0.23643689278E+02 -0.12848101904E+03  0.18337641417E+03  0.12500000000E+03 0.  0.
</event>
<event>
 5    0  0.5815084E-005  0.2942244E+03  0.7546771E-02  0.1088164E+00
         21   -1    0    0  502  501  0.00000000000E+00  0.00000000000E+00  0.26734264565E+03  0.26734264565E+03  0.00000000000E+00 0. -1.
         21   -1    0    0  501  502 -0.00000000000E+00 -0.00000000000E+00 -0.32380911727E+03  0.32380911727E+03  0.00000000000E+00 0. -1.
         25    1    1    2    0    0 -0.97874378368E+02  0.16118922323E+02 -0.55441478523E+02  0.16893185353E+03  0.12500000000E+03 0.  0.
         25    1    1    2    0    0  0.10410606752E+03 -0.18552456801E+02 -0.15385053000E+03  0.22467143238E+03  0.12500000000E+03 0.  0.
         25    1    1    2    0    0 -0.62316891545E+01  0.24335344774E+01  0.15282553690E+03  0.19754847701E+03  0.12500000000E+03 0.  0.
</event>
<event>
 5    0  0.5815084E-005  0.2530574E+03  0.7546771E-02  0.1111388E+00
         21   -1    0    0  502  501  0.00000000000E+00  0.00000000000E+00  0.53175485779E+03  0.53175485779E+03  0.00000000000E+00 0. -1.
         21   -1    0    0  501  502 -0.00000000000E+00 -0.00000000000E+00 -0.12042774321E+03  0.12042774321E+03  0.00000000000E+00 0. -1.
         25    1    1    2    0    0 -0.13631782323E+03  0.47157648029E+01  0.17371866008E+03  0.25378723417E+03  0.12500000000E+03 0.  0.
         25    1    1    2    0    0  0.39467990297E+02  0.58050995802E+02  0.69878501108E+02  0.15948556452E+03  0.12500000000E+03 0.  0.
         25    1    1    2    0    0  0.96849832932E+02 -0.62766760605E+02  0.16772995340E+03  0.23890980231E+03  0.12500000000E+03 0.  0.
</event>
<event>
 5    0  0.5815084E-005  0.2565094E+03  0.7546771E-02  0.1109259E+00
         21   -1    0    0  502  501  0.00000000000E+00  0.00000000000E+00  0.77109278831E+02  0.77109278831E+02  0.00000000000E+00 0. -1.
         21   -1    0    0  501  502 -0.00000000000E+00 -0.00000000000E+00 -0.85329670876E+03  0.85329670876E+03  0.00000000000E+00 0. -1.
         25    1    1    2    0    0 -0.85659473590E+02 -0.20367059504E+02 -0.69567778189E+02  0.16797927935E+03  0.12500000000E+03 0.  0.
         25    1    1    2    0    0  0.30694846002E+02  0.51515539805E+02 -0.26419617374E+03  0.29836327293E+03  0.12500000000E+03 0.  0.
         25    1    1    2    0    0  0.54964627588E+02 -0.31148480301E+02 -0.44242347800E+03  0.46406343531E+03  0.12500000000E+03 0.  0.
</event>
<event>
 5    0  0.5815084E-005  0.2902014E+03  0.7546771E-02  0.1090244E+00
         21   -1    0    0  502  501  0.00000000000E+00  0.00000000000E+00  0.45052530642E+03  0.45052530642E+03  0.00000000000E+00 0. -1.
         21   -1    0    0  501  502 -0.00000000000E+00 -0.00000000000E+00 -0.18693029133E+03  0.18693029133E+03  0.00000000000E+00 0. -1.
         25    1    1    2    0    0  0.12105203854E+02  0.17657150703E+03  0.15148577211E+03  0.26438035519E+03  0.12500000000E+03 0.  0.
         25    1    1    2    0    0 -0.13275429231E+01 -0.18115429674E+03  0.27803771824E+02  0.22184835209E+03  0.12500000000E+03 0.  0.
         25    1    1    2    0    0 -0.10777660931E+02  0.45827897070E+01  0.84305471155E+02  0.15122689048E+03  0.12500000000E+03 0.  0.
</event>
<event>
 5    0  0.7285660E-005  0.5884283E+03  0.7546771E-02  0.9929709E-01
         21   -1    0    0  502  501  0.00000000000E+00  0.00000000000E+00  0.45634205648E+03  0.45634205648E+03  0.00000000000E+00 0.  1.
         21   -1    0    0  501  502 -0.00000000000E+00 -0.00000000000E+00 -0.75874630722E+03  0.75874630722E+03  0.00000000000E+00 0.  1.
         25    1    1    2    0    0 -0.30181706085E+03  0.23147466528E+03 -0.22048422696E+03  0.45706930900E+03  0.12500000000E+03 0.  0.
         25    1    1    2    0    0  0.32646635928E+03 -0.75206517994E+02 -0.29581291055E+03  0.46407605210E+03  0.12500000000E+03 0.  0.
         25    1    1    2    0    0 -0.24649298427E+02 -0.15626814728E+03  0.21389288677E+03  0.29394300261E+03  0.12500000000E+03 0.  0.
</event>
<event>
 5    0  0.5815084E-005  0.3608606E+03  0.7546771E-02  0.1058244E+00
         21   -1    0    0  502  501  0.00000000000E+00  0.00000000000E+00  0.24695663156E+03  0.24695663156E+03  0.00000000000E+00 0.  1.
         21   -1    0    0  501  502 -0.00000000000E+00 -0.00000000000E+00 -0.52730061224E+03  0.52730061224E+03  0.00000000000E+00 0.  1.
         25    1    1    2    0    0 -0.55709081374E+01  0.15888406716E+03 -0.30130256351E+02  0.20447008134E+03  0.12500000000E+03 0.  0.
         25    1    1    2    0    0 -0.36549799788E+01 -0.96652846693E+02  0.10382015001E+03  0.18909985510E+03  0.12500000000E+03 0.  0.
         25    1    1    2    0    0  0.92258881162E+01 -0.62231220469E+02 -0.35403387433E+03  0.38068730736E+03  0.12500000000E+03 0.  0.
</event>
<event>
 5    0  0.5815084E-005  0.3263273E+03  0.7546771E-02  0.1072774E+00
         21   -1    0    0  502  501  0.00000000000E+00  0.00000000000E+00  0.22521498379E+03  0.22521498379E+03  0.00000000000E+00 0.  1.
         21   -1    0    0  501  502 -0.00000000000E+00 -0.00000000000E+00 -0.47283488965E+03  0.47283488965E+03  0.00000000000E+00 0.  1.
         25    1    1    2    0    0  0.28693007511E+02  0.12097447538E+03 -0.98342828060E+02  0.20187725034E+03  0.12500000000E+03 0.  0.
         25    1    1    2    0    0  0.68342114730E+02  0.25579499913E+02  0.92811456488E+02  0.17194162357E+03  0.12500000000E+03 0.  0.
         25    1    1    2    0    0 -0.97035122241E+02 -0.14655397529E+03 -0.24208853429E+03  0.32423099953E+03  0.12500000000E+03 0.  0.
</event>
<event>
 5    0  0.5815084E-005  0.4132074E+03  0.7546771E-02  0.1039300E+00
         21   -1    0    0  502  501  0.00000000000E+00  0.00000000000E+00  0.31610929833E+03  0.31610929833E+03  0.00000000000E+00 0.  1.
         21   -1    0    0  501  502 -0.00000000000E+00 -0.00000000000E+00 -0.54013076084E+03  0.54013076084E+03  0.00000000000E+00 0.  1.
         25    1    1    2    0    0  0.22369374827E+03  0.18844577333E+03 -0.31940212675E+03  0.45076980941E+03  0.12500000000E+03 0.  0.
         25    1    1    2    0    0 -0.96914515421E+02 -0.42550226791E+02  0.34760861877E+02  0.16744032554E+03  0.12500000000E+03 0.  0.
         25    1    1    2    0    0 -0.12677923285E+03 -0.14589554654E+03  0.60619802363E+02  0.23802992422E+03  0.12500000000E+03 0.  0.
</event>
<event>
 5    0  0.5815084E-005  0.2856310E+03  0.7546771E-02  0.1092653E+00
         21   -1    0    0  502  501  0.00000000000E+00  0.00000000000E+00  0.18618523238E+03  0.18618523238E+03  0.00000000000E+00 0.  1.
         21   -1    0    0  501  502 -0.00000000000E+00 -0.00000000000E+00 -0.43819306466E+03  0.43819306466E+03  0.00000000000E+00 0.  1.
         25    1    1    2    0    0 -0.39842782990E+02 -0.13763099219E+03 -0.81116431950E+02  0.20672351802E+03  0.12500000000E+03 0.  0.
         25    1    1    2    0    0  0.12299125648E+03  0.91755701379E+01 -0.12286634836E+03  0.21431794096E+03  0.12500000000E+03 0.  0.
         25    1    1    2    0    0 -0.83148473491E+02  0.12845542206E+03 -0.48025051973E+02  0.20333683807E+03  0.12500000000E+03 0.  0.
</event>
<event>
 5    0  0.5815084E-005  0.2900841E+03  0.7546771E-02  0.1090305E+00
         21   -1    0    0  502  501  0.00000000000E+00  0.00000000000E+00  0.10365888270E+03  0.10365888270E+03  0.00000000000E+00 0.  1.
         21   -1    0    0  501  502 -0.00000000000E+00 -0.00000000000E+00 -0.81178551252E+03  0.81178551252E+03  0.00000000000E+00 0.  1.
         25    1    1    2    0    0  0.57668619482E+02 -0.10796767874E+03 -0.47464541414E+03  0.50586160014E+03  0.12500000000E+03 0.  0.
         25    1    1    2    0    0 -0.53464863199E+02  0.42795189657E+01 -0.14321022118E+02  0.13677316094E+03  0.12500000000E+03 0.  0.
         25    1    1    2    0    0 -0.42037562828E+01  0.10368815978E+03 -0.21916019356E+03  0.27280963415E+03  0.12500000000E+03 0.  0.
</event>
<event>
 5    0  0.5815084E-005  0.3505347E+03  0.7546771E-02  0.1062396E+00
         21   -1    0    0  502  501  0.00000000000E+00  0.00000000000E+00  0.10491843949E+04  0.10491843949E+04  0.00000000000E+00 0. -1.
         21   -1    0    0  501  502 -0.00000000000E+00 -0.00000000000E+00 -0.11711436264E+03  0.11711436264E+03  0.00000000000E+00 0. -1.
         25    1    1    2    0    0 -0.94597123227E+01 -0.21035798593E+03  0.15528056458E+03  0.28996038029E+03  0.12500000000E+03 0.  0.
         25    1    1    2    0    0  0.17237111509E+02 -0.94965859185E+01  0.12815599383E+03  0.18010069937E+03  0.12500000000E+03 0.  0.
         25    1    1    2    0    0 -0.77773991864E+01  0.21985457185E+03  0.64863347389E+03  0.69623767792E+03  0.12500000000E+03 0.  0.
</event>
<event>
 5    0  0.5815084E-005  0.4162673E+03  0.7546771E-02  0.1038288E+00
         21   -1    0    0  502  501  0.00000000000E+00  0.00000000000E+00  0.24600155263E+03  0.24600155263E+03  0.00000000000E+00 0. -1.
         21   -1    0    0  501  502 -0.00000000000E+00 -0.00000000000E+00 -0.70437944757E+03  0.70437944757E+03  0.00000000000E+00 0. -1.
         25    1    1    2    0    0  0.29391558210E+03  0.80047950895E+02 -0.19659057712E+03  0.38349302322E+03  0.12500000000E+03 0.  0.
         25    1    1    2    0    0  0.28590353553E+02  0.85028648993E+01 -0.78385746308E+01  0.12874839914E+03  0.12500000000E+03 0.  0.
         25    1    1    2    0    0 -0.32250593566E+03 -0.88550815795E+02 -0.25394874318E+03  0.43813957785E+03  0.12500000000E+03 0.  0.
</event>
<event>
 5    0  0.5815084E-005  0.2443166E+03  0.7546771E-02  0.1116950E+00
         21   -1    0    0  502  501  0.00000000000E+00  0.00000000000E+00  0.28951998624E+03  0.28951998624E+03  0.00000000000E+00 0. -1.
         21   -1    0    0  501  502 -0.00000000000E+00 -0.00000000000E+00 -0.20617099723E+03  0.20617099723E+03  0.00000000000E+00 0. -1.
         25    1    1    2    0    0  0.81077493125E+01  0.65520879106E+02  0.15566935355E+02  0.14221832046E+03  0.12500000000E+03 0.  0.
         25    1    1    2    0    0  0.95991533775E+02 -0.19987770910E+02 -0.24880263552E+02  0.16080395846E+03  0.12500000000E+03 0.  0.
         25    1    1    2    0    0 -0.10409928309E+03 -0.45533108197E+02  0.92662317214E+02  0.19266870455E+03  0.12500000000E+03 0.  0.
</event>
<event>
 5    0  0.5815084E-005  0.2747917E+03  0.7546771E-02  0.1098568E+00
         21   -1    0    0  502  501  0.00000000000E+00  0.00000000000E+00  0.24536461969E+04  0.24536461969E+04  0.00000000000E+00 0.  1.
         21   -1    0    0  501  502 -0.00000000000E+00 -0.00000000000E+00 -0.30774809514E+02  0.30774809514E+02  0.00000000000E+00 0.  1.
         25    1    1    2    0    0 -0.14876566715E+03 -0.45312481946E+02  0.67481345782E+03  0.70369215399E+03  0.12500000000E+03 0.  0.
         25    1    1    2    0    0  0.12316312569E+03  0.79926872297E+02  0.77006449245E+03  0.79383989758E+03  0.12500000000E+03 0.  0.
         25    1    1    2    0    0  0.25602541457E+02 -0.34614390350E+02  0.97799343707E+03  0.98688895480E+03  0.12500000000E+03 0.  0.
</event>
<event>
 5    0  0.5815084E-005  0.2475915E+03  0.7546771E-02  0.1114836E+00
         21   -1    0    0  502  501  0.00000000000E+00  0.00000000000E+00  0.15389757341E+03  0.15389757341E+03  0.00000000000E+00 0.  1.
         21   -1    0    0  501  502 -0.00000000000E+00 -0.00000000000E+00 -0.39832698452E+03  0.39832698452E+03  0.00000000000E+00 0.  1.
         25    1    1    2    0    0 -0.15499874146E+02 -0.12830387290E+03 -0.23486788633E+02  0.18132500969E+03  0.12500000000E+03 0.  0.
         25    1    1    2    0    0  0.15331515243E+02  0.99754870987E+02 -0.16718853370E+03  0.23186870303E+03  0.12500000000E+03 0.  0.
         25    1    1    2    0    0  0.16835890270E+00  0.28549001916E+02 -0.53754088773E+02  0.13903084519E+03  0.12500000000E+03 0.  0.
</event>
<event>
 5    0  0.5815084E-005  0.3842409E+03  0.7546771E-02  0.1049377E+00
         21   -1    0    0  502  501  0.00000000000E+00  0.00000000000E+00  0.18880675986E+04  0.18880675986E+04  0.00000000000E+00 0.  1.
         21   -1    0    0  501  502 -0.00000000000E+00 -0.00000000000E+00 -0.78196932694E+02  0.78196932694E+02  0.00000000000E+00 0.  1.
         25    1    1    2    0    0  0.75572689597E+02 -0.18258817784E+03  0.55037386539E+03  0.59798500466E+03  0.12500000000E+03 0.  0.
         25    1    1    2    0    0 -0.25041775473E+03  0.95293494120E+02  0.81342168706E+03  0.86548815294E+03  0.12500000000E+03 0.  0.
         25    1    1    2    0    0  0.17484506513E+03  0.87294683721E+02  0.44607511345E+03  0.50279137368E+03  0.12500000000E+03 0.  0.
</event>
<event>
 5    0  0.5815084E-005  0.3785837E+03  0.7546771E-02  0.1051458E+00
         21   -1    0    0  502  501  0.00000000000E+00  0.00000000000E+00  0.10893218728E+04  0.10893218728E+04  0.00000000000E+00 0. -1.
         21   -1    0    0  501  502 -0.00000000000E+00 -0.00000000000E+00 -0.13157326020E+03  0.13157326020E+03  0.00000000000E+00 0. -1.
         25    1    1    2    0    0 -0.19993803009E+03 -0.18729541664E+03  0.36414634120E+03  0.47252761483E+03  0.12500000000E+03 0.  0.
         25    1    1    2    0    0  0.10786898942E+03  0.23735706406E+03  0.33391490374E+03  0.44169928422E+03  0.12500000000E+03 0.  0.
         25    1    1    2    0    0  0.92069040678E+02 -0.50061647428E+02  0.25968736768E+03  0.30666823397E+03  0.12500000000E+03 0.  0.
</event>
<event>
 5    0  0.5815084E-005  0.3137597E+03  0.7546771E-02  0.1078558E+00
         21   -1    0    0  502  501  0.00000000000E+00  0.00000000000E+00  0.44866413899E+03  0.44866413899E+03  0.00000000000E+00 0.  1.
         21   -1    0    0  501  502 -0.00000000000E+00 -0.00000000000E+00 -0.21941841731E+03  0.21941841731E+03  0.00000000000E+00 0.  1.
         25    1    1    2    0    0  0.33364847421E+02  0.12794791914E+03  0.14990163314E+03  0.23575279993E+03  0.12500000000E+03 0.  0.
         25    1    1    2    0    0 -0.16295558127E+03 -0.91585849767E+01  0.10286700031E+02  0.20583784235E+03  0.12500000000E+03 0.  0.
         25    1    1    2    0    0  0.12959073384E+03 -0.11878933417E+03  0.69057388508E+02  0.22649191402E+03  0.12500000000E+03 0.  0.
</event>
<event>
 5    0  0.5815084E-005  0.3674681E+03  0.7546771E-02  0.1055665E+00
         21   -1    0    0  502  501  0.00000000000E+00  0.00000000000E+00  0.65694465059E+02  0.65694465059E+02  0.00000000000E+00 0.  1.
         21   -1    0    0  501  502 -0.00000000000E+00 -0.00000000000E+00 -0.20554670024E+04  0.20554670024E+04  0.00000000000E+00 0.  1.
         25    1    1    2    0    0 -0.20425389549E+02 -0.15974756136E+03 -0.51820481510E+03  0.55686417580E+03  0.12500000000E+03 0.  0.
         25    1    1    2    0    0  0.31170392859E+02  0.10961761293E+03 -0.14023092292E+04  0.14124743498E+04  0.12500000000E+03 0.  0.
         25    1    1    2    0    0 -0.10745003310E+02  0.50129948432E+02 -0.69258493044E+02  0.15182294189E+03  0.12500000000E+03 0.  0.
</event>
<event>
 5    0  0.5815084E-005  0.2424810E+03  0.7546771E-02  0.1118151E+00
         21   -1    0    0  502  501  0.00000000000E+00  0.00000000000E+00  0.42236617969E+03  0.42236617969E+03  0.00000000000E+00 0.  1.
         21   -1    0    0  501  502 -0.00000000000E+00 -0.00000000000E+00 -0.13920869782E+03  0.13920869782E+03  0.00000000000E+00 0.  1.
         25    1    1    2    0    0  0.30970097025E+02 -0.50985103491E+02  0.17095666998E+03  0.22002229591E+03  0.12500000000E+03 0.  0.
         25    1    1    2    0    0 -0.65216422274E+02  0.62818857448E+02  0.14009764261E+03  0.20845080967E+03  0.12500000000E+03 0.  0.
         25    1    1    2    0    0  0.34246325249E+02 -0.11833753958E+02 -0.27896830729E+02  0.13310177193E+03  0.12500000000E+03 0.  0.
</event>
<event>
 5    0  0.5815084E-005  0.3034331E+03  0.7546771E-02  0.1083537E+00
         21   -1    0    0  502  501  0.00000000000E+00  0.00000000000E+00  0.72419824446E+02  0.72419824446E+02  0.00000000000E+00 0.  1.
         21   -1    0    0  501  502 -0.00000000000E+00 -0.00000000000E+00 -0.12713593133E+04  0.12713593133E+04  0.00000000000E+00 0.  1.
         25    1    1    2    0    0  0.93982742410E+00 -0.42178713444E+01 -0.41617124583E+03  0.43455975374E+03  0.12500000000E+03 0.  0.
         25    1    1    2    0    0 -0.16622801856E+03  0.75040373880E+02 -0.53297375254E+03  0.57701718585E+03  0.12500000000E+03 0.  0.
         25    1    1    2    0    0  0.16528819113E+03 -0.70822502536E+02 -0.24979449053E+03  0.33220219820E+03  0.12500000000E+03 0.  0.
</event>
<event>
 5    0  0.5815084E-005  0.3297471E+03  0.7546771E-02  0.1071249E+00
         21   -1    0    0  502  501  0.00000000000E+00  0.00000000000E+00  0.23234595324E+03  0.23234595324E+03  0.00000000000E+00 0.  1.
         21   -1    0    0  501  502 -0.00000000000E+00 -0.00000000000E+00 -0.46797949642E+03  0.46797949642E+03  0.00000000000E+00 0.  1.
         25    1    1    2    0    0 -0.23198096153E+02  0.22732327863E+03 -0.14443616052E+03  0.29782684422E+03  0.12500000000E+03 0.  0.
         25    1    1    2    0    0  0.12045238135E+00 -0.83232314632E+02  0.56182261545E+02  0.16034051023E+03  0.12500000000E+03 0.  0.
         25    1    1    2    0    0  0.23077643772E+02 -0.14409096400E+03 -0.14737964421E+03  0.24215809521E+03  0.12500000000E+03 0.  0.
</event>
<event>
 5    0  0.5815084E-005  0.2380194E+03  0.7546771E-02  0.1121119E+00
         21   -1    0    0  502  501  0.00000000000E+00  0.00000000000E+00  0.32299960945E+03  0.32299960945E+03  0.00000000000E+00 0.  1.
         21   -1    0    0  501  502 -0.00000000000E+00 -0.00000000000E+00 -0.17539724472E+03  0.17539724472E+03  0.00000000000E+00 0.  1.
         25    1    1    2    0    0 -0.82064747499E+02 -0.10171768751E+01  0.44717374459E+02  0.15607786842E+03  0.12500000000E+03 0.  0.
         25    1    1    2    0    0  0.92612397117E+02 -0.78566699121E+02  0.80889389604E+02  0.19214024998E+03  0.12500000000E+03 0.  0.
         25    1    1    2    0    0 -0.10547649618E+02  0.79583875997E+02  0.21995600675E+02  0.15017873578E+03  0.12500000000E+03 0.  0.
</event>
<event>
 5    0  0.5815084E-005  0.3026718E+03  0.7546771E-02  0.1083913E+00
         21   -1    0    0  502  501  0.00000000000E+00  0.00000000000E+00  0.65991037548E+03  0.65991037548E+03  0.00000000000E+00 0.  1.
         21   -1    0    0  501  502 -0.00000000000E+00 -0.00000000000E+00 -0.13882224753E+03  0.13882224753E+03  0.00000000000E+00 0.  1.
         25    1    1    2    0    0 -0.69211847734E+02  0.45993994492E+01  0.32449715102E+03  0.35459108189E+03  0.12500000000E+03 0.  0.
         25    1    1    2    0    0  0.10012714790E+03  0.18929818921E+02  0.25426789786E+03  0.30109956438E+03  0.12500000000E+03 0.  0.
         25    1    1    2    0    0 -0.30915300168E+02 -0.23529218370E+02 -0.57676920922E+02  0.14304197674E+03  0.12500000000E+03 0.  0.
</event>
<event>
 5    0  0.5815084E-005  0.4361942E+03  0.7546771E-02  0.1031921E+00
         21   -1    0    0  502  501  0.00000000000E+00  0.00000000000E+00  0.65291083166E+03  0.65291083166E+03  0.00000000000E+00 0.  1.
         21   -1    0    0  501  502 -0.00000000000E+00 -0.00000000000E+00 -0.29141093012E+03  0.29141093012E+03  0.00000000000E+00 0.  1.
         25    1    1    2    0    0 -0.45768108858E+02 -0.21665124259E+02  0.37202111339E+03  0.39571303517E+03  0.12500000000E+03 0.  0.
         25    1    1    2    0    0  0.28737190933E+02  0.24518156299E+03 -0.69415780900E+02  0.28527771664E+03  0.12500000000E+03 0.  0.
         25    1    1    2    0    0  0.17030917925E+02 -0.22351643873E+03  0.58894569045E+02  0.26333100997E+03  0.12500000000E+03 0.  0.
</event>
<event>
 5    0  0.5815084E-005  0.2751609E+03  0.7546771E-02  0.1098362E+00
         21   -1    0    0  502  501  0.00000000000E+00  0.00000000000E+00  0.12562292990E+03  0.12562292990E+03  0.00000000000E+00 0.  1.
         21   -1    0    0  501  502 -0.00000000000E+00 -0.00000000000E+00 -0.60270471423E+03  0.60270471423E+03  0.00000000000E+00 0.  1.
         25    1    1    2    0    0 -0.37441005474E+01  0.13730638605E+03 -0.13773469579E+03  0.23122047566E+03  0.12500000000E+03 0.  0.
         25    1    1    2    0    0  0.56023803571E+02  0.26200641790E+02 -0.19734922469E+03  0.24165441582E+03  0.12500000000E+03 0.  0.
         25    1    1    2    0    0 -0.52279703023E+02 -0.16350702784E+03 -0.14199786385E+03  0.25545275266E+03  0.12500000000E+03 0.  0.
</event>
<event>
 5    0  0.5815084E-005  0.3386985E+03  0.7546771E-02  0.1067352E+00
         21   -1    0    0  502  501  0.00000000000E+00  0.00000000000E+00  0.16037732014E+03  0.16037732014E+03  0.00000000000E+00 0.  1.
         21   -1    0    0  501  502 -0.00000000000E+00 -0.00000000000E+00 -0.71529231608E+03  0.71529231608E+03  0.00000000000E+00 0.  1.
         25    1    1    2    0    0 -0.49859520907E+02 -0.19404566765E+03 -0.95319183432E+02  0.25465749486E+03  0.12500000000E+03 0.  0.
         25    1    1    2    0    0  0.61498831422E+02  0.14058137719E+03 -0.44090333445E+03  0.48328664394E+03  0.12500000000E+03 0.  0.
         25    1    1    2    0    0 -0.11639310514E+02  0.53464290465E+02 -0.18692478056E+02  0.13772549742E+03  0.12500000000E+03 0.  0.
</event>
<event>
 5    0  0.5815084E-005  0.2681371E+03  0.7546771E-02  0.1102351E+00
         21   -1    0    0  502  501  0.00000000000E+00  0.00000000000E+00  0.12056841931E+04  0.12056841931E+04  0.00000000000E+00 0.  1.
         21   -1    0    0  501  502 -0.00000000000E+00 -0.00000000000E+00 -0.59632119515E+02  0.59632119515E+02  0.00000000000E+00 0.  1.
         25    1    1    2    0    0 -0.67153146426E+02 -0.71680950026E+02  0.61696775267E+03  0.63712001343E+03  0.12500000000E+03 0.  0.
         25    1    1    2    0    0  0.34663780647E+02 -0.59283611371E+02  0.31606919821E+03  0.34675764205E+03  0.12500000000E+03 0.  0.
         25    1    1    2    0    0  0.32489365779E+02  0.13096456140E+03  0.21301512271E+03  0.28143865714E+03  0.12500000000E+03 0.  0.
</event>
<event>
 5    0  0.5815084E-005  0.3061452E+03  0.7546771E-02  0.1082208E+00
         21   -1    0    0  502  501  0.00000000000E+00  0.00000000000E+00  0.21072669042E+03  0.21072669042E+03  0.00000000000E+00 0.  1.
         21   -1    0    0  501  502 -0.00000000000E+00 -0.00000000000E+00 -0.44476977832E+03  0.44476977832E+03  0.00000000000E+00 0.  1.
         25    1    1    2    0    0  0.14570337418E+03 -0.82976383822E+02  0.47043158985E+02  0.21436560435E+03  0.12500000000E+03 0.  0.
         25    1    1    2    0    0 -0.86464604834E+02  0.98802242973E+02 -0.22993698677E+03  0.29280373801E+03  0.12500000000E+03 0.  0.
         25    1    1    2    0    0 -0.59238769349E+02 -0.15825859151E+02 -0.51149260113E+02  0.14832712639E+03  0.12500000000E+03 0.  0.
</event>
<event>
 5    0  0.5815084E-005  0.2249164E+03  0.7546771E-02  0.1130270E+00
         21   -1    0    0  502  501  0.00000000000E+00  0.00000000000E+00  0.16547389828E+04  0.16547389828E+04  0.00000000000E+00 0.  1.
         21   -1    0    0  501  502 -0.00000000000E+00 -0.00000000000E+00 -0.30571209885E+02  0.30571209885E+02  0.00000000000E+00 0.  1.
         25    1    1    2    0    0 -0.51372857736E+02 -0.37398551662E+02  0.43896624585E+03  0.46081903951E+03  0.12500000000E+03 0.  0.
         25    1    1    2    0    0  0.77258961854E+02 -0.45324103894E+02  0.52962096832E+03  0.55149487003E+03  0.12500000000E+03 0.  0.
         25    1    1    2    0    0 -0.25886104118E+02  0.82722655556E+02  0.65558055871E+03  0.67299628312E+03  0.12500000000E+03 0.  0.
</event>
<event>
 5    0  0.6381839E-005  0.3124821E+03  0.7546771E-02  0.1079162E+00
         21   -1    0    0  502  501  0.00000000000E+00  0.00000000000E+00  0.14534312639E+03  0.14534312639E+03  0.00000000000E+00 0.  1.
         21   -1    0    0  501  502 -0.00000000000E+00 -0.00000000000E+00 -0.67182426459E+03  0.67182426459E+03  0.00000000000E+00 0.  1.
         25    1    1    2    0    0  0.16513317777E+03  0.57797097315E+02 -0.87663328809E+02  0.23220536186E+03  0.12500000000E+03 0.  0.
         25    1    1    2    0    0 -0.48531203391E+02 -0.28833153167E+02 -0.37653382898E+03  0.40073601384E+03  0.12500000000E+03 0.  0.
         25    1    1    2    0    0 -0.11660197438E+03 -0.28963944148E+02 -0.62283980417E+02  0.18422601528E+03  0.12500000000E+03 0.  0.
</event>
<event>
 5    0  0.5815084E-005  0.2716101E+03  0.7546771E-02  0.1100362E+00
         21   -1    0    0  502  501  0.00000000000E+00  0.00000000000E+00  0.19828782016E+04  0.19828782016E+04  0.00000000000E+00 0. -1.
         21   -1    0    0  501  502 -0.00000000000E+00 -0.00000000000E+00 -0.37204517015E+02  0.37204517015E+02  0.00000000000E+00 0. -1.
         25    1    1    2    0    0  0.38162179897E+02 -0.96420272340E+02  0.39245772392E+03  0.42473672547E+03  0.12500000000E+03 0.  0.
         25    1    1    2    0    0 -0.85013158528E+00  0.17259768940E+03  0.89768542347E+03  0.92263470812E+03  0.12500000000E+03 0.  0.
         25    1    1    2    0    0 -0.37312048311E+02 -0.76177417056E+02  0.65553053716E+03  0.67271128500E+03  0.12500000000E+03 0.  0.
</event>
<event>
 5    0  0.5815084E-005  0.2362484E+03  0.7546771E-02  0.1122318E+00
         21   -1    0    0  502  501  0.00000000000E+00  0.00000000000E+00  0.37232938351E+03  0.37232938351E+03  0.00000000000E+00 0. -1.
         21   -1    0    0  501  502 -0.00000000000E+00 -0.00000000000E+00 -0.14990307971E+03  0.14990307971E+03  0.00000000000E+00 0. -1.
         25    1    1    2    0    0  0.27903071555E+02 -0.77768436504E+02  0.88087255553E+01  0.15009698453E+03  0.12500000000E+03 0.  0.
         25    1    1    2    0    0 -0.68913302009E+02  0.47577441427E+02  0.17694816180E+03  0.23226775087E+03  0.12500000000E+03 0.  0.
         25    1    1    2    0    0  0.41010230454E+02  0.30190995077E+02  0.36669416445E+02  0.13986772783E+03  0.12500000000E+03 0.  0.
</event>
<event>
 5    0  0.5815084E-005  0.2293310E+03  0.7546771E-02  0.1127112E+00
         21   -1    0    0  502  501  0.00000000000E+00  0.00000000000E+00  0.31410892288E+03  0.31410892288E+03  0.00000000000E+00 0.  1.
         21   -1    0    0  501  502 -0.00000000000E+00 -0.00000000000E+00 -0.16743460673E+03  0.16743460673E+03  0.00000000000E+00 0.  1.
         25    1    1    2    0    0  0.79663044352E+02 -0.34306787714E+02  0.96802946053E+02  0.18033016022E+03  0.12500000000E+03 0.  0.
         25    1    1    2    0    0 -0.91518442165E+02  0.63625551857E+02  0.37959216686E+02  0.17172576463E+03  0.12500000000E+03 0.  0.
         25    1    1    2    0    0  0.11855397813E+02 -0.29318764143E+02  0.11912153407E+02  0.12948760476E+03  0.12500000000E+03 0.  0.
</event>
<event>
 5    0  0.5815084E-005  0.2301444E+03  0.7546771E-02  0.1126538E+00
         21   -1    0    0  502  501  0.00000000000E+00  0.00000000000E+00  0.12457831108E+04  0.12457831108E+04  0.00000000000E+00 0.  1.
         21   -1    0    0  501  502 -0.00000000000E+00 -0.00000000000E+00 -0.42516572547E+02  0.42516572547E+02  0.00000000000E+00 0.  1.
         25    1    1    2    0    0  0.42704048781E+02 -0.84729663011E+02  0.57943572505E+03  0.60031117851E+03  0.12500000000E+03 0.  0.
         25    1    1    2    0    0 -0.70268799045E+02  0.70490585914E+02  0.30998004530E+03  0.34873952358E+03  0.12500000000E+03 0.  0.
         25    1    1    2    0    0  0.27564750265E+02  0.14239077097E+02  0.31385076791E+03  0.33924898127E+03  0.12500000000E+03 0.  0.
</event>
<event>
 5    0  0.5815084E-005  0.2487847E+03  0.7546771E-02  0.1114075E+00
         21   -1    0    0  502  501  0.00000000000E+00  0.00000000000E+00  0.69830600493E+02  0.69830600493E+02  0.00000000000E+00 0.  1.
         21   -1    0    0  501  502 -0.00000000000E+00 -0.00000000000E+00 -0.88634260326E+03  0.88634260326E+03  0.00000000000E+00 0.  1.
         25    1    1    2    0    0  0.83393891373E+02 -0.78496576472E+02 -0.19394940198E+03  0.25759973635E+03  0.12500000000E+03 0.  0.
         25    1    1    2    0    0  0.52247112034E+01 -0.18284625135E+02 -0.34141791798E+03  0.36407804086E+03  0.12500000000E+03 0.  0.
         25    1    1    2    0    0 -0.88618602577E+02  0.96781201607E+02 -0.28114468281E+03  0.33449542655E+03  0.12500000000E+03 0.  0.
</event>
<event>
 5    0  0.5815084E-005  0.2190867E+03  0.7546771E-02  0.1134566E+00
         21   -1    0    0  502  501  0.00000000000E+00  0.00000000000E+00  0.15451481573E+03  0.15451481573E+03  0.00000000000E+00 0. -1.
         21   -1    0    0  501  502 -0.00000000000E+00 -0.00000000000E+00 -0.31064311987E+03  0.31064311987E+03  0.00000000000E+00 0. -1.
         25    1    1    2    0    0 -0.59070807064E+02  0.74726365120E+02 -0.22520019572E+02  0.15876253076E+03  0.12500000000E+03 0.  0.
         25    1    1    2    0    0  0.61057221835E+02 -0.50343769224E+02 -0.63408721695E+02  0.16096007401E+03  0.12500000000E+03 0.  0.
         25    1    1    2    0    0 -0.19864147716E+01 -0.24382595896E+02 -0.70199562876E+02  0.14543533083E+03  0.12500000000E+03 0.  0.
</event>
<event>
 5    0  0.5815084E-005  0.4091872E+03  0.7546771E-02  0.1040644E+00
         21   -1    0    0  502  501  0.00000000000E+00  0.00000000000E+00  0.14807635740E+04  0.14807635740E+04  0.00000000000E+00 0.  1.
         21   -1    0    0  501  502 -0.00000000000E+00 -0.00000000000E+00 -0.11307287582E+03  0.11307287582E+03  0.00000000000E+00 0.  1.
         25    1    1    2    0    0  0.28798827270E+03 -0.57383861016E+02  0.74322652621E+03  0.80885154508E+03  0.12500000000E+03 0.  0.
         25    1    1    2    0    0 -0.10382309396E+02  0.10045754901E+03  0.15148569195E+03  0.22084480154E+03  0.12500000000E+03 0.  0.
         25    1    1    2    0    0 -0.27760596330E+03 -0.43073687996E+02  0.47297848000E+03  0.56414010317E+03  0.12500000000E+03 0.  0.
</event>
<event>
 5    0  0.5815084E-005  0.3409529E+03  0.7546771E-02  0.1066391E+00
         21   -1    0    0  502  501  0.00000000000E+00  0.00000000000E+00  0.27699700620E+03  0.27699700620E+03  0.00000000000E+00 0. -1.
         21   -1    0    0  501  502 -0.00000000000E+00 -0.00000000000E+00 -0.41967554397E+03  0.41967554397E+03  0.00000000000E+00 0. -1.
         25    1    1    2    0    0  0.63636469862E+02 -0.55870198436E+02  0.10968732377E+03  0.18662097515E+03  0.12500000000E+03 0.  0.
         25    1    1    2    0    0  0.12623415517E+03  0.34312502940E+01 -0.16739690229E+02  0.17847143368E+03  0.12500000000E+03 0.  0.
         25    1    1    2    0    0 -0.18987062503E+03  0.52438948142E+02 -0.23562617131E+03  0.33158014135E+03  0.12500000000E+03 0.  0.
</event>
<event>
 5    0  0.5815084E-005  0.3277898E+03  0.7546771E-02  0.1072119E+00
         21   -1    0    0  502  501  0.00000000000E+00  0.00000000000E+00  0.98994747724E+02  0.98994747724E+02  0.00000000000E+00 0. -1.
         21   -1    0    0  501  502 -0.00000000000E+00 -0.00000000000E+00 -0.10853723036E+04  0.10853723036E+04  0.00000000000E+00 0. -1.
         25    1    1    2    0    0  0.10204029974E+03  0.15830038849E+03 -0.17184898206E+03  0.28395124300E+03  0.12500000000E+03 0.  0.
         25    1    1    2    0    0 -0.15231612525E+03 -0.77743214205E+02 -0.58648708656E+03  0.62356740780E+03  0.12500000000E+03 0.  0.
         25    1    1    2    0    0  0.50275825508E+02 -0.80557174288E+02 -0.22804148725E+03  0.27684840051E+03  0.12500000000E+03 0.  0.
</event>
<event>
 5    0  0.5815084E-005  0.3341864E+03  0.7546771E-02  0.1069299E+00
         21   -1    0    0  502  501  0.00000000000E+00  0.00000000000E+00  0.15978808171E+04  0.15978808171E+04  0.00000000000E+00 0. -1.
         21   -1    0    0  501  502 -0.00000000000E+00 -0.00000000000E+00 -0.69892910858E+02  0.69892910858E+02  0.00000000000E+00 0. -1.
         25    1    1    2    0    0  0.26071286316E+03 -0.24149779206E+02  0.62640250803E+03  0.69033289862E+03  0.12500000000E+03 0.  0.
         25    1    1    2    0    0 -0.17323297991E+03  0.54533782598E+02  0.48515282063E+03  0.53289948221E+03  0.12500000000E+03 0.  0.
         25    1    1    2    0    0 -0.87479883245E+02 -0.30384003392E+02  0.41643257761E+03  0.44454134716E+03  0.12500000000E+03 0.  0.
</event>
<event>
 5    0  0.5815084E-005  0.3126749E+03  0.7546771E-02  0.1079071E+00
         21   -1    0    0  502  501  0.00000000000E+00  0.00000000000E+00  0.50358948608E+02  0.50358948608E+02  0.00000000000E+00 0.  1.
         21   -1    0    0  501  502 -0.00000000000E+00 -0.00000000000E+00 -0.19413742218E+04  0.19413742218E+04  0.00000000000E+00 0.  1.
         25    1    1    2    0    0 -0.88785068719E+02 -0.14037113274E+03 -0.59493140017E+03  0.63020251844E+03  0.12500000000E+03 0.  0.
         25    1    1    2    0    0  0.88702384070E+02  0.15481761788E+03 -0.38976283142E+03  0.44651615033E+03  0.12500000000E+03 0.  0.
         25    1    1    2    0    0  0.82684649510E-01 -0.14446485145E+02 -0.90632104157E+03  0.91501450161E+03  0.12500000000E+03 0.  0.
</event>
<event>
 5    0  0.5815084E-005  0.2659790E+03  0.7546771E-02  0.1103603E+00
         21   -1    0    0  502  501  0.00000000000E+00  0.00000000000E+00  0.60429148144E+02  0.60429148144E+02  0.00000000000E+00 0. -1.
         21   -1    0    0  501  502 -0.00000000000E+00 -0.00000000000E+00 -0.11707068497E+04  0.11707068497E+04  0.00000000000E+00 0. -1.
         25    1    1    2    0    0 -0.19171427283E+02  0.12354472538E+02 -0.23131083098E+03  0.26391263165E+03  0.12500000000E+03 0.  0.
         25    1    1    2    0    0  0.16679958879E+03 -0.11579466667E+02 -0.49707529542E+03  0.53913359772E+03  0.12500000000E+03 0.  0.
         25    1    1    2    0    0 -0.14762816151E+03 -0.77500587110E+00 -0.38189157519E+03  0.42808976851E+03  0.12500000000E+03 0.  0.
</event>
<event>
 5    0  0.5815084E-005  0.3641784E+03  0.7546771E-02  0.1056942E+00
         21   -1    0    0  502  501  0.00000000000E+00  0.00000000000E+00  0.25855165008E+03  0.25855165008E+03  0.00000000000E+00 0.  1.
         21   -1    0    0  501  502 -0.00000000000E+00 -0.00000000000E+00 -0.51295708659E+03  0.51295708659E+03  0.00000000000E+00 0.  1.
         25    1    1    2    0    0  0.64868644324E+02 -0.14237408733E+03  0.10741879036E+03  0.22724902262E+03  0.12500000000E+03 0.  0.
         25    1    1    2    0    0 -0.10365894658E+03  0.12807991770E+03 -0.35691668572E+03  0.41250959149E+03  0.12500000000E+03 0.  0.
         25    1    1    2    0    0  0.38790302257E+02  0.14294169627E+02 -0.49075411543E+01  0.13175012256E+03  0.12500000000E+03 0.  0.
</event>
<event>
 5    0  0.5815084E-005  0.3161997E+03  0.7546771E-02  0.1077412E+00
         21   -1    0    0  502  501  0.00000000000E+00  0.00000000000E+00  0.19486980954E+03  0.19486980954E+03  0.00000000000E+00 0.  1.
         21   -1    0    0  501  502 -0.00000000000E+00 -0.00000000000E+00 -0.51307192137E+03  0.51307192137E+03  0.00000000000E+00 0.  1.
         25    1    1    2    0    0  0.91433610310E+02  0.53607775319E+02 -0.16822633349E+03  0.23485952812E+03  0.12500000000E+03 0.  0.
         25    1    1    2    0    0  0.45173589301E+02 -0.15478369941E+03 -0.16378199311E+03  0.26162604618E+03  0.12500000000E+03 0.  0.
         25    1    1    2    0    0 -0.13660719961E+03  0.10117592409E+03  0.13806214767E+02  0.21145615661E+03  0.12500000000E+03 0.  0.
</event>
<event>
 5    0  0.5815084E-005  0.2056488E+03  0.7546771E-02  0.1145059E+00
         21   -1    0    0  502  501  0.00000000000E+00  0.00000000000E+00  0.88479634533E+02  0.88479634533E+02  0.00000000000E+00 0.  1.
         21   -1    0    0  501  502 -0.00000000000E+00 -0.00000000000E+00 -0.47797925367E+03  0.47797925367E+03  0.00000000000E+00 0.  1.
         25    1    1    2    0    0  0.23528127445E+02 -0.23881682201E+02 -0.12190253960E+03  0.17778958543E+03  0.12500000000E+03 0.  0.
         25    1    1    2    0    0 -0.36974997955E+02 -0.15310176028E+02 -0.20363825765E+03  0.24227069972E+03  0.12500000000E+03 0.  0.
         25    1    1    2    0    0  0.13446870510E+02  0.39191858230E+02 -0.63958821876E+02  0.14639860305E+03  0.12500000000E+03 0.  0.
</event>
<event>
 5    0  0.5815084E-005  0.4387102E+03  0.7546771E-02  0.1031143E+00
         21   -1    0    0  502  501  0.00000000000E+00  0.00000000000E+00  0.15297259138E+04  0.15297259138E+04  0.00000000000E+00 0.  1.
         21   -1    0    0  501  502 -0.00000000000E+00 -0.00000000000E+00 -0.12581770123E+03  0.12581770123E+03  0.00000000000E+00 0.  1.
         25    1    1    2    0    0 -0.47605548300E+02 -0.17092337830E+03  0.42715976597E+03  0.47913625948E+03  0.12500000000E+03 0.  0.
         25    1    1    2    0    0 -0.16073882784E+03 -0.28513404963E+01  0.80811935933E+03  0.83338286510E+03  0.12500000000E+03 0.  0.
         25    1    1    2    0    0  0.20834437614E+03  0.17377471880E+03  0.16862908723E+03  0.34302449041E+03  0.12500000000E+03 0.  0.
</event>
<event>
 5    0  0.5815084E-005  0.4056092E+03  0.7546771E-02  0.1041855E+00
         21   -1    0    0  502  501  0.00000000000E+00  0.00000000000E+00  0.24767909467E+03  0.24767909467E+03  0.00000000000E+00 0. -1.
         21   -1    0    0  501  502 -0.00000000000E+00 -0.00000000000E+00 -0.66424175104E+03  0.66424175104E+03  0.00000000000E+00 0. -1.
         25    1    1    2    0    0  0.14196081726E+02 -0.20292595914E+03 -0.93779607421E+02  0.25651527907E+03  0.12500000000E+03 0.  0.
         25    1    1    2    0    0 -0.15455365316E+03  0.56262061269E+02 -0.35907110664E+03  0.41425754171E+03  0.12500000000E+03 0.  0.
         25    1    1    2    0    0  0.14035757143E+03  0.14666389787E+03  0.36288057691E+02  0.24114802493E+03  0.12500000000E+03 0.  0.
</event>
<event>
 5    0  0.5815084E-005  0.2224972E+03  0.7546771E-02  0.1132035E+00
         21   -1    0    0  502  501  0.00000000000E+00  0.00000000000E+00  0.32014954376E+02  0.32014954376E+02  0.00000000000E+00 0. -1.
         21   -1    0    0  501  502 -0.00000000000E+00 -0.00000000000E+00 -0.15463085588E+04  0.15463085588E+04  0.00000000000E+00 0. -1.
         25    1    1    2    0    0 -0.90504132753E+01  0.47213793547E+02 -0.50327035533E+03  0.52078508315E+03  0.12500000000E+03 0.  0.
         25    1    1    2    0    0  0.84769393381E+02 -0.60514800546E+02 -0.56787599898E+03  0.59072501331E+03  0.12500000000E+03 0.  0.
         25    1    1    2    0    0 -0.75718980105E+02  0.13301006999E+02 -0.44314725016E+03  0.46681341676E+03  0.12500000000E+03 0.  0.
</event>
<event>
 5    0  0.5815084E-005  0.2980753E+03  0.7546771E-02  0.1086207E+00
         21   -1    0    0  502  501  0.00000000000E+00  0.00000000000E+00  0.10740909585E+04  0.10740909585E+04  0.00000000000E+00 0. -1.
         21   -1    0    0  501  502 -0.00000000000E+00 -0.00000000000E+00 -0.82720064372E+02  0.82720064372E+02  0.00000000000E+00 0. -1.
         25    1    1    2    0    0  0.15205050936E+03  0.54353820410E+02  0.47168804900E+03  0.51399252014E+03  0.12500000000E+03 0.  0.
         25    1    1    2    0    0 -0.17704367208E+03 -0.38459902816E+02  0.43908613778E+03  0.49116724478E+03  0.12500000000E+03 0.  0.
         25    1    1    2    0    0  0.24993162722E+02 -0.15893917595E+02  0.80596707300E+02  0.15165125791E+03  0.12500000000E+03 0.  0.
</event>
<event>
 5    0  0.5815084E-005  0.4581572E+03  0.7546771E-02  0.1025317E+00
         21   -1    0    0  502  501  0.00000000000E+00  0.00000000000E+00  0.18310666411E+03  0.18310666411E+03  0.00000000000E+00 0.  1.
         21   -1    0    0  501  502 -0.00000000000E+00 -0.00000000000E+00 -0.11463700890E+04  0.11463700890E+04  0.00000000000E+00 0.  1.
         25    1    1    2    0    0  0.60685492894E+02  0.15699740028E+01 -0.51409294334E+03  0.53254271965E+03  0.12500000000E+03 0.  0.
         25    1    1    2    0    0 -0.85748024061E+02  0.29058537699E+03 -0.15253683610E+03  0.36150390221E+03  0.12500000000E+03 0.  0.
         25    1    1    2    0    0  0.25062531167E+02 -0.29215535099E+03 -0.29663364547E+03  0.43543013126E+03  0.12500000000E+03 0.  0.
</event>
<event>
 5    0  0.5815084E-005  0.5320454E+03  0.7546771E-02  0.1005737E+00
         21   -1    0    0  502  501  0.00000000000E+00  0.00000000000E+00  0.20179127145E+03  0.20179127145E+03  0.00000000000E+00 0.  1.
         21   -1    0    0  501  502 -0.00000000000E+00 -0.00000000000E+00 -0.14027974920E+04  0.14027974920E+04  0.00000000000E+00 0.  1.
         25    1    1    2    0    0  0.19970056174E+03 -0.19679577242E+03 -0.91572590360E+02  0.32034267543E+03  0.12500000000E+03 0.  0.
         25    1    1    2    0    0  0.59574068863E+02 -0.64555400726E+02 -0.71225020807E+03  0.72845166507E+03  0.12500000000E+03 0.  0.
         25    1    1    2    0    0 -0.25927463060E+03  0.26135117314E+03 -0.39718342216E+03  0.55579442298E+03  0.12500000000E+03 0.  0.
</event>
<event>
 5    0  0.5815084E-005  0.3443414E+03  0.7546771E-02  0.1064962E+00
         21   -1    0    0  502  501  0.00000000000E+00  0.00000000000E+00  0.16616227693E+03  0.16616227693E+03  0.00000000000E+00 0.  1.
         21   -1    0    0  501  502 -0.00000000000E+00 -0.00000000000E+00 -0.71358536979E+03  0.71358536979E+03  0.00000000000E+00 0.  1.
         25    1    1    2    0    0 -0.10254096628E+03  0.15900336138E+03 -0.17233697680E+02  0.22741749939E+03  0.12500000000E+03 0.  0.
         25    1    1    2    0    0  0.77734589992E+02 -0.17630389791E+03 -0.43642762769E+03  0.49317319991E+03  0.12500000000E+03 0.  0.
         25    1    1    2    0    0  0.24806376285E+02  0.17300536534E+02 -0.93761767481E+02  0.15915694741E+03  0.12500000000E+03 0.  0.
</event>
<event>
 5    0  0.5815084E-005  0.2710074E+03  0.7546771E-02  0.1100704E+00
         21   -1    0    0  502  501  0.00000000000E+00  0.00000000000E+00  0.31880421354E+03  0.31880421354E+03  0.00000000000E+00 0.  1.
         21   -1    0    0  501  502 -0.00000000000E+00 -0.00000000000E+00 -0.23037656208E+03  0.23037656208E+03  0.00000000000E+00 0.  1.
         25    1    1    2    0    0 -0.30379365354E+02  0.12521003251E+03 -0.62661131931E+02  0.19013646556E+03  0.12500000000E+03 0.  0.
         25    1    1    2    0    0  0.21938670496E+02 -0.14951287203E+03  0.72042616646E+02  0.20892712313E+03  0.12500000000E+03 0.  0.
         25    1    1    2    0    0  0.84406948578E+01  0.24302839521E+02  0.79046166747E+02  0.15011718694E+03  0.12500000000E+03 0.  0.
</event>
<event>
 5    0  0.5815084E-005  0.3264144E+03  0.7546771E-02  0.1072735E+00
         21   -1    0    0  502  501  0.00000000000E+00  0.00000000000E+00  0.53894948477E+03  0.53894948477E+03  0.00000000000E+00 0. -1.
         21   -1    0    0  501  502 -0.00000000000E+00 -0.00000000000E+00 -0.19769262740E+03  0.19769262740E+03  0.00000000000E+00 0. -1.
         25    1    1    2    0    0  0.10822753569E+03 -0.57917033417E+02  0.11704735230E+03  0.21069566897E+03  0.12500000000E+03 0.  0.
         25    1    1    2    0    0  0.21166029982E+02  0.14172575852E+03 -0.41167213792E+02  0.19456086694E+03  0.12500000000E+03 0.  0.
         25    1    1    2    0    0 -0.12939356567E+03 -0.83808725100E+02  0.26537671886E+03  0.33138557626E+03  0.12500000000E+03 0.  0.
</event>
<event>
 5    0  0.5815084E-005  0.2848602E+03  0.7546771E-02  0.1093064E+00
         21   -1    0    0  502  501  0.00000000000E+00  0.00000000000E+00  0.19591715904E+03  0.19591715904E+03  0.00000000000E+00 0. -1.
         21   -1    0    0  501  502 -0.00000000000E+00 -0.00000000000E+00 -0.41418193472E+03  0.41418193472E+03  0.00000000000E+00 0. -1.
         25    1    1    2    0    0 -0.10865720506E+03  0.64717662211E+02 -0.44684919936E+02  0.18334804630E+03  0.12500000000E+03 0.  0.
         25    1    1    2    0    0 -0.11200680998E+02  0.91935394784E+02 -0.82551383867E+02  0.17611729911E+03  0.12500000000E+03 0.  0.
         25    1    1    2    0    0  0.11985788605E+03 -0.15665305700E+03 -0.91028471885E+02  0.25063374834E+03  0.12500000000E+03 0.  0.
</event>
<event>
 5    0  0.5815084E-005  0.2639799E+03  0.7546771E-02  0.1104775E+00
         21   -1    0    0  502  501  0.00000000000E+00  0.00000000000E+00  0.23566113583E+03  0.23566113583E+03  0.00000000000E+00 0. -1.
         21   -1    0    0  501  502 -0.00000000000E+00 -0.00000000000E+00 -0.29570155916E+03  0.29570155916E+03  0.00000000000E+00 0. -1.
         25    1    1    2    0    0 -0.46548450712E+02  0.61326533925E+01 -0.53688698309E+02  0.14391610065E+03  0.12500000000E+03 0.  0.
         25    1    1    2    0    0  0.96846671451E+02  0.12095280619E+03 -0.27708717682E+02  0.20100157246E+03  0.12500000000E+03 0.  0.
         25    1    1    2    0    0 -0.50298220739E+02 -0.12708545958E+03  0.21356992659E+02  0.18644502187E+03  0.12500000000E+03 0.  0.
</event>
<event>
 5    0  0.5815084E-005  0.4126485E+03  0.7546771E-02  0.1039486E+00
         21   -1    0    0  502  501  0.00000000000E+00  0.00000000000E+00  0.14112929110E+04  0.14112929110E+04  0.00000000000E+00 0.  1.
         21   -1    0    0  501  502 -0.00000000000E+00 -0.00000000000E+00 -0.12065445315E+03  0.12065445315E+03  0.00000000000E+00 0.  1.
         25    1    1    2    0    0 -0.19714516671E+03  0.19850951158E+03  0.39531068178E+03  0.50016774993E+03  0.12500000000E+03 0.  0.
         25    1    1    2    0    0  0.17443258884E+03 -0.40301453817E+02  0.75277905334E+03  0.78380625054E+03  0.12500000000E+03 0.  0.
         25    1    1    2    0    0  0.22712577879E+02 -0.15820805776E+03  0.14254872271E+03  0.24797336365E+03  0.12500000000E+03 0.  0.
</event>
<event>
 5    0  0.5815084E-005  0.4887633E+03  0.7546771E-02  0.1016754E+00
         21   -1    0    0  502  501  0.00000000000E+00  0.00000000000E+00  0.32956823339E+04  0.32956823339E+04  0.00000000000E+00 0.  1.
         21   -1    0    0  501  502 -0.00000000000E+00 -0.00000000000E+00 -0.72485625780E+02  0.72485625780E+02  0.00000000000E+00 0.  1.
         25    1    1    2    0    0 -0.10893698262E+03  0.90361396512E+01  0.55569085357E+03  0.57997089818E+03  0.12500000000E+03 0.  0.
         25    1    1    2    0    0 -0.12287473016E+03 -0.33532926066E+03  0.15228839317E+04  0.15691858978E+04  0.12500000000E+03 0.  0.
         25    1    1    2    0    0  0.23181171278E+03  0.32629312100E+03  0.11446219229E+04  0.12190111638E+04  0.12500000000E+03 0.  0.
</event>
<event>
 5    0  0.5815084E-005  0.3751888E+03  0.7546771E-02  0.1052726E+00
         21   -1    0    0  502  501  0.00000000000E+00  0.00000000000E+00  0.19481455331E+03  0.19481455331E+03  0.00000000000E+00 0.  1.
         21   -1    0    0  501  502 -0.00000000000E+00 -0.00000000000E+00 -0.72256743927E+03  0.72256743927E+03  0.00000000000E+00 0.  1.
         25    1    1    2    0    0 -0.23817088996E+03 -0.10964306297E+02 -0.36603977150E+03  0.45437396840E+03  0.12500000000E+03 0.  0.
         25    1    1    2    0    0  0.79469136004E+02 -0.11124361603E+03 -0.16862421289E+02  0.18601028718E+03  0.12500000000E+03 0.  0.
         25    1    1    2    0    0  0.15870175396E+03  0.12220792233E+03 -0.14485069318E+03  0.27699773700E+03  0.12500000000E+03 0.  0.
</event>
<event>
 5    0  0.5815084E-005  0.5917623E+03  0.7546771E-02  0.9922646E-01
         21   -1    0    0  502  501  0.00000000000E+00  0.00000000000E+00  0.55088734676E+03  0.55088734676E+03  0.00000000000E+00 0. -1.
         21   -1    0    0  501  502 -0.00000000000E+00 -0.00000000000E+00 -0.63567005364E+03  0.63567005364E+03  0.00000000000E+00 0. -1.
         25    1    1    2    0    0 -0.22658464681E+03 -0.46140567859E+02  0.11682110656E+03  0.28764861396E+03  0.12500000000E+03 0.  0.
         25    1    1    2    0    0  0.28304861567E+03  0.75173037298E+02 -0.48646665306E+03  0.58141405978E+03  0.12500000000E+03 0.  0.
         25    1    1    2    0    0 -0.56463968858E+02 -0.29032469439E+02  0.28486283963E+03  0.31749472667E+03  0.12500000000E+03 0.  0.
</event>
<event>
 5    0  0.5815084E-005  0.3233304E+03  0.7546771E-02  0.1074127E+00
         21   -1    0    0  502  501  0.00000000000E+00  0.00000000000E+00  0.10894337712E+04  0.10894337712E+04  0.00000000000E+00 0. -1.
         21   -1    0    0  501  502 -0.00000000000E+00 -0.00000000000E+00 -0.95960422799E+02  0.95960422799E+02  0.00000000000E+00 0. -1.
         25    1    1    2    0    0 -0.17447849879E+03 -0.12258398476E+03  0.37918659140E+03  0.45263346204E+03  0.12500000000E+03 0.  0.
         25    1    1    2    0    0  0.23123184857E+02 -0.12123075427E+02  0.87862338345E+02  0.15500464875E+03  0.12500000000E+03 0.  0.
         25    1    1    2    0    0  0.15135531393E+03  0.13470706019E+03  0.52642441863E+03  0.57775608318E+03  0.12500000000E+03 0.  0.
</event>
<event>
 5    0  0.5815084E-005  0.3128446E+03  0.7546771E-02  0.1078990E+00
         21   -1    0    0  502  501  0.00000000000E+00  0.00000000000E+00  0.32326900203E+03  0.32326900203E+03  0.00000000000E+00 0.  1.
         21   -1    0    0  501  502 -0.00000000000E+00 -0.00000000000E+00 -0.30275630964E+03  0.30275630964E+03  0.00000000000E+00 0.  1.
         25    1    1    2    0    0 -0.14815227983E+03 -0.84651333223E+01  0.13970366525E+03  0.23908757932E+03  0.12500000000E+03 0.  0.
         25    1    1    2    0    0  0.80147232594E+02  0.74215363839E+02  0.32104461823E+02  0.16907748399E+03  0.12500000000E+03 0.  0.
         25    1    1    2    0    0  0.68005047234E+02 -0.65750230517E+02 -0.15129543468E+03  0.21786024836E+03  0.12500000000E+03 0.  0.
</event>
<event>
 5    0  0.5815084E-005  0.3214038E+03  0.7546771E-02  0.1075005E+00
         21   -1    0    0  502  501  0.00000000000E+00  0.00000000000E+00  0.11330632326E+04  0.11330632326E+04  0.00000000000E+00 0.  1.
         21   -1    0    0  501  502 -0.00000000000E+00 -0.00000000000E+00 -0.91169132857E+02  0.91169132857E+02  0.00000000000E+00 0.  1.
         25    1    1    2    0    0  0.43125749973E+02 -0.10836134867E+03  0.43690062341E+02  0.17645348889E+03  0.12500000000E+03 0.  0.
         25    1    1    2    0    0 -0.72170423759E+01  0.12348711170E+03  0.42769800469E+03  0.46244106184E+03  0.12500000000E+03 0.  0.
         25    1    1    2    0    0 -0.35908707597E+02 -0.15125763034E+02  0.57050603273E+03  0.58533781475E+03  0.12500000000E+03 0.  0.
</event>
<event>
 5    0  0.5815084E-005  0.5738064E+03  0.7546771E-02  0.9961291E-01
         21   -1    0    0  502  501  0.00000000000E+00  0.00000000000E+00  0.15137165518E+04  0.15137165518E+04  0.00000000000E+00 0. -1.
         21   -1    0    0  501  502 -0.00000000000E+00 -0.00000000000E+00 -0.21751351537E+03  0.21751351537E+03  0.00000000000E+00 0. -1.
         25    1    1    2    0    0 -0.21558480244E+03 -0.37477100375E+03  0.59936147781E+03  0.74952604583E+03  0.12500000000E+03 0.  0.
         25    1    1    2    0    0  0.36224468625E+03  0.20585035358E+03  0.42611445967E+03  0.60892866046E+03  0.12500000000E+03 0.  0.
         25    1    1    2    0    0 -0.14665988381E+03  0.16892065017E+03  0.27072709897E+03  0.37277536089E+03  0.12500000000E+03 0.  0.
</event>
<event>
 5    0  0.5815084E-005  0.4629316E+03  0.7546771E-02  0.1023934E+00
         21   -1    0    0  502  501  0.00000000000E+00  0.00000000000E+00  0.28451194783E+03  0.28451194783E+03  0.00000000000E+00 0.  1.
         21   -1    0    0  501  502 -0.00000000000E+00 -0.00000000000E+00 -0.75323973602E+03  0.75323973602E+03  0.00000000000E+00 0.  1.
         25    1    1    2    0    0 -0.62099853365E+02 -0.99229150142E+01  0.29563140526E+02  0.14301690567E+03  0.12500000000E+03 0.  0.
         25    1    1    2    0    0  0.28964204933E+03 -0.50039623687E+02  0.11386902445E+02  0.31961092319E+03  0.12500000000E+03 0.  0.
         25    1    1    2    0    0 -0.22754219596E+03  0.59962538701E+02 -0.50967783116E+03  0.57512385498E+03  0.12500000000E+03 0.  0.
</event>
<event>
 5    0  0.5815084E-005  0.3928390E+03  0.7546771E-02  0.1046288E+00
         21   -1    0    0  502  501  0.00000000000E+00  0.00000000000E+00  0.52536407609E+03  0.52536407609E+03  0.00000000000E+00 0.  1.
         21   -1    0    0  501  502 -0.00000000000E+00 -0.00000000000E+00 -0.29374389090E+03  0.29374389090E+03  0.00000000000E+00 0.  1.
         25    1    1    2    0    0 -0.63774913276E+02 -0.14655159531E+03  0.29915562903E+03  0.36147434215E+03  0.12500000000E+03 0.  0.
         25    1    1    2    0    0 -0.16761588512E+02  0.93257056208E+02 -0.19811382242E+03  0.25268936664E+03  0.12500000000E+03 0.  0.
         25    1    1    2    0    0  0.80536501787E+02  0.53294539104E+02  0.13057837857E+03  0.20494425820E+03  0.12500000000E+03 0.  0.
</event>
<event>
 5    0  0.5815084E-005  0.3420249E+03  0.7546771E-02  0.1065937E+00
         21   -1    0    0  502  501  0.00000000000E+00  0.00000000000E+00  0.10578769256E+03  0.10578769256E+03  0.00000000000E+00 0. -1.
         21   -1    0    0  501  502 -0.00000000000E+00 -0.00000000000E+00 -0.11058093331E+04  0.11058093331E+04  0.00000000000E+00 0. -1.
         25    1    1    2    0    0 -0.79165438137E+01 -0.50871536816E+02 -0.49619196994E+02  0.14400572778E+03  0.12500000000E+03 0.  0.
         25    1    1    2    0    0 -0.12608436434E+03 -0.76956592118E+02 -0.72435662430E+03  0.74975802975E+03  0.12500000000E+03 0.  0.
         25    1    1    2    0    0  0.13400090815E+03  0.12782812893E+03 -0.22604581924E+03  0.31783326812E+03  0.12500000000E+03 0.  0.
</event>
<event>
 5    0  0.5815084E-005  0.2563790E+03  0.7546771E-02  0.1109339E+00
         21   -1    0    0  502  501  0.00000000000E+00  0.00000000000E+00  0.17337095211E+03  0.17337095211E+03  0.00000000000E+00 0.  1.
         21   -1    0    0  501  502 -0.00000000000E+00 -0.00000000000E+00 -0.37913038338E+03  0.37913038338E+03  0.00000000000E+00 0.  1.
         25    1    1    2    0    0 -0.88998704047E+02  0.17074040303E+02 -0.18913972146E+02  0.15554751852E+03  0.12500000000E+03 0.  0.
         25    1    1    2    0    0  0.34036344872E+02 -0.54709298055E+02  0.24287403400E+02  0.14271109988E+03  0.12500000000E+03 0.  0.
         25    1    1    2    0    0  0.54962359175E+02  0.37635257751E+02 -0.21113286252E+03  0.25424271708E+03  0.12500000000E+03 0.  0.
</event>
<event>
 5    0  0.5815084E-005  0.3081126E+03  0.7546771E-02  0.1081254E+00
         21   -1    0    0  502  501  0.00000000000E+00  0.00000000000E+00  0.11586702080E+03  0.11586702080E+03  0.00000000000E+00 0.  1.
         21   -1    0    0  501  502 -0.00000000000E+00 -0.00000000000E+00 -0.81933017854E+03  0.81933017854E+03  0.00000000000E+00 0.  1.
         25    1    1    2    0    0  0.12417096128E+03 -0.12896578018E+03 -0.30051013228E+03  0.37145920326E+03  0.12500000000E+03 0.  0.
         25    1    1    2    0    0 -0.12903621684E+03  0.17460504385E+03 -0.32171469895E+03  0.40775312888E+03  0.12500000000E+03 0.  0.
         25    1    1    2    0    0  0.48652555607E+01 -0.45639263670E+02 -0.81238326503E+02  0.15598486719E+03  0.12500000000E+03 0.  0.
</event>
<event>
 5    0  0.5815084E-005  0.2770390E+03  0.7546771E-02  0.1097317E+00
         21   -1    0    0  502  501  0.00000000000E+00  0.00000000000E+00  0.12434358939E+03  0.12434358939E+03  0.00000000000E+00 0. -1.
         21   -1    0    0  501  502 -0.00000000000E+00 -0.00000000000E+00 -0.61724638514E+03  0.61724638514E+03  0.00000000000E+00 0. -1.
         25    1    1    2    0    0  0.17626419449E+02 -0.10269861599E+03 -0.72149443765E+02  0.17801190585E+03  0.12500000000E+03 0.  0.
         25    1    1    2    0    0 -0.32778018521E+02  0.17993789946E+03 -0.29914620258E+03  0.37224386721E+03  0.12500000000E+03 0.  0.
         25    1    1    2    0    0  0.15151599072E+02 -0.77239283476E+02 -0.12160714941E+03  0.19133420147E+03  0.12500000000E+03 0.  0.
</event>
<event>
 5    0  0.5964177E-005  0.2900272E+03  0.7546771E-02  0.1090335E+00
         21   -1    0    0  502  501  0.00000000000E+00  0.00000000000E+00  0.56428674460E+03  0.56428674460E+03  0.00000000000E+00 0.  1.
         21   -1    0    0  501  502 -0.00000000000E+00 -0.00000000000E+00 -0.14906564476E+03  0.14906564476E+03  0.00000000000E+00 0.  1.
         25    1    1    2    0    0  0.10306984369E+03 -0.14287223136E+03  0.20913533309E+03  0.30066335779E+03  0.12500000000E+03 0.  0.
         25    1    1    2    0    0 -0.13287354106E+02  0.38488256206E+01  0.81968881750E+01  0.12602998141E+03  0.12500000000E+03 0.  0.
         25    1    1    2    0    0 -0.89782489587E+02  0.13902340574E+03  0.19788887856E+03  0.28665905016E+03  0.12500000000E+03 0.  0.
</event>
<event>
 5    0  0.5815084E-005  0.3377372E+03  0.7546771E-02  0.1067764E+00
         21   -1    0    0  502  501  0.00000000000E+00  0.00000000000E+00  0.19502673422E+04  0.19502673422E+04  0.00000000000E+00 0. -1.
         21   -1    0    0  501  502 -0.00000000000E+00 -0.00000000000E+00 -0.58487572288E+02  0.58487572288E+02  0.00000000000E+00 0. -1.
         25    1    1    2    0    0  0.84694390473E+02 -0.10433651319E+03  0.86059276353E+03  0.87994553945E+03  0.12500000000E+03 0.  0.
         25    1    1    2    0    0 -0.14621456520E+03  0.50436420853E+02  0.19198579128E+03  0.27641648952E+03  0.12500000000E+03 0.  0.
         25    1    1    2    0    0  0.61520174726E+02  0.53900092334E+02  0.83920121510E+03  0.85239288551E+03  0.12500000000E+03 0.  0.
</event>
<event>
 5    0  0.5922047E-005  0.2813113E+03  0.7546771E-02  0.1094975E+00
         21   -1    0    0  502  501  0.00000000000E+00  0.00000000000E+00  0.20112876743E+03  0.20112876743E+03  0.00000000000E+00 0.  1.
         21   -1    0    0  501  502 -0.00000000000E+00 -0.00000000000E+00 -0.39345971217E+03  0.39345971217E+03  0.00000000000E+00 0.  1.
         25    1    1    2    0    0  0.10877992311E+03 -0.18342226737E+02 -0.12727533492E+03  0.20974632257E+03  0.12500000000E+03 0.  0.
         25    1    1    2    0    0 -0.32813216643E+02 -0.38942179598E+02 -0.15363070277E+03  0.20450083954E+03  0.12500000000E+03 0.  0.
         25    1    1    2    0    0 -0.75966706467E+02  0.57284406334E+02  0.88575092954E+02  0.18034131749E+03  0.12500000000E+03 0.  0.
</event>
<event>
 5    0  0.5815084E-005  0.3829494E+03  0.7546771E-02  0.1049849E+00
         21   -1    0    0  502  501  0.00000000000E+00  0.00000000000E+00  0.34493585512E+03  0.34493585512E+03  0.00000000000E+00 0.  1.
         21   -1    0    0  501  502 -0.00000000000E+00 -0.00000000000E+00 -0.42515213053E+03  0.42515213053E+03  0.00000000000E+00 0.  1.
         25    1    1    2    0    0  0.70122024318E+02 -0.19055574247E+03 -0.20812889707E+03  0.31649838400E+03  0.12500000000E+03 0.  0.
         25    1    1    2    0    0  0.96708592883E+01  0.19773788801E+02 -0.76945334894E+02  0.14842544527E+03  0.12500000000E+03 0.  0.
         25    1    1    2    0    0 -0.79792883606E+02  0.17078195367E+03  0.20485795655E+03  0.30516415637E+03  0.12500000000E+03 0.  0.
</event>
<event>
 5    0  0.5815084E-005  0.2263569E+03  0.7546771E-02  0.1129231E+00
         21   -1    0    0  502  501  0.00000000000E+00  0.00000000000E+00  0.48188964698E+03  0.48188964698E+03  0.00000000000E+00 0. -1.
         21   -1    0    0  501  502 -0.00000000000E+00 -0.00000000000E+00 -0.10632611654E+03  0.10632611654E+03  0.00000000000E+00 0. -1.
         25    1    1    2    0    0 -0.31892320354E+02 -0.11345959515E+03  0.14475594112E+03  0.22465413933E+03  0.12500000000E+03 0.  0.
         25    1    1    2    0    0  0.11732655566E+02  0.71280932530E+02  0.93053306289E+02  0.17176304713E+03  0.12500000000E+03 0.  0.
         25    1    1    2    0    0  0.20159664789E+02  0.42178662620E+02  0.13775428303E+03  0.19179857705E+03  0.12500000000E+03 0.  0.
</event>
<event>
 5    0  0.5815084E-005  0.2883918E+03  0.7546771E-02  0.1091192E+00
         21   -1    0    0  502  501  0.00000000000E+00  0.00000000000E+00  0.41458696175E+03  0.41458696175E+03  0.00000000000E+00 0.  1.
         21   -1    0    0  501  502 -0.00000000000E+00 -0.00000000000E+00 -0.20060890323E+03  0.20060890323E+03  0.00000000000E+00 0.  1.
         25    1    1    2    0    0 -0.84277526670E+01  0.13028350139E+03  0.12783475352E+03  0.22138550530E+03  0.12500000000E+03 0.  0.
         25    1    1    2    0    0 -0.57323588514E+02  0.57046670149E+02  0.45746616257E+02  0.15575002175E+03  0.12500000000E+03 0.  0.
         25    1    1    2    0    0  0.65751341181E+02 -0.18733017153E+03  0.40396688750E+02  0.23806033793E+03  0.12500000000E+03 0.  0.
</event>
<event>
 5    0  0.5815084E-005  0.5066971E+03  0.7546771E-02  0.1012046E+00
         21   -1    0    0  502  501  0.00000000000E+00  0.00000000000E+00  0.37400777448E+03  0.37400777448E+03  0.00000000000E+00 0. -1.
         21   -1    0    0  501  502 -0.00000000000E+00 -0.00000000000E+00 -0.68646162341E+03  0.68646162341E+03  0.00000000000E+00 0. -1.
         25    1    1    2    0    0 -0.17252679962E+03 -0.73633276382E+02 -0.41518135929E+01  0.22545419387E+03  0.12500000000E+03 0.  0.
         25    1    1    2    0    0 -0.25591407066E+03  0.30578861966E+02  0.75723962478E+01  0.28654741239E+03  0.12500000000E+03 0.  0.
         25    1    1    2    0    0  0.42844087028E+03  0.43054414416E+02 -0.31587443159E+03  0.54846779163E+03  0.12500000000E+03 0.  0.
</event>
<event>
 5    0  0.5815084E-005  0.3093924E+03  0.7546771E-02  0.1080637E+00
         21   -1    0    0  502  501  0.00000000000E+00  0.00000000000E+00  0.21777085858E+04  0.21777085858E+04  0.00000000000E+00 0.  1.
         21   -1    0    0  501  502 -0.00000000000E+00 -0.00000000000E+00 -0.43956126589E+02  0.43956126589E+02  0.00000000000E+00 0.  1.
         25    1    1    2    0    0  0.10757724111E+03 -0.97641537370E+02  0.28773349639E+03  0.34571996987E+03  0.12500000000E+03 0.  0.
         25    1    1    2    0    0 -0.49069293779E+02  0.80249568203E+02  0.14005938824E+04  0.14093033783E+04  0.12500000000E+03 0.  0.
         25    1    1    2    0    0 -0.58507947327E+02  0.17391969167E+02  0.44542508045E+03  0.46664136420E+03  0.12500000000E+03 0.  0.
</event>
<event>
 5    0  0.5815084E-005  0.2615607E+03  0.7546771E-02  0.1106209E+00
         21   -1    0    0  502  501  0.00000000000E+00  0.00000000000E+00  0.13047761170E+04  0.13047761170E+04  0.00000000000E+00 0.  1.
         21   -1    0    0  501  502 -0.00000000000E+00 -0.00000000000E+00 -0.52433502991E+02  0.52433502991E+02  0.00000000000E+00 0.  1.
         25    1    1    2    0    0 -0.62744374511E+02  0.95236444781E+01  0.56039081425E+03  0.57765943343E+03  0.12500000000E+03 0.  0.
         25    1    1    2    0    0  0.88262073853E+02 -0.63508010453E+02  0.16171956741E+03  0.23152036532E+03  0.12500000000E+03 0.  0.
         25    1    1    2    0    0 -0.25517699342E+02  0.53984365975E+02  0.53023223230E+03  0.54802982119E+03  0.12500000000E+03 0.  0.
</event>
<event>
 5    0  0.6985538E-005  0.3008569E+03  0.7546771E-02  0.1084813E+00
         21   -1    0    0  502  501  0.00000000000E+00  0.00000000000E+00  0.32390661975E+03  0.32390661975E+03  0.00000000000E+00 0.  1.
         21   -1    0    0  501  502 -0.00000000000E+00 -0.00000000000E+00 -0.27944738285E+03  0.27944738285E+03  0.00000000000E+00 0.  1.
         25    1    1    2    0    0 -0.19408608339E+02  0.87701900629E+02  0.21501487900E+03  0.26443281877E+03  0.12500000000E+03 0.  0.
         25    1    1    2    0    0  0.64100130249E+02 -0.51281977154E+02 -0.55487731119E+02  0.15950722925E+03  0.12500000000E+03 0.  0.
         25    1    1    2    0    0 -0.44691521910E+02 -0.36419923475E+02 -0.11506791098E+03  0.17941395457E+03  0.12500000000E+03 0.  0.
</event>
<event>
 5    0  0.5815084E-005  0.2831640E+03  0.7546771E-02  0.1093973E+00
         21   -1    0    0  502  501  0.00000000000E+00  0.00000000000E+00  0.13204905890E+03  0.13204905890E+03  0.00000000000E+00 0.  1.
         21   -1    0    0  501  502 -0.00000000000E+00 -0.00000000000E+00 -0.60721239062E+03  0.60721239062E+03  0.00000000000E+00 0.  1.
         25    1    1    2    0    0  0.56698345586E+02  0.12732885189E+03 -0.42081453619E+02  0.19189368842E+03  0.12500000000E+03 0.  0.
         25    1    1    2    0    0 -0.10641754493E+03 -0.93182001853E+02 -0.19241168910E+03  0.26954561291E+03  0.12500000000E+03 0.  0.
         25    1    1    2    0    0  0.49719199346E+02 -0.34146850039E+02 -0.24067018900E+03  0.27782214819E+03  0.12500000000E+03 0.  0.
</event>
<event>
 5    0  0.5815084E-005  0.4433794E+03  0.7546771E-02  0.1029715E+00
         21   -1    0    0  502  501  0.00000000000E+00  0.00000000000E+00  0.27377342587E+03  0.27377342587E+03  0.00000000000E+00 0. -1.
         21   -1    0    0  501  502 -0.00000000000E+00 -0.00000000000E+00 -0.71805830980E+03  0.71805830980E+03  0.00000000000E+00 0. -1.
         25    1    1    2    0    0 -0.28439232292E+03 -0.20269955374E+03 -0.32743971811E+03  0.49478062959E+03  0.12500000000E+03 0.  0.
         25    1    1    2    0    0  0.19168581708E+03  0.12743552646E+03 -0.17459661667E+03  0.31478920634E+03  0.12500000000E+03 0.  0.
         25    1    1    2    0    0  0.92706505833E+02  0.75264027277E+02  0.57751450839E+02  0.18226189975E+03  0.12500000000E+03 0.  0.
</event>
<event>
 5    0  0.5815084E-005  0.2871517E+03  0.7546771E-02  0.1091846E+00
         21   -1    0    0  502  501  0.00000000000E+00  0.00000000000E+00  0.12768448092E+03  0.12768448092E+03  0.00000000000E+00 0.  1.
         21   -1    0    0  501  502 -0.00000000000E+00 -0.00000000000E+00 -0.64578022681E+03  0.64578022681E+03  0.00000000000E+00 0.  1.
         25    1    1    2    0    0 -0.13082560763E+03 -0.73840930456E+01 -0.21357991402E+03  0.28002007805E+03  0.12500000000E+03 0.  0.
         25    1    1    2    0    0  0.57350399451E+02  0.12132618947E+03 -0.23093527572E+03  0.29489865062E+03  0.12500000000E+03 0.  0.
         25    1    1    2    0    0  0.73475208183E+02 -0.11394209643E+03 -0.73580556157E+02  0.19854597906E+03  0.12500000000E+03 0.  0.
</event>
<event>
 5    0  0.5815084E-005  0.2595709E+03  0.7546771E-02  0.1107401E+00
         21   -1    0    0  502  501  0.00000000000E+00  0.00000000000E+00  0.30187492846E+03  0.30187492846E+03  0.00000000000E+00 0. -1.
         21   -1    0    0  501  502 -0.00000000000E+00 -0.00000000000E+00 -0.22319520414E+03  0.22319520414E+03  0.00000000000E+00 0. -1.
         25    1    1    2    0    0 -0.12024379706E+02  0.31800387762E+02 -0.13047614710E+03  0.18386102179E+03  0.12500000000E+03 0.  0.
         25    1    1    2    0    0  0.13061791876E+02 -0.83230355045E+01  0.16279650901E+03  0.20583388125E+03  0.12500000000E+03 0.  0.
         25    1    1    2    0    0 -0.10374121707E+01 -0.23477352257E+02  0.46359362419E+02  0.13537522955E+03  0.12500000000E+03 0.  0.
</event>
<event>
 5    0  0.5815084E-005  0.3478378E+03  0.7546771E-02  0.1063506E+00
         21   -1    0    0  502  501  0.00000000000E+00  0.00000000000E+00  0.20236369608E+03  0.20236369608E+03  0.00000000000E+00 0.  1.
         21   -1    0    0  501  502 -0.00000000000E+00 -0.00000000000E+00 -0.59788948872E+03  0.59788948872E+03  0.00000000000E+00 0.  1.
         25    1    1    2    0    0 -0.15302888840E+03  0.11952502695E+02 -0.27085950453E+03  0.33548557972E+03  0.12500000000E+03 0.  0.
         25    1    1    2    0    0  0.30366332059E+02 -0.15882970149E+03  0.49851304317E-01  0.20438686524E+03  0.12500000000E+03 0.  0.
         25    1    1    2    0    0  0.12266255634E+03  0.14687719879E+03 -0.12471613941E+03  0.26038073985E+03  0.12500000000E+03 0.  0.
</event>
<event>
 5    0  0.5815084E-005  0.3729346E+03  0.7546771E-02  0.1053577E+00
         21   -1    0    0  502  501  0.00000000000E+00  0.00000000000E+00  0.11100011984E+03  0.11100011984E+03  0.00000000000E+00 0. -1.
         21   -1    0    0  501  502 -0.00000000000E+00 -0.00000000000E+00 -0.12529734025E+04  0.12529734025E+04  0.00000000000E+00 0. -1.
         25    1    1    2    0    0 -0.14026222583E+03 -0.65767458401E+02 -0.62828821238E+02  0.20873742203E+03  0.12500000000E+03 0.  0.
         25    1    1    2    0    0  0.15240466646E+03  0.68210707525E+02 -0.29614317071E+03  0.36222321921E+03  0.12500000000E+03 0.  0.
         25    1    1    2    0    0 -0.12142440627E+02 -0.24432491239E+01 -0.78300129076E+03  0.79301288114E+03  0.12500000000E+03 0.  0.
</event>
<event>
 5    0  0.5815084E-005  0.2959326E+03  0.7546771E-02  0.1087292E+00
         21   -1    0    0  502  501  0.00000000000E+00  0.00000000000E+00  0.78296898794E+03  0.78296898794E+03  0.00000000000E+00 0. -1.
         21   -1    0    0  501  502 -0.00000000000E+00 -0.00000000000E+00 -0.11185134179E+03  0.11185134179E+03  0.00000000000E+00 0. -1.
         25    1    1    2    0    0  0.11035445005E+03 -0.87873456474E+02  0.43572943443E+03  0.47474728965E+03  0.12500000000E+03 0.  0.
         25    1    1    2    0    0 -0.16956392628E+02  0.11519246551E+03  0.53800286090E+02  0.17909855986E+03  0.12500000000E+03 0.  0.
         25    1    1    2    0    0 -0.93398057421E+02 -0.27319009037E+02  0.18158792562E+03  0.24097448022E+03  0.12500000000E+03 0.  0.
</event>
<event>
 5    0  0.5815084E-005  0.2394150E+03  0.7546771E-02  0.1120183E+00
         21   -1    0    0  502  501  0.00000000000E+00  0.00000000000E+00  0.17170229869E+03  0.17170229869E+03  0.00000000000E+00 0. -1.
         21   -1    0    0  501  502 -0.00000000000E+00 -0.00000000000E+00 -0.33383090240E+03  0.33383090240E+03  0.00000000000E+00 0. -1.
         25    1    1    2    0    0  0.45768249883E+01 -0.33401814582E+02  0.10946472895E+02  0.12992864893E+03  0.12500000000E+03 0.  0.
         25    1    1    2    0    0  0.59736496689E+01  0.85844550117E+02  0.46592292829E+01  0.15182779618E+03  0.12500000000E+03 0.  0.
         25    1    1    2    0    0 -0.10550474657E+02 -0.52442735536E+02 -0.17773430589E+03  0.22377675598E+03  0.12500000000E+03 0.  0.
</event>
<event>
 5    0  0.5815084E-005  0.5175052E+03  0.7546771E-02  0.1009308E+00
         21   -1    0    0  502  501  0.00000000000E+00  0.00000000000E+00  0.26260406753E+04  0.26260406753E+04  0.00000000000E+00 0. -1.
         21   -1    0    0  501  502 -0.00000000000E+00 -0.00000000000E+00 -0.10198305942E+03  0.10198305942E+03  0.00000000000E+00 0. -1.
         25    1    1    2    0    0  0.28943499067E+02 -0.30474778442E+03  0.18604369389E+04  0.18895924274E+04  0.12500000000E+03 0.  0.
         25    1    1    2    0    0  0.48987445644E+02 -0.31964967250E+02  0.24643576867E+03  0.28244843253E+03  0.12500000000E+03 0.  0.
         25    1    1    2    0    0 -0.77930944712E+02  0.33671275167E+03  0.41718490834E+03  0.55598287476E+03  0.12500000000E+03 0.  0.
</event>
<event>
 5    0  0.5815084E-005  0.4078614E+03  0.7546771E-02  0.1041091E+00
         21   -1    0    0  502  501  0.00000000000E+00  0.00000000000E+00  0.86938466858E+02  0.86938466858E+02  0.00000000000E+00 0. -1.
         21   -1    0    0  501  502 -0.00000000000E+00 -0.00000000000E+00 -0.19134329633E+04  0.19134329633E+04  0.00000000000E+00 0. -1.
         25    1    1    2    0    0 -0.23676679221E+03  0.90483055834E+02 -0.80076671139E+03  0.84917490740E+03  0.12500000000E+03 0.  0.
         25    1    1    2    0    0  0.96068674816E+02 -0.19363242400E+03 -0.80706078113E+03  0.84480459892E+03  0.12500000000E+03 0.  0.
         25    1    1    2    0    0  0.14069811740E+03  0.10314936817E+03 -0.21866700392E+03  0.30639192385E+03  0.12500000000E+03 0.  0.
</event>
<event>
 5    0  0.5815084E-005  0.4057124E+03  0.7546771E-02  0.1041819E+00
         21   -1    0    0  502  501  0.00000000000E+00  0.00000000000E+00  0.61606880175E+03  0.61606880175E+03  0.00000000000E+00 0. -1.
         21   -1    0    0  501  502 -0.00000000000E+00 -0.00000000000E+00 -0.26718214050E+03  0.26718214050E+03  0.00000000000E+00 0. -1.
         25    1    1    2    0    0 -0.16681101265E+03  0.15655760466E+03  0.16364779830E+03  0.30780155849E+03  0.12500000000E+03 0.  0.
         25    1    1    2    0    0 -0.28147742422E+02  0.29368412933E+02 -0.98843711750E+02  0.16446847246E+03  0.12500000000E+03 0.  0.
         25    1    1    2    0    0  0.19495875507E+03 -0.18592601760E+03  0.28408257470E+03  0.41098091129E+03  0.12500000000E+03 0.  0.
</event>
<event>
 5    0  0.5815084E-005  0.2814978E+03  0.7546771E-02  0.1094874E+00
         21   -1    0    0  502  501  0.00000000000E+00  0.00000000000E+00  0.63779433434E+03  0.63779433434E+03  0.00000000000E+00 0. -1.
         21   -1    0    0  501  502 -0.00000000000E+00 -0.00000000000E+00 -0.12424223253E+03  0.12424223253E+03  0.00000000000E+00 0. -1.
         25    1    1    2    0    0  0.13247465991E+03  0.60708424515E+02  0.11998975453E+03  0.22640139028E+03  0.12500000000E+03 0.  0.
         25    1    1    2    0    0 -0.10334151437E+03  0.24322027966E+02  0.33109182003E+03  0.36948318355E+03  0.12500000000E+03 0.  0.
         25    1    1    2    0    0 -0.29133145547E+02 -0.85030452481E+02  0.62470527251E+02  0.16615199305E+03  0.12500000000E+03 0.  0.
</event>
<event>
 5    0  0.5815084E-005  0.4723718E+03  0.7546771E-02  0.1021253E+00
         21   -1    0    0  502  501  0.00000000000E+00  0.00000000000E+00  0.23384547665E+03  0.23384547665E+03  0.00000000000E+00 0.  1.
         21   -1    0    0  501  502 -0.00000000000E+00 -0.00000000000E+00 -0.95419912796E+03  0.95419912796E+03  0.00000000000E+00 0.  1.
         25    1    1    2    0    0 -0.19828196416E+03  0.82660186107E+02 -0.29589801436E+03  0.38643120809E+03  0.12500000000E+03 0.  0.
         25    1    1    2    0    0  0.28398251637E+02 -0.11029601812E+03 -0.53556243796E+03  0.56162602973E+03  0.12500000000E+03 0.  0.
         25    1    1    2    0    0  0.16988371253E+03  0.27635832012E+02  0.11110680101E+03  0.23998736680E+03  0.12500000000E+03 0.  0.
</event>
<event>
 5    0  0.5815084E-005  0.4115460E+03  0.7546771E-02  0.1039853E+00
         21   -1    0    0  502  501  0.00000000000E+00  0.00000000000E+00  0.66854571060E+03  0.66854571060E+03  0.00000000000E+00 0. -1.
         21   -1    0    0  501  502 -0.00000000000E+00 -0.00000000000E+00 -0.25334105376E+03  0.25334105376E+03  0.00000000000E+00 0. -1.
         25    1    1    2    0    0  0.95768840498E+02 -0.13121778174E+03  0.22505773510E+03  0.30441051424E+03  0.12500000000E+03 0.  0.
         25    1    1    2    0    0  0.77643083542E+02 -0.65742216032E+02 -0.11350449958E+03  0.19712625096E+03  0.12500000000E+03 0.  0.
         25    1    1    2    0    0 -0.17341192404E+03  0.19695999777E+03  0.30365142132E+03  0.42034999916E+03  0.12500000000E+03 0.  0.
</event>
<event>
 5    0  0.5815084E-005  0.2259587E+03  0.7546771E-02  0.1129517E+00
         21   -1    0    0  502  501  0.00000000000E+00  0.00000000000E+00  0.51039464011E+03  0.51039464011E+03  0.00000000000E+00 0.  1.
         21   -1    0    0  501  502 -0.00000000000E+00 -0.00000000000E+00 -0.10003503347E+03  0.10003503347E+03  0.00000000000E+00 0.  1.
         25    1    1    2    0    0  0.82555721724E+02 -0.74102512028E+01  0.12892685411E+03  0.19778142664E+03  0.12500000000E+03 0.  0.
         25    1    1    2    0    0 -0.85395400931E+02  0.11272952228E+02  0.23387202141E+03  0.27881997122E+03  0.12500000000E+03 0.  0.
         25    1    1    2    0    0  0.28396792068E+01 -0.38627010251E+01  0.47560731119E+02  0.13382827572E+03  0.12500000000E+03 0.  0.
</event>
<event>
 5    0  0.5815084E-005  0.2867285E+03  0.7546771E-02  0.1092070E+00
         21   -1    0    0  502  501  0.00000000000E+00  0.00000000000E+00  0.89884003809E+02  0.89884003809E+02  0.00000000000E+00 0.  1.
         21   -1    0    0  501  502 -0.00000000000E+00 -0.00000000000E+00 -0.91465935106E+03  0.91465935106E+03  0.00000000000E+00 0.  1.
         25    1    1    2    0    0 -0.86867614940E+02 -0.18469490799E+03 -0.37195915035E+03  0.44230849087E+03  0.12500000000E+03 0.  0.
         25    1    1    2    0    0  0.79732639376E+01  0.82367066471E+02 -0.24724470731E+03  0.28914157755E+03  0.12500000000E+03 0.  0.
         25    1    1    2    0    0  0.78894351002E+02  0.10232784152E+03 -0.20557148958E+03  0.27309328644E+03  0.12500000000E+03 0.  0.
</event>
<event>
 5    0  0.5815084E-005  0.3672931E+03  0.7546771E-02  0.1055733E+00
         21   -1    0    0  502  501  0.00000000000E+00  0.00000000000E+00  0.48759166830E+03  0.48759166830E+03  0.00000000000E+00 0.  1.
         21   -1    0    0  501  502 -0.00000000000E+00 -0.00000000000E+00 -0.27667457579E+03  0.27667457579E+03  0.00000000000E+00 0.  1.
         25    1    1    2    0    0 -0.20165679911E+03 -0.17139656606E+03  0.12891281712E+03  0.31982145316E+03  0.12500000000E+03 0.  0.
         25    1    1    2    0    0  0.13856452914E+03  0.30376680168E+02  0.14245155192E+03  0.23672835926E+03  0.12500000000E+03 0.  0.
         25    1    1    2    0    0  0.63092269966E+02  0.14101988589E+03 -0.60447276534E+02  0.20771643167E+03  0.12500000000E+03 0.  0.
</event>
<event>
 5    0  0.5815084E-005  0.4467094E+03  0.7546771E-02  0.1028708E+00
         21   -1    0    0  502  501  0.00000000000E+00  0.00000000000E+00  0.10101331236E+04  0.10101331236E+04  0.00000000000E+00 0. -1.
         21   -1    0    0  501  502 -0.00000000000E+00 -0.00000000000E+00 -0.19754750177E+03  0.19754750177E+03  0.00000000000E+00 0. -1.
         25    1    1    2    0    0  0.26319424880E+03  0.22195839790E+03  0.26164532731E+03  0.45013333614E+03  0.12500000000E+03 0.  0.
         25    1    1    2    0    0 -0.31144189150E+03 -0.14771365870E+03  0.38176017663E+03  0.52932146112E+03  0.12500000000E+03 0.  0.
         25    1    1    2    0    0  0.48247642695E+02 -0.74244739200E+02  0.16918011788E+03  0.22822582810E+03  0.12500000000E+03 0.  0.
</event>
<event>
 5    0  0.5815084E-005  0.3954200E+03  0.7546771E-02  0.1045377E+00
         21   -1    0    0  502  501  0.00000000000E+00  0.00000000000E+00  0.16012973491E+03  0.16012973491E+03  0.00000000000E+00 0.  1.
         21   -1    0    0  501  502 -0.00000000000E+00 -0.00000000000E+00 -0.97643946610E+03  0.97643946610E+03  0.00000000000E+00 0.  1.
         25    1    1    2    0    0 -0.14293951924E+03 -0.27130092147E+02  0.59694407243E+01  0.19190722312E+03  0.12500000000E+03 0.  0.
         25    1    1    2    0    0 -0.30075160246E+02  0.11768627513E+03 -0.59492691682E+03  0.61993355368E+03  0.12500000000E+03 0.  0.
         25    1    1    2    0    0  0.17301467949E+03 -0.90556182979E+02 -0.22735225510E+03  0.32472842421E+03  0.12500000000E+03 0.  0.
</event>
<event>
 5    0  0.5815084E-005  0.4415824E+03  0.7546771E-02  0.1030262E+00
         21   -1    0    0  502  501  0.00000000000E+00  0.00000000000E+00  0.28841998146E+03  0.28841998146E+03  0.00000000000E+00 0. -1.
         21   -1    0    0  501  502 -0.00000000000E+00 -0.00000000000E+00 -0.67608013278E+03  0.67608013278E+03  0.00000000000E+00 0. -1.
         25    1    1    2    0    0  0.18824342101E+03  0.24404720999E+03 -0.37606777854E+03  0.50204242880E+03  0.12500000000E+03 0.  0.
         25    1    1    2    0    0 -0.71445894902E+02  0.21428885627E+02  0.99327185337E+01  0.14590192574E+03  0.12500000000E+03 0.  0.
         25    1    1    2    0    0 -0.11679752611E+03 -0.26547609561E+03 -0.21525091313E+02  0.31655575971E+03  0.12500000000E+03 0.  0.
</event>
<event>
 5    0  0.5815084E-005  0.4574509E+03  0.7546771E-02  0.1025523E+00
         21   -1    0    0  502  501  0.00000000000E+00  0.00000000000E+00  0.90946417779E+03  0.90946417779E+03  0.00000000000E+00 0.  1.
         21   -1    0    0  501  502 -0.00000000000E+00 -0.00000000000E+00 -0.23009302693E+03  0.23009302693E+03  0.00000000000E+00 0.  1.
         25    1    1    2    0    0  0.58075103023E+02 -0.24135480886E+03  0.62049116817E+03  0.67989642677E+03  0.12500000000E+03 0.  0.
         25    1    1    2    0    0 -0.16806338405E+03  0.11391375670E+03 -0.10913160529E+02  0.23867497166E+03  0.12500000000E+03 0.  0.
         25    1    1    2    0    0  0.10998828103E+03  0.12744105216E+03  0.69793143226E+02  0.22098580629E+03  0.12500000000E+03 0.  0.
</event>
<event>
 5    0  0.5815084E-005  0.2744221E+03  0.7546771E-02  0.1098775E+00
         21   -1    0    0  502  501  0.00000000000E+00  0.00000000000E+00  0.16036038419E+03  0.16036038419E+03  0.00000000000E+00 0.  1.
         21   -1    0    0  501  502 -0.00000000000E+00 -0.00000000000E+00 -0.46961415034E+03  0.46961415034E+03  0.00000000000E+00 0.  1.
         25    1    1    2    0    0  0.66760105264E+02 -0.47733208896E+02 -0.11128649686E+03  0.18640025555E+03  0.12500000000E+03 0.  0.
         25    1    1    2    0    0 -0.16104451610E+03 -0.64658370796E+01 -0.18831723937E+03  0.27760678280E+03  0.12500000000E+03 0.  0.
         25    1    1    2    0    0  0.94284410835E+02  0.54199045975E+02 -0.96500299198E+01  0.16596749618E+03  0.12500000000E+03 0.  0.
</event>
<event>
 5    0  0.5815084E-005  0.3901688E+03  0.7546771E-02  0.1047238E+00
         21   -1    0    0  502  501  0.00000000000E+00  0.00000000000E+00  0.26200603125E+03  0.26200603125E+03  0.00000000000E+00 0. -1.
         21   -1    0    0  501  502 -0.00000000000E+00 -0.00000000000E+00 -0.58102369103E+03  0.58102369103E+03  0.00000000000E+00 0. -1.
         25    1    1    2    0    0  0.44976374796E+02 -0.21547885713E+02  0.15289536288E+03  0.20368892375E+03  0.12500000000E+03 0.  0.
         25    1    1    2    0    0 -0.15750132110E+03 -0.17246441366E+02 -0.40818152549E+03  0.45534740983E+03  0.12500000000E+03 0.  0.
         25    1    1    2    0    0  0.11252494631E+03  0.38794327080E+02 -0.63731497158E+02  0.18399338870E+03  0.12500000000E+03 0.  0.
</event>
<event>
 5    0  0.5815084E-005  0.2902364E+03  0.7546771E-02  0.1090226E+00
         21   -1    0    0  502  501  0.00000000000E+00  0.00000000000E+00  0.63122678118E+02  0.63122678118E+02  0.00000000000E+00 0.  1.
         21   -1    0    0  501  502 -0.00000000000E+00 -0.00000000000E+00 -0.13344992215E+04  0.13344992215E+04  0.00000000000E+00 0.  1.
         25    1    1    2    0    0 -0.39599597390E+02 -0.11543812081E+03 -0.28668187383E+03  0.33571652422E+03  0.12500000000E+03 0.  0.
         25    1    1    2    0    0 -0.51528654980E+02  0.18291310336E+03 -0.52251298862E+03  0.56987474847E+03  0.12500000000E+03 0.  0.
         25    1    1    2    0    0  0.91128252370E+02 -0.67474982552E+02 -0.46218168093E+03  0.49203062693E+03  0.12500000000E+03 0.  0.
</event>
<event>
 5    0  0.5815084E-005  0.2090998E+03  0.7546771E-02  0.1142281E+00
         21   -1    0    0  502  501  0.00000000000E+00  0.00000000000E+00  0.17737036866E+04  0.17737036866E+04  0.00000000000E+00 0.  1.
         21   -1    0    0  501  502 -0.00000000000E+00 -0.00000000000E+00 -0.24650512959E+02  0.24650512959E+02  0.00000000000E+00 0.  1.
         25    1    1    2    0    0  0.35702643779E+02 -0.77725535036E+01  0.70713480626E+03  0.71902692967E+03  0.12500000000E+03 0.  0.
         25    1    1    2    0    0 -0.13324885048E+02  0.64403367628E+02  0.47110059812E+03  0.49181919429E+03  0.12500000000E+03 0.  0.
         25    1    1    2    0    0 -0.22377758731E+02 -0.56630814125E+02  0.57081776924E+03  0.58750807558E+03  0.12500000000E+03 0.  0.
</event>
<event>
 5    0  0.5815084E-005  0.3710437E+03  0.7546771E-02  0.1054295E+00
         21   -1    0    0  502  501  0.00000000000E+00  0.00000000000E+00  0.18511677034E+03  0.18511677034E+03  0.00000000000E+00 0.  1.
         21   -1    0    0  501  502 -0.00000000000E+00 -0.00000000000E+00 -0.74371118328E+03  0.74371118328E+03  0.00000000000E+00 0.  1.
         25    1    1    2    0    0  0.28576544035E+02  0.30937120054E+02 -0.23700972523E+03  0.27124220564E+03  0.12500000000E+03 0.  0.
         25    1    1    2    0    0 -0.12359743692E+03  0.21419150587E+03 -0.11193902623E+03  0.29884724056E+03  0.12500000000E+03 0.  0.
         25    1    1    2    0    0  0.95020892882E+02 -0.24512862592E+03 -0.20964566147E+03  0.35873850742E+03  0.12500000000E+03 0.  0.
</event>
<event>
 5    0  0.5815084E-005  0.4731465E+03  0.7546771E-02  0.1021036E+00
         21   -1    0    0  502  501  0.00000000000E+00  0.00000000000E+00  0.17944501918E+03  0.17944501918E+03  0.00000000000E+00 0.  1.
         21   -1    0    0  501  502 -0.00000000000E+00 -0.00000000000E+00 -0.12475553378E+04  0.12475553378E+04  0.00000000000E+00 0.  1.
         25    1    1    2    0    0 -0.49464668492E+02  0.25528575607E+03 -0.11840965462E+03  0.31187083382E+03  0.12500000000E+03 0.  0.
         25    1    1    2    0    0 -0.11735479047E+03 -0.32227868283E+03 -0.57237942530E+03  0.67888062482E+03  0.12500000000E+03 0.  0.
         25    1    1    2    0    0  0.16681945897E+03  0.66992926765E+02 -0.37732123870E+03  0.43624889833E+03  0.12500000000E+03 0.  0.
</event>
<event>
 5    0  0.5815084E-005  0.2886472E+03  0.7546771E-02  0.1091058E+00
         21   -1    0    0  502  501  0.00000000000E+00  0.00000000000E+00  0.11445181734E+04  0.11445181734E+04  0.00000000000E+00 0.  1.
         21   -1    0    0  501  502 -0.00000000000E+00 -0.00000000000E+00 -0.72796766194E+02  0.72796766194E+02  0.00000000000E+00 0.  1.
         25    1    1    2    0    0 -0.32295969051E+02  0.18157991850E+02  0.24940389059E+03  0.28142502186E+03  0.12500000000E+03 0.  0.
         25    1    1    2    0    0  0.72382831991E+02  0.44995017172E+02  0.64954477638E+02  0.16464479980E+03  0.12500000000E+03 0.  0.
         25    1    1    2    0    0 -0.40086862941E+02 -0.63153009022E+02  0.75736303896E+03  0.77124511792E+03  0.12500000000E+03 0.  0.
</event>
<event>
 5    0  0.5815084E-005  0.3243009E+03  0.7546771E-02  0.1073687E+00
         21   -1    0    0  502  501  0.00000000000E+00  0.00000000000E+00  0.12498930842E+03  0.12498930842E+03  0.00000000000E+00 0. -1.
         21   -1    0    0  501  502 -0.00000000000E+00 -0.00000000000E+00 -0.84144039356E+03  0.84144039356E+03  0.00000000000E+00 0. -1.
         25    1    1    2    0    0 -0.13852646003E+03 -0.50651067251E+02 -0.12325159147E+03  0.22928381003E+03  0.12500000000E+03 0.  0.
         25    1    1    2    0    0  0.12743178582E+03 -0.11013913822E+03 -0.18019696105E+03  0.27652384088E+03  0.12500000000E+03 0.  0.
         25    1    1    2    0    0  0.11094674214E+02  0.16079020547E+03 -0.41300253262E+03  0.46062205106E+03  0.12500000000E+03 0.  0.
</event>
<event>
 5    0  0.5815084E-005  0.3162455E+03  0.7546771E-02  0.1077390E+00
         21   -1    0    0  502  501  0.00000000000E+00  0.00000000000E+00  0.17665427479E+03  0.17665427479E+03  0.00000000000E+00 0. -1.
         21   -1    0    0  501  502 -0.00000000000E+00 -0.00000000000E+00 -0.56614103477E+03  0.56614103477E+03  0.00000000000E+00 0. -1.
         25    1    1    2    0    0  0.54973840040E+02 -0.68911843018E+02 -0.16082573063E+02  0.15380056682E+03  0.12500000000E+03 0.  0.
         25    1    1    2    0    0 -0.11286484114E+03  0.12012454553E+03 -0.21922115251E+02  0.20802393598E+03  0.12500000000E+03 0.  0.
         25    1    1    2    0    0  0.57891001096E+02 -0.51212702509E+02 -0.35148207167E+03  0.38097080677E+03  0.12500000000E+03 0.  0.
</event>
<event>
 5    0  0.5815084E-005  0.4167467E+03  0.7546771E-02  0.1038130E+00
         21   -1    0    0  502  501  0.00000000000E+00  0.00000000000E+00  0.12629063150E+03  0.12629063150E+03  0.00000000000E+00 0. -1.
         21   -1    0    0  501  502 -0.00000000000E+00 -0.00000000000E+00 -0.13752231892E+04  0.13752231892E+04  0.00000000000E+00 0. -1.
         25    1    1    2    0    0 -0.32188760452E+01  0.33884953624E+01 -0.20782530104E+03  0.24256586490E+03  0.12500000000E+03 0.  0.
         25    1    1    2    0    0 -0.82859055865E+02 -0.10086024456E+02 -0.10892592255E+04  0.10995808344E+04  0.12500000000E+03 0.  0.
         25    1    1    2    0    0  0.86077931910E+02  0.66975290935E+01  0.48151968901E+02  0.15936712135E+03  0.12500000000E+03 0.  0.
</event>
<event>
 5    0  0.5815084E-005  0.3995723E+03  0.7546771E-02  0.1043928E+00
         21   -1    0    0  502  501  0.00000000000E+00  0.00000000000E+00  0.85654433672E+03  0.85654433672E+03  0.00000000000E+00 0. -1.
         21   -1    0    0  501  502 -0.00000000000E+00 -0.00000000000E+00 -0.18639789033E+03  0.18639789033E+03  0.00000000000E+00 0. -1.
         25    1    1    2    0    0 -0.13297084761E+03  0.16830418387E+03  0.61473847992E+03  0.66297506990E+03  0.12500000000E+03 0.  0.
         25    1    1    2    0    0  0.39998661400E+00 -0.41596190395E+02 -0.41035586065E+02  0.13798305102E+03  0.12500000000E+03 0.  0.
         25    1    1    2    0    0  0.13257086099E+03 -0.12670799347E+03  0.96443552532E+02  0.24198410613E+03  0.12500000000E+03 0.  0.
</event>
<event>
 5    0  0.5815084E-005  0.4220802E+03  0.7546771E-02  0.1036391E+00
         21   -1    0    0  502  501  0.00000000000E+00  0.00000000000E+00  0.30237776941E+03  0.30237776941E+03  0.00000000000E+00 0.  1.
         21   -1    0    0  501  502 -0.00000000000E+00 -0.00000000000E+00 -0.58916919838E+03  0.58916919838E+03  0.00000000000E+00 0.  1.
         25    1    1    2    0    0 -0.68048928714E+01 -0.70219984909E+02 -0.14045515095E+03  0.20082281314E+03  0.12500000000E+03 0.  0.
         25    1    1    2    0    0  0.29794698721E+03  0.13243258497E+03 -0.43724441216E+02  0.35191991065E+03  0.12500000000E+03 0.  0.
         25    1    1    2    0    0 -0.29114209434E+03 -0.62212600057E+02 -0.10261183681E+03  0.33880424401E+03  0.12500000000E+03 0.  0.
</event>
<event>
 5    0  0.5815084E-005  0.3239747E+03  0.7546771E-02  0.1073834E+00
         21   -1    0    0  502  501  0.00000000000E+00  0.00000000000E+00  0.31245287823E+03  0.31245287823E+03  0.00000000000E+00 0. -1.
         21   -1    0    0  501  502 -0.00000000000E+00 -0.00000000000E+00 -0.33592139252E+03  0.33592139252E+03  0.00000000000E+00 0. -1.
         25    1    1    2    0    0 -0.12904965800E+03 -0.54312066360E+02 -0.12835247771E+03  0.22738287824E+03  0.12500000000E+03 0.  0.
         25    1    1    2    0    0 -0.28305697423E+01 -0.67959806512E+02  0.13947541818E+03  0.19926098389E+03  0.12500000000E+03 0.  0.
         25    1    1    2    0    0  0.13188022774E+03  0.12227187287E+03 -0.34591454761E+02  0.22173040862E+03  0.12500000000E+03 0.  0.
</event>
<event>
 5    0  0.5815084E-005  0.4063698E+03  0.7546771E-02  0.1041596E+00
         21   -1    0    0  502  501  0.00000000000E+00  0.00000000000E+00  0.10444297891E+03  0.10444297891E+03  0.00000000000E+00 0.  1.
         21   -1    0    0  501  502 -0.00000000000E+00 -0.00000000000E+00 -0.15811151519E+04  0.15811151519E+04  0.00000000000E+00 0.  1.
         25    1    1    2    0    0 -0.60139854135E+01  0.28579264517E+03 -0.66211846008E+03  0.73194225129E+03  0.12500000000E+03 0.  0.
         25    1    1    2    0    0  0.16187283099E+03 -0.13114057296E+03 -0.41480840763E+03  0.48071995833E+03  0.12500000000E+03 0.  0.
         25    1    1    2    0    0 -0.15585884558E+03 -0.15465207221E+03 -0.39974530529E+03  0.47289592120E+03  0.12500000000E+03 0.  0.
</event>
<event>
 5    0  0.5815084E-005  0.2123840E+03  0.7546771E-02  0.1139692E+00
         21   -1    0    0  502  501  0.00000000000E+00  0.00000000000E+00  0.81043939471E+03  0.81043939471E+03  0.00000000000E+00 0. -1.
         21   -1    0    0  501  502 -0.00000000000E+00 -0.00000000000E+00 -0.55657396189E+02  0.55657396189E+02  0.00000000000E+00 0. -1.
         25    1    1    2    0    0 -0.17492726550E+02  0.49985180819E+02  0.29725471820E+03  0.32678721101E+03  0.12500000000E+03 0.  0.
         25    1    1    2    0    0 -0.20478806706E+02 -0.42375903365E+02  0.33248939344E+03  0.35831452030E+03  0.12500000000E+03 0.  0.
         25    1    1    2    0    0  0.37971533256E+02 -0.76092774539E+01  0.12503788688E+03  0.18099505959E+03  0.12500000000E+03 0.  0.
</event>
<event>
 5    0  0.5815084E-005  0.2540234E+03  0.7546771E-02  0.1110788E+00
         21   -1    0    0  502  501  0.00000000000E+00  0.00000000000E+00  0.29937382910E+03  0.29937382910E+03  0.00000000000E+00 0. -1.
         21   -1    0    0  501  502 -0.00000000000E+00 -0.00000000000E+00 -0.21554282200E+03  0.21554282200E+03  0.00000000000E+00 0. -1.
         25    1    1    2    0    0  0.55547845666E+02 -0.37741177891E+01 -0.29070937579E+02  0.13989255354E+03  0.12500000000E+03 0.  0.
         25    1    1    2    0    0  0.11542675695E+02 -0.73218249582E+02 -0.42038083012E+02  0.15128233822E+03  0.12500000000E+03 0.  0.
         25    1    1    2    0    0 -0.67090521361E+02  0.76992367371E+02  0.15494002769E+03  0.22374175934E+03  0.12500000000E+03 0.  0.
</event>
<event>
 5    0  0.5815084E-005  0.3164225E+03  0.7546771E-02  0.1077308E+00
         21   -1    0    0  502  501  0.00000000000E+00  0.00000000000E+00  0.47236108633E+03  0.47236108633E+03  0.00000000000E+00 0.  1.
         21   -1    0    0  501  502 -0.00000000000E+00 -0.00000000000E+00 -0.21196333061E+03  0.21196333061E+03  0.00000000000E+00 0.  1.
         25    1    1    2    0    0 -0.17449209924E+03 -0.61239824183E+02  0.72852740698E+02  0.23479848933E+03  0.12500000000E+03 0.  0.
         25    1    1    2    0    0  0.22519087424E+03  0.18045382680E+02  0.75713579455E+02  0.26906153904E+03  0.12500000000E+03 0.  0.
         25    1    1    2    0    0 -0.50698774998E+02  0.43194441503E+02  0.11183143556E+03  0.18046438857E+03  0.12500000000E+03 0.  0.
</event>
<event>
 5    0  0.5815084E-005  0.2674456E+03  0.7546771E-02  0.1102750E+00
         21   -1    0    0  502  501  0.00000000000E+00  0.00000000000E+00  0.11631100331E+03  0.11631100331E+03  0.00000000000E+00 0. -1.
         21   -1    0    0  501  502 -0.00000000000E+00 -0.00000000000E+00 -0.61496479407E+03  0.61496479407E+03  0.00000000000E+00 0. -1.
         25    1    1    2    0    0  0.19929514433E+02  0.11389133423E+03 -0.24213386474E+03  0.29601052348E+03  0.12500000000E+03 0.  0.
         25    1    1    2    0    0 -0.77595939347E+02  0.96504595099E+01 -0.44736486337E+02  0.15407989610E+03  0.12500000000E+03 0.  0.
         25    1    1    2    0    0  0.57666424913E+02 -0.12354179374E+03 -0.21178343968E+03  0.28118537779E+03  0.12500000000E+03 0.  0.
</event>
<event>
 5    0  0.5815084E-005  0.4282234E+03  0.7546771E-02  0.1034423E+00
         21   -1    0    0  502  501  0.00000000000E+00  0.00000000000E+00  0.28289417197E+03  0.28289417197E+03  0.00000000000E+00 0.  1.
         21   -1    0    0  501  502 -0.00000000000E+00 -0.00000000000E+00 -0.64821168586E+03  0.64821168586E+03  0.00000000000E+00 0.  1.
         25    1    1    2    0    0  0.30084969443E+02 -0.14329428257E+03 -0.61479350751E+02  0.20209667828E+03  0.12500000000E+03 0.  0.
         25    1    1    2    0    0 -0.23361239058E+03  0.27671111354E+03 -0.12859229061E+03  0.40410984471E+03  0.12500000000E+03 0.  0.
         25    1    1    2    0    0  0.20352742113E+03 -0.13341683097E+03 -0.17524587253E+03  0.32489933484E+03  0.12500000000E+03 0.  0.
</event>
<event>
 5    0  0.5815084E-005  0.3331002E+03  0.7546771E-02  0.1069773E+00
         21   -1    0    0  502  501  0.00000000000E+00  0.00000000000E+00  0.44168286521E+03  0.44168286521E+03  0.00000000000E+00 0. -1.
         21   -1    0    0  501  502 -0.00000000000E+00 -0.00000000000E+00 -0.25121139515E+03  0.25121139515E+03  0.00000000000E+00 0. -1.
         25    1    1    2    0    0 -0.48265098183E+01  0.24461680027E+03  0.90041324416E+02  0.28912473826E+03  0.12500000000E+03 0.  0.
         25    1    1    2    0    0  0.11248485897E+02 -0.19928086412E+03 -0.24570324759E+01  0.23552160888E+03  0.12500000000E+03 0.  0.
         25    1    1    2    0    0 -0.64219760788E+01 -0.45335936142E+02  0.10288717813E+03  0.16824791323E+03  0.12500000000E+03 0.  0.
</event>
<event>
 5    0  0.5815084E-005  0.3343200E+03  0.7546771E-02  0.1069241E+00
         21   -1    0    0  502  501  0.00000000000E+00  0.00000000000E+00  0.13504848347E+03  0.13504848347E+03  0.00000000000E+00 0. -1.
         21   -1    0    0  501  502 -0.00000000000E+00 -0.00000000000E+00 -0.82762744802E+03  0.82762744802E+03  0.00000000000E+00 0. -1.
         25    1    1    2    0    0 -0.14843322682E+02 -0.16471942693E+03 -0.17908830934E+03  0.27395334708E+03  0.12500000000E+03 0.  0.
         25    1    1    2    0    0  0.17817131652E+03  0.89426968479E+02 -0.31468077470E+03  0.39292644437E+03  0.12500000000E+03 0.  0.
         25    1    1    2    0    0 -0.16332799384E+03  0.75292458453E+02 -0.19880988051E+03  0.29579614004E+03  0.12500000000E+03 0.  0.
</event>
<event>
 5    0  0.5815084E-005  0.2887180E+03  0.7546771E-02  0.1091020E+00
         21   -1    0    0  502  501  0.00000000000E+00  0.00000000000E+00  0.83827462947E+02  0.83827462947E+02  0.00000000000E+00 0.  1.
         21   -1    0    0  501  502 -0.00000000000E+00 -0.00000000000E+00 -0.99440056673E+03  0.99440056673E+03  0.00000000000E+00 0.  1.
         25    1    1    2    0    0  0.21677927440E+02  0.13756328467E+03 -0.12748749371E+03  0.22643244220E+03  0.12500000000E+03 0.  0.
         25    1    1    2    0    0  0.73062748310E+02 -0.84433134090E+02 -0.43978073458E+03  0.47063702981E+03  0.12500000000E+03 0.  0.
         25    1    1    2    0    0 -0.94740675750E+02 -0.53130150584E+02 -0.34330487549E+03  0.38115855766E+03  0.12500000000E+03 0.  0.
</event>
<event>
 5    0  0.5815084E-005  0.3238294E+03  0.7546771E-02  0.1073900E+00
         21   -1    0    0  502  501  0.00000000000E+00  0.00000000000E+00  0.13562259053E+03  0.13562259053E+03  0.00000000000E+00 0. -1.
         21   -1    0    0  501  502 -0.00000000000E+00 -0.00000000000E+00 -0.77321563502E+03  0.77321563502E+03  0.00000000000E+00 0. -1.
         25    1    1    2    0    0  0.33158125636E+02 -0.13643781051E+03 -0.45003050712E+03  0.48771630563E+03  0.12500000000E+03 0.  0.
         25    1    1    2    0    0  0.67174214510E+01  0.14595581174E+03 -0.31692320445E+00  0.19228448500E+03  0.12500000000E+03 0.  0.
         25    1    1    2    0    0 -0.39875547087E+02 -0.95180012276E+01 -0.18724561416E+03  0.22883743493E+03  0.12500000000E+03 0.  0.
</event>
<event>
 5    0  0.5815084E-005  0.3699573E+03  0.7546771E-02  0.1054709E+00
         21   -1    0    0  502  501  0.00000000000E+00  0.00000000000E+00  0.51093691749E+03  0.51093691749E+03  0.00000000000E+00 0.  1.
         21   -1    0    0  501  502 -0.00000000000E+00 -0.00000000000E+00 -0.26787727124E+03  0.26787727124E+03  0.00000000000E+00 0.  1.
         25    1    1    2    0    0  0.25045971765E+03 -0.62216854563E+02  0.15641256670E+03  0.32663572704E+03  0.12500000000E+03 0.  0.
         25    1    1    2    0    0 -0.72536382102E+01  0.84574428102E+02 -0.30005223774E+02  0.15404792309E+03  0.12500000000E+03 0.  0.
         25    1    1    2    0    0 -0.24320607944E+03 -0.22357573539E+02  0.11665230333E+03  0.29813053860E+03  0.12500000000E+03 0.  0.
</event>
<event>
 5    0  0.5815084E-005  0.2589653E+03  0.7546771E-02  0.1107766E+00
         21   -1    0    0  502  501  0.00000000000E+00  0.00000000000E+00  0.33920156569E+04  0.33920156569E+04  0.00000000000E+00 0.  1.
         21   -1    0    0  501  502 -0.00000000000E+00 -0.00000000000E+00 -0.19770848578E+02  0.19770848578E+02  0.00000000000E+00 0.  1.
         25    1    1    2    0    0 -0.35490952257E+02  0.10344626282E+03  0.60703068316E+03  0.62934250395E+03  0.12500000000E+03 0.  0.
         25    1    1    2    0    0 -0.42386122431E+02 -0.80424310200E+02  0.16689770292E+04  0.16761187240E+04  0.12500000000E+03 0.  0.
         25    1    1    2    0    0  0.77877074688E+02 -0.23021952616E+02  0.10962370959E+04  0.11063252774E+04  0.12500000000E+03 0.  0.
</event>
<event>
 5    0  0.5815084E-005  0.2584684E+03  0.7546771E-02  0.1108067E+00
         21   -1    0    0  502  501  0.00000000000E+00  0.00000000000E+00  0.21787857413E+04  0.21787857413E+04  0.00000000000E+00 0. -1.
         21   -1    0    0  501  502 -0.00000000000E+00 -0.00000000000E+00 -0.30661990834E+02  0.30661990834E+02  0.00000000000E+00 0. -1.
         25    1    1    2    0    0  0.95293852023E+02  0.11764665467E+03  0.70599147809E+03  0.73278279232E+03  0.12500000000E+03 0.  0.
         25    1    1    2    0    0  0.10248115358E+02 -0.80396604908E+02  0.72807260734E+03  0.74315769492E+03  0.12500000000E+03 0.  0.
         25    1    1    2    0    0 -0.10554196738E+03 -0.37250049762E+02  0.71405966498E+03  0.73350724485E+03  0.12500000000E+03 0.  0.
</event>
<event>
 5    0  0.5815084E-005  0.2874586E+03  0.7546771E-02  0.1091684E+00
         21   -1    0    0  502  501  0.00000000000E+00  0.00000000000E+00  0.47268433305E+03  0.47268433305E+03  0.00000000000E+00 0.  1.
         21   -1    0    0  501  502 -0.00000000000E+00 -0.00000000000E+00 -0.17481533284E+03  0.17481533284E+03  0.00000000000E+00 0.  1.
         25    1    1    2    0    0 -0.80091610688E+02 -0.27965428731E+02  0.93903324391E+02  0.17787514059E+03  0.12500000000E+03 0.  0.
         25    1    1    2    0    0  0.52969223618E+01  0.90079225440E+02  0.25947525191E+03  0.30181903618E+03  0.12500000000E+03 0.  0.
         25    1    1    2    0    0  0.74794688326E+02 -0.62113796709E+02 -0.55509576093E+02  0.16780548913E+03  0.12500000000E+03 0.  0.
</event>
<event>
 5    0  0.5815084E-005  0.3069733E+03  0.7546771E-02  0.1081806E+00
         21   -1    0    0  502  501  0.00000000000E+00  0.00000000000E+00  0.70492850353E+02  0.70492850353E+02  0.00000000000E+00 0. -1.
         21   -1    0    0  501  502 -0.00000000000E+00 -0.00000000000E+00 -0.13367682206E+04  0.13367682206E+04  0.00000000000E+00 0. -1.
         25    1    1    2    0    0 -0.30395163427E+02 -0.72913595098E+01 -0.41614758321E+02  0.13540242979E+03  0.12500000000E+03 0.  0.
         25    1    1    2    0    0  0.72906750083E+02  0.87553097974E+02 -0.84863905686E+03  0.86532894786E+03  0.12500000000E+03 0.  0.
         25    1    1    2    0    0 -0.42511586656E+02 -0.80261738465E+02 -0.37602155504E+03  0.40652969328E+03  0.12500000000E+03 0.  0.
</event>
<event>
 5    0  0.5815084E-005  0.3359077E+03  0.7546771E-02  0.1068552E+00
         21   -1    0    0  502  501  0.00000000000E+00  0.00000000000E+00  0.21799521184E+03  0.21799521184E+03  0.00000000000E+00 0. -1.
         21   -1    0    0  501  502 -0.00000000000E+00 -0.00000000000E+00 -0.51759859457E+03  0.51759859457E+03  0.00000000000E+00 0. -1.
         25    1    1    2    0    0 -0.28849118335E+02  0.90979022414E+02 -0.75312406776E+02  0.17437434663E+03  0.12500000000E+03 0.  0.
         25    1    1    2    0    0  0.88752742285E+02 -0.17149635639E+03  0.57426222872E+02  0.23708821268E+03  0.12500000000E+03 0.  0.
         25    1    1    2    0    0 -0.59903623950E+02  0.80517333975E+02 -0.28171719883E+03  0.32413124710E+03  0.12500000000E+03 0.  0.
</event>
<event>
 5    0  0.5815084E-005  0.2452334E+03  0.7546771E-02  0.1116355E+00
         21   -1    0    0  502  501  0.00000000000E+00  0.00000000000E+00  0.19798123992E+04  0.19798123992E+04  0.00000000000E+00 0. -1.
         21   -1    0    0  501  502 -0.00000000000E+00 -0.00000000000E+00 -0.30376326841E+02  0.30376326841E+02  0.00000000000E+00 0. -1.
         25    1    1    2    0    0 -0.78377543778E+02 -0.96978199472E+02  0.54927320173E+03  0.57695221698E+03  0.12500000000E+03 0.  0.
         25    1    1    2    0    0 -0.16834468138E+02  0.44847494370E+02  0.77755332356E+03  0.78899231178E+03  0.12500000000E+03 0.  0.
         25    1    1    2    0    0  0.95212011917E+02  0.52130705102E+02  0.62260954711E+03  0.64424419732E+03  0.12500000000E+03 0.  0.
</event>
<event>
 5    0  0.5815084E-005  0.2852336E+03  0.7546771E-02  0.1092864E+00
         21   -1    0    0  502  501  0.00000000000E+00  0.00000000000E+00  0.48195220873E+02  0.48195220873E+02  0.00000000000E+00 0. -1.
         21   -1    0    0  501  502 -0.00000000000E+00 -0.00000000000E+00 -0.16880974226E+04  0.16880974226E+04  0.00000000000E+00 0. -1.
         25    1    1    2    0    0  0.78255143155E+02  0.77218344696E+02 -0.21743458711E+03  0.27384181540E+03  0.12500000000E+03 0.  0.
         25    1    1    2    0    0 -0.94179671699E+02 -0.12777741714E+03 -0.77531767418E+03  0.80121119238E+03  0.12500000000E+03 0.  0.
         25    1    1    2    0    0  0.15924528544E+02  0.50559072443E+02 -0.64714994045E+03  0.66123963572E+03  0.12500000000E+03 0.  0.
</event>
<event>
 5    0  0.5815084E-005  0.3381295E+03  0.7546771E-02  0.1067595E+00
         21   -1    0    0  502  501  0.00000000000E+00  0.00000000000E+00  0.47551541658E+03  0.47551541658E+03  0.00000000000E+00 0. -1.
         21   -1    0    0  501  502 -0.00000000000E+00 -0.00000000000E+00 -0.24043717585E+03  0.24043717585E+03  0.00000000000E+00 0. -1.
         25    1    1    2    0    0  0.11605666044E+03 -0.13850790551E+02  0.28056927782E+02  0.17341621616E+03  0.12500000000E+03 0.  0.
         25    1    1    2    0    0  0.64109507408E+02  0.30655262772E+02 -0.92480721639E+02  0.17096039878E+03  0.12500000000E+03 0.  0.
         25    1    1    2    0    0 -0.18016616785E+03 -0.16804472220E+02  0.29950203459E+03  0.37157597749E+03  0.12500000000E+03 0.  0.
</event>
<event>
 5    0  0.5815084E-005  0.2420272E+03  0.7546771E-02  0.1118450E+00
         21   -1    0    0  502  501  0.00000000000E+00  0.00000000000E+00  0.11592201118E+03  0.11592201118E+03  0.00000000000E+00 0.  1.
         21   -1    0    0  501  502 -0.00000000000E+00 -0.00000000000E+00 -0.50531520733E+03  0.50531520733E+03  0.00000000000E+00 0.  1.
         25    1    1    2    0    0  0.28180227078E+02  0.11569066182E+03 -0.23977820685E+03  0.29546072990E+03  0.12500000000E+03 0.  0.
         25    1    1    2    0    0 -0.30277351154E+01 -0.67176893874E+02 -0.12070500643E+03  0.18632391373E+03  0.12500000000E+03 0.  0.
         25    1    1    2    0    0 -0.25152491963E+02 -0.48513767948E+02 -0.28909982870E+02  0.13945257488E+03  0.12500000000E+03 0.  0.
</event>
<event>
 5    0  0.5815084E-005  0.3306124E+03  0.7546771E-02  0.1070866E+00
         21   -1    0    0  502  501  0.00000000000E+00  0.00000000000E+00  0.15328357846E+03  0.15328357846E+03  0.00000000000E+00 0. -1.
         21   -1    0    0  501  502 -0.00000000000E+00 -0.00000000000E+00 -0.71308740569E+03  0.71308740569E+03  0.00000000000E+00 0. -1.
         25    1    1    2    0    0 -0.82351670973E+02 -0.40892918000E+01 -0.14832297352E+03  0.21076817714E+03  0.12500000000E+03 0.  0.
         25    1    1    2    0    0 -0.15775497672E+03 -0.30837428286E+02 -0.29591533690E+03  0.35920532607E+03  0.12500000000E+03 0.  0.
         25    1    1    2    0    0  0.24010664769E+03  0.34926720086E+02 -0.11556551681E+03  0.29639748095E+03  0.12500000000E+03 0.  0.
</event>
<event>
 5    0  0.5815084E-005  0.2134324E+03  0.7546771E-02  0.1138876E+00
         21   -1    0    0  502  501  0.00000000000E+00  0.00000000000E+00  0.11551990934E+04  0.11551990934E+04  0.00000000000E+00 0.  1.
         21   -1    0    0  501  502 -0.00000000000E+00 -0.00000000000E+00 -0.39433380243E+02  0.39433380243E+02  0.00000000000E+00 0.  1.
         25    1    1    2    0    0 -0.60697901694E+02  0.66645724568E+01  0.25634847444E+03  0.29166451986E+03  0.12500000000E+03 0.  0.
         25    1    1    2    0    0  0.39835889133E+02 -0.43681777121E+02  0.53815223033E+03  0.55563280926E+03  0.12500000000E+03 0.  0.
         25    1    1    2    0    0  0.20862012562E+02  0.37017204664E+02  0.32126500838E+03  0.34733514452E+03  0.12500000000E+03 0.  0.
</event>
<event>
 5    0  0.5815084E-005  0.2996816E+03  0.7546771E-02  0.1085400E+00
         21   -1    0    0  502  501  0.00000000000E+00  0.00000000000E+00  0.27965509698E+03  0.27965509698E+03  0.00000000000E+00 0.  1.
         21   -1    0    0  501  502 -0.00000000000E+00 -0.00000000000E+00 -0.32114220024E+03  0.32114220024E+03  0.00000000000E+00 0.  1.
         25    1    1    2    0    0 -0.18430260133E+02 -0.18332756153E+03  0.14316422352E+02  0.22311124861E+03  0.12500000000E+03 0.  0.
         25    1    1    2    0    0 -0.28837249631E+02  0.15033843571E+03 -0.11409593845E+03  0.22820191802E+03  0.12500000000E+03 0.  0.
         25    1    1    2    0    0  0.47267509764E+02  0.32989125826E+02  0.58292412842E+02  0.14948413059E+03  0.12500000000E+03 0.  0.
</event>
<event>
 5    0  0.5815084E-005  0.3311080E+03  0.7546771E-02  0.1070648E+00
         21   -1    0    0  502  501  0.00000000000E+00  0.00000000000E+00  0.10143271635E+04  0.10143271635E+04  0.00000000000E+00 0. -1.
         21   -1    0    0  501  502 -0.00000000000E+00 -0.00000000000E+00 -0.10808398729E+03  0.10808398729E+03  0.00000000000E+00 0. -1.
         25    1    1    2    0    0  0.21846731989E+02 -0.13376391785E+02  0.12039178391E+03  0.17542915718E+03  0.12500000000E+03 0.  0.
         25    1    1    2    0    0  0.11461723768E+02 -0.94659402051E+02  0.15010382464E+02  0.15793063379E+03  0.12500000000E+03 0.  0.
         25    1    1    2    0    0 -0.33308455756E+02  0.10803579384E+03  0.77084100986E+03  0.78905135983E+03  0.12500000000E+03 0.  0.
</event>
<event>
 5    0  0.5815084E-005  0.4433965E+03  0.7546771E-02  0.1029710E+00
         21   -1    0    0  502  501  0.00000000000E+00  0.00000000000E+00  0.10925385501E+04  0.10925385501E+04  0.00000000000E+00 0.  1.
         21   -1    0    0  501  502 -0.00000000000E+00 -0.00000000000E+00 -0.17994830679E+03  0.17994830679E+03  0.00000000000E+00 0.  1.
         25    1    1    2    0    0  0.14728896981E+03 -0.27880295563E+03  0.18069633563E+03  0.38431926103E+03  0.12500000000E+03 0.  0.
         25    1    1    2    0    0 -0.14940041717E+03 -0.30573605490E+01  0.28430167950E+03  0.34464804812E+03  0.12500000000E+03 0.  0.
         25    1    1    2    0    0  0.21114473604E+01  0.28186031618E+03  0.44759222818E+03  0.54351954774E+03  0.12500000000E+03 0.  0.
</event>
<event>
 5    0  0.5815084E-005  0.3247261E+03  0.7546771E-02  0.1073495E+00
         21   -1    0    0  502  501  0.00000000000E+00  0.00000000000E+00  0.15925171392E+04  0.15925171392E+04  0.00000000000E+00 0.  1.
         21   -1    0    0  501  502 -0.00000000000E+00 -0.00000000000E+00 -0.66214073965E+02  0.66214073965E+02  0.00000000000E+00 0.  1.
         25    1    1    2    0    0 -0.22205645711E+03 -0.66435144178E+02  0.74448079556E+03  0.78968307155E+03  0.12500000000E+03 0.  0.
         25    1    1    2    0    0  0.19610335851E+03  0.88187511142E+02  0.47982556687E+03  0.54045456697E+03  0.12500000000E+03 0.  0.
         25    1    1    2    0    0  0.25953098598E+02 -0.21752366964E+02  0.30199670285E+03  0.32859357469E+03  0.12500000000E+03 0.  0.
</event>
<event>
 5    0  0.5815084E-005  0.2828517E+03  0.7546771E-02  0.1094142E+00
         21   -1    0    0  502  501  0.00000000000E+00  0.00000000000E+00  0.15355503977E+03  0.15355503977E+03  0.00000000000E+00 0. -1.
         21   -1    0    0  501  502 -0.00000000000E+00 -0.00000000000E+00 -0.52101908116E+03  0.52101908116E+03  0.00000000000E+00 0. -1.
         25    1    1    2    0    0  0.27058814374E+02  0.40145363325E+02 -0.15567358354E+03  0.20543391698E+03  0.12500000000E+03 0.  0.
         25    1    1    2    0    0 -0.12602919623E+03  0.72110327114E+02 -0.19508573859E+03  0.27343500687E+03  0.12500000000E+03 0.  0.
         25    1    1    2    0    0  0.98970381852E+02 -0.11225569044E+03 -0.16704719253E+02  0.19570519708E+03  0.12500000000E+03 0.  0.
</event>
<event>
 5    0  0.5815084E-005  0.3450735E+03  0.7546771E-02  0.1064655E+00
         21   -1    0    0  502  501  0.00000000000E+00  0.00000000000E+00  0.23063006545E+03  0.23063006545E+03  0.00000000000E+00 0.  1.
         21   -1    0    0  501  502 -0.00000000000E+00 -0.00000000000E+00 -0.51630611248E+03  0.51630611248E+03  0.00000000000E+00 0.  1.
         25    1    1    2    0    0 -0.19830448704E+03 -0.11602363224E+02 -0.86501438674E+02  0.25013353095E+03  0.12500000000E+03 0.  0.
         25    1    1    2    0    0  0.24065266011E+03 -0.77416538610E+02 -0.18434364644E+03  0.33691928299E+03  0.12500000000E+03 0.  0.
         25    1    1    2    0    0 -0.42348173071E+02  0.89018901835E+02 -0.14830961912E+02  0.15988336398E+03  0.12500000000E+03 0.  0.
</event>
<event>
 5    0  0.5815084E-005  0.3567799E+03  0.7546771E-02  0.1059866E+00
         21   -1    0    0  502  501  0.00000000000E+00  0.00000000000E+00  0.47290836440E+03  0.47290836440E+03  0.00000000000E+00 0. -1.
         21   -1    0    0  501  502 -0.00000000000E+00 -0.00000000000E+00 -0.26916824664E+03  0.26916824664E+03  0.00000000000E+00 0. -1.
         25    1    1    2    0    0 -0.10577757288E+03 -0.31674063676E+02  0.91668024348E+02  0.19031596865E+03  0.12500000000E+03 0.  0.
         25    1    1    2    0    0 -0.16688003253E+03  0.79399375172E+02 -0.12563301697E+02  0.22346373886E+03  0.12500000000E+03 0.  0.
         25    1    1    2    0    0  0.27265760542E+03 -0.47725311495E+02  0.12463539511E+03  0.32829690352E+03  0.12500000000E+03 0.  0.
</event>
<event>
 5    0  0.5815084E-005  0.2602660E+03  0.7546771E-02  0.1106984E+00
         21   -1    0    0  502  501  0.00000000000E+00  0.00000000000E+00  0.12877035539E+04  0.12877035539E+04  0.00000000000E+00 0.  1.
         21   -1    0    0  501  502 -0.00000000000E+00 -0.00000000000E+00 -0.52604032647E+02  0.52604032647E+02  0.00000000000E+00 0.  1.
         25    1    1    2    0    0 -0.29233607751E+02 -0.14767567963E+03  0.57410378646E+03  0.60653348449E+03  0.12500000000E+03 0.  0.
         25    1    1    2    0    0  0.15277789430E+02  0.10485893740E+03  0.22750541439E+03  0.28037924527E+03  0.12500000000E+03 0.  0.
         25    1    1    2    0    0  0.13955818321E+02  0.42816742233E+02  0.43349032041E+03  0.45339485680E+03  0.12500000000E+03 0.  0.
</event>
<event>
 5    0  0.5815084E-005  0.2288592E+03  0.7546771E-02  0.1127445E+00
         21   -1    0    0  502  501  0.00000000000E+00  0.00000000000E+00  0.15738228798E+03  0.15738228798E+03  0.00000000000E+00 0.  1.
         21   -1    0    0  501  502 -0.00000000000E+00 -0.00000000000E+00 -0.33279804602E+03  0.33279804602E+03  0.00000000000E+00 0.  1.
         25    1    1    2    0    0  0.19847497100E+02 -0.61126254764E+02 -0.71443716568E+02  0.15766910541E+03  0.12500000000E+03 0.  0.
         25    1    1    2    0    0  0.30116691791E+02 -0.52399732111E+02 -0.33430218132E+02  0.14281220723E+03  0.12500000000E+03 0.  0.
         25    1    1    2    0    0 -0.49964188891E+02  0.11352598688E+03 -0.70541823337E+02  0.18969902137E+03  0.12500000000E+03 0.  0.
</event>
<event>
 5    0  0.5815084E-005  0.3266713E+03  0.7546771E-02  0.1072619E+00
         21   -1    0    0  502  501  0.00000000000E+00  0.00000000000E+00  0.54068607299E+02  0.54068607299E+02  0.00000000000E+00 0.  1.
         21   -1    0    0  501  502 -0.00000000000E+00 -0.00000000000E+00 -0.19736797475E+04  0.19736797475E+04  0.00000000000E+00 0.  1.
         25    1    1    2    0    0  0.25943831397E+01 -0.24126185159E+03 -0.91201370881E+03  0.95163439246E+03  0.12500000000E+03 0.  0.
         25    1    1    2    0    0 -0.60062233681E+02  0.14753632996E+03 -0.43515464018E+03  0.47995729127E+03  0.12500000000E+03 0.  0.
         25    1    1    2    0    0  0.57467850542E+02  0.93725521623E+02 -0.57244279119E+03  0.59615667105E+03  0.12500000000E+03 0.  0.
</event>
<event>
 5    0  0.5815084E-005  0.2337730E+03  0.7546771E-02  0.1124012E+00
         21   -1    0    0  502  501  0.00000000000E+00  0.00000000000E+00  0.13681408594E+04  0.13681408594E+04  0.00000000000E+00 0.  1.
         21   -1    0    0  501  502 -0.00000000000E+00 -0.00000000000E+00 -0.39944593734E+02  0.39944593734E+02  0.00000000000E+00 0.  1.
         25    1    1    2    0    0 -0.29223423467E+02 -0.44677217254E+02  0.35479756285E+03  0.37994259148E+03  0.12500000000E+03 0.  0.
         25    1    1    2    0    0 -0.37741470307E+02 -0.58277332233E+02  0.30026889607E+03  0.33257642126E+03  0.12500000000E+03 0.  0.
         25    1    1    2    0    0  0.66964893774E+02  0.10295454949E+03  0.67312980674E+03  0.69556644038E+03  0.12500000000E+03 0.  0.
</event>
<event>
 5    0  0.5815084E-005  0.3262600E+03  0.7546771E-02  0.1072804E+00
         21   -1    0    0  502  501  0.00000000000E+00  0.00000000000E+00  0.48596728696E+03  0.48596728696E+03  0.00000000000E+00 0.  1.
         21   -1    0    0  501  502 -0.00000000000E+00 -0.00000000000E+00 -0.21903852345E+03  0.21903852345E+03  0.00000000000E+00 0.  1.
         25    1    1    2    0    0  0.15935835667E+03 -0.27864328954E+02  0.13612836576E+03  0.24561644618E+03  0.12500000000E+03 0.  0.
         25    1    1    2    0    0 -0.44043114179E+02 -0.14589521298E+03  0.52923506730E+02  0.20408602755E+03  0.12500000000E+03 0.  0.
         25    1    1    2    0    0 -0.11531524249E+03  0.17375954193E+03  0.77876891016E+02  0.25530333667E+03  0.12500000000E+03 0.  0.
</event>
<event>
 5    0  0.7200970E-005  0.6612943E+03  0.7546771E-02  0.9785814E-01
         21   -1    0    0  502  501  0.00000000000E+00  0.00000000000E+00  0.29544432438E+03  0.29544432438E+03  0.00000000000E+00 0.  1.
         21   -1    0    0  501  502 -0.00000000000E+00 -0.00000000000E+00 -0.14801777346E+04  0.14801777346E+04  0.00000000000E+00 0.  1.
         25    1    1    2    0    0  0.39488843461E+03 -0.40687460319E+02 -0.25862916020E+03  0.49000651804E+03  0.12500000000E+03 0.  0.
         25    1    1    2    0    0 -0.17158775713E+03 -0.56517523973E+02 -0.98195563544E+03  0.10062298241E+04  0.12500000000E+03 0.  0.
         25    1    1    2    0    0 -0.22330067747E+03  0.97204984292E+02  0.55851385423E+02  0.27938571686E+03  0.12500000000E+03 0.  0.
</event>
<event>
 5    0  0.5815084E-005  0.2863732E+03  0.7546771E-02  0.1092258E+00
         21   -1    0    0  502  501  0.00000000000E+00  0.00000000000E+00  0.18688252345E+03  0.18688252345E+03  0.00000000000E+00 0. -1.
         21   -1    0    0  501  502 -0.00000000000E+00 -0.00000000000E+00 -0.43882959263E+03  0.43882959263E+03  0.00000000000E+00 0. -1.
         25    1    1    2    0    0  0.55275055363E+02 -0.84193849860E+02 -0.71080272860E+02  0.17556007886E+03  0.12500000000E+03 0.  0.
         25    1    1    2    0    0 -0.12103155058E+03 -0.68602231644E+02 -0.15010333849E+03  0.23981433370E+03  0.12500000000E+03 0.  0.
         25    1    1    2    0    0  0.65756495214E+02  0.15279608150E+03 -0.30763457838E+02  0.21033770352E+03  0.12500000000E+03 0.  0.
</event>
<event>
 5    0  0.5815084E-005  0.3112954E+03  0.7546771E-02  0.1079727E+00
         21   -1    0    0  502  501  0.00000000000E+00  0.00000000000E+00  0.17806966533E+03  0.17806966533E+03  0.00000000000E+00 0. -1.
         21   -1    0    0  501  502 -0.00000000000E+00 -0.00000000000E+00 -0.54419632279E+03  0.54419632279E+03  0.00000000000E+00 0. -1.
         25    1    1    2    0    0  0.10476187266E+03  0.57081143652E+02 -0.30747674594E+03  0.35270420499E+03  0.12500000000E+03 0.  0.
         25    1    1    2    0    0 -0.17282681600E+03 -0.41391979540E+02 -0.63262859104E+02  0.22629536814E+03  0.12500000000E+03 0.  0.
         25    1    1    2    0    0  0.68064943340E+02 -0.15689164112E+02  0.46129475797E+01  0.14326641500E+03  0.12500000000E+03 0.  0.
</event>
<event>
 5    0  0.5815084E-005  0.2188801E+03  0.7546771E-02  0.1134721E+00
         21   -1    0    0  502  501  0.00000000000E+00  0.00000000000E+00  0.57332521597E+03  0.57332521597E+03  0.00000000000E+00 0. -1.
         21   -1    0    0  501  502 -0.00000000000E+00 -0.00000000000E+00 -0.83562512552E+02  0.83562512552E+02  0.00000000000E+00 0. -1.
         25    1    1    2    0    0  0.79684308059E+02 -0.27064533262E+02  0.11484348812E+03  0.18946267356E+03  0.12500000000E+03 0.  0.
         25    1    1    2    0    0 -0.56755342886E+01  0.31048072498E+02  0.22016626228E+03  0.25513599813E+03  0.12500000000E+03 0.  0.
         25    1    1    2    0    0 -0.74008773770E+02 -0.39835392368E+01  0.15475295302E+03  0.21228905683E+03  0.12500000000E+03 0.  0.
</event>
<event>
 5    0  0.5815084E-005  0.3252550E+03  0.7546771E-02  0.1073256E+00
         21   -1    0    0  502  501  0.00000000000E+00  0.00000000000E+00  0.28060039584E+03  0.28060039584E+03  0.00000000000E+00 0.  1.
         21   -1    0    0  501  502 -0.00000000000E+00 -0.00000000000E+00 -0.37701602128E+03  0.37701602128E+03  0.00000000000E+00 0.  1.
         25    1    1    2    0    0 -0.21941523669E+03 -0.32830046042E+02 -0.83242624208E+01  0.25478451947E+03  0.12500000000E+03 0.  0.
         25    1    1    2    0    0  0.13494683604E+03 -0.32624249799E+02  0.43968276634E+02  0.19191977382E+03  0.12500000000E+03 0.  0.
         25    1    1    2    0    0  0.84468400656E+02  0.65454295841E+02 -0.13205963965E+03  0.21091212383E+03  0.12500000000E+03 0.  0.
</event>
<event>
 5    0  0.5815084E-005  0.2223148E+03  0.7546771E-02  0.1132169E+00
         21   -1    0    0  502  501  0.00000000000E+00  0.00000000000E+00  0.10898539714E+03  0.10898539714E+03  0.00000000000E+00 0. -1.
         21   -1    0    0  501  502 -0.00000000000E+00 -0.00000000000E+00 -0.45349060594E+03  0.45349060594E+03  0.00000000000E+00 0. -1.
         25    1    1    2    0    0 -0.83616092698E+01  0.26807733253E+02 -0.10230563806E+03  0.16395125693E+03  0.12500000000E+03 0.  0.
         25    1    1    2    0    0 -0.76940500389E+02 -0.64615006437E+02 -0.11718145908E+03  0.19862385055E+03  0.12500000000E+03 0.  0.
         25    1    1    2    0    0  0.85302109659E+02  0.37807273184E+02 -0.12501811166E+03  0.19990089560E+03  0.12500000000E+03 0.  0.
</event>
<event>
 5    0  0.5815084E-005  0.2618826E+03  0.7546771E-02  0.1106017E+00
         21   -1    0    0  502  501  0.00000000000E+00  0.00000000000E+00  0.48123810043E+03  0.48123810043E+03  0.00000000000E+00 0. -1.
         21   -1    0    0  501  502 -0.00000000000E+00 -0.00000000000E+00 -0.14251261262E+03  0.14251261262E+03  0.00000000000E+00 0. -1.
         25    1    1    2    0    0  0.79669933976E+02  0.18117816727E+02  0.28984477040E+03  0.32605297819E+03  0.12500000000E+03 0.  0.
         25    1    1    2    0    0 -0.21158822447E+02  0.52517171891E+01  0.85501421137E+02  0.15300578197E+03  0.12500000000E+03 0.  0.
         25    1    1    2    0    0 -0.58511111529E+02 -0.23369533916E+02 -0.36620703724E+02  0.14469195288E+03  0.12500000000E+03 0.  0.
</event>
<event>
 5    0  0.6870807E-005  0.2542319E+03  0.7546771E-02  0.1110659E+00
         21   -1    0    0  502  501  0.00000000000E+00  0.00000000000E+00  0.13569013035E+03  0.13569013035E+03  0.00000000000E+00 0. -1.
         21   -1    0    0  501  502 -0.00000000000E+00 -0.00000000000E+00 -0.47633435041E+03  0.47633435041E+03  0.00000000000E+00 0. -1.
         25    1    1    2    0    0  0.19382868661E+02  0.95490961414E+00 -0.31706515833E+03  0.34136772266E+03  0.12500000000E+03 0.  0.
         25    1    1    2    0    0 -0.65528282030E+01  0.43469001093E+02 -0.34528199583E+02  0.13692950807E+03  0.12500000000E+03 0.  0.
         25    1    1    2    0    0 -0.12830040458E+02 -0.44423910708E+02  0.10949137850E+02  0.13372725003E+03  0.12500000000E+03 0.  0.
</event>
<event>
 5    0  0.5815084E-005  0.3194329E+03  0.7546771E-02  0.1075911E+00
         21   -1    0    0  502  501  0.00000000000E+00  0.00000000000E+00  0.61997231231E+02  0.61997231231E+02  0.00000000000E+00 0.  1.
         21   -1    0    0  501  502 -0.00000000000E+00 -0.00000000000E+00 -0.16458373808E+04  0.16458373808E+04  0.00000000000E+00 0.  1.
         25    1    1    2    0    0  0.22907497947E+02  0.60253712337E+02 -0.20233453403E+03  0.24641332548E+03  0.12500000000E+03 0.  0.
         25    1    1    2    0    0 -0.90616174840E+02 -0.21593903940E+03 -0.79843190167E+03  0.84140326923E+03  0.12500000000E+03 0.  0.
         25    1    1    2    0    0  0.67708676894E+02  0.15568532706E+03 -0.58307371386E+03  0.62001801731E+03  0.12500000000E+03 0.  0.
</event>
<event>
 5    0  0.5815084E-005  0.2532386E+03  0.7546771E-02  0.1111275E+00
         21   -1    0    0  502  501  0.00000000000E+00  0.00000000000E+00  0.34862296861E+02  0.34862296861E+02  0.00000000000E+00 0.  1.
         21   -1    0    0  501  502 -0.00000000000E+00 -0.00000000000E+00 -0.18395174106E+04  0.18395174106E+04  0.00000000000E+00 0.  1.
         25    1    1    2    0    0  0.10950054802E+02  0.36986967828E+02 -0.41985592445E+03  0.43976350097E+03  0.12500000000E+03 0.  0.
         25    1    1    2    0    0 -0.46945770281E+01 -0.60023015128E+02 -0.20240078352E+03  0.24538923890E+03  0.12500000000E+03 0.  0.
         25    1    1    2    0    0 -0.62554777738E+01  0.23036047300E+02 -0.11823984058E+04  0.11892269676E+04  0.12500000000E+03 0.  0.
</event>
<event>
 5    0  0.5822818E-005  0.2925222E+03  0.7546771E-02  0.1089040E+00
         21   -1    0    0  502  501  0.00000000000E+00  0.00000000000E+00  0.12781931873E+03  0.12781931873E+03  0.00000000000E+00 0.  1.
         21   -1    0    0  501  502 -0.00000000000E+00 -0.00000000000E+00 -0.66945443079E+03  0.66945443079E+03  0.00000000000E+00 0.  1.
         25    1    1    2    0    0 -0.37420505245E+02 -0.20483566596E+02  0.25196660881E+02  0.13446093274E+03  0.12500000000E+03 0.  0.
         25    1    1    2    0    0 -0.46652931950E+02 -0.61543071186E+02 -0.38859911165E+03  0.41544953394E+03  0.12500000000E+03 0.  0.
         25    1    1    2    0    0  0.84073437196E+02  0.82026637782E+02 -0.17823266129E+03  0.24736328284E+03  0.12500000000E+03 0.  0.
</event>
<event>
 5    0  0.5815084E-005  0.4369006E+03  0.7546771E-02  0.1031702E+00
         21   -1    0    0  502  501  0.00000000000E+00  0.00000000000E+00  0.72145260489E+03  0.72145260489E+03  0.00000000000E+00 0. -1.
         21   -1    0    0  501  502 -0.00000000000E+00 -0.00000000000E+00 -0.26458023428E+03  0.26458023428E+03  0.00000000000E+00 0. -1.
         25    1    1    2    0    0  0.90752616226E+01 -0.11500963194E+03  0.37464488532E+03  0.41145275052E+03  0.12500000000E+03 0.  0.
         25    1    1    2    0    0 -0.10574578347E+03  0.91112553398E+01 -0.18458281668E+03  0.24690281876E+03  0.12500000000E+03 0.  0.
         25    1    1    2    0    0  0.96670521851E+02  0.10589837660E+03  0.26681030198E+03  0.32767726989E+03  0.12500000000E+03 0.  0.
</event>
<event>
 5    0  0.5815084E-005  0.4286893E+03  0.7546771E-02  0.1034275E+00
         21   -1    0    0  502  501  0.00000000000E+00  0.00000000000E+00  0.42266574010E+03  0.42266574010E+03  0.00000000000E+00 0.  1.
         21   -1    0    0  501  502 -0.00000000000E+00 -0.00000000000E+00 -0.43479876710E+03  0.43479876710E+03  0.00000000000E+00 0.  1.
         25    1    1    2    0    0 -0.15663376986E+03  0.82824314065E+02 -0.25592392979E+03  0.33543414063E+03  0.12500000000E+03 0.  0.
         25    1    1    2    0    0 -0.23063482213E+02 -0.19459004748E+02 -0.60300022607E+02  0.14202700378E+03  0.12500000000E+03 0.  0.
         25    1    1    2    0    0  0.17969725207E+03 -0.63365309317E+02  0.30409092539E+03  0.38000336279E+03  0.12500000000E+03 0.  0.
</event>
<event>
 5    0  0.6408763E-005  0.3437535E+03  0.7546771E-02  0.1065208E+00
         21   -1    0    0  502  501  0.00000000000E+00  0.00000000000E+00  0.14187737849E+03  0.14187737849E+03  0.00000000000E+00 0. -1.
         21   -1    0    0  501  502 -0.00000000000E+00 -0.00000000000E+00 -0.83287745383E+03  0.83287745383E+03  0.00000000000E+00 0. -1.
         25    1    1    2    0    0  0.81875513985E+02 -0.11269712741E+03 -0.27283408911E+02  0.18913917288E+03  0.12500000000E+03 0.  0.
         25    1    1    2    0    0  0.87524493294E+02  0.11127816498E+03 -0.19334918694E+03  0.27028184367E+03  0.12500000000E+03 0.  0.
         25    1    1    2    0    0 -0.16940000728E+03  0.14189624256E+01 -0.47036747949E+03  0.51533381577E+03  0.12500000000E+03 0.  0.
</event>
<event>
 5    0  0.5815084E-005  0.5105300E+03  0.7546771E-02  0.1011066E+00
         21   -1    0    0  502  501  0.00000000000E+00  0.00000000000E+00  0.54905632926E+03  0.54905632926E+03  0.00000000000E+00 0.  1.
         21   -1    0    0  501  502 -0.00000000000E+00 -0.00000000000E+00 -0.47470694650E+03  0.47470694650E+03  0.00000000000E+00 0.  1.
         25    1    1    2    0    0  0.10863870019E+03 -0.27604465355E+03 -0.10745262319E+03  0.33937307519E+03  0.12500000000E+03 0.  0.
         25    1    1    2    0    0 -0.20079713516E+02  0.30314992928E+03  0.33276621346E+03  0.46761247560E+03  0.12500000000E+03 0.  0.
         25    1    1    2    0    0 -0.88558986672E+02 -0.27105275723E+02 -0.15096420750E+03  0.21677772496E+03  0.12500000000E+03 0.  0.
</event>
<event>
 5    0  0.5815084E-005  0.3055771E+03  0.7546771E-02  0.1082485E+00
         21   -1    0    0  502  501  0.00000000000E+00  0.00000000000E+00  0.97118262770E+03  0.97118262770E+03  0.00000000000E+00 0.  1.
         21   -1    0    0  501  502 -0.00000000000E+00 -0.00000000000E+00 -0.96148095097E+02  0.96148095097E+02  0.00000000000E+00 0.  1.
         25    1    1    2    0    0  0.30888603664E+02 -0.71368195597E+02  0.31018952821E+03  0.34335123211E+03  0.12500000000E+03 0.  0.
         25    1    1    2    0    0 -0.15596366026E+03 -0.82736235095E+02  0.30503376505E+03  0.37395259825E+03  0.12500000000E+03 0.  0.
         25    1    1    2    0    0  0.12507505659E+03  0.15410443069E+03  0.25981123934E+03  0.35002689243E+03  0.12500000000E+03 0.  0.
</event>
<event>
 5    0  0.5815084E-005  0.6527127E+03  0.7546771E-02  0.9801702E-01
         21   -1    0    0  502  501  0.00000000000E+00  0.00000000000E+00  0.11890079810E+04  0.11890079810E+04  0.00000000000E+00 0.  1.
         21   -1    0    0  501  502 -0.00000000000E+00 -0.00000000000E+00 -0.35831035898E+03  0.35831035898E+03  0.00000000000E+00 0.  1.
         25    1    1    2    0    0  0.23990808496E+03 -0.10948538710E+03  0.22432934288E+02  0.29269638836E+03  0.12500000000E+03 0.  0.
         25    1    1    2    0    0 -0.53784856078E+03  0.18628254368E+03  0.68747180920E+03  0.90123512407E+03  0.12500000000E+03 0.  0.
         25    1    1    2    0    0  0.29794047582E+03 -0.76797156578E+02  0.12079287854E+03  0.35338682757E+03  0.12500000000E+03 0.  0.
</event>
<event>
 5    0  0.7498045E-005  0.3932066E+03  0.7546771E-02  0.1046158E+00
         21   -1    0    0  502  501  0.00000000000E+00  0.00000000000E+00  0.50438642324E+03  0.50438642324E+03  0.00000000000E+00 0.  1.
         21   -1    0    0  501  502 -0.00000000000E+00 -0.00000000000E+00 -0.30653366537E+03  0.30653366537E+03  0.00000000000E+00 0.  1.
         25    1    1    2    0    0  0.23064645101E+03 -0.11128845883E+03  0.13571518109E+03  0.31563668483E+03  0.12500000000E+03 0.  0.
         25    1    1    2    0    0 -0.15527964535E+03 -0.21521853440E+02 -0.11410851149E+03  0.23069614394E+03  0.12500000000E+03 0.  0.
         25    1    1    2    0    0 -0.75366805656E+02  0.13281031227E+03  0.17624608827E+03  0.26458725984E+03  0.12500000000E+03 0.  0.
</event>
<event>
 5    0  0.5815084E-005  0.3118851E+03  0.7546771E-02  0.1079446E+00
         21   -1    0    0  502  501  0.00000000000E+00  0.00000000000E+00  0.16295059525E+03  0.16295059525E+03  0.00000000000E+00 0. -1.
         21   -1    0    0  501  502 -0.00000000000E+00 -0.00000000000E+00 -0.59694349549E+03  0.59694349549E+03  0.00000000000E+00 0. -1.
         25    1    1    2    0    0 -0.20105446105E+02  0.12742581236E+03 -0.68415825429E+02  0.19221678331E+03  0.12500000000E+03 0.  0.
         25    1    1    2    0    0  0.17615084382E+02 -0.23669017296E+03 -0.22678243848E+03  0.35126600117E+03  0.12500000000E+03 0.  0.
         25    1    1    2    0    0  0.24903617225E+01  0.10926436060E+03 -0.13879463632E+03  0.21641130625E+03  0.12500000000E+03 0.  0.
</event>
<event>
 5    0  0.5815084E-005  0.2703417E+03  0.7546771E-02  0.1101084E+00
         21   -1    0    0  502  501  0.00000000000E+00  0.00000000000E+00  0.32188099032E+03  0.32188099032E+03  0.00000000000E+00 0.  1.
         21   -1    0    0  501  502 -0.00000000000E+00 -0.00000000000E+00 -0.22705475044E+03  0.22705475044E+03  0.00000000000E+00 0.  1.
         25    1    1    2    0    0  0.21700898882E+02 -0.13381389085E+03  0.68312422185E+02  0.19664351863E+03  0.12500000000E+03 0.  0.
         25    1    1    2    0    0 -0.50510459920E+02  0.24581398074E+02  0.98812925302E+02  0.16895131222E+03  0.12500000000E+03 0.  0.
         25    1    1    2    0    0  0.28809561038E+02  0.10923249278E+03 -0.72299107613E+02  0.18334090991E+03  0.12500000000E+03 0.  0.
</event>
<event>
 5    0  0.5815084E-005  0.2909059E+03  0.7546771E-02  0.1089877E+00
         21   -1    0    0  502  501  0.00000000000E+00  0.00000000000E+00  0.16117921802E+04  0.16117921802E+04  0.00000000000E+00 0. -1.
         21   -1    0    0  501  502 -0.00000000000E+00 -0.00000000000E+00 -0.52504429234E+02  0.52504429234E+02  0.00000000000E+00 0. -1.
         25    1    1    2    0    0  0.14056559219E+03  0.94271041952E+02  0.47710570755E+03  0.52144086072E+03  0.12500000000E+03 0.  0.
         25    1    1    2    0    0 -0.26434374533E+02  0.44692754185E+02  0.27521695290E+03  0.30670114053E+03  0.12500000000E+03 0.  0.
         25    1    1    2    0    0 -0.11413121766E+03 -0.13896379614E+03  0.80696509053E+03  0.83615460820E+03  0.12500000000E+03 0.  0.
</event>
<event>
 5    0  0.5815084E-005  0.3205662E+03  0.7546771E-02  0.1075389E+00
         21   -1    0    0  502  501  0.00000000000E+00  0.00000000000E+00  0.32361674755E+03  0.32361674755E+03  0.00000000000E+00 0.  1.
         21   -1    0    0  501  502 -0.00000000000E+00 -0.00000000000E+00 -0.31754441247E+03  0.31754441247E+03  0.00000000000E+00 0.  1.
         25    1    1    2    0    0 -0.68989050886E+02  0.64341715847E+02 -0.35066225707E+02  0.16048048394E+03  0.12500000000E+03 0.  0.
         25    1    1    2    0    0 -0.28727918988E+02 -0.93510199821E+02  0.19928478875E+03  0.25477220772E+03  0.12500000000E+03 0.  0.
         25    1    1    2    0    0  0.97716969874E+02  0.29168483974E+02 -0.15814622797E+03  0.22590846836E+03  0.12500000000E+03 0.  0.
</event>
<event>
 5    0  0.5815084E-005  0.5271815E+03  0.7546771E-02  0.1006918E+00
         21   -1    0    0  502  501  0.00000000000E+00  0.00000000000E+00  0.28673156632E+03  0.28673156632E+03  0.00000000000E+00 0. -1.
         21   -1    0    0  501  502 -0.00000000000E+00 -0.00000000000E+00 -0.96927003895E+03  0.96927003895E+03  0.00000000000E+00 0. -1.
         25    1    1    2    0    0 -0.47596936054E+02 -0.19076955139E+03  0.10641298836E+03  0.25613905238E+03  0.12500000000E+03 0.  0.
         25    1    1    2    0    0 -0.20475463934E+03  0.20009954377E+03 -0.54009773810E+03  0.62393497775E+03  0.12500000000E+03 0.  0.
         25    1    1    2    0    0  0.25235157540E+03 -0.93299923818E+01 -0.24885372289E+03  0.37592757515E+03  0.12500000000E+03 0.  0.
</event>
<event>
 5    0  0.6301638E-005  0.2566719E+03  0.7546771E-02  0.1109159E+00
         21   -1    0    0  502  501  0.00000000000E+00  0.00000000000E+00  0.10520991862E+03  0.10520991862E+03  0.00000000000E+00 0.  1.
         21   -1    0    0  501  502 -0.00000000000E+00 -0.00000000000E+00 -0.62618111400E+03  0.62618111400E+03  0.00000000000E+00 0.  1.
         25    1    1    2    0    0  0.38259990917E+02 -0.57563442258E+02 -0.57249232454E+02  0.15388258968E+03  0.12500000000E+03 0.  0.
         25    1    1    2    0    0 -0.60390045569E+02  0.11845789940E+03 -0.35664127177E+03  0.40062105320E+03  0.12500000000E+03 0.  0.
         25    1    1    2    0    0  0.22130054653E+02 -0.60894457144E+02 -0.10708069116E+03  0.17688738974E+03  0.12500000000E+03 0.  0.
</event>
<event>
 5    0  0.5815084E-005  0.3235614E+03  0.7546771E-02  0.1074022E+00
         21   -1    0    0  502  501  0.00000000000E+00  0.00000000000E+00  0.10554717532E+04  0.10554717532E+04  0.00000000000E+00 0.  1.
         21   -1    0    0  501  502 -0.00000000000E+00 -0.00000000000E+00 -0.99189731170E+02  0.99189731170E+02  0.00000000000E+00 0.  1.
         25    1    1    2    0    0 -0.16241416159E+03  0.72767558098E+02  0.17576892040E+03  0.27963045395E+03  0.12500000000E+03 0.  0.
         25    1    1    2    0    0  0.33216713373E+02 -0.46262237139E+02  0.61193940327E+03  0.62716694580E+03  0.12500000000E+03 0.  0.
         25    1    1    2    0    0  0.12919744822E+03 -0.26505320959E+02  0.16857369836E+03  0.24786408462E+03  0.12500000000E+03 0.  0.
</event>
<event>
 5    0  0.5815084E-005  0.4176015E+03  0.7546771E-02  0.1037850E+00
         21   -1    0    0  502  501  0.00000000000E+00  0.00000000000E+00  0.78078753361E+02  0.78078753361E+02  0.00000000000E+00 0.  1.
         21   -1    0    0  501  502 -0.00000000000E+00 -0.00000000000E+00 -0.22335269035E+04  0.22335269035E+04  0.00000000000E+00 0.  1.
         25    1    1    2    0    0  0.67748521574E+02 -0.59514764362E+02 -0.97778903431E+03  0.98986275057E+03  0.12500000000E+03 0.  0.
         25    1    1    2    0    0 -0.20676277366E+02 -0.23904568095E+03 -0.47384071922E+03  0.54563758413E+03  0.12500000000E+03 0.  0.
         25    1    1    2    0    0 -0.47072244207E+02  0.29856044531E+03 -0.70381839660E+03  0.77610532215E+03  0.12500000000E+03 0.  0.
</event>
<event>
 5    0  0.5815084E-005  0.2889619E+03  0.7546771E-02  0.1090892E+00
         21   -1    0    0  502  501  0.00000000000E+00  0.00000000000E+00  0.69314151833E+03  0.69314151833E+03  0.00000000000E+00 0.  1.
         21   -1    0    0  501  502 -0.00000000000E+00 -0.00000000000E+00 -0.12046452508E+03  0.12046452508E+03  0.00000000000E+00 0.  1.
         25    1    1    2    0    0  0.26450062285E+01  0.98341357618E+02  0.52394092094E+02  0.16747584770E+03  0.12500000000E+03 0.  0.
         25    1    1    2    0    0  0.53735275009E+02  0.47091469145E+02  0.85128786483E+02  0.16726325518E+03  0.12500000000E+03 0.  0.
         25    1    1    2    0    0 -0.56380281238E+02 -0.14543282676E+03  0.43515411467E+03  0.47886694052E+03  0.12500000000E+03 0.  0.
</event>
<event>
 5    0  0.5815084E-005  0.2517227E+03  0.7546771E-02  0.1112221E+00
         21   -1    0    0  502  501  0.00000000000E+00  0.00000000000E+00  0.51173754263E+02  0.51173754263E+02  0.00000000000E+00 0. -1.
         21   -1    0    0  501  502 -0.00000000000E+00 -0.00000000000E+00 -0.12382191545E+04  0.12382191545E+04  0.00000000000E+00 0. -1.
         25    1    1    2    0    0  0.24678932826E+02  0.90768283020E+02 -0.20735758293E+03  0.25975006857E+03  0.12500000000E+03 0.  0.
         25    1    1    2    0    0  0.33687129963E+02  0.10928639847E+01 -0.25190710668E+03  0.28322818976E+03  0.12500000000E+03 0.  0.
         25    1    1    2    0    0 -0.58366062788E+02 -0.91861147004E+02 -0.72778071067E+03  0.74641465047E+03  0.12500000000E+03 0.  0.
</event>
<event>
 5    0  0.5815084E-005  0.4493170E+03  0.7546771E-02  0.1027926E+00
         21   -1    0    0  502  501  0.00000000000E+00  0.00000000000E+00  0.77128224454E+03  0.77128224454E+03  0.00000000000E+00 0. -1.
         21   -1    0    0  501  502 -0.00000000000E+00 -0.00000000000E+00 -0.26175336832E+03  0.26175336832E+03  0.00000000000E+00 0. -1.
         25    1    1    2    0    0 -0.14828307325E+03 -0.14288406592E+03 -0.12638966271E+03  0.27203505831E+03  0.12500000000E+03 0.  0.
         25    1    1    2    0    0 -0.36178261776E+02  0.12057276021E+03  0.17826657160E+03  0.25149677469E+03  0.12500000000E+03 0.  0.
         25    1    1    2    0    0  0.18446133503E+03  0.22311305710E+02  0.45765196733E+03  0.50950377985E+03  0.12500000000E+03 0.  0.
</event>
<event>
 5    0  0.5815084E-005  0.2837576E+03  0.7546771E-02  0.1093654E+00
         21   -1    0    0  502  501  0.00000000000E+00  0.00000000000E+00  0.15017850483E+04  0.15017850483E+04  0.00000000000E+00 0.  1.
         21   -1    0    0  501  502 -0.00000000000E+00 -0.00000000000E+00 -0.53615128352E+02  0.53615128352E+02  0.00000000000E+00 0.  1.
         25    1    1    2    0    0  0.73435833661E+02 -0.37731996094E+02  0.64291460528E+03  0.66013689102E+03  0.12500000000E+03 0.  0.
         25    1    1    2    0    0 -0.14386477561E+03  0.11545209433E+03  0.53529099172E+03  0.57981695867E+03  0.12500000000E+03 0.  0.
         25    1    1    2    0    0  0.70428941945E+02 -0.77720098233E+02  0.26996432294E+03  0.31544632696E+03  0.12500000000E+03 0.  0.
</event>
<event>
 5    0  0.5815084E-005  0.2221965E+03  0.7546771E-02  0.1132256E+00
         21   -1    0    0  502  501  0.00000000000E+00  0.00000000000E+00  0.88159301078E+02  0.88159301078E+02  0.00000000000E+00 0. -1.
         21   -1    0    0  501  502 -0.00000000000E+00 -0.00000000000E+00 -0.56002340257E+03  0.56002340257E+03  0.00000000000E+00 0. -1.
         25    1    1    2    0    0  0.29285383262E+02  0.59326860176E+01 -0.22061485716E+03  0.25532086800E+03  0.12500000000E+03 0.  0.
         25    1    1    2    0    0 -0.37372340211E+02 -0.68972954398E+02 -0.69010766970E+02  0.16291545724E+03  0.12500000000E+03 0.  0.
         25    1    1    2    0    0  0.80869569496E+01  0.63040268380E+02 -0.18223847737E+03  0.22994637841E+03  0.12500000000E+03 0.  0.
</event>
<event>
 5    0  0.5815084E-005  0.2986676E+03  0.7546771E-02  0.1085909E+00
         21   -1    0    0  502  501  0.00000000000E+00  0.00000000000E+00  0.18593072517E+04  0.18593072517E+04  0.00000000000E+00 0.  1.
         21   -1    0    0  501  502 -0.00000000000E+00 -0.00000000000E+00 -0.47976118457E+02  0.47976118457E+02  0.00000000000E+00 0.  1.
         25    1    1    2    0    0 -0.16382985585E+02  0.27566976011E+02  0.85188929975E+03  0.86160821689E+03  0.12500000000E+03 0.  0.
         25    1    1    2    0    0 -0.44618766453E+02 -0.10418964627E+03  0.81077058516E+03  0.82814265587E+03  0.12500000000E+03 0.  0.
         25    1    1    2    0    0  0.61001752038E+02  0.76622670256E+02  0.14867124837E+03  0.21753249744E+03  0.12500000000E+03 0.  0.
</event>
<event>
 5    0  0.7263389E-005  0.2908896E+03  0.7546771E-02  0.1089886E+00
         21   -1    0    0  502  501  0.00000000000E+00  0.00000000000E+00  0.22347986313E+03  0.22347986313E+03  0.00000000000E+00 0. -1.
         21   -1    0    0  501  502 -0.00000000000E+00 -0.00000000000E+00 -0.37863252237E+03  0.37863252237E+03  0.00000000000E+00 0. -1.
         25    1    1    2    0    0 -0.87977658701E+02  0.45727037590E+02  0.48850132947E+02  0.16686031849E+03  0.12500000000E+03 0.  0.
         25    1    1    2    0    0 -0.30906908813E+02 -0.10149803448E+03 -0.19353931452E+03  0.25365242810E+03  0.12500000000E+03 0.  0.
         25    1    1    2    0    0  0.11888456751E+03  0.55770996887E+02 -0.10463477670E+02  0.18159963891E+03  0.12500000000E+03 0.  0.
</event>
<event>
 5    0  0.5815084E-005  0.2724214E+03  0.7546771E-02  0.1099902E+00
         21   -1    0    0  502  501  0.00000000000E+00  0.00000000000E+00  0.22432737518E+03  0.22432737518E+03  0.00000000000E+00 0.  1.
         21   -1    0    0  501  502 -0.00000000000E+00 -0.00000000000E+00 -0.33082645346E+03  0.33082645346E+03  0.00000000000E+00 0.  1.
         25    1    1    2    0    0 -0.16385236482E+03 -0.42361129256E+02 -0.39504901365E+02  0.21407405252E+03  0.12500000000E+03 0.  0.
         25    1    1    2    0    0  0.28605504347E+02  0.26038169502E+02  0.27102094202E+02  0.13362553895E+03  0.12500000000E+03 0.  0.
         25    1    1    2    0    0  0.13524686047E+03  0.16322959754E+02 -0.94096271116E+02  0.20745423717E+03  0.12500000000E+03 0.  0.
</event>
<event>
 5    0  0.5815084E-005  0.3973695E+03  0.7546771E-02  0.1044694E+00
         21   -1    0    0  502  501  0.00000000000E+00  0.00000000000E+00  0.32445799532E+03  0.32445799532E+03  0.00000000000E+00 0.  1.
         21   -1    0    0  501  502 -0.00000000000E+00 -0.00000000000E+00 -0.48666548084E+03  0.48666548084E+03  0.00000000000E+00 0.  1.
         25    1    1    2    0    0 -0.17903508862E+02 -0.30489044544E+03 -0.69645100159E+02  0.33727460522E+03  0.12500000000E+03 0.  0.
         25    1    1    2    0    0 -0.62140967698E+02  0.24618734750E+03 -0.12757466775E+03  0.31043518774E+03  0.12500000000E+03 0.  0.
         25    1    1    2    0    0  0.80044476560E+02  0.58703097947E+02  0.35012282392E+02  0.16341368319E+03  0.12500000000E+03 0.  0.
</event>
<event>
 5    0  0.5815084E-005  0.2975049E+03  0.7546771E-02  0.1086495E+00
         21   -1    0    0  502  501  0.00000000000E+00  0.00000000000E+00  0.12242614389E+04  0.12242614389E+04  0.00000000000E+00 0. -1.
         21   -1    0    0  501  502 -0.00000000000E+00 -0.00000000000E+00 -0.72295970058E+02  0.72295970058E+02  0.00000000000E+00 0. -1.
         25    1    1    2    0    0  0.22196847926E+02  0.13906249331E+03  0.19673722917E+03  0.27232630142E+03  0.12500000000E+03 0.  0.
         25    1    1    2    0    0  0.10488583927E+03 -0.61143056204E+02  0.48471628955E+03  0.51508678294E+03  0.12500000000E+03 0.  0.
         25    1    1    2    0    0 -0.12708268719E+03 -0.77919437108E+02  0.47051195009E+03  0.50914432457E+03  0.12500000000E+03 0.  0.
</event>
<event>
 5    0  0.5815084E-005  0.3760502E+03  0.7546771E-02  0.1052403E+00
         21   -1    0    0  502  501  0.00000000000E+00  0.00000000000E+00  0.43081425711E+03  0.43081425711E+03  0.00000000000E+00 0.  1.
         21   -1    0    0  501  502 -0.00000000000E+00 -0.00000000000E+00 -0.32824759505E+03  0.32824759505E+03  0.00000000000E+00 0.  1.
         25    1    1    2    0    0 -0.63702965511E+02  0.44031345090E+02 -0.75646636992E+02  0.16536094114E+03  0.12500000000E+03 0.  0.
         25    1    1    2    0    0  0.52389125733E+02 -0.35531277966E+02  0.35217255623E+03  0.37902190117E+03  0.12500000000E+03 0.  0.
         25    1    1    2    0    0  0.11313839778E+02 -0.85000671234E+01 -0.17395925717E+03  0.21467900985E+03  0.12500000000E+03 0.  0.
</event>
<event>
 5    0  0.5815084E-005  0.2660120E+03  0.7546771E-02  0.1103584E+00
         21   -1    0    0  502  501  0.00000000000E+00  0.00000000000E+00  0.95789187658E+02  0.95789187658E+02  0.00000000000E+00 0.  1.
         21   -1    0    0  501  502 -0.00000000000E+00 -0.00000000000E+00 -0.73873035065E+03  0.73873035065E+03  0.00000000000E+00 0.  1.
         25    1    1    2    0    0 -0.16417887235E+03  0.80205172976E+02 -0.25003824434E+03  0.33396361409E+03  0.12500000000E+03 0.  0.
         25    1    1    2    0    0  0.83363210711E+02 -0.47222596543E+02 -0.20817907044E+03  0.26104199642E+03  0.12500000000E+03 0.  0.
         25    1    1    2    0    0  0.80815661643E+02 -0.32982576434E+02 -0.18472384821E+03  0.23951392780E+03  0.12500000000E+03 0.  0.
</event>
<event>
 5    0  0.5815084E-005  0.3095199E+03  0.7546771E-02  0.1080576E+00
         21   -1    0    0  502  501  0.00000000000E+00  0.00000000000E+00  0.10630391626E+03  0.10630391626E+03  0.00000000000E+00 0.  1.
         21   -1    0    0  501  502 -0.00000000000E+00 -0.00000000000E+00 -0.90121402343E+03  0.90121402343E+03  0.00000000000E+00 0.  1.
         25    1    1    2    0    0 -0.12866121489E+03  0.14264744018E+03 -0.21116977765E+03  0.31164029810E+03  0.12500000000E+03 0.  0.
         25    1    1    2    0    0  0.13570568987E+03 -0.46971275705E+02 -0.45210597863E+03  0.49055799954E+03  0.12500000000E+03 0.  0.
         25    1    1    2    0    0 -0.70444749832E+01 -0.95676164478E+02 -0.13163435090E+03  0.20531964205E+03  0.12500000000E+03 0.  0.
</event>
<event>
 5    0  0.5815084E-005  0.4354623E+03  0.7546771E-02  0.1032148E+00
         21   -1    0    0  502  501  0.00000000000E+00  0.00000000000E+00  0.27020390821E+04  0.27020390821E+04  0.00000000000E+00 0. -1.
         21   -1    0    0  501  502 -0.00000000000E+00 -0.00000000000E+00 -0.70179360982E+02  0.70179360982E+02  0.00000000000E+00 0. -1.
         25    1    1    2    0    0 -0.28444275187E+03 -0.11882473027E+03  0.99358920590E+03  0.10477936370E+04  0.12500000000E+03 0.  0.
         25    1    1    2    0    0 -0.46988216300E+02  0.84528130607E+02  0.29332389082E+03  0.33319184003E+03  0.12500000000E+03 0.  0.
         25    1    1    2    0    0  0.33143096817E+03  0.34296599664E+02  0.13449466244E+04  0.13912329661E+04  0.12500000000E+03 0.  0.
</event>
<event>
 5    0  0.5815084E-005  0.2945809E+03  0.7546771E-02  0.1087981E+00
         21   -1    0    0  502  501  0.00000000000E+00  0.00000000000E+00  0.42793562620E+02  0.42793562620E+02  0.00000000000E+00 0. -1.
         21   -1    0    0  501  502 -0.00000000000E+00 -0.00000000000E+00 -0.20278268453E+04  0.20278268453E+04  0.00000000000E+00 0. -1.
         25    1    1    2    0    0 -0.93860229829E+02 -0.79845854239E+02 -0.73407746492E+03  0.75477137444E+03  0.12500000000E+03 0.  0.
         25    1    1    2    0    0  0.11553014696E+03 -0.63164399528E+02 -0.87997016514E+03  0.89850400542E+03  0.12500000000E+03 0.  0.
         25    1    1    2    0    0 -0.21669917136E+02  0.14301025377E+03 -0.37098565266E+03  0.41734502809E+03  0.12500000000E+03 0.  0.
</event>
<event>
 5    0  0.5815084E-005  0.2990965E+03  0.7546771E-02  0.1085693E+00
         21   -1    0    0  502  501  0.00000000000E+00  0.00000000000E+00  0.19994815371E+04  0.19994815371E+04  0.00000000000E+00 0.  1.
         21   -1    0    0  501  502 -0.00000000000E+00 -0.00000000000E+00 -0.44740966293E+02  0.44740966293E+02  0.00000000000E+00 0.  1.
         25    1    1    2    0    0 -0.11876280212E+03  0.49317456506E+01  0.57926477060E+03  0.60440185286E+03  0.12500000000E+03 0.  0.
         25    1    1    2    0    0 -0.82643083726E+02  0.82654144937E+02  0.49197592883E+03  0.52089048899E+03  0.12500000000E+03 0.  0.
         25    1    1    2    0    0  0.20140588585E+03 -0.87585890588E+02  0.88349987139E+03  0.91893016156E+03  0.12500000000E+03 0.  0.
</event>
<event>
 5    0  0.5815084E-005  0.4336815E+03  0.7546771E-02  0.1032703E+00
         21   -1    0    0  502  501  0.00000000000E+00  0.00000000000E+00  0.12531010467E+04  0.12531010467E+04  0.00000000000E+00 0.  1.
         21   -1    0    0  501  502 -0.00000000000E+00 -0.00000000000E+00 -0.15009139019E+03  0.15009139019E+03  0.00000000000E+00 0.  1.
         25    1    1    2    0    0 -0.20310651468E+02  0.16635390071E+02 -0.65935906370E+02  0.14374213897E+03  0.12500000000E+03 0.  0.
         25    1    1    2    0    0 -0.89799801439E+02 -0.29089143306E+02  0.12008742138E+03  0.19737317794E+03  0.12500000000E+03 0.  0.
         25    1    1    2    0    0  0.11011045291E+03  0.12453753235E+02  0.10488581414E+04  0.10620771199E+04  0.12500000000E+03 0.  0.
</event>
<event>
 5    0  0.5815084E-005  0.2530711E+03  0.7546771E-02  0.1111379E+00
         21   -1    0    0  502  501  0.00000000000E+00  0.00000000000E+00  0.18222821681E+03  0.18222821681E+03  0.00000000000E+00 0.  1.
         21   -1    0    0  501  502 -0.00000000000E+00 -0.00000000000E+00 -0.35145485315E+03  0.35145485315E+03  0.00000000000E+00 0.  1.
         25    1    1    2    0    0  0.13295367470E+02  0.77108083028E+02 -0.14005541938E+03  0.20337881837E+03  0.12500000000E+03 0.  0.
         25    1    1    2    0    0  0.17649918745E+02  0.14219888134E+02  0.68831768874E+02  0.14448715257E+03  0.12500000000E+03 0.  0.
         25    1    1    2    0    0 -0.30945286215E+02 -0.91327971162E+02 -0.98002985838E+02  0.18581709902E+03  0.12500000000E+03 0.  0.
</event>
<event>
 5    0  0.5815084E-005  0.2829192E+03  0.7546771E-02  0.1094105E+00
         21   -1    0    0  502  501  0.00000000000E+00  0.00000000000E+00  0.14706722968E+04  0.14706722968E+04  0.00000000000E+00 0.  1.
         21   -1    0    0  501  502 -0.00000000000E+00 -0.00000000000E+00 -0.54426318962E+02  0.54426318962E+02  0.00000000000E+00 0.  1.
         25    1    1    2    0    0  0.67452676779E+01 -0.77322871023E+02  0.89362956963E+03  0.90566170988E+03  0.12500000000E+03 0.  0.
         25    1    1    2    0    0 -0.89875949066E+02  0.85909766736E+02  0.22362871735E+03  0.28476828732E+03  0.12500000000E+03 0.  0.
         25    1    1    2    0    0  0.83130681388E+02 -0.85868957130E+01  0.29898769085E+03  0.33466861856E+03  0.12500000000E+03 0.  0.
</event>
<event>
 5    0  0.5815084E-005  0.5886450E+03  0.7546771E-02  0.9929248E-01
         21   -1    0    0  502  501  0.00000000000E+00  0.00000000000E+00  0.54682526626E+03  0.54682526626E+03  0.00000000000E+00 0. -1.
         21   -1    0    0  501  502 -0.00000000000E+00 -0.00000000000E+00 -0.63366306586E+03  0.63366306586E+03  0.00000000000E+00 0. -1.
         25    1    1    2    0    0 -0.27660524647E+02  0.59911067724E+02  0.25898361635E+03  0.29504568154E+03  0.12500000000E+03 0.  0.
         25    1    1    2    0    0  0.29047313901E+03  0.17076391614E+03  0.25496771104E+02  0.36029161089E+03  0.12500000000E+03 0.  0.
         25    1    1    2    0    0 -0.26281261436E+03 -0.23067498387E+03 -0.37131818705E+03  0.52515103969E+03  0.12500000000E+03 0.  0.
</event>
<event>
 5    0  0.5815084E-005  0.3450746E+03  0.7546771E-02  0.1064655E+00
         21   -1    0    0  502  501  0.00000000000E+00  0.00000000000E+00  0.32731217629E+03  0.32731217629E+03  0.00000000000E+00 0. -1.
         21   -1    0    0  501  502 -0.00000000000E+00 -0.00000000000E+00 -0.36380104552E+03  0.36380104552E+03  0.00000000000E+00 0.  1.
         25    1    1    2    0    0 -0.41288983511E+02 -0.25672763610E+03  0.30907595313E+02  0.29016226279E+03  0.12500000000E+03 0.  0.
         25    1    1    2    0    0 -0.48313239917E+02  0.16650729286E+03 -0.11332386201E+02  0.21403801229E+03  0.12500000000E+03 0.  0.
         25    1    1    2    0    0  0.89602223427E+02  0.90220343243E+02 -0.56064078338E+02  0.18691294674E+03  0.12500000000E+03 0.  0.
</event>
<event>
 5    0  0.5815084E-005  0.3444863E+03  0.7546771E-02  0.1064901E+00
         21   -1    0    0  502  501  0.00000000000E+00  0.00000000000E+00  0.33062090835E+03  0.33062090835E+03  0.00000000000E+00 0.  1.
         21   -1    0    0  501  502 -0.00000000000E+00 -0.00000000000E+00 -0.35893309816E+03  0.35893309816E+03  0.00000000000E+00 0.  1.
         25    1    1    2    0    0  0.74064909330E+01  0.19334465085E+03  0.11249417149E+03  0.25635317189E+03  0.12500000000E+03 0.  0.
         25    1    1    2    0    0  0.69202355799E+02 -0.56670911386E+02 -0.17164646787E+03  0.23040848113E+03  0.12500000000E+03 0.  0.
         25    1    1    2    0    0 -0.76608846732E+02 -0.13667373947E+03  0.30840106580E+02  0.20279235348E+03  0.12500000000E+03 0.  0.
</event>
<event>
 5    0  0.5815084E-005  0.3235343E+03  0.7546771E-02  0.1074034E+00
         21   -1    0    0  502  501  0.00000000000E+00  0.00000000000E+00  0.27020556019E+03  0.27020556019E+03  0.00000000000E+00 0.  1.
         21   -1    0    0  501  502 -0.00000000000E+00 -0.00000000000E+00 -0.38738818727E+03  0.38738818727E+03  0.00000000000E+00 0.  1.
         25    1    1    2    0    0  0.38790489253E+02 -0.15993289755E+03 -0.14723715861E+03  0.25374596479E+03  0.12500000000E+03 0.  0.
         25    1    1    2    0    0  0.23112199365E+02  0.11868815054E+02 -0.10020173601E+03  0.16229735189E+03  0.12500000000E+03 0.  0.
         25    1    1    2    0    0 -0.61902688618E+02  0.14806408249E+03  0.13025626753E+03  0.24155043079E+03  0.12500000000E+03 0.  0.
</event>
<event>
 5    0  0.5815084E-005  0.2265406E+03  0.7546771E-02  0.1129099E+00
         21   -1    0    0  502  501  0.00000000000E+00  0.00000000000E+00  0.13994321747E+03  0.13994321747E+03  0.00000000000E+00 0.  1.
         21   -1    0    0  501  502 -0.00000000000E+00 -0.00000000000E+00 -0.36672492387E+03  0.36672492387E+03  0.00000000000E+00 0.  1.
         25    1    1    2    0    0  0.53775082315E+02  0.51360665083E+02 -0.12269242777E+02  0.14596304914E+03  0.12500000000E+03 0.  0.
         25    1    1    2    0    0 -0.27872282202E+02 -0.40645894393E+02 -0.32687010766E+02  0.13828374279E+03  0.12500000000E+03 0.  0.
         25    1    1    2    0    0 -0.25902800113E+02 -0.10714770690E+02 -0.18182545286E+03  0.22242134941E+03  0.12500000000E+03 0.  0.
</event>
<event>
 5    0  0.5815084E-005  0.3604538E+03  0.7546771E-02  0.1058404E+00
         21   -1    0    0  502  501  0.00000000000E+00  0.00000000000E+00  0.74936051365E+03  0.74936051365E+03  0.00000000000E+00 0. -1.
         21   -1    0    0  501  502 -0.00000000000E+00 -0.00000000000E+00 -0.17338379560E+03  0.17338379560E+03  0.00000000000E+00 0. -1.
         25    1    1    2    0    0 -0.42789599886E+02  0.19638675668E+03  0.32302309860E+03  0.40045927419E+03  0.12500000000E+03 0.  0.
         25    1    1    2    0    0  0.19982719007E+02 -0.20793073288E+03  0.29996381253E+03  0.38631306936E+03  0.12500000000E+03 0.  0.
         25    1    1    2    0    0  0.22806880880E+02  0.11543976199E+02 -0.47010193085E+02  0.13597196570E+03  0.12500000000E+03 0.  0.
</event>
<event>
 5    0  0.5815084E-005  0.3897198E+03  0.7546771E-02  0.1047399E+00
         21   -1    0    0  502  501  0.00000000000E+00  0.00000000000E+00  0.30800208744E+03  0.30800208744E+03  0.00000000000E+00 0.  1.
         21   -1    0    0  501  502 -0.00000000000E+00 -0.00000000000E+00 -0.49311854025E+03  0.49311854025E+03  0.00000000000E+00 0.  1.
         25    1    1    2    0    0  0.35926624607E+02  0.85315784818E+02  0.18855149786E+03  0.24443030262E+03  0.12500000000E+03 0.  0.
         25    1    1    2    0    0  0.57116055594E+02  0.84624922343E+02 -0.71301746707E+02  0.17644421320E+03  0.12500000000E+03 0.  0.
         25    1    1    2    0    0 -0.93042680201E+02 -0.16994070716E+03 -0.30236620397E+03  0.38024611187E+03  0.12500000000E+03 0.  0.
</event>
<event>
 5    0  0.5815084E-005  0.3031376E+03  0.7546771E-02  0.1083683E+00
         21   -1    0    0  502  501  0.00000000000E+00  0.00000000000E+00  0.12820984961E+04  0.12820984961E+04  0.00000000000E+00 0. -1.
         21   -1    0    0  501  502 -0.00000000000E+00 -0.00000000000E+00 -0.71673425448E+02  0.71673425448E+02  0.00000000000E+00 0. -1.
         25    1    1    2    0    0  0.16178395969E+03  0.10988161817E+02  0.53506676268E+03  0.57290158827E+03  0.12500000000E+03 0.  0.
         25    1    1    2    0    0 -0.12417325730E+03  0.93606006292E+02  0.50092673341E+03  0.53919725008E+03  0.12500000000E+03 0.  0.
         25    1    1    2    0    0 -0.37610702387E+02 -0.10459416811E+03  0.17443157451E+03  0.24167308316E+03  0.12500000000E+03 0.  0.
</event>
<event>
 5    0  0.5815084E-005  0.2652298E+03  0.7546771E-02  0.1104041E+00
         21   -1    0    0  502  501  0.00000000000E+00  0.00000000000E+00  0.48467984193E+03  0.48467984193E+03  0.00000000000E+00 0.  1.
         21   -1    0    0  501  502 -0.00000000000E+00 -0.00000000000E+00 -0.14514084998E+03  0.14514084998E+03  0.00000000000E+00 0.  1.
         25    1    1    2    0    0 -0.55439843811E+02  0.63655182660E+02 -0.43455828262E+01  0.15089546929E+03  0.12500000000E+03 0.  0.
         25    1    1    2    0    0  0.59063136108E+02  0.27004910524E+02  0.54769035212E+02  0.15113691295E+03  0.12500000000E+03 0.  0.
         25    1    1    2    0    0 -0.36232922974E+01 -0.90660093185E+02  0.28911553956E+03  0.32778830967E+03  0.12500000000E+03 0.  0.
</event>
<event>
 5    0  0.5815084E-005  0.4627926E+03  0.7546771E-02  0.1023974E+00
         21   -1    0    0  502  501  0.00000000000E+00  0.00000000000E+00  0.11598368240E+03  0.11598368240E+03  0.00000000000E+00 0.  1.
         21   -1    0    0  501  502 -0.00000000000E+00 -0.00000000000E+00 -0.18466128526E+04  0.18466128526E+04  0.00000000000E+00 0.  1.
         25    1    1    2    0    0 -0.10062162197E+03 -0.22596116901E+03 -0.14086386455E+04  0.14356430595E+04  0.12500000000E+03 0.  0.
         25    1    1    2    0    0  0.56284117588E+02  0.13631994498E+03 -0.31138569476E+03  0.36652023162E+03  0.12500000000E+03 0.  0.
         25    1    1    2    0    0  0.44337504383E+02  0.89641224031E+02 -0.10604830002E+02  0.16043324394E+03  0.12500000000E+03 0.  0.
</event>
<event>
 5    0  0.5815084E-005  0.3674039E+03  0.7546771E-02  0.1055690E+00
         21   -1    0    0  502  501  0.00000000000E+00  0.00000000000E+00  0.69412129318E+03  0.69412129318E+03  0.00000000000E+00 0.  1.
         21   -1    0    0  501  502 -0.00000000000E+00 -0.00000000000E+00 -0.19446982015E+03  0.19446982015E+03  0.00000000000E+00 0.  1.
         25    1    1    2    0    0  0.14733599537E+03  0.16864068639E+03  0.45142609963E+03  0.51918984974E+03  0.12500000000E+03 0.  0.
         25    1    1    2    0    0 -0.70741835511E+02 -0.13785381226E+03 -0.28478056234E+02  0.20110713695E+03  0.12500000000E+03 0.  0.
         25    1    1    2    0    0 -0.76594159861E+02 -0.30786874126E+02  0.76703429635E+02  0.16829412664E+03  0.12500000000E+03 0.  0.
</event>
<event>
 5    0  0.5815084E-005  0.2759184E+03  0.7546771E-02  0.1097939E+00
         21   -1    0    0  502  501  0.00000000000E+00  0.00000000000E+00  0.16964331335E+03  0.16964331335E+03  0.00000000000E+00 0.  1.
         21   -1    0    0  501  502 -0.00000000000E+00 -0.00000000000E+00 -0.44877062851E+03  0.44877062851E+03  0.00000000000E+00 0.  1.
         25    1    1    2    0    0  0.60611392209E+02  0.32877807019E+02 -0.29281392471E+02  0.14572951316E+03  0.12500000000E+03 0.  0.
         25    1    1    2    0    0 -0.73687621796E+02  0.39194687422E+02  0.33910341942E+02  0.15408114881E+03  0.12500000000E+03 0.  0.
         25    1    1    2    0    0  0.13076229588E+02 -0.72072494442E+02 -0.28375626463E+03  0.31860327988E+03  0.12500000000E+03 0.  0.
</event>
<event>
 5    0  0.5815084E-005  0.3329526E+03  0.7546771E-02  0.1069838E+00
         21   -1    0    0  502  501  0.00000000000E+00  0.00000000000E+00  0.45099263072E+03  0.45099263072E+03  0.00000000000E+00 0.  1.
         21   -1    0    0  501  502 -0.00000000000E+00 -0.00000000000E+00 -0.24580758780E+03  0.24580758780E+03  0.00000000000E+00 0.  1.
         25    1    1    2    0    0 -0.12054061298E+02  0.12176625163E+03  0.94601609488E+02  0.19886373462E+03  0.12500000000E+03 0.  0.
         25    1    1    2    0    0 -0.98371329116E+02  0.71035267153E+02  0.16197596586E+03  0.23787421275E+03  0.12500000000E+03 0.  0.
         25    1    1    2    0    0  0.11042539041E+03 -0.19280151878E+03 -0.51392532432E+02  0.26006227116E+03  0.12500000000E+03 0.  0.
</event>
<event>
 5    0  0.5815084E-005  0.4582442E+03  0.7546771E-02  0.1025292E+00
         21   -1    0    0  502  501  0.00000000000E+00  0.00000000000E+00  0.72022154688E+03  0.72022154688E+03  0.00000000000E+00 0. -1.
         21   -1    0    0  501  502 -0.00000000000E+00 -0.00000000000E+00 -0.29155996243E+03  0.29155996243E+03  0.00000000000E+00 0. -1.
         25    1    1    2    0    0 -0.16130729313E+03  0.55973917665E+02  0.20527908447E+03  0.29481795195E+03  0.12500000000E+03 0.  0.
         25    1    1    2    0    0 -0.30565483194E+02  0.15377089545E+03 -0.13578694571E+03  0.24216282059E+03  0.12500000000E+03 0.  0.
         25    1    1    2    0    0  0.19187277632E+03 -0.20974481311E+03  0.35916944569E+03  0.47480073677E+03  0.12500000000E+03 0.  0.
</event>
<event>
 5    0  0.5815084E-005  0.4039959E+03  0.7546771E-02  0.1042405E+00
         21   -1    0    0  502  501  0.00000000000E+00  0.00000000000E+00  0.51684300236E+03  0.51684300236E+03  0.00000000000E+00 0.  1.
         21   -1    0    0  501  502 -0.00000000000E+00 -0.00000000000E+00 -0.31578774104E+03  0.31578774104E+03  0.00000000000E+00 0.  1.
         25    1    1    2    0    0 -0.63962509767E+02  0.67908463250E+01  0.35776193323E+03  0.38439032131E+03  0.12500000000E+03 0.  0.
         25    1    1    2    0    0  0.74197516384E+02  0.14694845355E+03 -0.13890576742E+03  0.24903600475E+03  0.12500000000E+03 0.  0.
         25    1    1    2    0    0 -0.10235006617E+02 -0.15373929988E+03 -0.17800904487E+02  0.19920441734E+03  0.12500000000E+03 0.  0.
</event>
<event>
 5    0  0.5881824E-005  0.4392360E+03  0.7546771E-02  0.1030981E+00
         21   -1    0    0  502  501  0.00000000000E+00  0.00000000000E+00  0.36334626813E+03  0.36334626813E+03  0.00000000000E+00 0. -1.
         21   -1    0    0  501  502 -0.00000000000E+00 -0.00000000000E+00 -0.53097624690E+03  0.53097624690E+03  0.00000000000E+00 0. -1.
         25    1    1    2    0    0 -0.23653038778E+03 -0.93716990229E+02 -0.11454698472E+03  0.30573764948E+03  0.12500000000E+03 0.  0.
         25    1    1    2    0    0  0.12941589082E+03  0.28198452382E+03 -0.88359465798E+01  0.33461443248E+03  0.12500000000E+03 0.  0.
         25    1    1    2    0    0  0.10711449696E+03 -0.18826753359E+03 -0.44247047472E+02  0.25397043307E+03  0.12500000000E+03 0.  0.
</event>
<event>
 5    0  0.5815084E-005  0.2584481E+03  0.7546771E-02  0.1108079E+00
         21   -1    0    0  502  501  0.00000000000E+00  0.00000000000E+00  0.29577715429E+04  0.29577715429E+04  0.00000000000E+00 0.  1.
         21   -1    0    0  501  502 -0.00000000000E+00 -0.00000000000E+00 -0.22583030589E+02  0.22583030589E+02  0.00000000000E+00 0.  1.
         25    1    1    2    0    0  0.13052356113E+03  0.65021108524E+02  0.71641702249E+03  0.74171591238E+03  0.12500000000E+03 0.  0.
         25    1    1    2    0    0 -0.27261547330E+02 -0.21790052333E+02  0.97252026145E+03  0.98114150726E+03  0.12500000000E+03 0.  0.
         25    1    1    2    0    0 -0.10326201380E+03 -0.43231056191E+02  0.12462512283E+04  0.12574971538E+04  0.12500000000E+03 0.  0.
</event>
<event>
 5    0  0.5815084E-005  0.3705529E+03  0.7546771E-02  0.1054482E+00
         21   -1    0    0  502  501  0.00000000000E+00  0.00000000000E+00  0.20566522581E+03  0.20566522581E+03  0.00000000000E+00 0.  1.
         21   -1    0    0  501  502 -0.00000000000E+00 -0.00000000000E+00 -0.66763565344E+03  0.66763565344E+03  0.00000000000E+00 0.  1.
         25    1    1    2    0    0 -0.15343510629E+03  0.19735261972E+02 -0.23386730540E+03  0.30700281586E+03  0.12500000000E+03 0.  0.
         25    1    1    2    0    0 -0.67106488939E+02 -0.15878461315E+03 -0.16740881315E+03  0.27086259422E+03  0.12500000000E+03 0.  0.
         25    1    1    2    0    0  0.22054159523E+03  0.13904935118E+03 -0.60694309085E+02  0.29543546917E+03  0.12500000000E+03 0.  0.
</event>
<event>
 5    0  0.5815084E-005  0.2990781E+03  0.7546771E-02  0.1085702E+00
         21   -1    0    0  502  501  0.00000000000E+00  0.00000000000E+00  0.12223406092E+04  0.12223406092E+04  0.00000000000E+00 0.  1.
         21   -1    0    0  501  502 -0.00000000000E+00 -0.00000000000E+00 -0.73177421174E+02  0.73177421174E+02  0.00000000000E+00 0.  1.
         25    1    1    2    0    0  0.60814058946E+02  0.13842389834E+03  0.40130033269E+03  0.44668387301E+03  0.12500000000E+03 0.  0.
         25    1    1    2    0    0  0.65127328656E+02 -0.16648071709E+03  0.46697234995E+03  0.51540816226E+03  0.12500000000E+03 0.  0.
         25    1    1    2    0    0 -0.12594138760E+03  0.28056818748E+02  0.28089050535E+03  0.33342599506E+03  0.12500000000E+03 0.  0.
</event>
<event>
 5    0  0.5815084E-005  0.3167788E+03  0.7546771E-02  0.1077141E+00
         21   -1    0    0  502  501  0.00000000000E+00  0.00000000000E+00  0.17978581903E+03  0.17978581903E+03  0.00000000000E+00 0.  1.
         21   -1    0    0  501  502 -0.00000000000E+00 -0.00000000000E+00 -0.55815755833E+03  0.55815755833E+03  0.00000000000E+00 0.  1.
         25    1    1    2    0    0  0.30583766860E+02  0.48937507563E+02 -0.10796967507E+02  0.13810076375E+03  0.12500000000E+03 0.  0.
         25    1    1    2    0    0  0.14538445316E+03 -0.96696045273E+02 -0.29950888577E+03  0.36853403784E+03  0.12500000000E+03 0.  0.
         25    1    1    2    0    0 -0.17596822002E+03  0.47758537710E+02 -0.68065886026E+02  0.23130857576E+03  0.12500000000E+03 0.  0.
</event>
<event>
 5    0  0.5815084E-005  0.3922499E+03  0.7546771E-02  0.1046497E+00
         21   -1    0    0  502  501  0.00000000000E+00  0.00000000000E+00  0.51422469739E+03  0.51422469739E+03  0.00000000000E+00 0.  1.
         21   -1    0    0  501  502 -0.00000000000E+00 -0.00000000000E+00 -0.29920761503E+03  0.29920761503E+03  0.00000000000E+00 0.  1.
         25    1    1    2    0    0  0.21822103689E+03  0.21292855405E+03  0.13714230161E+03  0.35692016049E+03  0.12500000000E+03 0.  0.
         25    1    1    2    0    0 -0.22662817368E+03 -0.15722010340E+03  0.97209238834E+02  0.31804579251E+03  0.12500000000E+03 0.  0.
         25    1    1    2    0    0  0.84071367909E+01 -0.55708450653E+02 -0.19334458079E+02  0.13846635942E+03  0.12500000000E+03 0.  0.
</event>
<event>
 5    0  0.5815084E-005  0.3442739E+03  0.7546771E-02  0.1064990E+00
         21   -1    0    0  502  501  0.00000000000E+00  0.00000000000E+00  0.28174522846E+03  0.28174522846E+03  0.00000000000E+00 0.  1.
         21   -1    0    0  501  502 -0.00000000000E+00 -0.00000000000E+00 -0.42067977574E+03  0.42067977574E+03  0.00000000000E+00 0.  1.
         25    1    1    2    0    0 -0.19675579180E+03 -0.11285055221E+02 -0.27989744075E+02  0.23505024963E+03  0.12500000000E+03 0.  0.
         25    1    1    2    0    0  0.25700398601E+03 -0.42224295440E+02 -0.13118379163E+03  0.31728240912E+03  0.12500000000E+03 0.  0.
         25    1    1    2    0    0 -0.60248194210E+02  0.53509350661E+02  0.20238988424E+02  0.15009234546E+03  0.12500000000E+03 0.  0.
</event>
<event>
 5    0  0.5815084E-005  0.2811112E+03  0.7546771E-02  0.1095084E+00
         21   -1    0    0  502  501  0.00000000000E+00  0.00000000000E+00  0.97756213554E+02  0.97756213554E+02  0.00000000000E+00 0. -1.
         21   -1    0    0  501  502 -0.00000000000E+00 -0.00000000000E+00 -0.80837338659E+03  0.80837338659E+03  0.00000000000E+00 0. -1.
         25    1    1    2    0    0 -0.40927326984E+02 -0.65064613769E+02 -0.16072970178E+03  0.21764072940E+03  0.12500000000E+03 0.  0.
         25    1    1    2    0    0 -0.41850177409E+02  0.14363543206E+02 -0.18317776547E+02  0.13385921582E+03  0.12500000000E+03 0.  0.
         25    1    1    2    0    0  0.82777504394E+02  0.50701070563E+02 -0.53156969470E+03  0.55462965492E+03  0.12500000000E+03 0.  0.
</event>
<event>
 5    0  0.5815084E-005  0.2806995E+03  0.7546771E-02  0.1095307E+00
         21   -1    0    0  502  501  0.00000000000E+00  0.00000000000E+00  0.68644924395E+02  0.68644924395E+02  0.00000000000E+00 0. -1.
         21   -1    0    0  501  502 -0.00000000000E+00 -0.00000000000E+00 -0.11478228420E+04  0.11478228420E+04  0.00000000000E+00 0. -1.
         25    1    1    2    0    0 -0.10987748740E+03 -0.97208925894E+02 -0.36461513612E+03  0.41242191382E+03  0.12500000000E+03 0.  0.
         25    1    1    2    0    0 -0.18385173161E+02  0.30858140409E+02 -0.50068464938E+03  0.51730103185E+03  0.12500000000E+03 0.  0.
         25    1    1    2    0    0  0.12826266056E+03  0.66350785484E+02 -0.21387813212E+03  0.28674482075E+03  0.12500000000E+03 0.  0.
</event>
<event>
 5    0  0.5815084E-005  0.3376066E+03  0.7546771E-02  0.1067820E+00
         21   -1    0    0  502  501  0.00000000000E+00  0.00000000000E+00  0.18725790559E+04  0.18725790559E+04  0.00000000000E+00 0.  1.
         21   -1    0    0  501  502 -0.00000000000E+00 -0.00000000000E+00 -0.60866961076E+02  0.60866961076E+02  0.00000000000E+00 0.  1.
         25    1    1    2    0    0  0.12357356453E+02  0.74892119936E+02  0.51263789511E+03  0.53308924711E+03  0.12500000000E+03 0.  0.
         25    1    1    2    0    0  0.87341996792E+02  0.12023978065E+03  0.95012685648E+03  0.96976918525E+03  0.12500000000E+03 0.  0.
         25    1    1    2    0    0 -0.99699353246E+02 -0.19513190059E+03  0.34894734319E+03  0.43058758457E+03  0.12500000000E+03 0.  0.
</event>
<event>
 5    0  0.5815084E-005  0.4311306E+03  0.7546771E-02  0.1033503E+00
         21   -1    0    0  502  501  0.00000000000E+00  0.00000000000E+00  0.31744600718E+03  0.31744600718E+03  0.00000000000E+00 0.  1.
         21   -1    0    0  501  502 -0.00000000000E+00 -0.00000000000E+00 -0.58552817512E+03  0.58552817512E+03  0.00000000000E+00 0.  1.
         25    1    1    2    0    0 -0.22245374198E+03  0.66545100768E+02 -0.13801665485E+03  0.29763654811E+03  0.12500000000E+03 0.  0.
         25    1    1    2    0    0  0.14674622460E+03  0.14732315339E+03  0.96595967958E+02  0.26114047366E+03  0.12500000000E+03 0.  0.
         25    1    1    2    0    0  0.75707517380E+02 -0.21386825416E+03 -0.22666148105E+03  0.34419716053E+03  0.12500000000E+03 0.  0.
</event>
<event>
 5    0  0.5953843E-005  0.6185217E+03  0.7546771E-02  0.9867707E-01
         21   -1    0    0  502  501  0.00000000000E+00  0.00000000000E+00  0.11067181372E+04  0.11067181372E+04  0.00000000000E+00 0.  1.
         21   -1    0    0  501  502 -0.00000000000E+00 -0.00000000000E+00 -0.34567884318E+03  0.34567884318E+03  0.00000000000E+00 0.  1.
         25    1    1    2    0    0  0.38871981878E+03 -0.16657992164E+03 -0.91308179684E+01  0.44108994507E+03  0.12500000000E+03 0.  0.
         25    1    1    2    0    0 -0.25732306007E+03 -0.20234462485E+02  0.11989487150E+03  0.31084460898E+03  0.12500000000E+03 0.  0.
         25    1    1    2    0    0 -0.13139675870E+03  0.18681438412E+03  0.65027524050E+03  0.70046242634E+03  0.12500000000E+03 0.  0.
</event>
<event>
 5    0  0.5815084E-005  0.3521447E+03  0.7546771E-02  0.1061738E+00
         21   -1    0    0  502  501  0.00000000000E+00  0.00000000000E+00  0.64371075516E+03  0.64371075516E+03  0.00000000000E+00 0.  1.
         21   -1    0    0  501  502 -0.00000000000E+00 -0.00000000000E+00 -0.19264223098E+03  0.19264223098E+03  0.00000000000E+00 0.  1.
         25    1    1    2    0    0  0.45552205828E+02  0.10912189122E+02  0.81739993971E+02  0.15652637459E+03  0.12500000000E+03 0.  0.
         25    1    1    2    0    0 -0.13761722748E+03 -0.23207079058E+03  0.15754401639E+03  0.33651221410E+03  0.12500000000E+03 0.  0.
         25    1    1    2    0    0  0.92065021652E+02  0.22115860146E+03  0.21178451382E+03  0.34331439746E+03  0.12500000000E+03 0.  0.
</event>
<event>
 5    0  0.5815084E-005  0.2548412E+03  0.7546771E-02  0.1110283E+00
         21   -1    0    0  502  501  0.00000000000E+00  0.00000000000E+00  0.10359024019E+03  0.10359024019E+03  0.00000000000E+00 0. -1.
         21   -1    0    0  501  502 -0.00000000000E+00 -0.00000000000E+00 -0.62693177718E+03  0.62693177718E+03  0.00000000000E+00 0. -1.
         25    1    1    2    0    0  0.21802473978E+02  0.15224479092E+03 -0.21815939225E+03  0.29474114857E+03  0.12500000000E+03 0.  0.
         25    1    1    2    0    0  0.59592557175E+01 -0.12900517564E+03 -0.15787393023E+03  0.23922170870E+03  0.12500000000E+03 0.  0.
         25    1    1    2    0    0 -0.27761729695E+02 -0.23239615281E+02 -0.14730821451E+03  0.19655916009E+03  0.12500000000E+03 0.  0.
</event>
<event>
 5    0  0.5815084E-005  0.2373672E+03  0.7546771E-02  0.1121559E+00
         21   -1    0    0  502  501  0.00000000000E+00  0.00000000000E+00  0.43516060767E+03  0.43516060767E+03  0.00000000000E+00 0.  1.
         21   -1    0    0  501  502 -0.00000000000E+00 -0.00000000000E+00 -0.12947673793E+03  0.12947673793E+03  0.00000000000E+00 0.  1.
         25    1    1    2    0    0 -0.88042732671E+02 -0.69517446329E+01  0.23256935835E+02  0.15480870322E+03  0.12500000000E+03 0.  0.
         25    1    1    2    0    0  0.42809419765E+02  0.68053987918E+02  0.16633894238E+03  0.22306419579E+03  0.12500000000E+03 0.  0.
         25    1    1    2    0    0  0.45233312905E+02 -0.61102243285E+02  0.11608799153E+03  0.18676444658E+03  0.12500000000E+03 0.  0.
</event>
<event>
 5    0  0.5815084E-005  0.3316936E+03  0.7546771E-02  0.1070390E+00
         21   -1    0    0  502  501  0.00000000000E+00  0.00000000000E+00  0.15138293628E+04  0.15138293628E+04  0.00000000000E+00 0. -1.
         21   -1    0    0  501  502 -0.00000000000E+00 -0.00000000000E+00 -0.72677049383E+02  0.72677049383E+02  0.00000000000E+00 0. -1.
         25    1    1    2    0    0  0.85422196411E+02  0.16689035927E+03  0.33239001348E+03  0.40156875466E+03  0.12500000000E+03 0.  0.
         25    1    1    2    0    0 -0.54399069409E+02 -0.16570350788E+03  0.31716181226E+03  0.38292757335E+03  0.12500000000E+03 0.  0.
         25    1    1    2    0    0 -0.31023127002E+02 -0.11868513913E+01  0.79160048766E+03  0.80201008415E+03  0.12500000000E+03 0.  0.
</event>
<event>
 5    0  0.5815084E-005  0.3400381E+03  0.7546771E-02  0.1066780E+00
         21   -1    0    0  502  501  0.00000000000E+00  0.00000000000E+00  0.11387812269E+03  0.11387812269E+03  0.00000000000E+00 0. -1.
         21   -1    0    0  501  502 -0.00000000000E+00 -0.00000000000E+00 -0.10153476760E+04  0.10153476760E+04  0.00000000000E+00 0. -1.
         25    1    1    2    0    0  0.37999375694E+02  0.27739622007E+01  0.47329098857E+01  0.13076332764E+03  0.12500000000E+03 0.  0.
         25    1    1    2    0    0 -0.10251588355E+03  0.11798291972E+03 -0.27185213909E+03  0.33757674868E+03  0.12500000000E+03 0.  0.
         25    1    1    2    0    0  0.64516507853E+02 -0.12075688192E+03 -0.63435032408E+03  0.66088572233E+03  0.12500000000E+03 0.  0.
</event>
<event>
 5    0  0.5815084E-005  0.2604025E+03  0.7546771E-02  0.1106902E+00
         21   -1    0    0  502  501  0.00000000000E+00  0.00000000000E+00  0.11474779567E+03  0.11474779567E+03  0.00000000000E+00 0. -1.
         21   -1    0    0  501  502 -0.00000000000E+00 -0.00000000000E+00 -0.59094359215E+03  0.59094359215E+03  0.00000000000E+00 0. -1.
         25    1    1    2    0    0  0.89215552786E+02  0.21917832000E+02 -0.10431024920E+03  0.18693697951E+03  0.12500000000E+03 0.  0.
         25    1    1    2    0    0 -0.15723222544E+03 -0.62671926402E+02 -0.25179840573E+03  0.32814201225E+03  0.12500000000E+03 0.  0.
         25    1    1    2    0    0  0.68016672657E+02  0.40754094402E+02 -0.12008714155E+03  0.19061239607E+03  0.12500000000E+03 0.  0.
</event>
<event>
 5    0  0.5815084E-005  0.3246088E+03  0.7546771E-02  0.1073548E+00
         21   -1    0    0  502  501  0.00000000000E+00  0.00000000000E+00  0.22295501718E+03  0.22295501718E+03  0.00000000000E+00 0.  1.
         21   -1    0    0  501  502 -0.00000000000E+00 -0.00000000000E+00 -0.47261055962E+03  0.47261055962E+03  0.00000000000E+00 0.  1.
         25    1    1    2    0    0 -0.12949114465E+02  0.99304911958E+02 -0.31916832777E+03  0.35710301953E+03  0.12500000000E+03 0.  0.
         25    1    1    2    0    0 -0.26929912568E+01  0.51034773485E+02  0.25136018574E+02  0.13736309452E+03  0.12500000000E+03 0.  0.
         25    1    1    2    0    0  0.15642105722E+02 -0.15033968544E+03  0.44376766753E+02  0.20109946275E+03  0.12500000000E+03 0.  0.
</event>
<event>
 5    0  0.5815084E-005  0.4107868E+03  0.7546771E-02  0.1040107E+00
         21   -1    0    0  502  501  0.00000000000E+00  0.00000000000E+00  0.13610538220E+04  0.13610538220E+04  0.00000000000E+00 0. -1.
         21   -1    0    0  501  502 -0.00000000000E+00 -0.00000000000E+00 -0.12398174082E+03  0.12398174082E+03  0.00000000000E+00 0. -1.
         25    1    1    2    0    0 -0.43004399142E+02 -0.38029839321E+02  0.71342053740E+02  0.15495268844E+03  0.12500000000E+03 0.  0.
         25    1    1    2    0    0 -0.25370577101E+03  0.12102079427E+03  0.53854749329E+03  0.62021855295E+03  0.12500000000E+03 0.  0.
         25    1    1    2    0    0  0.29671017015E+03 -0.82990954953E+02  0.62718253410E+03  0.70986432137E+03  0.12500000000E+03 0.  0.
</event>
<event>
 5    0  0.5815084E-005  0.2380071E+03  0.7546771E-02  0.1121128E+00
         21   -1    0    0  502  501  0.00000000000E+00  0.00000000000E+00  0.68329496599E+03  0.68329496599E+03  0.00000000000E+00 0.  1.
         21   -1    0    0  501  502 -0.00000000000E+00 -0.00000000000E+00 -0.82903281155E+02  0.82903281155E+02  0.00000000000E+00 0.  1.
         25    1    1    2    0    0 -0.61687341938E+02 -0.74188880073E+02  0.17378197205E+03  0.23480735059E+03  0.12500000000E+03 0.  0.
         25    1    1    2    0    0 -0.38159692426E+02  0.69427286335E+02  0.14332262853E+03  0.20601622767E+03  0.12500000000E+03 0.  0.
         25    1    1    2    0    0  0.99847034365E+02  0.47615937381E+01  0.28328708426E+03  0.32537466889E+03  0.12500000000E+03 0.  0.
</event>
<event>
 5    0  0.5815084E-005  0.2267069E+03  0.7546771E-02  0.1128979E+00
         21   -1    0    0  502  501  0.00000000000E+00  0.00000000000E+00  0.10565682823E+04  0.10565682823E+04  0.00000000000E+00 0.  1.
         21   -1    0    0  501  502 -0.00000000000E+00 -0.00000000000E+00 -0.48644304962E+02  0.48644304962E+02  0.00000000000E+00 0.  1.
         25    1    1    2    0    0 -0.23057707351E+02 -0.30457597098E+02  0.36557001328E+03  0.38823415319E+03  0.12500000000E+03 0.  0.
         25    1    1    2    0    0  0.82123346788E+02  0.82433848054E+02  0.34837616368E+03  0.38798264757E+03  0.12500000000E+03 0.  0.
         25    1    1    2    0    0 -0.59065639436E+02 -0.51976250956E+02  0.29397780035E+03  0.32899578649E+03  0.12500000000E+03 0.  0.
</event>
<event>
 5    0  0.5815084E-005  0.2280944E+03  0.7546771E-02  0.1127988E+00
         21   -1    0    0  502  501  0.00000000000E+00  0.00000000000E+00  0.21032625790E+03  0.21032625790E+03  0.00000000000E+00 0.  1.
         21   -1    0    0  501  502 -0.00000000000E+00 -0.00000000000E+00 -0.24736354054E+03  0.24736354054E+03  0.00000000000E+00 0.  1.
         25    1    1    2    0    0  0.29662960223E+02  0.94430185547E+01 -0.35691951905E+02  0.13367115336E+03  0.12500000000E+03 0.  0.
         25    1    1    2    0    0  0.18737759855E+02 -0.79852656010E+02  0.59402315353E+02  0.16087630461E+03  0.12500000000E+03 0.  0.
         25    1    1    2    0    0 -0.48400720078E+02  0.70409637456E+02 -0.60747646080E+02  0.16314234047E+03  0.12500000000E+03 0.  0.
</event>
<event>
 5    0  0.5815084E-005  0.2673618E+03  0.7546771E-02  0.1102799E+00
         21   -1    0    0  502  501  0.00000000000E+00  0.00000000000E+00  0.30730616617E+03  0.30730616617E+03  0.00000000000E+00 0.  1.
         21   -1    0    0  501  502 -0.00000000000E+00 -0.00000000000E+00 -0.23260946547E+03  0.23260946547E+03  0.00000000000E+00 0.  1.
         25    1    1    2    0    0 -0.58733318224E+02 -0.72076125264E+01  0.95955688124E+02  0.16832720051E+03  0.12500000000E+03 0.  0.
         25    1    1    2    0    0 -0.10997559176E+01 -0.65344435300E+02 -0.12119207153E+03  0.18596672522E+03  0.12500000000E+03 0.  0.
         25    1    1    2    0    0  0.59833074142E+02  0.72552047827E+02  0.99933084114E+02  0.18562170591E+03  0.12500000000E+03 0.  0.
</event>
<event>
 5    0  0.5815084E-005  0.3013043E+03  0.7546771E-02  0.1084590E+00
         21   -1    0    0  502  501  0.00000000000E+00  0.00000000000E+00  0.65934907368E+02  0.65934907368E+02  0.00000000000E+00 0. -1.
         21   -1    0    0  501  502 -0.00000000000E+00 -0.00000000000E+00 -0.13768773324E+04  0.13768773324E+04  0.00000000000E+00 0. -1.
         25    1    1    2    0    0 -0.22095111952E+01 -0.10235477115E+02 -0.21820312736E+03  0.25168879935E+03  0.12500000000E+03 0.  0.
         25    1    1    2    0    0  0.19930977131E+03 -0.25996018001E+02 -0.58811219189E+03  0.63395672419E+03  0.12500000000E+03 0.  0.
         25    1    1    2    0    0 -0.19710026011E+03  0.36231495117E+02 -0.50462710574E+03  0.55716671619E+03  0.12500000000E+03 0.  0.
</event>
<event>
 5    0  0.5815084E-005  0.3365791E+03  0.7546771E-02  0.1068262E+00
         21   -1    0    0  502  501  0.00000000000E+00  0.00000000000E+00  0.24045496336E+03  0.24045496336E+03  0.00000000000E+00 0.  1.
         21   -1    0    0  501  502 -0.00000000000E+00 -0.00000000000E+00 -0.47112981724E+03  0.47112981724E+03  0.00000000000E+00 0.  1.
         25    1    1    2    0    0  0.17636839176E+03  0.10840900863E+03 -0.23870363422E+03  0.33979809851E+03  0.12500000000E+03 0.  0.
         25    1    1    2    0    0 -0.11538988346E+03  0.25675820819E+02  0.38258875358E+02  0.17624645961E+03  0.12500000000E+03 0.  0.
         25    1    1    2    0    0 -0.60978508298E+02 -0.13408482945E+03 -0.30230095021E+02  0.19554022248E+03  0.12500000000E+03 0.  0.
</event>
<event>
 5    0  0.5815084E-005  0.3347032E+03  0.7546771E-02  0.1069075E+00
         21   -1    0    0  502  501  0.00000000000E+00  0.00000000000E+00  0.13886219636E+03  0.13886219636E+03  0.00000000000E+00 0.  1.
         21   -1    0    0  501  502 -0.00000000000E+00 -0.00000000000E+00 -0.80674414955E+03  0.80674414955E+03  0.00000000000E+00 0.  1.
         25    1    1    2    0    0  0.12795795367E+02  0.18701986444E+03 -0.47969008249E+03  0.52996956263E+03  0.12500000000E+03 0.  0.
         25    1    1    2    0    0 -0.55609984581E+02 -0.16930518571E+03 -0.49433480093E+02  0.22321600580E+03  0.12500000000E+03 0.  0.
         25    1    1    2    0    0  0.42814189215E+02 -0.17714678738E+02 -0.13875839061E+03  0.19242077748E+03  0.12500000000E+03 0.  0.
</event>
<event>
 5    0  0.5815084E-005  0.3911415E+03  0.7546771E-02  0.1046891E+00
         21   -1    0    0  502  501  0.00000000000E+00  0.00000000000E+00  0.50389582499E+03  0.50389582499E+03  0.00000000000E+00 0.  1.
         21   -1    0    0  501  502 -0.00000000000E+00 -0.00000000000E+00 -0.30361770804E+03  0.30361770804E+03  0.00000000000E+00 0.  1.
         25    1    1    2    0    0 -0.55461280012E+02  0.21119403125E+03  0.11015653491E+01  0.25160501955E+03  0.12500000000E+03 0.  0.
         25    1    1    2    0    0 -0.76879995478E+01 -0.49465102778E+02 -0.11414028014E+03  0.17651885248E+03  0.12500000000E+03 0.  0.
         25    1    1    2    0    0  0.63149279559E+02 -0.16172892847E+03  0.31331683174E+03  0.37938966099E+03  0.12500000000E+03 0.  0.
</event>
<event>
 5    0  0.5815084E-005  0.2981753E+03  0.7546771E-02  0.1086156E+00
         21   -1    0    0  502  501  0.00000000000E+00  0.00000000000E+00  0.11969866593E+04  0.11969866593E+04  0.00000000000E+00 0. -1.
         21   -1    0    0  501  502 -0.00000000000E+00 -0.00000000000E+00 -0.74276947166E+02  0.74276947166E+02  0.00000000000E+00 0. -1.
         25    1    1    2    0    0 -0.31303353220E+02 -0.10831207384E+03  0.42149048513E+03  0.45386191107E+03  0.12500000000E+03 0.  0.
         25    1    1    2    0    0  0.15220213144E+03  0.42082568069E+00  0.46421169754E+03  0.50426497602E+03  0.12500000000E+03 0.  0.
         25    1    1    2    0    0 -0.12089877822E+03  0.10789124816E+03  0.23700752950E+03  0.31313671941E+03  0.12500000000E+03 0.  0.
</event>
<event>
 5    0  0.5815084E-005  0.4634876E+03  0.7546771E-02  0.1023775E+00
         21   -1    0    0  502  501  0.00000000000E+00  0.00000000000E+00  0.68944030324E+03  0.68944030324E+03  0.00000000000E+00 0.  1.
         21   -1    0    0  501  502 -0.00000000000E+00 -0.00000000000E+00 -0.31158712967E+03  0.31158712967E+03  0.00000000000E+00 0.  1.
         25    1    1    2    0    0 -0.57164710162E+02  0.11452864902E+03 -0.58667036798E+02  0.18828551920E+03  0.12500000000E+03 0.  0.
         25    1    1    2    0    0 -0.97639299042E+02 -0.13786359298E+03 -0.10530887786E+03  0.23506331645E+03  0.12500000000E+03 0.  0.
         25    1    1    2    0    0  0.15480400920E+03  0.23334943957E+02  0.54182908822E+03  0.57767859725E+03  0.12500000000E+03 0.  0.
</event>
<event>
 5    0  0.5815084E-005  0.4580625E+03  0.7546771E-02  0.1025345E+00
         21   -1    0    0  502  501  0.00000000000E+00  0.00000000000E+00  0.99530501595E+03  0.99530501595E+03  0.00000000000E+00 0. -1.
         21   -1    0    0  501  502 -0.00000000000E+00 -0.00000000000E+00 -0.21081099050E+03  0.21081099050E+03  0.00000000000E+00 0. -1.
         25    1    1    2    0    0  0.10182458022E+03 -0.24675413168E+03  0.67051426286E+03  0.73244127638E+03  0.12500000000E+03 0.  0.
         25    1    1    2    0    0 -0.84841963621E+02 -0.30298472241E+02  0.54932526384E+02  0.16358098504E+03  0.12500000000E+03 0.  0.
         25    1    1    2    0    0 -0.16982616597E+02  0.27705260392E+03  0.59047236207E+02  0.31009374504E+03  0.12500000000E+03 0.  0.
</event>
<event>
 5    0  0.5815084E-005  0.4624997E+03  0.7546771E-02  0.1024059E+00
         21   -1    0    0  502  501  0.00000000000E+00  0.00000000000E+00  0.94354634578E+03  0.94354634578E+03  0.00000000000E+00 0.  1.
         21   -1    0    0  501  502 -0.00000000000E+00 -0.00000000000E+00 -0.22670425558E+03  0.22670425558E+03  0.00000000000E+00 0.  1.
         25    1    1    2    0    0  0.16020422272E+03 -0.54618138909E+02  0.68275063716E+03  0.71443821750E+03  0.12500000000E+03 0.  0.
         25    1    1    2    0    0 -0.15874261861E+03  0.17686243721E+03 -0.28659072944E+02  0.27004792745E+03  0.12500000000E+03 0.  0.
         25    1    1    2    0    0 -0.14616041059E+01 -0.12224429830E+03  0.62750525989E+02  0.18576445641E+03  0.12500000000E+03 0.  0.
</event>
<event>
 5    0  0.5815084E-005  0.3170969E+03  0.7546771E-02  0.1076993E+00
         21   -1    0    0  502  501  0.00000000000E+00  0.00000000000E+00  0.24383716802E+04  0.24383716802E+04  0.00000000000E+00 0.  1.
         21   -1    0    0  501  502 -0.00000000000E+00 -0.00000000000E+00 -0.41236720688E+02  0.41236720688E+02  0.00000000000E+00 0. -1.
         25    1    1    2    0    0 -0.16161460291E+03 -0.68060710906E+02  0.61774947107E+03  0.65421017208E+03  0.12500000000E+03 0.  0.
         25    1    1    2    0    0  0.19614536493E+03  0.18489013117E+02  0.14389219645E+04  0.14577161135E+04  0.12500000000E+03 0.  0.
         25    1    1    2    0    0 -0.34530762025E+02  0.49571697788E+02  0.34046352397E+03  0.36768211529E+03  0.12500000000E+03 0.  0.
</event>
<event>
 5    0  0.5815084E-005  0.3001010E+03  0.7546771E-02  0.1085190E+00
         21   -1    0    0  502  501  0.00000000000E+00  0.00000000000E+00  0.60466044730E+02  0.60466044730E+02  0.00000000000E+00 0. -1.
         21   -1    0    0  501  502 -0.00000000000E+00 -0.00000000000E+00 -0.14894413987E+04  0.14894413987E+04  0.00000000000E+00 0. -1.
         25    1    1    2    0    0 -0.10765161517E+03 -0.25977901658E+02 -0.45219372624E+03  0.48204552448E+03  0.12500000000E+03 0.  0.
         25    1    1    2    0    0  0.11636306752E+02  0.12877722006E+03 -0.20157268526E+03  0.27013982210E+03  0.12500000000E+03 0.  0.
         25    1    1    2    0    0  0.96015308414E+02 -0.10279931840E+03 -0.77520894249E+03  0.79772209687E+03  0.12500000000E+03 0.  0.
</event>
<event>
 5    0  0.5815084E-005  0.5460670E+03  0.7546771E-02  0.1002408E+00
         21   -1    0    0  502  501  0.00000000000E+00  0.00000000000E+00  0.69848971474E+03  0.69848971474E+03  0.00000000000E+00 0. -1.
         21   -1    0    0  501  502 -0.00000000000E+00 -0.00000000000E+00 -0.42690564079E+03  0.42690564079E+03  0.00000000000E+00 0. -1.
         25    1    1    2    0    0 -0.29849098206E+03 -0.29975234716E+02 -0.26740876329E+03  0.42086556969E+03  0.12500000000E+03 0.  0.
         25    1    1    2    0    0  0.27129073563E+03  0.90600314069E+02  0.37011138138E+03  0.48416372724E+03  0.12500000000E+03 0.  0.
         25    1    1    2    0    0  0.27200246430E+02 -0.60625079353E+02  0.16888145586E+03  0.22036605860E+03  0.12500000000E+03 0.  0.
</event>
<event>
 5    0  0.5815084E-005  0.2698545E+03  0.7546771E-02  0.1101363E+00
         21   -1    0    0  502  501  0.00000000000E+00  0.00000000000E+00  0.36879019030E+03  0.36879019030E+03  0.00000000000E+00 0. -1.
         21   -1    0    0  501  502 -0.00000000000E+00 -0.00000000000E+00 -0.19746036194E+03  0.19746036194E+03  0.00000000000E+00 0. -1.
         25    1    1    2    0    0 -0.94641386017E+02 -0.64859394768E+02  0.14551639404E+03  0.22352573447E+03  0.12500000000E+03 0.  0.
         25    1    1    2    0    0  0.10913450673E+03  0.22097525854E+02  0.95428275548E+02  0.19269197436E+03  0.12500000000E+03 0.  0.
         25    1    1    2    0    0 -0.14493120714E+02  0.42761868914E+02 -0.69614841232E+02  0.15003284341E+03  0.12500000000E+03 0.  0.
</event>
<event>
 5    0  0.5815084E-005  0.3248818E+03  0.7546771E-02  0.1073424E+00
         21   -1    0    0  502  501  0.00000000000E+00  0.00000000000E+00  0.27515990304E+03  0.27515990304E+03  0.00000000000E+00 0.  1.
         21   -1    0    0  501  502 -0.00000000000E+00 -0.00000000000E+00 -0.38358844795E+03  0.38358844795E+03  0.00000000000E+00 0.  1.
         25    1    1    2    0    0 -0.69035711167E+01 -0.97518509788E+02 -0.20783749072E+03  0.26149367410E+03  0.12500000000E+03 0.  0.
         25    1    1    2    0    0 -0.52831833296E+02  0.82169722834E+02  0.17702864971E+03  0.23771244978E+03  0.12500000000E+03 0.  0.
         25    1    1    2    0    0  0.59735404413E+02  0.15348786954E+02 -0.77619703900E+02  0.15954222712E+03  0.12500000000E+03 0.  0.
</event>
<event>
 5    0  0.5815084E-005  0.2150346E+03  0.7546771E-02  0.1137640E+00
         21   -1    0    0  502  501  0.00000000000E+00  0.00000000000E+00  0.30135672642E+02  0.30135672642E+02  0.00000000000E+00 0.  1.
         21   -1    0    0  501  502 -0.00000000000E+00 -0.00000000000E+00 -0.15343903126E+04  0.15343903126E+04  0.00000000000E+00 0.  1.
         25    1    1    2    0    0  0.18281320706E+02  0.37769711226E+02 -0.44353482991E+03  0.46271903258E+03  0.12500000000E+03 0.  0.
         25    1    1    2    0    0 -0.13798783522E+01 -0.80873433083E+02 -0.73386567306E+03  0.74881656121E+03  0.12500000000E+03 0.  0.
         25    1    1    2    0    0 -0.16901442354E+02  0.43103721857E+02 -0.32685413702E+03  0.35299039148E+03  0.12500000000E+03 0.  0.
</event>
<event>
 5    0  0.5815084E-005  0.2555794E+03  0.7546771E-02  0.1109829E+00
         21   -1    0    0  502  501  0.00000000000E+00  0.00000000000E+00  0.10408056852E+04  0.10408056852E+04  0.00000000000E+00 0.  1.
         21   -1    0    0  501  502 -0.00000000000E+00 -0.00000000000E+00 -0.62759874376E+02  0.62759874376E+02  0.00000000000E+00 0.  1.
         25    1    1    2    0    0  0.43353678866E+02 -0.74619082360E+02  0.14291584501E+03  0.20856051323E+03  0.12500000000E+03 0.  0.
         25    1    1    2    0    0 -0.70141732723E+02  0.11588508856E+03  0.54397967931E+03  0.57435886684E+03  0.12500000000E+03 0.  0.
         25    1    1    2    0    0  0.26788053857E+02 -0.41266006204E+02  0.29115028649E+03  0.32064617949E+03  0.12500000000E+03 0.  0.
</event>
<event>
 5    0  0.5815084E-005  0.2914733E+03  0.7546771E-02  0.1089582E+00
         21   -1    0    0  502  501  0.00000000000E+00  0.00000000000E+00  0.17424855529E+03  0.17424855529E+03  0.00000000000E+00 0. -1.
         21   -1    0    0  501  502 -0.00000000000E+00 -0.00000000000E+00 -0.48756038202E+03  0.48756038202E+03  0.00000000000E+00 0. -1.
         25    1    1    2    0    0  0.49428101672E+02 -0.83024962667E+02 -0.29368999373E+03  0.33348927131E+03  0.12500000000E+03 0.  0.
         25    1    1    2    0    0 -0.51518837863E+02  0.11570194813E+03 -0.67777954411E+02  0.19042054133E+03  0.12500000000E+03 0.  0.
         25    1    1    2    0    0  0.20907361906E+01 -0.32676985462E+02  0.48156121405E+02  0.13789912467E+03  0.12500000000E+03 0.  0.
</event>
<event>
 5    0  0.5815084E-005  0.4229068E+03  0.7546771E-02  0.1036124E+00
         21   -1    0    0  502  501  0.00000000000E+00  0.00000000000E+00  0.33352622162E+03  0.33352622162E+03  0.00000000000E+00 0. -1.
         21   -1    0    0  501  502 -0.00000000000E+00 -0.00000000000E+00 -0.53624016345E+03  0.53624016345E+03  0.00000000000E+00 0. -1.
         25    1    1    2    0    0  0.59708180710E+02  0.27190599976E+02 -0.29268793832E+03  0.32495480425E+03  0.12500000000E+03 0.  0.
         25    1    1    2    0    0 -0.53902620788E+02 -0.18146360387E+03  0.21298728145E+03  0.31116412730E+03  0.12500000000E+03 0.  0.
         25    1    1    2    0    0 -0.58055599217E+01  0.15427300389E+03 -0.12301328497E+03  0.23364745352E+03  0.12500000000E+03 0.  0.
</event>
<event>
 5    0  0.7085715E-005  0.5946541E+03  0.7546771E-02  0.9916560E-01
         21   -1    0    0  502  501  0.00000000000E+00  0.00000000000E+00  0.43802408035E+03  0.43802408035E+03  0.00000000000E+00 0.  1.
         21   -1    0    0  501  502 -0.00000000000E+00 -0.00000000000E+00 -0.80729241152E+03  0.80729241152E+03  0.00000000000E+00 0.  1.
         25    1    1    2    0    0 -0.21629008217E+03  0.94503433359E+02  0.23112555821E+03  0.35320861005E+03  0.12500000000E+03 0.  0.
         25    1    1    2    0    0  0.27181645808E+03 -0.24507146219E+03 -0.18314630525E+03  0.42791561971E+03  0.12500000000E+03 0.  0.
         25    1    1    2    0    0 -0.55526375918E+02  0.15056802883E+03 -0.41724758413E+03  0.46419226210E+03  0.12500000000E+03 0.  0.
</event>
<event>
 5    0  0.5815084E-005  0.2636195E+03  0.7546771E-02  0.1104988E+00
         21   -1    0    0  502  501  0.00000000000E+00  0.00000000000E+00  0.13638328351E+04  0.13638328351E+04  0.00000000000E+00 0.  1.
         21   -1    0    0  501  502 -0.00000000000E+00 -0.00000000000E+00 -0.50955845286E+02  0.50955845286E+02  0.00000000000E+00 0.  1.
         25    1    1    2    0    0  0.21816859398E+01 -0.45983903022E+02  0.21467016285E+03  0.25264116432E+03  0.12500000000E+03 0.  0.
         25    1    1    2    0    0  0.66389399537E+02  0.60910008820E+02  0.19948728778E+03  0.25206697430E+03  0.12500000000E+03 0.  0.
         25    1    1    2    0    0 -0.68571085476E+02 -0.14926105799E+02  0.89871953920E+03  0.91008054178E+03  0.12500000000E+03 0.  0.
</event>
<event>
 5    0  0.5815084E-005  0.2894965E+03  0.7546771E-02  0.1090612E+00
         21   -1    0    0  502  501  0.00000000000E+00  0.00000000000E+00  0.97074349869E+03  0.97074349869E+03  0.00000000000E+00 0. -1.
         21   -1    0    0  501  502 -0.00000000000E+00 -0.00000000000E+00 -0.86334054472E+02  0.86334054472E+02  0.00000000000E+00 0. -1.
         25    1    1    2    0    0 -0.12600041616E+03  0.21228232550E+02  0.47184902942E+03  0.50457234297E+03  0.12500000000E+03 0.  0.
         25    1    1    2    0    0 -0.54230496981E+02 -0.21549802791E+02  0.98799015706E+02  0.16968083660E+03  0.12500000000E+03 0.  0.
         25    1    1    2    0    0  0.18023091314E+03  0.32157024190E+00  0.31376139909E+03  0.38282437359E+03  0.12500000000E+03 0.  0.
</event>
<event>
 5    0  0.5815084E-005  0.3232181E+03  0.7546771E-02  0.1074178E+00
         21   -1    0    0  502  501  0.00000000000E+00  0.00000000000E+00  0.13478489531E+04  0.13478489531E+04  0.00000000000E+00 0. -1.
         21   -1    0    0  501  502 -0.00000000000E+00 -0.00000000000E+00 -0.77508652852E+02  0.77508652852E+02  0.00000000000E+00 0. -1.
         25    1    1    2    0    0 -0.17115129788E+03  0.28945442109E+02  0.78028990871E+03  0.80907845542E+03  0.12500000000E+03 0.  0.
         25    1    1    2    0    0  0.24488749201E+02  0.49983887116E+02  0.85695646290E+02  0.16145225796E+03  0.12500000000E+03 0.  0.
         25    1    1    2    0    0  0.14666254868E+03 -0.78929329225E+02  0.40435474522E+03  0.45482689254E+03  0.12500000000E+03 0.  0.
</event>
<event>
 5    0  0.5815084E-005  0.3985919E+03  0.7546771E-02  0.1044268E+00
         21   -1    0    0  502  501  0.00000000000E+00  0.00000000000E+00  0.86771035243E+03  0.86771035243E+03  0.00000000000E+00 0.  1.
         21   -1    0    0  501  502 -0.00000000000E+00 -0.00000000000E+00 -0.18309742356E+03  0.18309742356E+03  0.00000000000E+00 0.  1.
         25    1    1    2    0    0 -0.20252084004E+03  0.64960458866E+02  0.10240690443E+03  0.26710807914E+03  0.12500000000E+03 0.  0.
         25    1    1    2    0    0  0.15992396365E+03 -0.82728310813E+02  0.60947310599E+03  0.64768982891E+03  0.12500000000E+03 0.  0.
         25    1    1    2    0    0  0.42596876392E+02  0.17767851947E+02 -0.27267081535E+02  0.13600986794E+03  0.12500000000E+03 0.  0.
</event>
<event>
 5    0  0.5815084E-005  0.2404616E+03  0.7546771E-02  0.1119486E+00
         21   -1    0    0  502  501  0.00000000000E+00  0.00000000000E+00  0.53231523966E+03  0.53231523966E+03  0.00000000000E+00 0.  1.
         21   -1    0    0  501  502 -0.00000000000E+00 -0.00000000000E+00 -0.10862321730E+03  0.10862321730E+03  0.00000000000E+00 0.  1.
         25    1    1    2    0    0  0.15560951571E+02 -0.46685744734E+02  0.24685190022E+03  0.28103836503E+03  0.12500000000E+03 0.  0.
         25    1    1    2    0    0  0.26971874264E+02  0.97228950535E+02  0.45586761136E+02  0.16698533952E+03  0.12500000000E+03 0.  0.
         25    1    1    2    0    0 -0.42532825835E+02 -0.50543205801E+02  0.13125336100E+03  0.19291475242E+03  0.12500000000E+03 0.  0.
</event>
<event>
 5    0  0.5815084E-005  0.2168272E+03  0.7546771E-02  0.1136271E+00
         21   -1    0    0  502  501  0.00000000000E+00  0.00000000000E+00  0.72207331339E+02  0.72207331339E+02  0.00000000000E+00 0. -1.
         21   -1    0    0  501  502 -0.00000000000E+00 -0.00000000000E+00 -0.65109779002E+03  0.65109779002E+03  0.00000000000E+00 0. -1.
         25    1    1    2    0    0  0.42552585709E+02  0.32767212702E+02 -0.91251935237E+02  0.16381797357E+03  0.12500000000E+03 0.  0.
         25    1    1    2    0    0 -0.33432030629E+02  0.29617083272E+02 -0.20772119143E+03  0.24651159336E+03  0.12500000000E+03 0.  0.
         25    1    1    2    0    0 -0.91205550800E+01 -0.62384295974E+02 -0.27991733201E+03  0.31297555443E+03  0.12500000000E+03 0.  0.
</event>
<event>
 5    0  0.5815084E-005  0.2265329E+03  0.7546771E-02  0.1129104E+00
         21   -1    0    0  502  501  0.00000000000E+00  0.00000000000E+00  0.95444529587E+02  0.95444529587E+02  0.00000000000E+00 0. -1.
         21   -1    0    0  501  502 -0.00000000000E+00 -0.00000000000E+00 -0.53766491799E+03  0.53766491799E+03  0.00000000000E+00 0. -1.
         25    1    1    2    0    0  0.39057606847E+02 -0.91555126312E+02 -0.20728762024E+03  0.26172694801E+03  0.12500000000E+03 0.  0.
         25    1    1    2    0    0 -0.69984264903E+02  0.38373582278E+02 -0.12017246897E+03  0.19088413095E+03  0.12500000000E+03 0.  0.
         25    1    1    2    0    0  0.30926658056E+02  0.53181544034E+02 -0.11476029919E+03  0.18049836862E+03  0.12500000000E+03 0.  0.
</event>
<event>
 5    0  0.6386177E-005  0.3609226E+03  0.7546771E-02  0.1058219E+00
         21   -1    0    0  502  501  0.00000000000E+00  0.00000000000E+00  0.13067130747E+04  0.13067130747E+04  0.00000000000E+00 0. -1.
         21   -1    0    0  501  502 -0.00000000000E+00 -0.00000000000E+00 -0.99689168260E+02  0.99689168260E+02  0.00000000000E+00 0. -1.
         25    1    1    2    0    0 -0.70433639839E+01  0.25958040769E+02  0.78891516724E+03  0.79920934051E+03  0.12500000000E+03 0.  0.
         25    1    1    2    0    0 -0.85440840722E+02  0.13352405861E+03  0.27973360731E+03  0.34497058215E+03  0.12500000000E+03 0.  0.
         25    1    1    2    0    0  0.92484204706E+02 -0.15948209938E+03  0.13837513191E+03  0.26222232032E+03  0.12500000000E+03 0.  0.
</event>
<event>
 5    0  0.5815084E-005  0.2188454E+03  0.7546771E-02  0.1134747E+00
         21   -1    0    0  502  501  0.00000000000E+00  0.00000000000E+00  0.72491661555E+03  0.72491661555E+03  0.00000000000E+00 0. -1.
         21   -1    0    0  501  502 -0.00000000000E+00 -0.00000000000E+00 -0.66067333411E+02  0.66067333411E+02  0.00000000000E+00 0. -1.
         25    1    1    2    0    0 -0.16061441015E+02  0.21361778780E+02  0.11299305686E+03  0.17060693532E+03  0.12500000000E+03 0.  0.
         25    1    1    2    0    0  0.27194248860E+02  0.33866592895E+02  0.39473677038E+03  0.41632750470E+03  0.12500000000E+03 0.  0.
         25    1    1    2    0    0 -0.11132807845E+02 -0.55228371675E+02  0.15111945490E+03  0.20404950894E+03  0.12500000000E+03 0.  0.
</event>
<event>
 5    0  0.5815084E-005  0.3370844E+03  0.7546771E-02  0.1068045E+00
         21   -1    0    0  502  501  0.00000000000E+00  0.00000000000E+00  0.15424103325E+04  0.15424103325E+04  0.00000000000E+00 0. -1.
         21   -1    0    0  501  502 -0.00000000000E+00 -0.00000000000E+00 -0.73667759925E+02  0.73667759925E+02  0.00000000000E+00 0. -1.
         25    1    1    2    0    0 -0.65126148990E+01 -0.12614877503E+03  0.40260544402E+03  0.44008189141E+03  0.12500000000E+03 0.  0.
         25    1    1    2    0    0 -0.29190922655E+01  0.20737882179E+03  0.25670949926E+03  0.35290120974E+03  0.12500000000E+03 0.  0.
         25    1    1    2    0    0  0.94317071645E+01 -0.81230046761E+02  0.80942762934E+03  0.82309499132E+03  0.12500000000E+03 0.  0.
</event>
<event>
 5    0  0.5815084E-005  0.3166746E+03  0.7546771E-02  0.1077190E+00
         21   -1    0    0  502  501  0.00000000000E+00  0.00000000000E+00  0.33508119884E+03  0.33508119884E+03  0.00000000000E+00 0. -1.
         21   -1    0    0  501  502 -0.00000000000E+00 -0.00000000000E+00 -0.29927914717E+03  0.29927914717E+03  0.00000000000E+00 0. -1.
         25    1    1    2    0    0  0.15021339283E+02  0.24579587499E+02  0.23236288271E+02  0.13036380574E+03  0.12500000000E+03 0.  0.
         25    1    1    2    0    0 -0.14986520957E+03 -0.55020917720E+02 -0.15354804306E+03  0.25434009506E+03  0.12500000000E+03 0.  0.
         25    1    1    2    0    0  0.13484387029E+03  0.30441330221E+02  0.16611380646E+03  0.24965644521E+03  0.12500000000E+03 0.  0.
</event>
<event>
 5    0  0.5815084E-005  0.3034746E+03  0.7546771E-02  0.1083516E+00
         21   -1    0    0  502  501  0.00000000000E+00  0.00000000000E+00  0.28269821854E+03  0.28269821854E+03  0.00000000000E+00 0. -1.
         21   -1    0    0  501  502 -0.00000000000E+00 -0.00000000000E+00 -0.32577786534E+03  0.32577786534E+03  0.00000000000E+00 0. -1.
         25    1    1    2    0    0  0.41303268597E+02 -0.16362227489E+03  0.46717877890E+02  0.21514127672E+03  0.12500000000E+03 0.  0.
         25    1    1    2    0    0  0.89759613335E+02  0.28105659854E+02 -0.28930935172E+02  0.15908713120E+03  0.12500000000E+03 0.  0.
         25    1    1    2    0    0 -0.13106288193E+03  0.13551661503E+03 -0.60866589518E+02  0.23424767595E+03  0.12500000000E+03 0.  0.
</event>
<event>
 5    0  0.5815084E-005  0.2881075E+03  0.7546771E-02  0.1091341E+00
         21   -1    0    0  502  501  0.00000000000E+00  0.00000000000E+00  0.25828252150E+02  0.25828252150E+02  0.00000000000E+00 0.  1.
         21   -1    0    0  501  502 -0.00000000000E+00 -0.00000000000E+00 -0.32137644986E+04  0.32137644986E+04  0.00000000000E+00 0.  1.
         25    1    1    2    0    0 -0.13723539970E+02  0.63903948701E+02 -0.26439505264E+03  0.29966947470E+03  0.12500000000E+03 0.  0.
         25    1    1    2    0    0 -0.37052516174E+02  0.28131974925E+02 -0.90364188550E+03  0.91343196473E+03  0.12500000000E+03 0.  0.
         25    1    1    2    0    0  0.50776056144E+02 -0.92035923626E+02 -0.20198993083E+04  0.20264913113E+04  0.12500000000E+03 0.  0.
</event>
<event>
 5    0  0.5815084E-005  0.2092776E+03  0.7546771E-02  0.1142139E+00
         21   -1    0    0  502  501  0.00000000000E+00  0.00000000000E+00  0.47176043489E+03  0.47176043489E+03  0.00000000000E+00 0.  1.
         21   -1    0    0  501  502 -0.00000000000E+00 -0.00000000000E+00 -0.92837592893E+02  0.92837592893E+02  0.00000000000E+00 0.  1.
         25    1    1    2    0    0 -0.42777327854E+02 -0.65944820926E+02  0.16392887890E+03  0.22062705302E+03  0.12500000000E+03 0.  0.
         25    1    1    2    0    0  0.16940538765E+02  0.61158415839E+01  0.85140086202E+02  0.15230961772E+03  0.12500000000E+03 0.  0.
         25    1    1    2    0    0  0.25836789089E+02  0.59828979342E+02  0.12985387689E+03  0.19166135704E+03  0.12500000000E+03 0.  0.
</event>
<event>
 5    0  0.5815084E-005  0.2419744E+03  0.7546771E-02  0.1118484E+00
         21   -1    0    0  502  501  0.00000000000E+00  0.00000000000E+00  0.11684672314E+03  0.11684672314E+03  0.00000000000E+00 0.  1.
         21   -1    0    0  501  502 -0.00000000000E+00 -0.00000000000E+00 -0.50109771529E+03  0.50109771529E+03  0.00000000000E+00 0.  1.
         25    1    1    2    0    0  0.19279396871E+02 -0.50303754491E+02 -0.15347745147E+03  0.20514017395E+03  0.12500000000E+03 0.  0.
         25    1    1    2    0    0  0.42862225735E+02 -0.73344683275E+02 -0.69882352946E+02  0.16650872714E+03  0.12500000000E+03 0.  0.
         25    1    1    2    0    0 -0.62141622606E+02  0.12364843777E+03 -0.16089118773E+03  0.24629553734E+03  0.12500000000E+03 0.  0.
</event>
<event>
 5    0  0.5815084E-005  0.3631070E+03  0.7546771E-02  0.1057360E+00
         21   -1    0    0  502  501  0.00000000000E+00  0.00000000000E+00  0.30432353314E+03  0.30432353314E+03  0.00000000000E+00 0. -1.
         21   -1    0    0  501  502 -0.00000000000E+00 -0.00000000000E+00 -0.43324504859E+03  0.43324504859E+03  0.00000000000E+00 0. -1.
         25    1    1    2    0    0  0.16571081714E+03  0.35055642810E+02  0.77838382405E+02  0.22443882638E+03  0.12500000000E+03 0.  0.
         25    1    1    2    0    0 -0.19053774366E+03  0.10661746482E+03 -0.20177479444E+03  0.32250578791E+03  0.12500000000E+03 0.  0.
         25    1    1    2    0    0  0.24826926515E+02 -0.14167310763E+03 -0.49851034146E+01  0.19062396744E+03  0.12500000000E+03 0.  0.
</event>
<event>
 5    0  0.5815084E-005  0.2321940E+03  0.7546771E-02  0.1125105E+00
         21   -1    0    0  502  501  0.00000000000E+00  0.00000000000E+00  0.50731925662E+03  0.50731925662E+03  0.00000000000E+00 0.  1.
         21   -1    0    0  501  502 -0.00000000000E+00 -0.00000000000E+00 -0.10627242312E+03  0.10627242312E+03  0.00000000000E+00 0.  1.
         25    1    1    2    0    0 -0.20727339607E+02  0.10939032359E+03  0.19831685202E+03  0.25951963182E+03  0.12500000000E+03 0.  0.
         25    1    1    2    0    0 -0.30379459821E+02 -0.69069627353E+02  0.76321538516E+02  0.16475285200E+03  0.12500000000E+03 0.  0.
         25    1    1    2    0    0  0.51106799429E+02 -0.40320696234E+02  0.12640844296E+03  0.18931919592E+03  0.12500000000E+03 0.  0.
</event>
<event>
 5    0  0.5815084E-005  0.3854243E+03  0.7546771E-02  0.1048947E+00
         21   -1    0    0  502  501  0.00000000000E+00  0.00000000000E+00  0.13513461054E+04  0.13513461054E+04  0.00000000000E+00 0.  1.
         21   -1    0    0  501  502 -0.00000000000E+00 -0.00000000000E+00 -0.10992885079E+03  0.10992885079E+03  0.00000000000E+00 0.  1.
         25    1    1    2    0    0  0.13965936518E+03  0.24031195966E+03  0.39300338060E+03  0.49732407281E+03  0.12500000000E+03 0.  0.
         25    1    1    2    0    0 -0.13777331251E+03 -0.46999469885E+01  0.41867336437E+03  0.45816586644E+03  0.12500000000E+03 0.  0.
         25    1    1    2    0    0 -0.18860526637E+01 -0.23561201267E+03  0.42974050960E+03  0.50578501688E+03  0.12500000000E+03 0.  0.
</event>
<event>
 5    0  0.6279680E-005  0.4364942E+03  0.7546771E-02  0.1031828E+00
         21   -1    0    0  502  501  0.00000000000E+00  0.00000000000E+00  0.12228900467E+03  0.12228900467E+03  0.00000000000E+00 0. -1.
         21   -1    0    0  501  502 -0.00000000000E+00 -0.00000000000E+00 -0.15580072835E+04  0.15580072835E+04  0.00000000000E+00 0. -1.
         25    1    1    2    0    0  0.43537351481E+02 -0.13278521074E+03 -0.48369443833E+02  0.19362855229E+03  0.12500000000E+03 0.  0.
         25    1    1    2    0    0 -0.11202125108E+03  0.28135433385E+03 -0.81271002636E+03  0.87626001211E+03  0.12500000000E+03 0.  0.
         25    1    1    2    0    0  0.68483899601E+02 -0.14856912310E+03 -0.57463880868E+03  0.61040772381E+03  0.12500000000E+03 0.  0.
</event>
<event>
 5    0  0.5815084E-005  0.2649047E+03  0.7546771E-02  0.1104232E+00
         21   -1    0    0  502  501  0.00000000000E+00  0.00000000000E+00  0.19916799742E+03  0.19916799742E+03  0.00000000000E+00 0.  1.
         21   -1    0    0  501  502 -0.00000000000E+00 -0.00000000000E+00 -0.35233835558E+03  0.35233835558E+03  0.00000000000E+00 0.  1.
         25    1    1    2    0    0  0.14720491159E+03 -0.47351995181E+02 -0.59619709026E+02  0.20758373527E+03  0.12500000000E+03 0.  0.
         25    1    1    2    0    0 -0.14867376397E+03  0.44633646016E+02 -0.23724072821E+02  0.20070845045E+03  0.12500000000E+03 0.  0.
         25    1    1    2    0    0  0.14688523827E+01  0.27183491652E+01 -0.69826576315E+02  0.14321416728E+03  0.12500000000E+03 0.  0.
</event>
<event>
 5    0  0.5815084E-005  0.2574613E+03  0.7546771E-02  0.1108678E+00
         21   -1    0    0  502  501  0.00000000000E+00  0.00000000000E+00  0.32184216153E+03  0.32184216153E+03  0.00000000000E+00 0. -1.
         21   -1    0    0  501  502 -0.00000000000E+00 -0.00000000000E+00 -0.20595911582E+03  0.20595911582E+03  0.00000000000E+00 0. -1.
         25    1    1    2    0    0 -0.68495308581E+02  0.60468818861E+02  0.10414667257E+03  0.18660014673E+03  0.12500000000E+03 0.  0.
         25    1    1    2    0    0 -0.51282052227E+02 -0.77834162465E+02  0.48644066272E+02  0.16333784286E+03  0.12500000000E+03 0.  0.
         25    1    1    2    0    0  0.11977736081E+03  0.17365343604E+02 -0.36907693134E+02  0.17786328776E+03  0.12500000000E+03 0.  0.
</event>
<event>
 5    0  0.7037263E-005  0.2944686E+03  0.7546771E-02  0.1088039E+00
         21   -1    0    0  502  501  0.00000000000E+00  0.00000000000E+00  0.14449365462E+03  0.14449365462E+03  0.00000000000E+00 0.  1.
         21   -1    0    0  501  502 -0.00000000000E+00 -0.00000000000E+00 -0.60010784318E+03  0.60010784318E+03  0.00000000000E+00 0.  1.
         25    1    1    2    0    0  0.86223938188E+02 -0.12700267172E+03 -0.37555889166E+03  0.42453942956E+03  0.12500000000E+03 0.  0.
         25    1    1    2    0    0 -0.83830471124E+02  0.51368252157E+02 -0.13824426377E+02  0.15963195164E+03  0.12500000000E+03 0.  0.
         25    1    1    2    0    0 -0.23934670644E+01  0.75634419564E+02 -0.66230870517E+02  0.16043011661E+03  0.12500000000E+03 0.  0.
</event>
<event>
 5    0  0.5815084E-005  0.3834938E+03  0.7546771E-02  0.1049650E+00
         21   -1    0    0  502  501  0.00000000000E+00  0.00000000000E+00  0.18176566836E+03  0.18176566836E+03  0.00000000000E+00 0.  1.
         21   -1    0    0  501  502 -0.00000000000E+00 -0.00000000000E+00 -0.80910482913E+03  0.80910482913E+03  0.00000000000E+00 0.  1.
         25    1    1    2    0    0 -0.17531349930E+03  0.23528975299E+03 -0.32497259867E+03  0.45533315362E+03  0.12500000000E+03 0.  0.
         25    1    1    2    0    0  0.92054040743E+01 -0.15541805727E+02 -0.15231535090E+03  0.19786675646E+03  0.12500000000E+03 0.  0.
         25    1    1    2    0    0  0.16610809523E+03 -0.21974794726E+03 -0.15005121118E+03  0.33767058741E+03  0.12500000000E+03 0.  0.
</event>
<event>
 5    0  0.5815084E-005  0.3042133E+03  0.7546771E-02  0.1083153E+00
         21   -1    0    0  502  501  0.00000000000E+00  0.00000000000E+00  0.44022080826E+03  0.44022080826E+03  0.00000000000E+00 0. -1.
         21   -1    0    0  501  502 -0.00000000000E+00 -0.00000000000E+00 -0.21022569921E+03  0.21022569921E+03  0.00000000000E+00 0. -1.
         25    1    1    2    0    0  0.11719055912E+03  0.33822304492E+02  0.19827662906E+03  0.26422754788E+03  0.12500000000E+03 0.  0.
         25    1    1    2    0    0  0.17614819370E+02 -0.77857166063E+02  0.10685020645E+03  0.18279493097E+03  0.12500000000E+03 0.  0.
         25    1    1    2    0    0 -0.13480537849E+03  0.44034861571E+02 -0.75131726453E+02  0.20342402863E+03  0.12500000000E+03 0.  0.
</event>
<event>
 5    0  0.5815084E-005  0.3296248E+03  0.7546771E-02  0.1071303E+00
         21   -1    0    0  502  501  0.00000000000E+00  0.00000000000E+00  0.12995433444E+04  0.12995433444E+04  0.00000000000E+00 0.  1.
         21   -1    0    0  501  502 -0.00000000000E+00 -0.00000000000E+00 -0.83608233318E+02  0.83608233318E+02  0.00000000000E+00 0.  1.
         25    1    1    2    0    0 -0.73132682042E+02  0.13411097939E+03  0.44241533861E+03  0.48444863072E+03  0.12500000000E+03 0.  0.
         25    1    1    2    0    0  0.16547065514E+03 -0.16701484295E+03  0.30966420514E+03  0.40840104728E+03  0.12500000000E+03 0.  0.
         25    1    1    2    0    0 -0.92337973097E+02  0.32903863566E+02  0.46385556737E+03  0.49030189974E+03  0.12500000000E+03 0.  0.
</event>
<event>
 5    0  0.5815084E-005  0.3254687E+03  0.7546771E-02  0.1073160E+00
         21   -1    0    0  502  501  0.00000000000E+00  0.00000000000E+00  0.11045001168E+03  0.11045001168E+03  0.00000000000E+00 0.  1.
         21   -1    0    0  501  502 -0.00000000000E+00 -0.00000000000E+00 -0.95907527572E+03  0.95907527572E+03  0.00000000000E+00 0.  1.
         25    1    1    2    0    0 -0.23862281182E+03  0.75055377746E+02 -0.40991052371E+03  0.49621144031E+03  0.12500000000E+03 0.  0.
         25    1    1    2    0    0  0.12442308936E+03 -0.56608320500E+02 -0.15105072840E+03  0.23901240484E+03  0.12500000000E+03 0.  0.
         25    1    1    2    0    0  0.11419972246E+03 -0.18447057247E+02 -0.28766401193E+03  0.33430144225E+03  0.12500000000E+03 0.  0.
</event>
<event>
 5    0  0.5815084E-005  0.5416939E+03  0.7546771E-02  0.1003435E+00
         21   -1    0    0  502  501  0.00000000000E+00  0.00000000000E+00  0.21424657576E+03  0.21424657576E+03  0.00000000000E+00 0. -1.
         21   -1    0    0  501  502 -0.00000000000E+00 -0.00000000000E+00 -0.13696007878E+04  0.13696007878E+04  0.00000000000E+00 0. -1.
         25    1    1    2    0    0  0.19057480659E+03  0.90642535121E+02 -0.11893508375E+03  0.27259013230E+03  0.12500000000E+03 0.  0.
         25    1    1    2    0    0  0.77857794183E+01 -0.15310181161E+03  0.45079710595E+02  0.20287425511E+03  0.12500000000E+03 0.  0.
         25    1    1    2    0    0 -0.19836058601E+03  0.62459276490E+02 -0.10814988389E+04  0.11083829761E+04  0.12500000000E+03 0.  0.
</event>
<event>
 5    0  0.5815084E-005  0.2536006E+03  0.7546771E-02  0.1111050E+00
         21   -1    0    0  502  501  0.00000000000E+00  0.00000000000E+00  0.20786148723E+04  0.20786148723E+04  0.00000000000E+00 0.  1.
         21   -1    0    0  501  502 -0.00000000000E+00 -0.00000000000E+00 -0.30940450120E+02  0.30940450120E+02  0.00000000000E+00 0.  1.
         25    1    1    2    0    0  0.74437566734E+02  0.86368671266E+02  0.10086938223E+04  0.10227847896E+04  0.12500000000E+03 0.  0.
         25    1    1    2    0    0 -0.47028186150E+02 -0.56185713966E+02  0.26800537656E+03  0.30466435074E+03  0.12500000000E+03 0.  0.
         25    1    1    2    0    0 -0.27409380584E+02 -0.30182957299E+02  0.77097522340E+03  0.78210618214E+03  0.12500000000E+03 0.  0.
</event>
<event>
 5    0  0.5815084E-005  0.3613759E+03  0.7546771E-02  0.1058040E+00
         21   -1    0    0  502  501  0.00000000000E+00  0.00000000000E+00  0.31210248348E+03  0.31210248348E+03  0.00000000000E+00 0.  1.
         21   -1    0    0  501  502 -0.00000000000E+00 -0.00000000000E+00 -0.41842847250E+03  0.41842847250E+03  0.00000000000E+00 0.  1.
         25    1    1    2    0    0 -0.18231262884E+03  0.91539811621E+02  0.89599404343E+02  0.25548088970E+03  0.12500000000E+03 0.  0.
         25    1    1    2    0    0  0.21300910055E+03  0.37041836436E+02 -0.96632848192E+02  0.26778327415E+03  0.12500000000E+03 0.  0.
         25    1    1    2    0    0 -0.30696471713E+02 -0.12858164806E+03 -0.99292545165E+02  0.20726679213E+03  0.12500000000E+03 0.  0.
</event>
<event>
 5    0  0.5815084E-005  0.3298973E+03  0.7546771E-02  0.1071182E+00
         21   -1    0    0  502  501  0.00000000000E+00  0.00000000000E+00  0.10378682628E+04  0.10378682628E+04  0.00000000000E+00 0.  1.
         21   -1    0    0  501  502 -0.00000000000E+00 -0.00000000000E+00 -0.10486131925E+03  0.10486131925E+03  0.00000000000E+00 0.  1.
         25    1    1    2    0    0 -0.11639557247E+02 -0.12623700357E+02  0.70774297055E+03  0.71890190532E+03  0.12500000000E+03 0.  0.
         25    1    1    2    0    0 -0.58957982919E+02  0.95036412666E+02  0.19207446518E+03  0.25500110521E+03  0.12500000000E+03 0.  0.
         25    1    1    2    0    0  0.70597540166E+02 -0.82412712309E+02  0.33189507837E+02  0.16882657154E+03  0.12500000000E+03 0.  0.
</event>
<event>
 5    0  0.5815084E-005  0.3225659E+03  0.7546771E-02  0.1074474E+00
         21   -1    0    0  502  501  0.00000000000E+00  0.00000000000E+00  0.10209874267E+04  0.10209874267E+04  0.00000000000E+00 0. -1.
         21   -1    0    0  501  502 -0.00000000000E+00 -0.00000000000E+00 -0.10190991854E+03  0.10190991854E+03  0.00000000000E+00 0. -1.
         25    1    1    2    0    0  0.18126822813E+03  0.43162243044E+02  0.49878378460E+03  0.54692907541E+03  0.12500000000E+03 0.  0.
         25    1    1    2    0    0 -0.10939947082E+03  0.48819314197E+02  0.35110819216E+03  0.39147609411E+03  0.12500000000E+03 0.  0.
         25    1    1    2    0    0 -0.71868757303E+02 -0.91981557241E+02  0.69185531396E+02  0.18449217572E+03  0.12500000000E+03 0.  0.
</event>
<event>
 5    0  0.6008715E-005  0.2823460E+03  0.7546771E-02  0.1094414E+00
         21   -1    0    0  502  501  0.00000000000E+00  0.00000000000E+00  0.15276165231E+03  0.15276165231E+03  0.00000000000E+00 0. -1.
         21   -1    0    0  501  502 -0.00000000000E+00 -0.00000000000E+00 -0.52185398731E+03  0.52185398731E+03  0.00000000000E+00 0. -1.
         25    1    1    2    0    0  0.82180535982E+02 -0.10442020099E+03 -0.30842834119E+03  0.35834377421E+03  0.12500000000E+03 0.  0.
         25    1    1    2    0    0 -0.53602777261E+02 -0.12355237380E+02 -0.18761838779E+02  0.13785106534E+03  0.12500000000E+03 0.  0.
         25    1    1    2    0    0 -0.28577758721E+02  0.11677543837E+03 -0.41902155026E+02  0.17842080006E+03  0.12500000000E+03 0.  0.
</event>
<event>
 5    0  0.5815084E-005  0.3827540E+03  0.7546771E-02  0.1049921E+00
         21   -1    0    0  502  501  0.00000000000E+00  0.00000000000E+00  0.34809046155E+03  0.34809046155E+03  0.00000000000E+00 0. -1.
         21   -1    0    0  501  502 -0.00000000000E+00 -0.00000000000E+00 -0.42086946922E+03  0.42086946922E+03  0.00000000000E+00 0.  1.
         25    1    1    2    0    0  0.26188950571E+02  0.14192702895E+03  0.19874499462E+02  0.19196129403E+03  0.12500000000E+03 0.  0.
         25    1    1    2    0    0  0.35908921478E-02 -0.31074796037E+03 -0.13497900780E+03  0.36112134724E+03  0.12500000000E+03 0.  0.
         25    1    1    2    0    0 -0.26192541463E+02  0.16882093142E+03  0.42325500675E+02  0.21587728950E+03  0.12500000000E+03 0.  0.
</event>
<event>
 5    0  0.5815084E-005  0.4846911E+03  0.7546771E-02  0.1017854E+00
         21   -1    0    0  502  501  0.00000000000E+00  0.00000000000E+00  0.46320708211E+03  0.46320708211E+03  0.00000000000E+00 0. -1.
         21   -1    0    0  501  502 -0.00000000000E+00 -0.00000000000E+00 -0.50717162471E+03  0.50717162471E+03  0.00000000000E+00 0. -1.
         25    1    1    2    0    0  0.35519862226E+03 -0.14581839701E+03 -0.24309811759E+02  0.40453063309E+03  0.12500000000E+03 0.  0.
         25    1    1    2    0    0 -0.14539650479E+02 -0.60034342335E+02 -0.48592076463E+02  0.14765403344E+03  0.12500000000E+03 0.  0.
         25    1    1    2    0    0 -0.34065897178E+03  0.20585273935E+03  0.28937345624E+02  0.41819404028E+03  0.12500000000E+03 0.  0.
</event>
<event>
 5    0  0.7635223E-005  0.3543442E+03  0.7546771E-02  0.1060846E+00
         21   -1    0    0  502  501  0.00000000000E+00  0.00000000000E+00  0.11825570643E+04  0.11825570643E+04  0.00000000000E+00 0. -1.
         21   -1    0    0  501  502 -0.00000000000E+00 -0.00000000000E+00 -0.10617652758E+03  0.10617652758E+03  0.00000000000E+00 0. -1.
         25    1    1    2    0    0  0.11792559806E+03 -0.96809835200E+02  0.20637408018E+03  0.28547128024E+03  0.12500000000E+03 0.  0.
         25    1    1    2    0    0 -0.31977184388E+02 -0.67847772717E+02  0.71800544146E+03  0.73265453971E+03  0.12500000000E+03 0.  0.
         25    1    1    2    0    0 -0.85948413675E+02  0.16465760792E+03  0.15200101511E+03  0.27060777198E+03  0.12500000000E+03 0.  0.
</event>
<event>
 5    0  0.6157790E-005  0.3186030E+03  0.7546771E-02  0.1076294E+00
         21   -1    0    0  502  501  0.00000000000E+00  0.00000000000E+00  0.68213058586E+03  0.68213058586E+03  0.00000000000E+00 0.  1.
         21   -1    0    0  501  502 -0.00000000000E+00 -0.00000000000E+00 -0.14881002385E+03  0.14881002385E+03  0.00000000000E+00 0.  1.
         25    1    1    2    0    0  0.71740055939E+02 -0.18205174711E+03  0.73495442765E+02  0.24354887468E+03  0.12500000000E+03 0.  0.
         25    1    1    2    0    0 -0.99010020302E+02  0.74119201425E+02  0.13398996709E+03  0.22107679982E+03  0.12500000000E+03 0.  0.
         25    1    1    2    0    0  0.27269964364E+02  0.10793254569E+03  0.32583515216E+03  0.36631493521E+03  0.12500000000E+03 0.  0.
</event>
<event>
 5    0  0.5815084E-005  0.2891342E+03  0.7546771E-02  0.1090802E+00
         21   -1    0    0  502  501  0.00000000000E+00  0.00000000000E+00  0.11445272397E+03  0.11445272397E+03  0.00000000000E+00 0.  1.
         21   -1    0    0  501  502 -0.00000000000E+00 -0.00000000000E+00 -0.73042045584E+03  0.73042045584E+03  0.00000000000E+00 0.  1.
         25    1    1    2    0    0  0.50751399599E+02  0.95632403224E+01 -0.33917225514E+02  0.13943650280E+03  0.12500000000E+03 0.  0.
         25    1    1    2    0    0  0.34522921677E+01  0.14337152931E+03 -0.32711805084E+03  0.37841582013E+03  0.12500000000E+03 0.  0.
         25    1    1    2    0    0 -0.54203691767E+02 -0.15293476963E+03 -0.25493245551E+03  0.32702085688E+03  0.12500000000E+03 0.  0.
</event>
<event>
 5    0  0.5815084E-005  0.3021545E+03  0.7546771E-02  0.1084169E+00
         21   -1    0    0  502  501  0.00000000000E+00  0.00000000000E+00  0.71647110187E+03  0.71647110187E+03  0.00000000000E+00 0.  1.
         21   -1    0    0  501  502 -0.00000000000E+00 -0.00000000000E+00 -0.12742642442E+03  0.12742642442E+03  0.00000000000E+00 0.  1.
         25    1    1    2    0    0  0.38868995829E+01  0.41722023558E+02  0.31274458735E+01  0.13187348542E+03  0.12500000000E+03 0.  0.
         25    1    1    2    0    0 -0.75203552918E+02  0.11137605557E+03  0.35620125041E+03  0.40070504229E+03  0.12500000000E+03 0.  0.
         25    1    1    2    0    0  0.71316653335E+02 -0.15309807912E+03  0.22971598116E+03  0.31131899858E+03  0.12500000000E+03 0.  0.
</event>
<event>
 5    0  0.5815084E-005  0.4113556E+03  0.7546771E-02  0.1039917E+00
         21   -1    0    0  502  501  0.00000000000E+00  0.00000000000E+00  0.24578788643E+03  0.24578788643E+03  0.00000000000E+00 0. -1.
         21   -1    0    0  501  502 -0.00000000000E+00 -0.00000000000E+00 -0.68845323538E+03  0.68845323538E+03  0.00000000000E+00 0. -1.
         25    1    1    2    0    0  0.26565097658E+02 -0.13229438761E+03  0.11826019145E+03  0.21867323176E+03  0.12500000000E+03 0.  0.
         25    1    1    2    0    0 -0.76209336497E+02 -0.98826882273E+02 -0.21131125983E+03  0.27541253450E+03  0.12500000000E+03 0.  0.
         25    1    1    2    0    0  0.49644238840E+02  0.23112126989E+03 -0.34961428057E+03  0.44015535555E+03  0.12500000000E+03 0.  0.
</event>
<event>
 5    0  0.5815084E-005  0.5069345E+03  0.7546771E-02  0.1011985E+00
         21   -1    0    0  502  501  0.00000000000E+00  0.00000000000E+00  0.27919895088E+03  0.27919895088E+03  0.00000000000E+00 0. -1.
         21   -1    0    0  501  502 -0.00000000000E+00 -0.00000000000E+00 -0.92042807907E+03  0.92042807907E+03  0.00000000000E+00 0. -1.
         25    1    1    2    0    0  0.24149576682E+03  0.11996088778E+03 -0.44868073570E+03  0.53819162254E+03  0.12500000000E+03 0.  0.
         25    1    1    2    0    0 -0.37993631312E+03 -0.43760187348E+02 -0.21920046610E+03  0.45819253635E+03  0.12500000000E+03 0.  0.
         25    1    1    2    0    0  0.13844054631E+03 -0.76200700437E+02  0.26652073607E+02  0.20324287106E+03  0.12500000000E+03 0.  0.
</event>
<event>
 5    0  0.5815084E-005  0.3004374E+03  0.7546771E-02  0.1085022E+00
         21   -1    0    0  502  501  0.00000000000E+00  0.00000000000E+00  0.73597060226E+03  0.73597060226E+03  0.00000000000E+00 0. -1.
         21   -1    0    0  501  502 -0.00000000000E+00 -0.00000000000E+00 -0.12264437540E+03  0.12264437540E+03  0.00000000000E+00 0. -1.
         25    1    1    2    0    0 -0.99752257997E+02  0.89135236687E+02  0.22362847246E+03  0.28901608448E+03  0.12500000000E+03 0.  0.
         25    1    1    2    0    0  0.13078343436E+02 -0.40871432626E+02 -0.16491303556E+02  0.13318588576E+03  0.12500000000E+03 0.  0.
         25    1    1    2    0    0  0.86673914561E+02 -0.48263804061E+02  0.40618905795E+03  0.43641300742E+03  0.12500000000E+03 0.  0.
</event>
<event>
 5    0  0.6795251E-005  0.3427262E+03  0.7546771E-02  0.1065641E+00
         21   -1    0    0  502  501  0.00000000000E+00  0.00000000000E+00  0.12085679613E+04  0.12085679613E+04  0.00000000000E+00 0. -1.
         21   -1    0    0  501  502 -0.00000000000E+00 -0.00000000000E+00 -0.97190463178E+02  0.97190463178E+02  0.00000000000E+00 0. -1.
         25    1    1    2    0    0  0.73334088368E+02  0.17061670025E+03  0.24360813509E+03  0.33084417843E+03  0.12500000000E+03 0.  0.
         25    1    1    2    0    0 -0.11494388353E+03 -0.85444492161E+02  0.15557055598E+03  0.24564212890E+03  0.12500000000E+03 0.  0.
         25    1    1    2    0    0  0.41609795162E+02 -0.85172208085E+02  0.71219880704E+03  0.72927211714E+03  0.12500000000E+03 0.  0.
</event>
<event>
 5    0  0.5815084E-005  0.3115540E+03  0.7546771E-02  0.1079603E+00
         21   -1    0    0  502  501  0.00000000000E+00  0.00000000000E+00  0.11401875638E+03  0.11401875638E+03  0.00000000000E+00 0.  1.
         21   -1    0    0  501  502 -0.00000000000E+00 -0.00000000000E+00 -0.85131502563E+03  0.85131502563E+03  0.00000000000E+00 0.  1.
         25    1    1    2    0    0 -0.16314122159E+03  0.38041575422E+02 -0.15992046265E+03  0.26317631736E+03  0.12500000000E+03 0.  0.
         25    1    1    2    0    0  0.20759140923E+03  0.39910485540E+02 -0.34662056325E+03  0.42480331320E+03  0.12500000000E+03 0.  0.
         25    1    1    2    0    0 -0.44450187632E+02 -0.77952060962E+02 -0.23075524336E+03  0.27735415145E+03  0.12500000000E+03 0.  0.
</event>
<event>
 5    0  0.5815084E-005  0.4113240E+03  0.7546771E-02  0.1039928E+00
         21   -1    0    0  502  501  0.00000000000E+00  0.00000000000E+00  0.31283831379E+03  0.31283831379E+03  0.00000000000E+00 0.  1.
         21   -1    0    0  501  502 -0.00000000000E+00 -0.00000000000E+00 -0.54081431858E+03  0.54081431858E+03  0.00000000000E+00 0. -1.
         25    1    1    2    0    0 -0.11916821769E+03  0.89857220170E+02 -0.17066871660E+03  0.25889803967E+03  0.12500000000E+03 0.  0.
         25    1    1    2    0    0 -0.14531418245E+03 -0.17544875445E+03 -0.11564414655E+03  0.28442405962E+03  0.12500000000E+03 0.  0.
         25    1    1    2    0    0  0.26448240013E+03  0.85591534276E+02  0.58336858353E+02  0.31033053308E+03  0.12500000000E+03 0.  0.
</event>
<event>
 5    0  0.5815084E-005  0.3290148E+03  0.7546771E-02  0.1071574E+00
         21   -1    0    0  502  501  0.00000000000E+00  0.00000000000E+00  0.67830821002E+03  0.67830821002E+03  0.00000000000E+00 0. -1.
         21   -1    0    0  501  502 -0.00000000000E+00 -0.00000000000E+00 -0.15958927697E+03  0.15958927697E+03  0.00000000000E+00 0. -1.
         25    1    1    2    0    0  0.21268040425E+03  0.66983995807E+02  0.26396997579E+03  0.36745742361E+03  0.12500000000E+03 0.  0.
         25    1    1    2    0    0 -0.19049694734E+02 -0.24325229757E+02  0.63555160088E+01  0.12891857995E+03  0.12500000000E+03 0.  0.
         25    1    1    2    0    0 -0.19363070952E+03 -0.42658766050E+02  0.24839344125E+03  0.34152148343E+03  0.12500000000E+03 0.  0.
</event>
<event>
 5    0  0.5815084E-005  0.3707789E+03  0.7546771E-02  0.1054396E+00
         21   -1    0    0  502  501  0.00000000000E+00  0.00000000000E+00  0.14621582489E+03  0.14621582489E+03  0.00000000000E+00 0.  1.
         21   -1    0    0  501  502 -0.00000000000E+00 -0.00000000000E+00 -0.94023347241E+03  0.94023347241E+03  0.00000000000E+00 0.  1.
         25    1    1    2    0    0  0.20407487052E+03  0.15460239376E+03 -0.37407272234E+03  0.47021681652E+03  0.12500000000E+03 0.  0.
         25    1    1    2    0    0 -0.18439732497E+03 -0.21442053361E+03 -0.26279681773E+03  0.40579022426E+03  0.12500000000E+03 0.  0.
         25    1    1    2    0    0 -0.19677545553E+02  0.59818139850E+02 -0.15714810745E+03  0.21044225652E+03  0.12500000000E+03 0.  0.
</event>
<event>
 5    0  0.5815084E-005  0.2433126E+03  0.7546771E-02  0.1117606E+00
         21   -1    0    0  502  501  0.00000000000E+00  0.00000000000E+00  0.54138997441E+03  0.54138997441E+03  0.00000000000E+00 0.  1.
         21   -1    0    0  501  502 -0.00000000000E+00 -0.00000000000E+00 -0.10935003825E+03  0.10935003825E+03  0.00000000000E+00 0.  1.
         25    1    1    2    0    0  0.28376347904E+02 -0.76372857850E+02  0.19898030229E+02  0.15052894122E+03  0.12500000000E+03 0.  0.
         25    1    1    2    0    0  0.39169441008E+01  0.63604756426E+02  0.28938625633E+03  0.32160583459E+03  0.12500000000E+03 0.  0.
         25    1    1    2    0    0 -0.32293292005E+02  0.12768101424E+02  0.12275564960E+03  0.17860523685E+03  0.12500000000E+03 0.  0.
</event>
<event>
 5    0  0.5815084E-005  0.3902059E+03  0.7546771E-02  0.1047225E+00
         21   -1    0    0  502  501  0.00000000000E+00  0.00000000000E+00  0.65462306707E+03  0.65462306707E+03  0.00000000000E+00 0. -1.
         21   -1    0    0  501  502 -0.00000000000E+00 -0.00000000000E+00 -0.23259281938E+03  0.23259281938E+03  0.00000000000E+00 0. -1.
         25    1    1    2    0    0  0.18091950315E+03 -0.47592197424E+02  0.36264642285E+03  0.42677196707E+03  0.12500000000E+03 0.  0.
         25    1    1    2    0    0 -0.22532303158E+03  0.19000334820E+01  0.14540206126E+03  0.29587301010E+03  0.12500000000E+03 0.  0.
         25    1    1    2    0    0  0.44403528431E+02  0.45692163942E+02 -0.86018236417E+02  0.16457090927E+03  0.12500000000E+03 0.  0.
</event>
<event>
 5    0  0.5815084E-005  0.4175299E+03  0.7546771E-02  0.1037873E+00
         21   -1    0    0  502  501  0.00000000000E+00  0.00000000000E+00  0.17158854128E+03  0.17158854128E+03  0.00000000000E+00 0.  1.
         21   -1    0    0  501  502 -0.00000000000E+00 -0.00000000000E+00 -0.10159838817E+04  0.10159838817E+04  0.00000000000E+00 0.  1.
         25    1    1    2    0    0  0.33243938481E+03 -0.10704729067E+03 -0.50866938355E+03  0.62955905900E+03  0.12500000000E+03 0.  0.
         25    1    1    2    0    0 -0.25872744906E+03  0.74500328365E+02 -0.23064090447E+03  0.37591278063E+03  0.12500000000E+03 0.  0.
         25    1    1    2    0    0 -0.73711935747E+02  0.32546962304E+02 -0.10508505245E+03  0.18210058340E+03  0.12500000000E+03 0.  0.
</event>
<event>
 5    0  0.5815084E-005  0.4732413E+03  0.7546771E-02  0.1021009E+00
         21   -1    0    0  502  501  0.00000000000E+00  0.00000000000E+00  0.23578983383E+03  0.23578983383E+03  0.00000000000E+00 0.  1.
         21   -1    0    0  501  502 -0.00000000000E+00 -0.00000000000E+00 -0.94981754525E+03  0.94981754525E+03  0.00000000000E+00 0.  1.
         25    1    1    2    0    0  0.69585371798E+02  0.84291747218E+02 -0.15271585677E+03  0.22559777376E+03  0.12500000000E+03 0.  0.
         25    1    1    2    0    0 -0.12658511779E+03  0.72834692202E+02  0.13381635871E+03  0.23422318906E+03  0.12500000000E+03 0.  0.
         25    1    1    2    0    0  0.56999745996E+02 -0.15712643942E+03 -0.69512821336E+03  0.72578641626E+03  0.12500000000E+03 0.  0.
</event>
<event>
 5    0  0.5815084E-005  0.2155205E+03  0.7546771E-02  0.1137267E+00
         21   -1    0    0  502  501  0.00000000000E+00  0.00000000000E+00  0.19570299987E+03  0.19570299987E+03  0.00000000000E+00 0. -1.
         21   -1    0    0  501  502 -0.00000000000E+00 -0.00000000000E+00 -0.23734483977E+03  0.23734483977E+03  0.00000000000E+00 0. -1.
         25    1    1    2    0    0 -0.31880254146E+02  0.85013130475E+02 -0.11674102892E+01  0.15449901555E+03  0.12500000000E+03 0.  0.
         25    1    1    2    0    0 -0.92492552974E+01 -0.53692097556E+02  0.32273694229E+01  0.13639576964E+03  0.12500000000E+03 0.  0.
         25    1    1    2    0    0  0.41129509444E+02 -0.31321032920E+02 -0.43701799036E+02  0.14215305445E+03  0.12500000000E+03 0.  0.
</event>
<event>
 5    0  0.5815084E-005  0.2491790E+03  0.7546771E-02  0.1113825E+00
         21   -1    0    0  502  501  0.00000000000E+00  0.00000000000E+00  0.43365263391E+03  0.43365263391E+03  0.00000000000E+00 0.  1.
         21   -1    0    0  501  502 -0.00000000000E+00 -0.00000000000E+00 -0.14317954224E+03  0.14317954224E+03  0.00000000000E+00 0.  1.
         25    1    1    2    0    0 -0.46959278760E+02  0.13397624761E+02  0.73469084953E+02  0.15299469486E+03  0.12500000000E+03 0.  0.
         25    1    1    2    0    0  0.39406621366E+02 -0.61509844021E+02 -0.25205434566E+02  0.14695800982E+03  0.12500000000E+03 0.  0.
         25    1    1    2    0    0  0.75526573946E+01  0.48112219260E+02  0.24220944128E+03  0.27687947147E+03  0.12500000000E+03 0.  0.
</event>
<event>
 5    0  0.5815084E-005  0.3916470E+03  0.7546771E-02  0.1046711E+00
         21   -1    0    0  502  501  0.00000000000E+00  0.00000000000E+00  0.14016416995E+04  0.14016416995E+04  0.00000000000E+00 0. -1.
         21   -1    0    0  501  502 -0.00000000000E+00 -0.00000000000E+00 -0.10943408854E+03  0.10943408854E+03  0.00000000000E+00 0. -1.
         25    1    1    2    0    0 -0.13702573549E+03 -0.23554689290E+03  0.57295097028E+03  0.64664998669E+03  0.12500000000E+03 0.  0.
         25    1    1    2    0    0  0.20049567641E+03  0.24066079186E+03  0.54219234740E+03  0.63852460766E+03  0.12500000000E+03 0.  0.
         25    1    1    2    0    0 -0.63469940920E+02 -0.51138989621E+01  0.17706429329E+03  0.22590119371E+03  0.12500000000E+03 0.  0.
</event>
<event>
 5    0  0.5815084E-005  0.2732921E+03  0.7546771E-02  0.1099410E+00
         21   -1    0    0  502  501  0.00000000000E+00  0.00000000000E+00  0.65904326345E+02  0.65904326345E+02  0.00000000000E+00 0.  1.
         21   -1    0    0  501  502 -0.00000000000E+00 -0.00000000000E+00 -0.11332881384E+04  0.11332881384E+04  0.00000000000E+00 0.  1.
         25    1    1    2    0    0  0.28537792121E+02  0.10864251130E+02 -0.11120355521E+03  0.17006959818E+03  0.12500000000E+03 0.  0.
         25    1    1    2    0    0 -0.10652808375E+03 -0.10437266705E+03 -0.37749375959E+03  0.42469803953E+03  0.12500000000E+03 0.  0.
         25    1    1    2    0    0  0.77990291627E+02  0.93508415919E+02 -0.57868649728E+03  0.60442482706E+03  0.12500000000E+03 0.  0.
</event>
<event>
 5    0  0.5815084E-005  0.4853593E+03  0.7546771E-02  0.1017673E+00
         21   -1    0    0  502  501  0.00000000000E+00  0.00000000000E+00  0.33636616280E+03  0.33636616280E+03  0.00000000000E+00 0. -1.
         21   -1    0    0  501  502 -0.00000000000E+00 -0.00000000000E+00 -0.70034875578E+03  0.70034875578E+03  0.00000000000E+00 0. -1.
         25    1    1    2    0    0  0.41863373168E+02  0.37105789036E+03 -0.61430528563E+02  0.39854135275E+03  0.12500000000E+03 0.  0.
         25    1    1    2    0    0 -0.15797400298E+02  0.33640356578E+02 -0.11630582772E+03  0.17473773779E+03  0.12500000000E+03 0.  0.
         25    1    1    2    0    0 -0.26065972869E+02 -0.40469824694E+03 -0.18624623670E+03  0.46343582803E+03  0.12500000000E+03 0.  0.
</event>
<event>
 5    0  0.5815084E-005  0.2902076E+03  0.7546771E-02  0.1090241E+00
         21   -1    0    0  502  501  0.00000000000E+00  0.00000000000E+00  0.11542831803E+04  0.11542831803E+04  0.00000000000E+00 0.  1.
         21   -1    0    0  501  502 -0.00000000000E+00 -0.00000000000E+00 -0.72963411162E+02  0.72963411162E+02  0.00000000000E+00 0.  1.
         25    1    1    2    0    0 -0.60640074453E+02  0.26766569121E+02  0.89051546522E+02  0.16717908299E+03  0.12500000000E+03 0.  0.
         25    1    1    2    0    0  0.67278747564E+02 -0.45805797648E+02  0.87456091702E+03  0.88719017045E+03  0.12500000000E+03 0.  0.
         25    1    1    2    0    0 -0.66386731113E+01  0.19039228527E+02  0.11770730555E+03  0.17287733797E+03  0.12500000000E+03 0.  0.
</event>
<event>
 5    0  0.5815084E-005  0.2700358E+03  0.7546771E-02  0.1101259E+00
         21   -1    0    0  502  501  0.00000000000E+00  0.00000000000E+00  0.83826759289E+03  0.83826759289E+03  0.00000000000E+00 0. -1.
         21   -1    0    0  501  502 -0.00000000000E+00 -0.00000000000E+00 -0.86988150201E+02  0.86988150201E+02  0.00000000000E+00 0. -1.
         25    1    1    2    0    0 -0.52787877494E+02 -0.90863683663E+02  0.16256884036E+03  0.23042655418E+03  0.12500000000E+03 0.  0.
         25    1    1    2    0    0 -0.41566084713E+02  0.14983172265E+03  0.35767868626E+03  0.40955625635E+03  0.12500000000E+03 0.  0.
         25    1    1    2    0    0  0.94353962207E+02 -0.58968038984E+02  0.23103191608E+03  0.28527293256E+03  0.12500000000E+03 0.  0.
</event>
<event>
 5    0  0.5815084E-005  0.2894243E+03  0.7546771E-02  0.1090650E+00
         21   -1    0    0  502  501  0.00000000000E+00  0.00000000000E+00  0.27047578064E+03  0.27047578064E+03  0.00000000000E+00 0.  1.
         21   -1    0    0  501  502 -0.00000000000E+00 -0.00000000000E+00 -0.30970038543E+03  0.30970038543E+03  0.00000000000E+00 0.  1.
         25    1    1    2    0    0  0.76162163107E+02 -0.15112352405E+03 -0.19587804614E+02  0.21129996853E+03  0.12500000000E+03 0.  0.
         25    1    1    2    0    0 -0.11304074685E+03  0.10320710723E+03  0.62838761539E+02  0.20737315974E+03  0.12500000000E+03 0.  0.
         25    1    1    2    0    0  0.36878583743E+02  0.47916416821E+02 -0.82475561707E+02  0.16150303780E+03  0.12500000000E+03 0.  0.
</event>
<event>
 5    0  0.5815084E-005  0.2986853E+03  0.7546771E-02  0.1085900E+00
         21   -1    0    0  502  501  0.00000000000E+00  0.00000000000E+00  0.65280866296E+03  0.65280866296E+03  0.00000000000E+00 0. -1.
         21   -1    0    0  501  502 -0.00000000000E+00 -0.00000000000E+00 -0.13666007529E+03  0.13666007529E+03  0.00000000000E+00 0. -1.
         25    1    1    2    0    0  0.10102277320E+03 -0.10277809398E+03  0.27895909971E+03  0.33795283194E+03  0.12500000000E+03 0.  0.
         25    1    1    2    0    0 -0.55302563033E+02 -0.75704560022E+02  0.13518846752E+03  0.20661673610E+03  0.12500000000E+03 0.  0.
         25    1    1    2    0    0 -0.45720210170E+02  0.17848265400E+03  0.10200102044E+03  0.24489917021E+03  0.12500000000E+03 0.  0.
</event>
<event>
 5    0  0.5815084E-005  0.2436432E+03  0.7546771E-02  0.1117389E+00
         21   -1    0    0  502  501  0.00000000000E+00  0.00000000000E+00  0.72708433039E+02  0.72708433039E+02  0.00000000000E+00 0. -1.
         21   -1    0    0  501  502 -0.00000000000E+00 -0.00000000000E+00 -0.81643925655E+03  0.81643925655E+03  0.00000000000E+00 0. -1.
         25    1    1    2    0    0  0.80582489031E+01 -0.11367845934E+03 -0.36572126020E+03  0.40294511742E+03  0.12500000000E+03 0.  0.
         25    1    1    2    0    0  0.31261134951E+02  0.22291604666E+02 -0.24747129485E+03  0.27989500883E+03  0.12500000000E+03 0.  0.
         25    1    1    2    0    0 -0.39319383854E+02  0.91386854672E+02 -0.13053826846E+03  0.20630756333E+03  0.12500000000E+03 0.  0.
</event>
<event>
 5    0  0.5815084E-005  0.3749193E+03  0.7546771E-02  0.1052828E+00
         21   -1    0    0  502  501  0.00000000000E+00  0.00000000000E+00  0.28754071533E+03  0.28754071533E+03  0.00000000000E+00 0.  1.
         21   -1    0    0  501  502 -0.00000000000E+00 -0.00000000000E+00 -0.48885070130E+03  0.48885070130E+03  0.00000000000E+00 0.  1.
         25    1    1    2    0    0 -0.22784605842E+03 -0.30380067949E+02  0.49979033201E+01  0.26169973998E+03  0.12500000000E+03 0.  0.
         25    1    1    2    0    0  0.21581153714E+03  0.12501779990E+03 -0.33392602511E+02  0.28096999085E+03  0.12500000000E+03 0.  0.
         25    1    1    2    0    0  0.12034521281E+02 -0.94637731952E+02 -0.17291528677E+03  0.23372168580E+03  0.12500000000E+03 0.  0.
</event>
<event>
 5    0  0.5815084E-005  0.3348868E+03  0.7546771E-02  0.1068995E+00
         21   -1    0    0  502  501  0.00000000000E+00  0.00000000000E+00  0.98943855573E+02  0.98943855573E+02  0.00000000000E+00 0.  1.
         21   -1    0    0  501  502 -0.00000000000E+00 -0.00000000000E+00 -0.11334629765E+04  0.11334629765E+04  0.00000000000E+00 0.  1.
         25    1    1    2    0    0 -0.55029984675E+02 -0.27271175159E+02 -0.42794218119E+03  0.45003502825E+03  0.12500000000E+03 0.  0.
         25    1    1    2    0    0 -0.16405504362E+03  0.89305433476E+02 -0.35888033608E+03  0.42344965865E+03  0.12500000000E+03 0.  0.
         25    1    1    2    0    0  0.21908502829E+03 -0.62034258318E+02 -0.24769660362E+03  0.35892214514E+03  0.12500000000E+03 0.  0.
</event>
<event>
 5    0  0.5815084E-005  0.2004096E+03  0.7546771E-02  0.1149394E+00
         21   -1    0    0  502  501  0.00000000000E+00  0.00000000000E+00  0.34029983214E+03  0.34029983214E+03  0.00000000000E+00 0.  1.
         21   -1    0    0  501  502 -0.00000000000E+00 -0.00000000000E+00 -0.11802534149E+03  0.11802534149E+03  0.00000000000E+00 0.  1.
         25    1    1    2    0    0 -0.10370697577E+02 -0.12389562799E+01  0.97241090167E+02  0.15871331386E+03  0.12500000000E+03 0.  0.
         25    1    1    2    0    0 -0.34600649796E+02 -0.16301616770E+02  0.96834409350E+02  0.16268020934E+03  0.12500000000E+03 0.  0.
         25    1    1    2    0    0  0.44971347373E+02  0.17540573050E+02  0.28198991134E+02  0.13693165043E+03  0.12500000000E+03 0.  0.
</event>
<event>
 5    0  0.5815084E-005  0.2467131E+03  0.7546771E-02  0.1115400E+00
         21   -1    0    0  502  501  0.00000000000E+00  0.00000000000E+00  0.12023862129E+04  0.12023862129E+04  0.00000000000E+00 0.  1.
         21   -1    0    0  501  502 -0.00000000000E+00 -0.00000000000E+00 -0.50622145638E+02  0.50622145638E+02  0.00000000000E+00 0.  1.
         25    1    1    2    0    0 -0.40654135215E+02 -0.68819035553E+02  0.28472771554E+03  0.32106648900E+03  0.12500000000E+03 0.  0.
         25    1    1    2    0    0  0.35199221114E+02  0.11160982195E+03  0.26466670621E+03  0.31522881039E+03  0.12500000000E+03 0.  0.
         25    1    1    2    0    0  0.54549141012E+01 -0.42790786394E+02  0.60236964548E+03  0.61671305911E+03  0.12500000000E+03 0.  0.
</event>
<event>
 5    0  0.5815084E-005  0.3849907E+03  0.7546771E-02  0.1049104E+00
         21   -1    0    0  502  501  0.00000000000E+00  0.00000000000E+00  0.23498682947E+03  0.23498682947E+03  0.00000000000E+00 0.  1.
         21   -1    0    0  501  502 -0.00000000000E+00 -0.00000000000E+00 -0.63074956322E+03  0.63074956322E+03  0.00000000000E+00 0.  1.
         25    1    1    2    0    0  0.25895265880E+03  0.10736547150E+03 -0.14509904805E+03  0.33950339868E+03  0.12500000000E+03 0.  0.
         25    1    1    2    0    0 -0.27516433283E+02 -0.11673971862E+03 -0.18805711285E+03  0.25568690561E+03  0.12500000000E+03 0.  0.
         25    1    1    2    0    0 -0.23143622551E+03  0.93742471197E+01 -0.62606572837E+02  0.27054608841E+03  0.12500000000E+03 0.  0.
</event>
<event>
 5    0  0.5815084E-005  0.2930426E+03  0.7546771E-02  0.1088771E+00
         21   -1    0    0  502  501  0.00000000000E+00  0.00000000000E+00  0.87725552072E+03  0.87725552072E+03  0.00000000000E+00 0.  1.
         21   -1    0    0  501  502 -0.00000000000E+00 -0.00000000000E+00 -0.97889338087E+02  0.97889338087E+02  0.00000000000E+00 0.  1.
         25    1    1    2    0    0  0.13479676642E+03 -0.14705910670E+02  0.19483129375E+03  0.26827348932E+03  0.12500000000E+03 0.  0.
         25    1    1    2    0    0 -0.22514676290E+02  0.93418226833E+02  0.45238830443E+03  0.47907625044E+03  0.12500000000E+03 0.  0.
         25    1    1    2    0    0 -0.11228209013E+03 -0.78712316163E+02  0.13214658446E+03  0.22779511905E+03  0.12500000000E+03 0.  0.
</event>
<event>
 5    0  0.6378339E-005  0.5206235E+03  0.7546771E-02  0.1008532E+00
         21   -1    0    0  502  501  0.00000000000E+00  0.00000000000E+00  0.41668805552E+03  0.41668805552E+03  0.00000000000E+00 0. -1.
         21   -1    0    0  501  502 -0.00000000000E+00 -0.00000000000E+00 -0.65048371852E+03  0.65048371852E+03  0.00000000000E+00 0. -1.
         25    1    1    2    0    0  0.28873238774E+02 -0.23313733921E+03 -0.44260659941E+03  0.51644194707E+03  0.12500000000E+03 0.  0.
         25    1    1    2    0    0 -0.19686109636E+03  0.11564582367E+03  0.16054740701E+03  0.30582465187E+03  0.12500000000E+03 0.  0.
         25    1    1    2    0    0  0.16798785759E+03  0.11749151554E+03  0.48263529401E+02  0.24490517510E+03  0.12500000000E+03 0.  0.
</event>
<event>
 5    0  0.5815084E-005  0.2505775E+03  0.7546771E-02  0.1112940E+00
         21   -1    0    0  502  501  0.00000000000E+00  0.00000000000E+00  0.94996535171E+03  0.94996535171E+03  0.00000000000E+00 0.  1.
         21   -1    0    0  501  502 -0.00000000000E+00 -0.00000000000E+00 -0.66096165384E+02  0.66096165384E+02  0.00000000000E+00 0.  1.
         25    1    1    2    0    0  0.82573373311E+02 -0.54562363807E+02  0.36004611151E+03  0.39376848012E+03  0.12500000000E+03 0.  0.
         25    1    1    2    0    0 -0.54482244227E+02  0.12749973198E+03  0.26006148812E+03  0.32012727812E+03  0.12500000000E+03 0.  0.
         25    1    1    2    0    0 -0.28091129085E+02 -0.72937368172E+02  0.26376158670E+03  0.30216575886E+03  0.12500000000E+03 0.  0.
</event>
<event>
 5    0  0.5815084E-005  0.3421833E+03  0.7546771E-02  0.1065870E+00
         21   -1    0    0  502  501  0.00000000000E+00  0.00000000000E+00  0.13326577951E+03  0.13326577951E+03  0.00000000000E+00 0. -1.
         21   -1    0    0  501  502 -0.00000000000E+00 -0.00000000000E+00 -0.87861568525E+03  0.87861568525E+03  0.00000000000E+00 0. -1.
         25    1    1    2    0    0 -0.87453939067E+02  0.12499364819E+03 -0.10788343689E+03  0.22480088857E+03  0.12500000000E+03 0.  0.
         25    1    1    2    0    0 -0.25417962763E+02 -0.91291216512E+02 -0.58767726789E+03  0.60825137093E+03  0.12500000000E+03 0.  0.
         25    1    1    2    0    0  0.11287190183E+03 -0.33702431681E+02 -0.49789200962E+02  0.17882920527E+03  0.12500000000E+03 0.  0.
</event>
<event>
 5    0  0.5916214E-005  0.2954313E+03  0.7546771E-02  0.1087547E+00
         21   -1    0    0  502  501  0.00000000000E+00  0.00000000000E+00  0.55189826014E+03  0.55189826014E+03  0.00000000000E+00 0.  1.
         21   -1    0    0  501  502 -0.00000000000E+00 -0.00000000000E+00 -0.15814443632E+03  0.15814443632E+03  0.00000000000E+00 0.  1.
         25    1    1    2    0    0  0.13579957295E+03 -0.56369615075E+02  0.11206852349E+03  0.22316677951E+03  0.12500000000E+03 0.  0.
         25    1    1    2    0    0 -0.16881559584E+03  0.11756225492E+03  0.23501554593E+03  0.33641774033E+03  0.12500000000E+03 0.  0.
         25    1    1    2    0    0  0.33016022883E+02 -0.61192639843E+02  0.46669754407E+02  0.15045817663E+03  0.12500000000E+03 0.  0.
</event>
<event>
 5    0  0.5815084E-005  0.2733708E+03  0.7546771E-02  0.1099366E+00
         21   -1    0    0  502  501  0.00000000000E+00  0.00000000000E+00  0.19328123410E+03  0.19328123410E+03  0.00000000000E+00 0. -1.
         21   -1    0    0  501  502 -0.00000000000E+00 -0.00000000000E+00 -0.38664702309E+03  0.38664702309E+03  0.00000000000E+00 0. -1.
         25    1    1    2    0    0  0.14363447211E+03 -0.96907358299E+02 -0.74533844783E+02  0.22627901292E+03  0.12500000000E+03 0.  0.
         25    1    1    2    0    0  0.41342515517E+01  0.39091296115E+02 -0.49849310475E+02  0.14019691588E+03  0.12500000000E+03 0.  0.
         25    1    1    2    0    0 -0.14776872366E+03  0.57816062183E+02 -0.68982633734E+02  0.21345232839E+03  0.12500000000E+03 0.  0.
</event>
<event>
 5    0  0.5815084E-005  0.4548480E+03  0.7546771E-02  0.1026286E+00
         21   -1    0    0  502  501  0.00000000000E+00  0.00000000000E+00  0.66934652632E+03  0.66934652632E+03  0.00000000000E+00 0. -1.
         21   -1    0    0  501  502 -0.00000000000E+00 -0.00000000000E+00 -0.30908754785E+03  0.30908754785E+03  0.00000000000E+00 0. -1.
         25    1    1    2    0    0  0.15710158701E+03  0.53874022134E+02  0.48071184195E+03  0.52372912263E+03  0.12500000000E+03 0.  0.
         25    1    1    2    0    0  0.64613832717E+01  0.71479360681E+02  0.57420073620E+02  0.15515512667E+03  0.12500000000E+03 0.  0.
         25    1    1    2    0    0 -0.16356297028E+03 -0.12535338282E+03 -0.17787293710E+03  0.29954982487E+03  0.12500000000E+03 0.  0.
</event>
<event>
 5    0  0.5815084E-005  0.3000375E+03  0.7546771E-02  0.1085222E+00
         21   -1    0    0  502  501  0.00000000000E+00  0.00000000000E+00  0.29078738789E+03  0.29078738789E+03  0.00000000000E+00 0.  1.
         21   -1    0    0  501  502 -0.00000000000E+00 -0.00000000000E+00 -0.30958185060E+03  0.30958185060E+03  0.00000000000E+00 0.  1.
         25    1    1    2    0    0  0.57982677003E+02 -0.48054952384E+02 -0.42041770998E+02  0.15186763905E+03  0.12500000000E+03 0.  0.
         25    1    1    2    0    0 -0.45641936945E+02  0.50881657711E+02  0.19139565555E+03  0.23859888194E+03  0.12500000000E+03 0.  0.
         25    1    1    2    0    0 -0.12340740058E+02 -0.28267053269E+01 -0.16814834726E+03  0.20990271750E+03  0.12500000000E+03 0.  0.
</event>
<event>
 5    0  0.5815084E-005  0.4159060E+03  0.7546771E-02  0.1038407E+00
         21   -1    0    0  502  501  0.00000000000E+00  0.00000000000E+00  0.16520189203E+03  0.16520189203E+03  0.00000000000E+00 0. -1.
         21   -1    0    0  501  502 -0.00000000000E+00 -0.00000000000E+00 -0.10470691424E+04  0.10470691424E+04  0.00000000000E+00 0. -1.
         25    1    1    2    0    0  0.66780130200E+02  0.25562557084E+03 -0.29562136261E+03  0.41571746209E+03  0.12500000000E+03 0.  0.
         25    1    1    2    0    0 -0.13855018866E+03 -0.32582540107E+03 -0.45067568124E+03  0.58659348481E+03  0.12500000000E+03 0.  0.
         25    1    1    2    0    0  0.71770058464E+02  0.70199830224E+02 -0.13557020651E+03  0.20996008751E+03  0.12500000000E+03 0.  0.
</event>
<event>
 5    0  0.5815084E-005  0.3088509E+03  0.7546771E-02  0.1080898E+00
         21   -1    0    0  502  501  0.00000000000E+00  0.00000000000E+00  0.36951673113E+03  0.36951673113E+03  0.00000000000E+00 0.  1.
         21   -1    0    0  501  502 -0.00000000000E+00 -0.00000000000E+00 -0.25814497487E+03  0.25814497487E+03  0.00000000000E+00 0.  1.
         25    1    1    2    0    0 -0.82685010061E+02 -0.11912526601E+03  0.94234643567E+02  0.21338417922E+03  0.12500000000E+03 0.  0.
         25    1    1    2    0    0 -0.97250449888E+01  0.20157628518E+03 -0.94102623707E+00  0.23738883878E+03  0.12500000000E+03 0.  0.
         25    1    1    2    0    0  0.92410055050E+02 -0.82451019168E+02  0.18078138930E+02  0.17688868800E+03  0.12500000000E+03 0.  0.
</event>
<event>
 5    0  0.5815084E-005  0.3281181E+03  0.7546771E-02  0.1071973E+00
         21   -1    0    0  502  501  0.00000000000E+00  0.00000000000E+00  0.43363866506E+03  0.43363866506E+03  0.00000000000E+00 0.  1.
         21   -1    0    0  501  502 -0.00000000000E+00 -0.00000000000E+00 -0.24827457834E+03  0.24827457834E+03  0.00000000000E+00 0.  1.
         25    1    1    2    0    0  0.37477261041E+02 -0.92918097306E+02 -0.14259354577E+01  0.16020409231E+03  0.12500000000E+03 0.  0.
         25    1    1    2    0    0 -0.11198146909E+03  0.22852965168E+03  0.14498182867E+03  0.31844996743E+03  0.12500000000E+03 0.  0.
         25    1    1    2    0    0  0.74504208048E+02 -0.13561155437E+03  0.41808193512E+02  0.20325918366E+03  0.12500000000E+03 0.  0.
</event>
<event>
 5    0  0.5815084E-005  0.2535427E+03  0.7546771E-02  0.1111086E+00
         21   -1    0    0  502  501  0.00000000000E+00  0.00000000000E+00  0.25794949867E+03  0.25794949867E+03  0.00000000000E+00 0. -1.
         21   -1    0    0  501  502 -0.00000000000E+00 -0.00000000000E+00 -0.24921118957E+03  0.24921118957E+03  0.00000000000E+00 0. -1.
         25    1    1    2    0    0  0.30030956330E+02  0.32638412311E+01  0.68675310731E+02  0.14578686258E+03  0.12500000000E+03 0.  0.
         25    1    1    2    0    0  0.53445926078E+02 -0.61400432460E+02  0.59686764575E+02  0.16066732706E+03  0.12500000000E+03 0.  0.
         25    1    1    2    0    0 -0.83476882409E+02  0.58136591229E+02 -0.11962376621E+03  0.20070649860E+03  0.12500000000E+03 0.  0.
</event>
<event>
 5    0  0.5815084E-005  0.2660287E+03  0.7546771E-02  0.1103574E+00
         21   -1    0    0  502  501  0.00000000000E+00  0.00000000000E+00  0.56467415843E+02  0.56467415843E+02  0.00000000000E+00 0.  1.
         21   -1    0    0  501  502 -0.00000000000E+00 -0.00000000000E+00 -0.12533119282E+04  0.12533119282E+04  0.00000000000E+00 0.  1.
         25    1    1    2    0    0 -0.66698436970E+02  0.10826506869E+03 -0.58081048189E+03  0.60756548821E+03  0.12500000000E+03 0.  0.
         25    1    1    2    0    0 -0.17013620394E+02 -0.41947136931E+02 -0.11805031782E+03  0.17779174084E+03  0.12500000000E+03 0.  0.
         25    1    1    2    0    0  0.83712057364E+02 -0.66317931759E+02 -0.49798371262E+03  0.52442211495E+03  0.12500000000E+03 0.  0.
</event>
<event>
 5    0  0.5815084E-005  0.3013595E+03  0.7546771E-02  0.1084563E+00
         21   -1    0    0  502  501  0.00000000000E+00  0.00000000000E+00  0.60593384505E+03  0.60593384505E+03  0.00000000000E+00 0. -1.
         21   -1    0    0  501  502 -0.00000000000E+00 -0.00000000000E+00 -0.14988031244E+03  0.14988031244E+03  0.00000000000E+00 0. -1.
         25    1    1    2    0    0 -0.21275512445E+02  0.32055136060E+02  0.33362458110E+03  0.35834416458E+03  0.12500000000E+03 0.  0.
         25    1    1    2    0    0  0.17507982994E+02  0.65810119043E+02  0.17917582205E+03  0.22883722696E+03  0.12500000000E+03 0.  0.
         25    1    1    2    0    0  0.37675294512E+01 -0.97865255103E+02 -0.56746870536E+02  0.16863276594E+03  0.12500000000E+03 0.  0.
</event>
<event>
 5    0  0.5815084E-005  0.2490265E+03  0.7546771E-02  0.1113922E+00
         21   -1    0    0  502  501  0.00000000000E+00  0.00000000000E+00  0.96957978906E+03  0.96957978906E+03  0.00000000000E+00 0.  1.
         21   -1    0    0  501  502 -0.00000000000E+00 -0.00000000000E+00 -0.63959859028E+02  0.63959859028E+02  0.00000000000E+00 0.  1.
         25    1    1    2    0    0 -0.11236437114E+03  0.41728849916E+02  0.44686768028E+03  0.47925230567E+03  0.12500000000E+03 0.  0.
         25    1    1    2    0    0  0.12405743408E+03 -0.41667601187E+02  0.22303599263E+03  0.28722202204E+03  0.12500000000E+03 0.  0.
         25    1    1    2    0    0 -0.11693062942E+02 -0.61248728356E-01  0.23571625712E+03  0.26706532037E+03  0.12500000000E+03 0.  0.
</event>
<event>
 5    0  0.6145381E-005  0.2767282E+03  0.7546771E-02  0.1097489E+00
         21   -1    0    0  502  501  0.00000000000E+00  0.00000000000E+00  0.16746174567E+03  0.16746174567E+03  0.00000000000E+00 0.  1.
         21   -1    0    0  501  502 -0.00000000000E+00 -0.00000000000E+00 -0.45728935899E+03  0.45728935899E+03  0.00000000000E+00 0.  1.
         25    1    1    2    0    0  0.63525172049E+02  0.85738943511E+02 -0.92734323719E+02  0.18870948231E+03  0.12500000000E+03 0.  0.
         25    1    1    2    0    0  0.10277824414E+03 -0.20810313517E+02 -0.41786485337E+02  0.16842668130E+03  0.12500000000E+03 0.  0.
         25    1    1    2    0    0 -0.16630341619E+03 -0.64928629994E+02 -0.15530680426E+03  0.26761494106E+03  0.12500000000E+03 0.  0.
</event>
<event>
 5    0  0.5815084E-005  0.3270859E+03  0.7546771E-02  0.1072434E+00
         21   -1    0    0  502  501  0.00000000000E+00  0.00000000000E+00  0.54191889374E+03  0.54191889374E+03  0.00000000000E+00 0. -1.
         21   -1    0    0  501  502 -0.00000000000E+00 -0.00000000000E+00 -0.19741917056E+03  0.19741917056E+03  0.00000000000E+00 0. -1.
         25    1    1    2    0    0 -0.17573315803E+02 -0.12179862679E+03  0.15310489963E+03  0.23283006079E+03  0.12500000000E+03 0.  0.
         25    1    1    2    0    0 -0.14708888870E+03  0.72177776546E+02 -0.19554494853E+02  0.20700761067E+03  0.12500000000E+03 0.  0.
         25    1    1    2    0    0  0.16466220451E+03  0.49620850247E+02  0.21094931841E+03  0.29950039284E+03  0.12500000000E+03 0.  0.
</event>
<event>
 5    0  0.5815084E-005  0.2586797E+03  0.7546771E-02  0.1107939E+00
         21   -1    0    0  502  501  0.00000000000E+00  0.00000000000E+00  0.28506670125E+03  0.28506670125E+03  0.00000000000E+00 0. -1.
         21   -1    0    0  501  502 -0.00000000000E+00 -0.00000000000E+00 -0.23473517923E+03  0.23473517923E+03  0.00000000000E+00 0. -1.
         25    1    1    2    0    0 -0.31021646332E+02 -0.60898686229E+02  0.35685311446E+02  0.14686536004E+03  0.12500000000E+03 0.  0.
         25    1    1    2    0    0  0.12383950011E+03 -0.48304540189E+02  0.59065209751E+01  0.18256351601E+03  0.12500000000E+03 0.  0.
         25    1    1    2    0    0 -0.92817853775E+02  0.10920322642E+03  0.87396896026E+01  0.19037300443E+03  0.12500000000E+03 0.  0.
</event>
<event>
 5    0  0.5815084E-005  0.3500936E+03  0.7546771E-02  0.1062577E+00
         21   -1    0    0  502  501  0.00000000000E+00  0.00000000000E+00  0.12059693373E+03  0.12059693373E+03  0.00000000000E+00 0. -1.
         21   -1    0    0  501  502 -0.00000000000E+00 -0.00000000000E+00 -0.10163236975E+04  0.10163236975E+04  0.00000000000E+00 0. -1.
         25    1    1    2    0    0 -0.42739059277E+02 -0.13966491515E+03 -0.20727465330E+02  0.19335858794E+03  0.12500000000E+03 0.  0.
         25    1    1    2    0    0 -0.75425390596E+02  0.70199295021E+02 -0.49237914141E+03  0.51834269500E+03  0.12500000000E+03 0.  0.
         25    1    1    2    0    0  0.11816444987E+03  0.69465620132E+02 -0.38262015706E+03  0.42521934832E+03  0.12500000000E+03 0.  0.
</event>
<event>
 5    0  0.5815084E-005  0.4095215E+03  0.7546771E-02  0.1040532E+00
         21   -1    0    0  502  501  0.00000000000E+00  0.00000000000E+00  0.29339344017E+03  0.29339344017E+03  0.00000000000E+00 0.  1.
         21   -1    0    0  501  502 -0.00000000000E+00 -0.00000000000E+00 -0.57161407924E+03  0.57161407924E+03  0.00000000000E+00 0.  1.
         25    1    1    2    0    0  0.53809086153E+02 -0.20794807792E+03 -0.85687888708E+02  0.26287874607E+03  0.12500000000E+03 0.  0.
         25    1    1    2    0    0 -0.24945711698E+03  0.18775738124E+03 -0.13250559980E+03  0.36147533996E+03  0.12500000000E+03 0.  0.
         25    1    1    2    0    0  0.19564803083E+03  0.20190696679E+02 -0.60027150567E+02  0.24065343339E+03  0.12500000000E+03 0.  0.
</event>
<event>
 5    0  0.5815084E-005  0.2426226E+03  0.7546771E-02  0.1118058E+00
         21   -1    0    0  502  501  0.00000000000E+00  0.00000000000E+00  0.57967863833E+03  0.57967863833E+03  0.00000000000E+00 0.  1.
         21   -1    0    0  501  502 -0.00000000000E+00 -0.00000000000E+00 -0.10154891745E+03  0.10154891745E+03  0.00000000000E+00 0.  1.
         25    1    1    2    0    0 -0.29032645585E+01  0.97942751962E+01  0.13118080705E+03  0.18148763294E+03  0.12500000000E+03 0.  0.
         25    1    1    2    0    0 -0.58762170449E+02  0.51165827894E+02  0.33107427658E+02  0.15097031624E+03  0.12500000000E+03 0.  0.
         25    1    1    2    0    0  0.61665435008E+02 -0.60960103090E+02  0.31384148617E+03  0.34876960660E+03  0.12500000000E+03 0.  0.
</event>
<event>
 5    0  0.5815084E-005  0.2939254E+03  0.7546771E-02  0.1088317E+00
         21   -1    0    0  502  501  0.00000000000E+00  0.00000000000E+00  0.33379821871E+03  0.33379821871E+03  0.00000000000E+00 0. -1.
         21   -1    0    0  501  502 -0.00000000000E+00 -0.00000000000E+00 -0.25881552968E+03  0.25881552968E+03  0.00000000000E+00 0. -1.
         25    1    1    2    0    0  0.10533710114E+03 -0.13921228033E+02  0.44645830878E+02  0.17002339745E+03  0.12500000000E+03 0.  0.
         25    1    1    2    0    0 -0.12001268541E+03 -0.12726325483E+03 -0.43847940859E+02  0.21942338664E+03  0.12500000000E+03 0.  0.
         25    1    1    2    0    0  0.14675584275E+02  0.14118448286E+03  0.74184799017E+02  0.20316696429E+03  0.12500000000E+03 0.  0.
</event>
<event>
 5    0  0.5815084E-005  0.2491439E+03  0.7546771E-02  0.1113847E+00
         21   -1    0    0  502  501  0.00000000000E+00  0.00000000000E+00  0.40364517182E+02  0.40364517182E+02  0.00000000000E+00 0.  1.
         21   -1    0    0  501  502 -0.00000000000E+00 -0.00000000000E+00 -0.15378026911E+04  0.15378026911E+04  0.00000000000E+00 0.  1.
         25    1    1    2    0    0 -0.19446059390E+02  0.12027852762E+03 -0.51396665699E+03  0.54279996125E+03  0.12500000000E+03 0.  0.
         25    1    1    2    0    0  0.56868439761E+02 -0.13438487534E+03 -0.56238162376E+03  0.59429908708E+03  0.12500000000E+03 0.  0.
         25    1    1    2    0    0 -0.37422380370E+02  0.14106347714E+02 -0.42108989317E+03  0.44106815996E+03  0.12500000000E+03 0.  0.
</event>
<event>
 5    0  0.5815084E-005  0.3468507E+03  0.7546771E-02  0.1063915E+00
         21   -1    0    0  502  501  0.00000000000E+00  0.00000000000E+00  0.37414941562E+03  0.37414941562E+03  0.00000000000E+00 0.  1.
         21   -1    0    0  501  502 -0.00000000000E+00 -0.00000000000E+00 -0.32154374262E+03  0.32154374262E+03  0.00000000000E+00 0.  1.
         25    1    1    2    0    0 -0.18489857910E+03  0.50539219495E+02 -0.11224882374E+02  0.22911284391E+03  0.12500000000E+03 0.  0.
         25    1    1    2    0    0  0.18965694181E+02 -0.59364759045E+02  0.18043823167E+03  0.22818156723E+03  0.12500000000E+03 0.  0.
         25    1    1    2    0    0  0.16593288492E+03  0.88255395502E+01 -0.11660767630E+03  0.23839874710E+03  0.12500000000E+03 0.  0.
</event>
<event>
 5    0  0.5815084E-005  0.3327703E+03  0.7546771E-02  0.1069918E+00
         21   -1    0    0  502  501  0.00000000000E+00  0.00000000000E+00  0.26098233563E+03  0.26098233563E+03  0.00000000000E+00 0.  1.
         21   -1    0    0  501  502 -0.00000000000E+00 -0.00000000000E+00 -0.42430491288E+03  0.42430491288E+03  0.00000000000E+00 0.  1.
         25    1    1    2    0    0 -0.98369619251E+02 -0.43978119390E+02 -0.12321418468E+02  0.16549161408E+03  0.12500000000E+03 0.  0.
         25    1    1    2    0    0  0.57536323780E+02  0.34025566482E+02  0.14066606795E+03  0.19970005108E+03  0.12500000000E+03 0.  0.
         25    1    1    2    0    0  0.40833295471E+02  0.99525529080E+01 -0.29166722674E+03  0.32009558335E+03  0.12500000000E+03 0.  0.
</event>
<event>
 5    0  0.5815084E-005  0.2665854E+03  0.7546771E-02  0.1103250E+00
         21   -1    0    0  502  501  0.00000000000E+00  0.00000000000E+00  0.97345651766E+02  0.97345651766E+02  0.00000000000E+00 0.  1.
         21   -1    0    0  501  502 -0.00000000000E+00 -0.00000000000E+00 -0.73005595278E+03  0.73005595278E+03  0.00000000000E+00 0.  1.
         25    1    1    2    0    0  0.71108332273E+02  0.13096321156E+03 -0.18562714136E+03  0.26886835684E+03  0.12500000000E+03 0.  0.
         25    1    1    2    0    0 -0.41549997927E+02  0.46734681855E+01 -0.27315823251E+03  0.30329632972E+03  0.12500000000E+03 0.  0.
         25    1    1    2    0    0 -0.29558334346E+02 -0.13563667975E+03 -0.17392492714E+03  0.25523691799E+03  0.12500000000E+03 0.  0.
</event>
<event>
 5    0  0.5815084E-005  0.2947013E+03  0.7546771E-02  0.1087920E+00
         21   -1    0    0  502  501  0.00000000000E+00  0.00000000000E+00  0.77968356883E+02  0.77968356883E+02  0.00000000000E+00 0.  1.
         21   -1    0    0  501  502 -0.00000000000E+00 -0.00000000000E+00 -0.11138987509E+04  0.11138987509E+04  0.00000000000E+00 0.  1.
         25    1    1    2    0    0  0.14564206848E+03 -0.11417032717E+03 -0.29213429867E+03  0.36771446011E+03  0.12500000000E+03 0.  0.
         25    1    1    2    0    0 -0.44917965558E+02  0.34503208266E+02 -0.14732226155E+03  0.20133788456E+03  0.12500000000E+03 0.  0.
         25    1    1    2    0    0 -0.10072410292E+03  0.79667118900E+02 -0.59647383379E+03  0.62281476310E+03  0.12500000000E+03 0.  0.
</event>
<event>
 5    0  0.5815084E-005  0.4695200E+03  0.7546771E-02  0.1022056E+00
         21   -1    0    0  502  501  0.00000000000E+00  0.00000000000E+00  0.12819297905E+04  0.12819297905E+04  0.00000000000E+00 0. -1.
         21   -1    0    0  501  502 -0.00000000000E+00 -0.00000000000E+00 -0.17196650820E+03  0.17196650820E+03  0.00000000000E+00 0.  1.
         25    1    1    2    0    0  0.19620939470E+03 -0.48797041830E+02  0.12922282998E+03  0.27056019229E+03  0.12500000000E+03 0.  0.
         25    1    1    2    0    0  0.14178425833E+03 -0.15702265029E+02  0.70697443609E+02  0.20241656447E+03  0.12500000000E+03 0.  0.
         25    1    1    2    0    0 -0.33799365304E+03  0.64499306859E+02  0.91004300874E+03  0.98091954198E+03  0.12500000000E+03 0.  0.
</event>
<event>
 5    0  0.5815084E-005  0.3627319E+03  0.7546771E-02  0.1057507E+00
         21   -1    0    0  502  501  0.00000000000E+00  0.00000000000E+00  0.14636731140E+04  0.14636731140E+04  0.00000000000E+00 0. -1.
         21   -1    0    0  501  502 -0.00000000000E+00 -0.00000000000E+00 -0.89893305214E+02  0.89893305214E+02  0.00000000000E+00 0. -1.
         25    1    1    2    0    0  0.18735142079E+03 -0.11867076818E+03  0.48155529662E+03  0.54470525038E+03  0.12500000000E+03 0.  0.
         25    1    1    2    0    0  0.41344673832E+01  0.13738233055E+03  0.64653447806E+03  0.67269817146E+03  0.12500000000E+03 0.  0.
         25    1    1    2    0    0 -0.19148588817E+03 -0.18711562370E+02  0.24569003408E+03  0.33616299734E+03  0.12500000000E+03 0.  0.
</event>
<event>
 5    0  0.5815084E-005  0.4397905E+03  0.7546771E-02  0.1030811E+00
         21   -1    0    0  502  501  0.00000000000E+00  0.00000000000E+00  0.87657723428E+03  0.87657723428E+03  0.00000000000E+00 0.  1.
         21   -1    0    0  501  502 -0.00000000000E+00 -0.00000000000E+00 -0.22064880161E+03  0.22064880161E+03  0.00000000000E+00 0.  1.
         25    1    1    2    0    0  0.28588754527E+02  0.16433937864E+03  0.37152727129E+03  0.42600734920E+03  0.12500000000E+03 0.  0.
         25    1    1    2    0    0 -0.23623199436E+03 -0.22294505865E+03  0.10332985685E+03  0.36305938034E+03  0.12500000000E+03 0.  0.
         25    1    1    2    0    0  0.20764323983E+03  0.58605680006E+02  0.18107130453E+03  0.30815930636E+03  0.12500000000E+03 0.  0.
</event>
<event>
 5    0  0.5815084E-005  0.3374032E+03  0.7546771E-02  0.1067907E+00
         21   -1    0    0  502  501  0.00000000000E+00  0.00000000000E+00  0.27208254806E+03  0.27208254806E+03  0.00000000000E+00 0. -1.
         21   -1    0    0  501  502 -0.00000000000E+00 -0.00000000000E+00 -0.41840588706E+03  0.41840588706E+03  0.00000000000E+00 0. -1.
         25    1    1    2    0    0  0.97002763490E+01 -0.10486202095E+03 -0.30876739931E+02  0.16633854595E+03  0.12500000000E+03 0.  0.
         25    1    1    2    0    0  0.46213501035E+02 -0.47349872980E+02  0.13849632147E+03  0.19794930970E+03  0.12500000000E+03 0.  0.
         25    1    1    2    0    0 -0.55913777384E+02  0.15221189393E+03 -0.25394292055E+03  0.32620057948E+03  0.12500000000E+03 0.  0.
</event>
<event>
 5    0  0.5815084E-005  0.4567712E+03  0.7546771E-02  0.1025722E+00
         21   -1    0    0  502  501  0.00000000000E+00  0.00000000000E+00  0.36680563738E+03  0.36680563738E+03  0.00000000000E+00 0.  1.
         21   -1    0    0  501  502 -0.00000000000E+00 -0.00000000000E+00 -0.56880236018E+03  0.56880236018E+03  0.00000000000E+00 0.  1.
         25    1    1    2    0    0  0.11122290172E+03 -0.27025431667E+03 -0.11283037827E+03  0.33728863575E+03  0.12500000000E+03 0.  0.
         25    1    1    2    0    0 -0.83460713057E+02  0.11697527417E+02  0.15801188531E+03  0.21839248767E+03  0.12500000000E+03 0.  0.
         25    1    1    2    0    0 -0.27762188661E+02  0.25855678926E+03 -0.24717822984E+03  0.37992687414E+03  0.12500000000E+03 0.  0.
</event>
<event>
 5    0  0.5815084E-005  0.4249470E+03  0.7546771E-02  0.1035468E+00
         21   -1    0    0  502  501  0.00000000000E+00  0.00000000000E+00  0.90836079225E+03  0.90836079225E+03  0.00000000000E+00 0.  1.
         21   -1    0    0  501  502 -0.00000000000E+00 -0.00000000000E+00 -0.19879762438E+03  0.19879762438E+03  0.00000000000E+00 0.  1.
         25    1    1    2    0    0 -0.66886689112E+01 -0.18175295708E+03  0.23882395493E+03  0.32517803915E+03  0.12500000000E+03 0.  0.
         25    1    1    2    0    0  0.23167504111E+02  0.30452301484E+01 -0.10575518574E+03  0.16539397203E+03  0.12500000000E+03 0.  0.
         25    1    1    2    0    0 -0.16478835200E+02  0.17870772693E+03  0.57649439868E+03  0.61658640544E+03  0.12500000000E+03 0.  0.
</event>
<event>
 5    0  0.5815084E-005  0.3256643E+03  0.7546771E-02  0.1073072E+00
         21   -1    0    0  502  501  0.00000000000E+00  0.00000000000E+00  0.86580555182E+02  0.86580555182E+02  0.00000000000E+00 0. -1.
         21   -1    0    0  501  502 -0.00000000000E+00 -0.00000000000E+00 -0.12249544018E+04  0.12249544018E+04  0.00000000000E+00 0. -1.
         25    1    1    2    0    0  0.78521796650E+02 -0.21836915674E+03 -0.50568598664E+03  0.57025790503E+03  0.12500000000E+03 0.  0.
         25    1    1    2    0    0 -0.85533026323E+02  0.18520100227E+03 -0.50788634448E+03  0.56141682264E+03  0.12500000000E+03 0.  0.
         25    1    1    2    0    0  0.70112296723E+01  0.33168154472E+02 -0.12480151546E+03  0.17986022927E+03  0.12500000000E+03 0.  0.
</event>
<event>
 5    0  0.5815084E-005  0.4561327E+03  0.7546771E-02  0.1025909E+00
         21   -1    0    0  502  501  0.00000000000E+00  0.00000000000E+00  0.20102231360E+03  0.20102231360E+03  0.00000000000E+00 0.  1.
         21   -1    0    0  501  502 -0.00000000000E+00 -0.00000000000E+00 -0.10349948801E+04  0.10349948801E+04  0.00000000000E+00 0.  1.
         25    1    1    2    0    0  0.11256146703E+03 -0.11198965604E+03 -0.31464645553E+03  0.37395074395E+03  0.12500000000E+03 0.  0.
         25    1    1    2    0    0 -0.27708496807E+03 -0.35295342059E+02 -0.25766279126E+02  0.30710054029E+03  0.12500000000E+03 0.  0.
         25    1    1    2    0    0  0.16452350104E+03  0.14728499810E+03 -0.49355983185E+03  0.55496590947E+03  0.12500000000E+03 0.  0.
</event>
<event>
 5    0  0.5815084E-005  0.2724584E+03  0.7546771E-02  0.1099881E+00
         21   -1    0    0  502  501  0.00000000000E+00  0.00000000000E+00  0.88343236715E+03  0.88343236715E+03  0.00000000000E+00 0.  1.
         21   -1    0    0  501  502 -0.00000000000E+00 -0.00000000000E+00 -0.84028588695E+02  0.84028588695E+02  0.00000000000E+00 0.  1.
         25    1    1    2    0    0  0.74527565072E+02 -0.48636991684E+02  0.15916358859E+03  0.22108361053E+03  0.12500000000E+03 0.  0.
         25    1    1    2    0    0 -0.13619902272E+03  0.94304329553E+02  0.50852303876E+03  0.54923962104E+03  0.12500000000E+03 0.  0.
         25    1    1    2    0    0  0.61671457652E+02 -0.45667337868E+02  0.13171715111E+03  0.19713772428E+03  0.12500000000E+03 0.  0.
</event>
<event>
 5    0  0.5815084E-005  0.3016192E+03  0.7546771E-02  0.1084434E+00
         21   -1    0    0  502  501  0.00000000000E+00  0.00000000000E+00  0.36058518254E+03  0.36058518254E+03  0.00000000000E+00 0.  1.
         21   -1    0    0  501  502 -0.00000000000E+00 -0.00000000000E+00 -0.25229584347E+03  0.25229584347E+03  0.00000000000E+00 0.  1.
         25    1    1    2    0    0  0.14155014812E+03 -0.55617836956E+02  0.11970484800E+03  0.23039973710E+03  0.12500000000E+03 0.  0.
         25    1    1    2    0    0  0.80070700776E+01  0.12320993061E+03 -0.12920823432E+02  0.17617249459E+03  0.12500000000E+03 0.  0.
         25    1    1    2    0    0 -0.14955721820E+03 -0.67592093658E+02  0.15053144998E+01  0.20630879432E+03  0.12500000000E+03 0.  0.
</event>
<event>
 5    0  0.5815084E-005  0.2789988E+03  0.7546771E-02  0.1096237E+00
         21   -1    0    0  502  501  0.00000000000E+00  0.00000000000E+00  0.10341334390E+03  0.10341334390E+03  0.00000000000E+00 0.  1.
         21   -1    0    0  501  502 -0.00000000000E+00 -0.00000000000E+00 -0.75271053627E+03  0.75271053627E+03  0.00000000000E+00 0.  1.
         25    1    1    2    0    0  0.43185078602E+02 -0.21976710168E+02 -0.23562007219E+02  0.13611794514E+03  0.12500000000E+03 0.  0.
         25    1    1    2    0    0 -0.14107697246E+03 -0.22082016273E+02 -0.30038281977E+03  0.35530995766E+03  0.12500000000E+03 0.  0.
         25    1    1    2    0    0  0.97891893854E+02  0.44058726441E+02 -0.32535236538E+03  0.36469597738E+03  0.12500000000E+03 0.  0.
</event>
<event>
 5    0  0.5815084E-005  0.2185056E+03  0.7546771E-02  0.1135002E+00
         21   -1    0    0  502  501  0.00000000000E+00  0.00000000000E+00  0.14718495542E+03  0.14718495542E+03  0.00000000000E+00 0.  1.
         21   -1    0    0  501  502 -0.00000000000E+00 -0.00000000000E+00 -0.32438566296E+03  0.32438566296E+03  0.00000000000E+00 0.  1.
         25    1    1    2    0    0  0.18093253137E+02  0.12140499298E+02 -0.10070748409E+02  0.12728384621E+03  0.12500000000E+03 0.  0.
         25    1    1    2    0    0  0.76004008721E+00 -0.25248105225E+02 -0.17547617496E+03  0.21692148916E+03  0.12500000000E+03 0.  0.
         25    1    1    2    0    0 -0.18853293224E+02  0.13107605927E+02  0.83462158376E+01  0.12736528301E+03  0.12500000000E+03 0.  0.
</event>
<event>
 5    0  0.5815084E-005  0.2614056E+03  0.7546771E-02  0.1106302E+00
         21   -1    0    0  502  501  0.00000000000E+00  0.00000000000E+00  0.52709534807E+03  0.52709534807E+03  0.00000000000E+00 0.  1.
         21   -1    0    0  501  502 -0.00000000000E+00 -0.00000000000E+00 -0.12964049056E+03  0.12964049056E+03  0.00000000000E+00 0.  1.
         25    1    1    2    0    0 -0.17186823797E+02  0.95353739425E+02  0.53163113107E+02  0.16685034950E+03  0.12500000000E+03 0.  0.
         25    1    1    2    0    0  0.14671830558E+02 -0.91834574560E+02  0.39944129816E+02  0.16083962572E+03  0.12500000000E+03 0.  0.
         25    1    1    2    0    0  0.25149932388E+01 -0.35191648649E+01  0.30434761459E+03  0.32904586340E+03  0.12500000000E+03 0.  0.
</event>
<event>
 5    0  0.5815084E-005  0.3185600E+03  0.7546771E-02  0.1076314E+00
         21   -1    0    0  502  501  0.00000000000E+00  0.00000000000E+00  0.58577663687E+03  0.58577663687E+03  0.00000000000E+00 0. -1.
         21   -1    0    0  501  502 -0.00000000000E+00 -0.00000000000E+00 -0.17324092971E+03  0.17324092971E+03  0.00000000000E+00 0. -1.
         25    1    1    2    0    0 -0.14211713642E+03 -0.38056496225E+02  0.92500789972E+01  0.19327736890E+03  0.12500000000E+03 0.  0.
         25    1    1    2    0    0  0.14073973641E+03 -0.36095664630E+02  0.36990304464E+03  0.41660992889E+03  0.12500000000E+03 0.  0.
         25    1    1    2    0    0  0.13774000038E+01  0.74152160855E+02  0.33382583521E+02  0.14913026880E+03  0.12500000000E+03 0.  0.
</event>
<event>
 5    0  0.5815084E-005  0.2951141E+03  0.7546771E-02  0.1087709E+00
         21   -1    0    0  502  501  0.00000000000E+00  0.00000000000E+00  0.28300455460E+03  0.28300455460E+03  0.00000000000E+00 0. -1.
         21   -1    0    0  501  502 -0.00000000000E+00 -0.00000000000E+00 -0.30774185176E+03  0.30774185176E+03  0.00000000000E+00 0. -1.
         25    1    1    2    0    0 -0.76893764655E+02  0.10092204992E+03  0.11657448729E+03  0.21286738193E+03  0.12500000000E+03 0.  0.
         25    1    1    2    0    0  0.13403750146E+03 -0.29335339980E+02 -0.12104101463E+03  0.22159093210E+03  0.12500000000E+03 0.  0.
         25    1    1    2    0    0 -0.57143736802E+02 -0.71586709935E+02 -0.20270769832E+02  0.15628809233E+03  0.12500000000E+03 0.  0.
</event>
<event>
 5    0  0.5815084E-005  0.2896875E+03  0.7546771E-02  0.1090512E+00
         21   -1    0    0  502  501  0.00000000000E+00  0.00000000000E+00  0.26452238887E+03  0.26452238887E+03  0.00000000000E+00 0. -1.
         21   -1    0    0  501  502 -0.00000000000E+00 -0.00000000000E+00 -0.31724677223E+03  0.31724677223E+03  0.00000000000E+00 0. -1.
         25    1    1    2    0    0 -0.44062334972E+02 -0.10642645600E+03  0.49025769241E+02  0.17690846771E+03  0.12500000000E+03 0.  0.
         25    1    1    2    0    0  0.21887227052E+02 -0.51669448253E+02  0.55943536184E+02  0.14799818185E+03  0.12500000000E+03 0.  0.
         25    1    1    2    0    0  0.22175107920E+02  0.15809590425E+03 -0.15769368878E+03  0.25686251154E+03  0.12500000000E+03 0.  0.
</event>
<event>
 5    0  0.5815084E-005  0.3570684E+03  0.7546771E-02  0.1059751E+00
         21   -1    0    0  502  501  0.00000000000E+00  0.00000000000E+00  0.23369521242E+03  0.23369521242E+03  0.00000000000E+00 0.  1.
         21   -1    0    0  501  502 -0.00000000000E+00 -0.00000000000E+00 -0.54557324441E+03  0.54557324441E+03  0.00000000000E+00 0.  1.
         25    1    1    2    0    0 -0.13229643835E+03 -0.17406152905E+02  0.10758596883E+02  0.18315586031E+03  0.12500000000E+03 0.  0.
         25    1    1    2    0    0  0.24222908582E+03  0.64408919428E+02 -0.31705358099E+03  0.42305012958E+03  0.12500000000E+03 0.  0.
         25    1    1    2    0    0 -0.10993264747E+03 -0.47002766523E+02 -0.55830478849E+01  0.17306246694E+03  0.12500000000E+03 0.  0.
</event>
<event>
 5    0  0.7470760E-005  0.7542671E+03  0.7546771E-02  0.9628680E-01
         21   -1    0    0  502  501  0.00000000000E+00  0.00000000000E+00  0.12059459682E+04  0.12059459682E+04  0.00000000000E+00 0. -1.
         21   -1    0    0  501  502 -0.00000000000E+00 -0.00000000000E+00 -0.47176152282E+03  0.47176152282E+03  0.00000000000E+00 0. -1.
         25    1    1    2    0    0  0.39232044959E+03 -0.32222930411E+03  0.59317876186E+03  0.79071682865E+03  0.12500000000E+03 0.  0.
         25    1    1    2    0    0 -0.13015746648E+02 -0.12263616543E+02 -0.21966847589E+03  0.25337530513E+03  0.12500000000E+03 0.  0.
         25    1    1    2    0    0 -0.37930470294E+03  0.33449292065E+03  0.36067415935E+03  0.63361535719E+03  0.12500000000E+03 0.  0.
</event>
<event>
 5    0  0.5815084E-005  0.2948473E+03  0.7546771E-02  0.1087845E+00
         21   -1    0    0  502  501  0.00000000000E+00  0.00000000000E+00  0.31261985142E+03  0.31261985142E+03  0.00000000000E+00 0. -1.
         21   -1    0    0  501  502 -0.00000000000E+00 -0.00000000000E+00 -0.27808518589E+03  0.27808518589E+03  0.00000000000E+00 0. -1.
         25    1    1    2    0    0  0.40823180413E+01  0.15105018445E+03  0.31595001214E+02  0.19863551456E+03  0.12500000000E+03 0.  0.
         25    1    1    2    0    0 -0.18953509020E+02 -0.98785540645E+02  0.12941173483E+03  0.20613154940E+03  0.12500000000E+03 0.  0.
         25    1    1    2    0    0  0.14871190979E+02 -0.52264643805E+02 -0.12647207052E+03  0.18593797335E+03  0.12500000000E+03 0.  0.
</event>
<event>
 5    0  0.5815084E-005  0.4514114E+03  0.7546771E-02  0.1027302E+00
         21   -1    0    0  502  501  0.00000000000E+00  0.00000000000E+00  0.83349271208E+03  0.83349271208E+03  0.00000000000E+00 0.  1.
         21   -1    0    0  501  502 -0.00000000000E+00 -0.00000000000E+00 -0.24447996994E+03  0.24447996994E+03  0.00000000000E+00 0.  1.
         25    1    1    2    0    0 -0.97931781148E+02  0.10393854643E+02  0.20744254396E+01  0.15914763339E+03  0.12500000000E+03 0.  0.
         25    1    1    2    0    0 -0.24655329453E+03  0.12433829465E+03  0.34615282932E+03  0.46010359682E+03  0.12500000000E+03 0.  0.
         25    1    1    2    0    0  0.34448507568E+03 -0.13473214930E+03  0.24078548738E+03  0.45872145181E+03  0.12500000000E+03 0.  0.
</event>
<event>
 5    0  0.5815084E-005  0.2925708E+03  0.7546771E-02  0.1089015E+00
         21   -1    0    0  502  501  0.00000000000E+00  0.00000000000E+00  0.46200902365E+03  0.46200902365E+03  0.00000000000E+00 0. -1.
         21   -1    0    0  501  502 -0.00000000000E+00 -0.00000000000E+00 -0.18527269993E+03  0.18527269993E+03  0.00000000000E+00 0. -1.
         25    1    1    2    0    0  0.11143426775E+03 -0.12291354866E+03  0.18880349323E+01  0.20773517071E+03  0.12500000000E+03 0.  0.
         25    1    1    2    0    0 -0.68900337667E+02  0.33953738609E+02  0.33623067694E+02  0.15051785136E+03  0.12500000000E+03 0.  0.
         25    1    1    2    0    0 -0.42533930078E+02  0.88959810052E+02  0.24122522109E+03  0.28902870152E+03  0.12500000000E+03 0.  0.
</event>
<event>
 5    0  0.5815084E-005  0.4547687E+03  0.7546771E-02  0.1026309E+00
         21   -1    0    0  502  501  0.00000000000E+00  0.00000000000E+00  0.11075186191E+03  0.11075186191E+03  0.00000000000E+00 0.  1.
         21   -1    0    0  501  502 -0.00000000000E+00 -0.00000000000E+00 -0.18673690961E+04  0.18673690961E+04  0.00000000000E+00 0.  1.
         25    1    1    2    0    0  0.81830732300E+02 -0.35933155094E+03 -0.61205383357E+03  0.72529326995E+03  0.12500000000E+03 0.  0.
         25    1    1    2    0    0 -0.12158739220E+03  0.32858643446E+03 -0.77989173795E+03  0.86406519533E+03  0.12500000000E+03 0.  0.
         25    1    1    2    0    0  0.39756659902E+02  0.30745116485E+02 -0.36467166268E+03  0.38876249273E+03  0.12500000000E+03 0.  0.
</event>
<event>
 5    0  0.5815084E-005  0.2424976E+03  0.7546771E-02  0.1118140E+00
         21   -1    0    0  502  501  0.00000000000E+00  0.00000000000E+00  0.62488382595E+02  0.62488382595E+02  0.00000000000E+00 0.  1.
         21   -1    0    0  501  502 -0.00000000000E+00 -0.00000000000E+00 -0.94105618464E+03  0.94105618464E+03  0.00000000000E+00 0.  1.
         25    1    1    2    0    0  0.79193884461E+01  0.35633898069E+02 -0.16745871212E+03  0.21213182616E+03  0.12500000000E+03 0.  0.
         25    1    1    2    0    0 -0.41616556256E+02  0.24403471923E+02 -0.58759680864E+03  0.60267941455E+03  0.12500000000E+03 0.  0.
         25    1    1    2    0    0  0.33697167810E+02 -0.60037369992E+02 -0.12351228129E+03  0.18873332653E+03  0.12500000000E+03 0.  0.
</event>
<event>
 5    0  0.5815084E-005  0.2986294E+03  0.7546771E-02  0.1085928E+00
         21   -1    0    0  502  501  0.00000000000E+00  0.00000000000E+00  0.14003168681E+03  0.14003168681E+03  0.00000000000E+00 0.  1.
         21   -1    0    0  501  502 -0.00000000000E+00 -0.00000000000E+00 -0.63685221782E+03  0.63685221782E+03  0.00000000000E+00 0.  1.
         25    1    1    2    0    0 -0.19657450549E+03 -0.71928689754E+02 -0.27047886650E+03  0.36414157939E+03  0.12500000000E+03 0.  0.
         25    1    1    2    0    0  0.40996923637E+02  0.50885924067E+02 -0.65282775907E+02  0.15542511331E+03  0.12500000000E+03 0.  0.
         25    1    1    2    0    0  0.15557758185E+03  0.21042765688E+02 -0.16105888860E+03  0.25731721194E+03  0.12500000000E+03 0.  0.
</event>
<event>
 5    0  0.5815084E-005  0.3305506E+03  0.7546771E-02  0.1070894E+00
         21   -1    0    0  502  501  0.00000000000E+00  0.00000000000E+00  0.17004586291E+03  0.17004586291E+03  0.00000000000E+00 0. -1.
         21   -1    0    0  501  502 -0.00000000000E+00 -0.00000000000E+00 -0.64255426404E+03  0.64255426404E+03  0.00000000000E+00 0. -1.
         25    1    1    2    0    0 -0.88402834258E+02 -0.22699106553E+03 -0.95417547964E+02  0.28994743212E+03  0.12500000000E+03 0.  0.
         25    1    1    2    0    0  0.45141483569E+01  0.74200807077E+02 -0.17948035501E+03  0.23100721881E+03  0.12500000000E+03 0.  0.
         25    1    1    2    0    0  0.83888685901E+02  0.15279025845E+03 -0.19761049816E+03  0.29164547602E+03  0.12500000000E+03 0.  0.
</event>
<event>
 5    0  0.5815084E-005  0.3164605E+03  0.7546771E-02  0.1077290E+00
         21   -1    0    0  502  501  0.00000000000E+00  0.00000000000E+00  0.53790586571E+03  0.53790586571E+03  0.00000000000E+00 0.  1.
         21   -1    0    0  501  502 -0.00000000000E+00 -0.00000000000E+00 -0.18617990525E+03  0.18617990525E+03  0.00000000000E+00 0.  1.
         25    1    1    2    0    0 -0.41438303501E+02  0.13567540141E+03 -0.20912255388E+02  0.19022951919E+03  0.12500000000E+03 0.  0.
         25    1    1    2    0    0  0.69967843984E+02 -0.40195888774E+02  0.33939789242E+03  0.37057676404E+03  0.12500000000E+03 0.  0.
         25    1    1    2    0    0 -0.28529540482E+02 -0.95479512634E+02  0.33240323427E+02  0.16327948773E+03  0.12500000000E+03 0.  0.
</event>
<event>
 5    0  0.5815084E-005  0.3043357E+03  0.7546771E-02  0.1083093E+00
         21   -1    0    0  502  501  0.00000000000E+00  0.00000000000E+00  0.95149204037E+02  0.95149204037E+02  0.00000000000E+00 0. -1.
         21   -1    0    0  501  502 -0.00000000000E+00 -0.00000000000E+00 -0.97342082939E+03  0.97342082939E+03  0.00000000000E+00 0. -1.
         25    1    1    2    0    0 -0.61618633262E+02  0.14008826157E+03 -0.91415198479E+02  0.21772302476E+03  0.12500000000E+03 0.  0.
         25    1    1    2    0    0  0.93341365238E+02 -0.58672045144E+02 -0.48132088672E+03  0.50936216520E+03  0.12500000000E+03 0.  0.
         25    1    1    2    0    0 -0.31722731976E+02 -0.81416216431E+02 -0.30553554015E+03  0.34148484347E+03  0.12500000000E+03 0.  0.
</event>
<event>
 5    0  0.5815084E-005  0.2595253E+03  0.7546771E-02  0.1107429E+00
         21   -1    0    0  502  501  0.00000000000E+00  0.00000000000E+00  0.12960110219E+04  0.12960110219E+04  0.00000000000E+00 0.  1.
         21   -1    0    0  501  502 -0.00000000000E+00 -0.00000000000E+00 -0.51969772510E+02  0.51969772510E+02  0.00000000000E+00 0.  1.
         25    1    1    2    0    0 -0.12078700265E+03  0.10134757994E+03  0.41589742501E+03  0.46201352805E+03  0.12500000000E+03 0.  0.
         25    1    1    2    0    0  0.10507082198E+03 -0.22587800089E+02  0.39368851007E+03  0.42680877370E+03  0.12500000000E+03 0.  0.
         25    1    1    2    0    0  0.15716180678E+02 -0.78759779849E+02  0.43445531436E+03  0.45915849271E+03  0.12500000000E+03 0.  0.
</event>
<event>
 5    0  0.5815084E-005  0.2186255E+03  0.7546771E-02  0.1134912E+00
         21   -1    0    0  502  501  0.00000000000E+00  0.00000000000E+00  0.16771078898E+03  0.16771078898E+03  0.00000000000E+00 0. -1.
         21   -1    0    0  501  502 -0.00000000000E+00 -0.00000000000E+00 -0.28499723167E+03  0.28499723167E+03  0.00000000000E+00 0. -1.
         25    1    1    2    0    0 -0.46473482489E+02  0.87487151233E+02 -0.58375711526E+02  0.16984260332E+03  0.12500000000E+03 0.  0.
         25    1    1    2    0    0  0.22300718372E+01 -0.27996630670E+02 -0.61901922113E+01  0.12826575158E+03  0.12500000000E+03 0.  0.
         25    1    1    2    0    0  0.44243410652E+02 -0.59490520563E+02 -0.52720538949E+02  0.15459966575E+03  0.12500000000E+03 0.  0.
</event>
<event>
 5    0  0.5815084E-005  0.2582534E+03  0.7546771E-02  0.1108197E+00
         21   -1    0    0  502  501  0.00000000000E+00  0.00000000000E+00  0.14208645249E+03  0.14208645249E+03  0.00000000000E+00 0.  1.
         21   -1    0    0  501  502 -0.00000000000E+00 -0.00000000000E+00 -0.46939606393E+03  0.46939606393E+03  0.00000000000E+00 0.  1.
         25    1    1    2    0    0 -0.10289462536E+03 -0.95441173625E+02 -0.91568551583E+02  0.20906008990E+03  0.12500000000E+03 0.  0.
         25    1    1    2    0    0  0.12972269275E+03  0.41641856402E+02 -0.15925281222E+03  0.24402557124E+03  0.12500000000E+03 0.  0.
         25    1    1    2    0    0 -0.26828067392E+02  0.53799317224E+02 -0.76488247639E+02  0.15839685527E+03  0.12500000000E+03 0.  0.
</event>
<event>
 5    0  0.5815084E-005  0.3209887E+03  0.7546771E-02  0.1075195E+00
         21   -1    0    0  502  501  0.00000000000E+00  0.00000000000E+00  0.10342651178E+03  0.10342651178E+03  0.00000000000E+00 0. -1.
         21   -1    0    0  501  502 -0.00000000000E+00 -0.00000000000E+00 -0.99620225903E+03  0.99620225903E+03  0.00000000000E+00 0. -1.
         25    1    1    2    0    0 -0.71096822893E+02  0.10201465839E+03 -0.15493664238E+03  0.23471708907E+03  0.12500000000E+03 0.  0.
         25    1    1    2    0    0  0.54998712740E+02 -0.23187328052E+03 -0.40947622315E+03  0.48998556504E+03  0.12500000000E+03 0.  0.
         25    1    1    2    0    0  0.16098110153E+02  0.12985862213E+03 -0.32836288172E+03  0.37492611670E+03  0.12500000000E+03 0.  0.
</event>
<event>
 5    0  0.5815084E-005  0.4173270E+03  0.7546771E-02  0.1037940E+00
         21   -1    0    0  502  501  0.00000000000E+00  0.00000000000E+00  0.56795633872E+03  0.56795633872E+03  0.00000000000E+00 0.  1.
         21   -1    0    0  501  502 -0.00000000000E+00 -0.00000000000E+00 -0.30664646679E+03  0.30664646679E+03  0.00000000000E+00 0.  1.
         25    1    1    2    0    0  0.83693138329E+01  0.23345204115E+03 -0.84298211904E+02  0.27803073474E+03  0.12500000000E+03 0.  0.
         25    1    1    2    0    0  0.12723247189E+03  0.12483341361E+02  0.13171215630E+03  0.22207437455E+03  0.12500000000E+03 0.  0.
         25    1    1    2    0    0 -0.13560178572E+03 -0.24593538251E+03  0.21389592753E+03  0.37449769622E+03  0.12500000000E+03 0.  0.
</event>
<event>
 5    0  0.5815084E-005  0.3521340E+03  0.7546771E-02  0.1061743E+00
         21   -1    0    0  502  501  0.00000000000E+00  0.00000000000E+00  0.13355469428E+04  0.13355469428E+04  0.00000000000E+00 0. -1.
         21   -1    0    0  501  502 -0.00000000000E+00 -0.00000000000E+00 -0.92844642910E+02  0.92844642910E+02  0.00000000000E+00 0. -1.
         25    1    1    2    0    0 -0.16237960544E+03 -0.14772925904E+03  0.55515402767E+03  0.60992791761E+03  0.12500000000E+03 0.  0.
         25    1    1    2    0    0 -0.51921208389E+02  0.14075351731E+03  0.28242797392E+03  0.34336267265E+03  0.12500000000E+03 0.  0.
         25    1    1    2    0    0  0.21430081382E+03  0.69757417307E+01  0.40512029826E+03  0.47510099541E+03  0.12500000000E+03 0.  0.
</event>
<event>
 5    0  0.5815084E-005  0.3318228E+03  0.7546771E-02  0.1070333E+00
         21   -1    0    0  502  501  0.00000000000E+00  0.00000000000E+00  0.77256679020E+02  0.77256679020E+02  0.00000000000E+00 0.  1.
         21   -1    0    0  501  502 -0.00000000000E+00 -0.00000000000E+00 -0.14252020269E+04  0.14252020269E+04  0.00000000000E+00 0.  1.
         25    1    1    2    0    0 -0.13095424070E+03  0.67369578974E+02 -0.18637002737E+03  0.26841471724E+03  0.12500000000E+03 0.  0.
         25    1    1    2    0    0 -0.55846719675E+01 -0.11134742339E+03 -0.23773076265E+03  0.29080982234E+03  0.12500000000E+03 0.  0.
         25    1    1    2    0    0  0.13653891267E+03  0.43977844413E+02 -0.92384455783E+03  0.94323416631E+03  0.12500000000E+03 0.  0.
</event>
<event>
 5    0  0.5815084E-005  0.3268205E+03  0.7546771E-02  0.1072552E+00
         21   -1    0    0  502  501  0.00000000000E+00  0.00000000000E+00  0.12660449112E+03  0.12660449112E+03  0.00000000000E+00 0.  1.
         21   -1    0    0  501  502 -0.00000000000E+00 -0.00000000000E+00 -0.84366381388E+03  0.84366381388E+03  0.00000000000E+00 0.  1.
         25    1    1    2    0    0  0.29235927257E+02  0.13960549429E+03 -0.63045244409E+03  0.65836138840E+03  0.12500000000E+03 0.  0.
         25    1    1    2    0    0  0.16002419613E+02 -0.88754541767E+02 -0.67619753763E+02  0.16831778639E+03  0.12500000000E+03 0.  0.
         25    1    1    2    0    0 -0.45238346871E+02 -0.50850952527E+02 -0.18987124907E+02  0.14358913020E+03  0.12500000000E+03 0.  0.
</event>
<event>
 5    0  0.5815084E-005  0.7505753E+03  0.7546771E-02  0.9634448E-01
         21   -1    0    0  502  501  0.00000000000E+00  0.00000000000E+00  0.36677156014E+04  0.36677156014E+04  0.00000000000E+00 0. -1.
         21   -1    0    0  501  502 -0.00000000000E+00 -0.00000000000E+00 -0.15360060261E+03  0.15360060261E+03  0.00000000000E+00 0. -1.
         25    1    1    2    0    0 -0.40367577924E+02 -0.19457917143E+03  0.93850303235E+02  0.25283092121E+03  0.12500000000E+03 0.  0.
         25    1    1    2    0    0  0.49489884044E+03  0.13776354661E+03  0.15022172567E+04  0.15925405312E+04  0.12500000000E+03 0.  0.
         25    1    1    2    0    0 -0.45453126252E+03  0.56815624827E+02  0.19180474388E+04  0.19759447516E+04  0.12500000000E+03 0.  0.
</event>
<event>
 5    0  0.5815084E-005  0.3032230E+03  0.7546771E-02  0.1083640E+00
         21   -1    0    0  502  501  0.00000000000E+00  0.00000000000E+00  0.54025025258E+02  0.54025025258E+02  0.00000000000E+00 0.  1.
         21   -1    0    0  501  502 -0.00000000000E+00 -0.00000000000E+00 -0.17018813085E+04  0.17018813085E+04  0.00000000000E+00 0.  1.
         25    1    1    2    0    0  0.23330949020E+02  0.69587744996E+02 -0.13396904436E+03  0.19738159053E+03  0.12500000000E+03 0.  0.
         25    1    1    2    0    0  0.32679075707E+02  0.41473946217E+02 -0.26979925662E+03  0.30200107463E+03  0.12500000000E+03 0.  0.
         25    1    1    2    0    0 -0.56010024728E+02 -0.11106169121E+03 -0.12440879823E+04  0.12565236686E+04  0.12500000000E+03 0.  0.
</event>
<event>
 5    0  0.5815084E-005  0.3252621E+03  0.7546771E-02  0.1073253E+00
         21   -1    0    0  502  501  0.00000000000E+00  0.00000000000E+00  0.23049854809E+03  0.23049854809E+03  0.00000000000E+00 0. -1.
         21   -1    0    0  501  502 -0.00000000000E+00 -0.00000000000E+00 -0.45898535194E+03  0.45898535194E+03  0.00000000000E+00 0. -1.
         25    1    1    2    0    0  0.11031714688E+03  0.72874617347E+02  0.90918483024E+02  0.20340047518E+03  0.12500000000E+03 0.  0.
         25    1    1    2    0    0  0.51924447234E+02 -0.86794472879E+02 -0.13000998903E+03  0.20677772122E+03  0.12500000000E+03 0.  0.
         25    1    1    2    0    0 -0.16224159411E+03  0.13919855532E+02 -0.18939529784E+03  0.27930570363E+03  0.12500000000E+03 0.  0.
</event>
<event>
 5    0  0.5815084E-005  0.2607147E+03  0.7546771E-02  0.1106715E+00
         21   -1    0    0  502  501  0.00000000000E+00  0.00000000000E+00  0.16412515863E+03  0.16412515863E+03  0.00000000000E+00 0.  1.
         21   -1    0    0  501  502 -0.00000000000E+00 -0.00000000000E+00 -0.41414834199E+03  0.41414834199E+03  0.00000000000E+00 0.  1.
         25    1    1    2    0    0 -0.11618164395E+03  0.86575142892E+02 -0.23648502343E+02  0.19281514832E+03  0.12500000000E+03 0.  0.
         25    1    1    2    0    0  0.13443296860E+02 -0.34570444201E+02 -0.15109959769E+03  0.19957937335E+03  0.12500000000E+03 0.  0.
         25    1    1    2    0    0  0.10273834709E+03 -0.52004698691E+02 -0.75275083321E+02  0.18587897896E+03  0.12500000000E+03 0.  0.
</event>
<event>
 5    0  0.5815084E-005  0.3702183E+03  0.7546771E-02  0.1054610E+00
         21   -1    0    0  502  501  0.00000000000E+00  0.00000000000E+00  0.23236668685E+03  0.23236668685E+03  0.00000000000E+00 0. -1.
         21   -1    0    0  501  502 -0.00000000000E+00 -0.00000000000E+00 -0.58985032633E+03  0.58985032633E+03  0.00000000000E+00 0. -1.
         25    1    1    2    0    0  0.48862089581E+02 -0.12168016588E+03 -0.43835737201E+03  0.47431608887E+03  0.12500000000E+03 0.  0.
         25    1    1    2    0    0 -0.11727541686E+03  0.84161300455E+02  0.49091981358E+02  0.19715899809E+03  0.12500000000E+03 0.  0.
         25    1    1    2    0    0  0.68413327281E+02  0.37518865430E+02  0.31781751162E+02  0.15074192622E+03  0.12500000000E+03 0.  0.
</event>
<event>
 5    0  0.5815084E-005  0.4749025E+03  0.7546771E-02  0.1020546E+00
         21   -1    0    0  502  501  0.00000000000E+00  0.00000000000E+00  0.15725581430E+03  0.15725581430E+03  0.00000000000E+00 0. -1.
         21   -1    0    0  501  502 -0.00000000000E+00 -0.00000000000E+00 -0.14341753930E+04  0.14341753930E+04  0.00000000000E+00 0. -1.
         25    1    1    2    0    0 -0.83254253658E+02 -0.44982046658E+02 -0.91119479237E+02  0.18133508974E+03  0.12500000000E+03 0.  0.
         25    1    1    2    0    0 -0.26996317094E+03  0.14780869450E+03 -0.32063690428E+03  0.46169313209E+03  0.12500000000E+03 0.  0.
         25    1    1    2    0    0  0.35321742460E+03 -0.10282664784E+03 -0.86516319517E+03  0.94840298546E+03  0.12500000000E+03 0.  0.
</event>
<event>
 5    0  0.5815084E-005  0.2614958E+03  0.7546771E-02  0.1106248E+00
         21   -1    0    0  502  501  0.00000000000E+00  0.00000000000E+00  0.34399700952E+03  0.34399700952E+03  0.00000000000E+00 0.  1.
         21   -1    0    0  501  502 -0.00000000000E+00 -0.00000000000E+00 -0.19878091742E+03  0.19878091742E+03  0.00000000000E+00 0.  1.
         25    1    1    2    0    0  0.60062854594E+02  0.70561757082E+02  0.15906564348E+03  0.22251603763E+03  0.12500000000E+03 0.  0.
         25    1    1    2    0    0  0.37671027875E+02  0.23253209687E+02 -0.27486599462E+02  0.13542647914E+03  0.12500000000E+03 0.  0.
         25    1    1    2    0    0 -0.97733882469E+02 -0.93814966768E+02  0.13637048075E+02  0.18483541017E+03  0.12500000000E+03 0.  0.
</event>
<event>
 5    0  0.5815084E-005  0.2742909E+03  0.7546771E-02  0.1098849E+00
         21   -1    0    0  502  501  0.00000000000E+00  0.00000000000E+00  0.12898063471E+03  0.12898063471E+03  0.00000000000E+00 0. -1.
         21   -1    0    0  501  502 -0.00000000000E+00 -0.00000000000E+00 -0.58330867550E+03  0.58330867550E+03  0.00000000000E+00 0. -1.
         25    1    1    2    0    0 -0.32315066152E+02  0.72715739765E+02 -0.30777400693E+03  0.34158700451E+03  0.12500000000E+03 0.  0.
         25    1    1    2    0    0  0.97200571269E+02 -0.70946534852E+02 -0.88714886123E+01  0.17373849652E+03  0.12500000000E+03 0.  0.
         25    1    1    2    0    0 -0.64885505117E+02 -0.17692049128E+01 -0.13768254525E+03  0.19696380918E+03  0.12500000000E+03 0.  0.
</event>
<event>
 5    0  0.5815084E-005  0.2485164E+03  0.7546771E-02  0.1114246E+00
         21   -1    0    0  502  501  0.00000000000E+00  0.00000000000E+00  0.81101916515E+02  0.81101916515E+02  0.00000000000E+00 0. -1.
         21   -1    0    0  501  502 -0.00000000000E+00 -0.00000000000E+00 -0.76151564106E+03  0.76151564106E+03  0.00000000000E+00 0. -1.
         25    1    1    2    0    0 -0.45051993783E+02 -0.72865993240E+02 -0.37926158205E+03  0.40841582087E+03  0.12500000000E+03 0.  0.
         25    1    1    2    0    0  0.90158146627E+02 -0.93495383814E+01 -0.12444820251E+03  0.19831354058E+03  0.12500000000E+03 0.  0.
         25    1    1    2    0    0 -0.45106152844E+02  0.82215531622E+02 -0.17670393999E+03  0.23588819613E+03  0.12500000000E+03 0.  0.
</event>
<event>
 5    0  0.5815084E-005  0.2889957E+03  0.7546771E-02  0.1090875E+00
         21   -1    0    0  502  501  0.00000000000E+00  0.00000000000E+00  0.64147634922E+03  0.64147634922E+03  0.00000000000E+00 0.  1.
         21   -1    0    0  501  502 -0.00000000000E+00 -0.00000000000E+00 -0.13019736596E+03  0.13019736596E+03  0.00000000000E+00 0.  1.
         25    1    1    2    0    0  0.55554029098E+02  0.76703147102E+02  0.36089526168E+02  0.16092568727E+03  0.12500000000E+03 0.  0.
         25    1    1    2    0    0 -0.10390315863E+03 -0.95913655714E+02  0.42731525553E+03  0.46713876240E+03  0.12500000000E+03 0.  0.
         25    1    1    2    0    0  0.48349129528E+02  0.19210508611E+02  0.47874201558E+02  0.14360926552E+03  0.12500000000E+03 0.  0.
</event>
<event>
 5    0  0.5815084E-005  0.2715700E+03  0.7546771E-02  0.1100384E+00
         21   -1    0    0  502  501  0.00000000000E+00  0.00000000000E+00  0.13932547091E+03  0.13932547091E+03  0.00000000000E+00 0. -1.
         21   -1    0    0  501  502 -0.00000000000E+00 -0.00000000000E+00 -0.52933808744E+03  0.52933808744E+03  0.00000000000E+00 0. -1.
         25    1    1    2    0    0 -0.11017208363E+03  0.12236692828E+03 -0.18036907331E+03  0.27435297657E+03  0.12500000000E+03 0.  0.
         25    1    1    2    0    0 -0.30409073670E+01 -0.46594608601E+01 -0.10610404325E+03  0.16405494716E+03  0.12500000000E+03 0.  0.
         25    1    1    2    0    0  0.11321299100E+03 -0.11770746742E+03 -0.10353949998E+03  0.23025563462E+03  0.12500000000E+03 0.  0.
</event>
<event>
 5    0  0.5815084E-005  0.4059904E+03  0.7546771E-02  0.1041725E+00
         21   -1    0    0  502  501  0.00000000000E+00  0.00000000000E+00  0.10499617202E+04  0.10499617202E+04  0.00000000000E+00 0. -1.
         21   -1    0    0  501  502 -0.00000000000E+00 -0.00000000000E+00 -0.15698496392E+03  0.15698496392E+03  0.00000000000E+00 0. -1.
         25    1    1    2    0    0  0.95536402084E+00  0.22439264515E+03  0.53869557436E+02  0.26244980689E+03  0.12500000000E+03 0.  0.
         25    1    1    2    0    0 -0.34908189646E+02 -0.21274542977E+03  0.74044029059E+03  0.78125285505E+03  0.12500000000E+03 0.  0.
         25    1    1    2    0    0  0.33952825625E+02 -0.11647215382E+02  0.98666908284E+02  0.16324402220E+03  0.12500000000E+03 0.  0.
</event>
<event>
 5    0  0.5815084E-005  0.4385738E+03  0.7546771E-02  0.1031185E+00
         21   -1    0    0  502  501  0.00000000000E+00  0.00000000000E+00  0.78001382257E+03  0.78001382257E+03  0.00000000000E+00 0.  1.
         21   -1    0    0  501  502 -0.00000000000E+00 -0.00000000000E+00 -0.24659437288E+03  0.24659437288E+03  0.00000000000E+00 0.  1.
         25    1    1    2    0    0  0.91251562727E+02 -0.22666777393E+03  0.31985415844E+03  0.42146982112E+03  0.12500000000E+03 0.  0.
         25    1    1    2    0    0  0.83745838332E+02  0.92107397100E+01 -0.88893898914E+02  0.17500093836E+03  0.12500000000E+03 0.  0.
         25    1    1    2    0    0 -0.17499740106E+03  0.21745703422E+03  0.30245919016E+03  0.43013743597E+03  0.12500000000E+03 0.  0.
</event>
<event>
 5    0  0.5815084E-005  0.2282145E+03  0.7546771E-02  0.1127903E+00
         21   -1    0    0  502  501  0.00000000000E+00  0.00000000000E+00  0.19237706073E+03  0.19237706073E+03  0.00000000000E+00 0. -1.
         21   -1    0    0  501  502 -0.00000000000E+00 -0.00000000000E+00 -0.27072808280E+03  0.27072808280E+03  0.00000000000E+00 0. -1.
         25    1    1    2    0    0  0.91634485069E+02 -0.39081487172E+01 -0.27316698961E+02  0.15742729916E+03  0.12500000000E+03 0.  0.
         25    1    1    2    0    0 -0.53586303681E+02  0.36774331266E+02  0.35830509656E+02  0.14537079763E+03  0.12500000000E+03 0.  0.
         25    1    1    2    0    0 -0.38048181388E+02 -0.32866182549E+02 -0.86864832761E+02  0.16030704673E+03  0.12500000000E+03 0.  0.
</event>
<event>
 5    0  0.5815084E-005  0.4999376E+03  0.7546771E-02  0.1013795E+00
         21   -1    0    0  502  501  0.00000000000E+00  0.00000000000E+00  0.53696854114E+03  0.53696854114E+03  0.00000000000E+00 0. -1.
         21   -1    0    0  501  502 -0.00000000000E+00 -0.00000000000E+00 -0.46546044714E+03  0.46546044714E+03  0.00000000000E+00 0. -1.
         25    1    1    2    0    0  0.32383695330E+03  0.28933838553E+03  0.17036336819E+03  0.48294487355E+03  0.12500000000E+03 0.  0.
         25    1    1    2    0    0 -0.11586400079E+03 -0.12693473005E+03 -0.42378208058E+01  0.21255552568E+03  0.12500000000E+03 0.  0.
         25    1    1    2    0    0 -0.20797295251E+03 -0.16240365548E+03 -0.94617453387E+02  0.30692858905E+03  0.12500000000E+03 0.  0.
</event>
<event>
 5    0  0.5815084E-005  0.3169334E+03  0.7546771E-02  0.1077069E+00
         21   -1    0    0  502  501  0.00000000000E+00  0.00000000000E+00  0.21911763762E+03  0.21911763762E+03  0.00000000000E+00 0. -1.
         21   -1    0    0  501  502 -0.00000000000E+00 -0.00000000000E+00 -0.45841475412E+03  0.45841475412E+03  0.00000000000E+00 0. -1.
         25    1    1    2    0    0 -0.15317550308E+03 -0.63086309619E+02  0.19518820749E+02  0.20844328142E+03  0.12500000000E+03 0.  0.
         25    1    1    2    0    0 -0.58137750010E+02  0.12638926522E+02 -0.68999006959E+02  0.15467903349E+03  0.12500000000E+03 0.  0.
         25    1    1    2    0    0  0.21131325309E+03  0.50447383097E+02 -0.18981693029E+03  0.31441007684E+03  0.12500000000E+03 0.  0.
</event>
<event>
 5    0  0.5815084E-005  0.2207368E+03  0.7546771E-02  0.1133335E+00
         21   -1    0    0  502  501  0.00000000000E+00  0.00000000000E+00  0.57291341075E+02  0.57291341075E+02  0.00000000000E+00 0. -1.
         21   -1    0    0  501  502 -0.00000000000E+00 -0.00000000000E+00 -0.85047290833E+03  0.85047290833E+03  0.00000000000E+00 0. -1.
         25    1    1    2    0    0  0.30294597160E+02 -0.10376321658E+03 -0.26955252721E+03  0.31617737531E+03  0.12500000000E+03 0.  0.
         25    1    1    2    0    0 -0.10541979709E+02  0.72509687859E+02 -0.28127309549E+03  0.31639902405E+03  0.12500000000E+03 0.  0.
         25    1    1    2    0    0 -0.19752617451E+02  0.31253528725E+02 -0.24235594455E+03  0.27518785004E+03  0.12500000000E+03 0.  0.
</event>
<event>
 5    0  0.5843717E-005  0.2718663E+03  0.7546771E-02  0.1100216E+00
         21   -1    0    0  502  501  0.00000000000E+00  0.00000000000E+00  0.78169385192E+02  0.78169385192E+02  0.00000000000E+00 0.  1.
         21   -1    0    0  501  502 -0.00000000000E+00 -0.00000000000E+00 -0.94552712998E+03  0.94552712998E+03  0.00000000000E+00 0.  1.
         25    1    1    2    0    0  0.21007730793E+01 -0.66518571782E+02 -0.14081138014E+03  0.19970472807E+03  0.12500000000E+03 0.  0.
         25    1    1    2    0    0 -0.12291638732E+01  0.14122393711E+03 -0.18875100216E+03  0.26682888163E+03  0.12500000000E+03 0.  0.
         25    1    1    2    0    0 -0.87160920615E+00 -0.74705365324E+02 -0.53779536249E+03  0.55716290547E+03  0.12500000000E+03 0.  0.
</event>
<event>
 5    0  0.5815084E-005  0.3224613E+03  0.7546771E-02  0.1074522E+00
         21   -1    0    0  502  501  0.00000000000E+00  0.00000000000E+00  0.82816850046E+02  0.82816850046E+02  0.00000000000E+00 0. -1.
         21   -1    0    0  501  502 -0.00000000000E+00 -0.00000000000E+00 -0.12555575367E+04  0.12555575367E+04  0.00000000000E+00 0. -1.
         25    1    1    2    0    0  0.57127985900E+02  0.71157955508E+01 -0.15004517801E+03  0.20359959912E+03  0.12500000000E+03 0.  0.
         25    1    1    2    0    0 -0.73343626218E+01  0.16705464563E+03 -0.77861349226E+03  0.80611724819E+03  0.12500000000E+03 0.  0.
         25    1    1    2    0    0 -0.49793623279E+02 -0.17417044118E+03 -0.24408201636E+03  0.32865753941E+03  0.12500000000E+03 0.  0.
</event>
<event>
 5    0  0.6133413E-005  0.3523687E+03  0.7546771E-02  0.1061647E+00
         21   -1    0    0  502  501  0.00000000000E+00  0.00000000000E+00  0.42293901141E+03  0.42293901141E+03  0.00000000000E+00 0.  1.
         21   -1    0    0  501  502 -0.00000000000E+00 -0.00000000000E+00 -0.29357350554E+03  0.29357350554E+03  0.00000000000E+00 0.  1.
         25    1    1    2    0    0 -0.56604239314E+02  0.15305176574E+03 -0.11155812223E+03  0.23387838195E+03  0.12500000000E+03 0.  0.
         25    1    1    2    0    0  0.12684192201E+03 -0.17910984009E+03  0.78669993635E+02  0.26454333463E+03  0.12500000000E+03 0.  0.
         25    1    1    2    0    0 -0.70237682699E+02  0.26058074354E+02  0.16225363447E+03  0.21809080038E+03  0.12500000000E+03 0.  0.
</event>
<event>
 5    0  0.5815084E-005  0.3157310E+03  0.7546771E-02  0.1077631E+00
         21   -1    0    0  502  501  0.00000000000E+00  0.00000000000E+00  0.33910035072E+03  0.33910035072E+03  0.00000000000E+00 0.  1.
         21   -1    0    0  501  502 -0.00000000000E+00 -0.00000000000E+00 -0.29397211653E+03  0.29397211653E+03  0.00000000000E+00 0.  1.
         25    1    1    2    0    0  0.55375489993E+02  0.14566369851E+03  0.16209552826E+03  0.25726313035E+03  0.12500000000E+03 0.  0.
         25    1    1    2    0    0 -0.30819806098E+02  0.75170327765E+01 -0.12057207158E+03  0.17654741764E+03  0.12500000000E+03 0.  0.
         25    1    1    2    0    0 -0.24555683895E+02 -0.15318073128E+03  0.36047775048E+01  0.19926191927E+03  0.12500000000E+03 0.  0.
</event>
<event>
 5    0  0.5815084E-005  0.3003582E+03  0.7546771E-02  0.1085062E+00
         21   -1    0    0  502  501  0.00000000000E+00  0.00000000000E+00  0.51067797064E+03  0.51067797064E+03  0.00000000000E+00 0.  1.
         21   -1    0    0  501  502 -0.00000000000E+00 -0.00000000000E+00 -0.17665739813E+03  0.17665739813E+03  0.00000000000E+00 0.  1.
         25    1    1    2    0    0 -0.17042907260E+03  0.40655996795E+02  0.23980685605E+03  0.32222865651E+03  0.12500000000E+03 0.  0.
         25    1    1    2    0    0  0.59517693565E+02 -0.76822551266E+02 -0.19849333169E+02  0.15957147695E+03  0.12500000000E+03 0.  0.
         25    1    1    2    0    0  0.11091137903E+03  0.36166554471E+02  0.11406304963E+03  0.20553523531E+03  0.12500000000E+03 0.  0.
</event>
<event>
 5    0  0.5815084E-005  0.3159832E+03  0.7546771E-02  0.1077513E+00
         21   -1    0    0  502  501  0.00000000000E+00  0.00000000000E+00  0.69166963648E+03  0.69166963648E+03  0.00000000000E+00 0. -1.
         21   -1    0    0  501  502 -0.00000000000E+00 -0.00000000000E+00 -0.14435418521E+03  0.14435418521E+03  0.00000000000E+00 0. -1.
         25    1    1    2    0    0  0.93961011989E+02  0.28957618405E+02  0.20201139023E+03  0.25710079195E+03  0.12500000000E+03 0.  0.
         25    1    1    2    0    0 -0.68751362308E+02 -0.29188695147E+02 -0.57393933536E+02  0.15651770938E+03  0.12500000000E+03 0.  0.
         25    1    1    2    0    0 -0.25209649681E+02  0.23107674189E+00  0.40269799457E+03  0.42240532035E+03  0.12500000000E+03 0.  0.
</event>
<event>
 5    0  0.5815084E-005  0.4076088E+03  0.7546771E-02  0.1041176E+00
         21   -1    0    0  502  501  0.00000000000E+00  0.00000000000E+00  0.16381804236E+03  0.16381804236E+03  0.00000000000E+00 0. -1.
         21   -1    0    0  501  502 -0.00000000000E+00 -0.00000000000E+00 -0.10142041091E+04  0.10142041091E+04  0.00000000000E+00 0. -1.
         25    1    1    2    0    0  0.48657010539E+02  0.18988222967E+02  0.14194300434E+02  0.13621503386E+03  0.12500000000E+03 0.  0.
         25    1    1    2    0    0 -0.60456263145E+02 -0.98255700634E+02 -0.57101637289E+01  0.17019620569E+03  0.12500000000E+03 0.  0.
         25    1    1    2    0    0  0.11799252606E+02  0.79267477667E+02 -0.85887020348E+03  0.87161091194E+03  0.12500000000E+03 0.  0.
</event>
<event>
 5    0  0.5815084E-005  0.2337221E+03  0.7546771E-02  0.1124047E+00
         21   -1    0    0  502  501  0.00000000000E+00  0.00000000000E+00  0.12785495229E+04  0.12785495229E+04  0.00000000000E+00 0. -1.
         21   -1    0    0  501  502 -0.00000000000E+00 -0.00000000000E+00 -0.42725001313E+02  0.42725001313E+02  0.00000000000E+00 0. -1.
         25    1    1    2    0    0 -0.87212451419E+02 -0.11472038469E+02  0.36435061836E+03  0.39511263261E+03  0.12500000000E+03 0.  0.
         25    1    1    2    0    0  0.10717483528E+03  0.58025049944E+02  0.56414759540E+03  0.59054285292E+03  0.12500000000E+03 0.  0.
         25    1    1    2    0    0 -0.19962383859E+02 -0.46553011475E+02  0.30732630787E+03  0.33561903872E+03  0.12500000000E+03 0.  0.
</event>
<event>
 5    0  0.5815084E-005  0.2375760E+03  0.7546771E-02  0.1121418E+00
         21   -1    0    0  502  501  0.00000000000E+00  0.00000000000E+00  0.11542415896E+04  0.11542415896E+04  0.00000000000E+00 0. -1.
         21   -1    0    0  501  502 -0.00000000000E+00 -0.00000000000E+00 -0.48899940758E+02  0.48899940758E+02  0.00000000000E+00 0. -1.
         25    1    1    2    0    0 -0.70600336980E+02 -0.49532643987E+02  0.29882036269E+03  0.33519621054E+03  0.12500000000E+03 0.  0.
         25    1    1    2    0    0 -0.23370724346E+02  0.50487266037E+02  0.55626183559E+03  0.57284150035E+03  0.12500000000E+03 0.  0.
         25    1    1    2    0    0  0.93971061326E+02 -0.95462205027E+00  0.25025945056E+03  0.29510381947E+03  0.12500000000E+03 0.  0.
</event>
<event>
 5    0  0.5815084E-005  0.3850999E+03  0.7546771E-02  0.1049065E+00
         21   -1    0    0  502  501  0.00000000000E+00  0.00000000000E+00  0.46596770876E+03  0.46596770876E+03  0.00000000000E+00 0.  1.
         21   -1    0    0  501  502 -0.00000000000E+00 -0.00000000000E+00 -0.31826646784E+03  0.31826646784E+03  0.00000000000E+00 0.  1.
         25    1    1    2    0    0 -0.20780107458E+03 -0.60315163476E+02  0.29628570067E+03  0.38759440394E+03  0.12500000000E+03 0.  0.
         25    1    1    2    0    0  0.33474445658E+02  0.76862500946E+01 -0.11487945186E+03  0.17321058112E+03  0.12500000000E+03 0.  0.
         25    1    1    2    0    0  0.17432662892E+03  0.52628913382E+02 -0.33705007896E+02  0.22342919154E+03  0.12500000000E+03 0.  0.
</event>
<event>
 5    0  0.5815084E-005  0.2325449E+03  0.7546771E-02  0.1124861E+00
         21   -1    0    0  502  501  0.00000000000E+00  0.00000000000E+00  0.18852357115E+04  0.18852357115E+04  0.00000000000E+00 0.  1.
         21   -1    0    0  501  502 -0.00000000000E+00 -0.00000000000E+00 -0.28684540729E+02  0.28684540729E+02  0.00000000000E+00 0.  1.
         25    1    1    2    0    0 -0.44510140624E+02 -0.42329395347E+02  0.60202789074E+03  0.61792840326E+03  0.12500000000E+03 0.  0.
         25    1    1    2    0    0  0.10077290361E+03 -0.39622795106E+02  0.65653609552E+03  0.67704489416E+03  0.12500000000E+03 0.  0.
         25    1    1    2    0    0 -0.56262762981E+02  0.81952190453E+02  0.59798718446E+03  0.61894695475E+03  0.12500000000E+03 0.  0.
</event>
<event>
 5    0  0.5815084E-005  0.2721971E+03  0.7546771E-02  0.1100029E+00
         21   -1    0    0  502  501  0.00000000000E+00  0.00000000000E+00  0.16876394634E+04  0.16876394634E+04  0.00000000000E+00 0. -1.
         21   -1    0    0  501  502 -0.00000000000E+00 -0.00000000000E+00 -0.43902305545E+02  0.43902305545E+02  0.00000000000E+00 0. -1.
         25    1    1    2    0    0 -0.19582482544E+02  0.67532124378E+02  0.27981032567E+03  0.31442468064E+03  0.12500000000E+03 0.  0.
         25    1    1    2    0    0  0.13595099839E+03 -0.68468321710E+02  0.51935101580E+03  0.55544672350E+03  0.12500000000E+03 0.  0.
         25    1    1    2    0    0 -0.11636851584E+03  0.93619733257E+00  0.84457581639E+03  0.86167036480E+03  0.12500000000E+03 0.  0.
</event>
<event>
 5    0  0.5815084E-005  0.3631899E+03  0.7546771E-02  0.1057328E+00
         21   -1    0    0  502  501  0.00000000000E+00  0.00000000000E+00  0.32330415126E+03  0.32330415126E+03  0.00000000000E+00 0.  1.
         21   -1    0    0  501  502 -0.00000000000E+00 -0.00000000000E+00 -0.40799620940E+03  0.40799620940E+03  0.00000000000E+00 0.  1.
         25    1    1    2    0    0  0.14996334306E+03 -0.13587435317E+02  0.14243531523E+03  0.24204636267E+03  0.12500000000E+03 0.  0.
         25    1    1    2    0    0 -0.17100317859E+03  0.13612429218E+03 -0.95730237952E+02  0.26937184053E+03  0.12500000000E+03 0.  0.
         25    1    1    2    0    0  0.21039835534E+02 -0.12253685686E+03 -0.13139713542E+03  0.21988215745E+03  0.12500000000E+03 0.  0.
</event>
<event>
 5    0  0.5815084E-005  0.5255243E+03  0.7546771E-02  0.1007323E+00
         21   -1    0    0  502  501  0.00000000000E+00  0.00000000000E+00  0.97930471652E+03  0.97930471652E+03  0.00000000000E+00 0.  1.
         21   -1    0    0  501  502 -0.00000000000E+00 -0.00000000000E+00 -0.28201214138E+03  0.28201214138E+03  0.00000000000E+00 0.  1.
         25    1    1    2    0    0  0.28022476782E+03  0.10850294322E+03  0.14778021534E+03  0.35743922733E+03  0.12500000000E+03 0.  0.
         25    1    1    2    0    0  0.30897133469E+02  0.63901030545E+02 -0.84127956199E+02  0.16655475849E+03  0.12500000000E+03 0.  0.
         25    1    1    2    0    0 -0.31112190129E+03 -0.17240397377E+03  0.63364031600E+03  0.73732287208E+03  0.12500000000E+03 0.  0.
</event>
<event>
 5    0  0.5815084E-005  0.1562519E+04  0.7546771E-02  0.8843911E-01
         21   -1    0    0  502  501  0.00000000000E+00  0.00000000000E+00  0.15082333850E+04  0.15082333850E+04  0.00000000000E+00 0. -1.
         21   -1    0    0  501  502 -0.00000000000E+00 -0.00000000000E+00 -0.16187586057E+04  0.16187586057E+04  0.00000000000E+00 0. -1.
         25    1    1    2    0    0  0.59684198742E+03  0.76826040933E+03  0.93008215277E+03  0.13517108512E+04  0.12500000000E+03 0.  0.
         25    1    1    2    0    0 -0.33164032479E+03 -0.23361752840E+03 -0.10838361825E+04  0.11639967033E+04  0.12500000000E+03 0.  0.
         25    1    1    2    0    0 -0.26520166264E+03 -0.53464288094E+03  0.43228809043E+02  0.61128443619E+03  0.12500000000E+03 0.  0.
</event>
<event>
 5    0  0.5815084E-005  0.3535162E+03  0.7546771E-02  0.1061181E+00
         21   -1    0    0  502  501  0.00000000000E+00  0.00000000000E+00  0.21304106881E+03  0.21304106881E+03  0.00000000000E+00 0.  1.
         21   -1    0    0  501  502 -0.00000000000E+00 -0.00000000000E+00 -0.58661797606E+03  0.58661797606E+03  0.00000000000E+00 0.  1.
         25    1    1    2    0    0  0.84086094375E+02  0.12012534403E+03 -0.14931533246E+03  0.24376348794E+03  0.12500000000E+03 0.  0.
         25    1    1    2    0    0  0.48080921707E+02 -0.17732091379E+03 -0.27977363875E+03  0.35728527878E+03  0.12500000000E+03 0.  0.
         25    1    1    2    0    0 -0.13216701608E+03  0.57195569758E+02  0.55512063957E+02  0.19861027814E+03  0.12500000000E+03 0.  0.
</event>
<event>
 5    0  0.5815084E-005  0.2740243E+03  0.7546771E-02  0.1098998E+00
         21   -1    0    0  502  501  0.00000000000E+00  0.00000000000E+00  0.32441518249E+03  0.32441518249E+03  0.00000000000E+00 0.  1.
         21   -1    0    0  501  502 -0.00000000000E+00 -0.00000000000E+00 -0.23146059558E+03  0.23146059558E+03  0.00000000000E+00 0.  1.
         25    1    1    2    0    0  0.14259735245E+03  0.39097168465E+02  0.43006760547E+02  0.19833601529E+03  0.12500000000E+03 0.  0.
         25    1    1    2    0    0  0.91284160457E+01 -0.12982370927E+02 -0.49882138484E+02  0.13551788692E+03  0.12500000000E+03 0.  0.
         25    1    1    2    0    0 -0.15172576850E+03 -0.26114797538E+02  0.99829964849E+02  0.22202187586E+03  0.12500000000E+03 0.  0.
</event>
<event>
 5    0  0.5815084E-005  0.2182095E+03  0.7546771E-02  0.1135225E+00
         21   -1    0    0  502  501  0.00000000000E+00  0.00000000000E+00  0.13857857875E+03  0.13857857875E+03  0.00000000000E+00 0. -1.
         21   -1    0    0  501  502 -0.00000000000E+00 -0.00000000000E+00 -0.34359841058E+03  0.34359841058E+03  0.00000000000E+00 0. -1.
         25    1    1    2    0    0  0.48898900627E+02 -0.38787159291E+02 -0.13980945454E+03  0.19765431892E+03  0.12500000000E+03 0.  0.
         25    1    1    2    0    0  0.14574428114E+02  0.65374841217E+01 -0.62451145340E+02  0.14064244810E+03  0.12500000000E+03 0.  0.
         25    1    1    2    0    0 -0.63473328741E+02  0.32249675169E+02 -0.27592319434E+01  0.14388022231E+03  0.12500000000E+03 0.  0.
</event>
<event>
 5    0  0.5815084E-005  0.5085620E+03  0.7546771E-02  0.1011568E+00
         21   -1    0    0  502  501  0.00000000000E+00  0.00000000000E+00  0.21272106316E+04  0.21272106316E+04  0.00000000000E+00 0.  1.
         21   -1    0    0  501  502 -0.00000000000E+00 -0.00000000000E+00 -0.12158425620E+03  0.12158425620E+03  0.00000000000E+00 0.  1.
         25    1    1    2    0    0  0.29331965616E+03  0.12207764344E+03  0.10993483251E+04  0.11511433931E+04  0.12500000000E+03 0.  0.
         25    1    1    2    0    0  0.74224289180E+02  0.95662136313E+02  0.26509488687E+03  0.31711321081E+03  0.12500000000E+03 0.  0.
         25    1    1    2    0    0 -0.36754394534E+03 -0.21773977976E+03  0.64118316342E+03  0.78053828381E+03  0.12500000000E+03 0.  0.
</event>
<event>
 5    0  0.6194134E-005  0.2817661E+03  0.7546771E-02  0.1094728E+00
         21   -1    0    0  502  501  0.00000000000E+00  0.00000000000E+00  0.15640330806E+03  0.15640330806E+03  0.00000000000E+00 0. -1.
         21   -1    0    0  501  502 -0.00000000000E+00 -0.00000000000E+00 -0.50761144608E+03  0.50761144608E+03  0.00000000000E+00 0. -1.
         25    1    1    2    0    0 -0.11788525310E+03 -0.36980072364E+01 -0.14425346404E+03  0.22437617976E+03  0.12500000000E+03 0.  0.
         25    1    1    2    0    0 -0.36668835099E+02  0.21222917741E+02 -0.20043121261E+03  0.23998476346E+03  0.12500000000E+03 0.  0.
         25    1    1    2    0    0  0.15455408820E+03 -0.17524910505E+02 -0.65234613831E+01  0.19965381092E+03  0.12500000000E+03 0.  0.
</event>
<event>
 5    0  0.5815084E-005  0.3300003E+03  0.7546771E-02  0.1071137E+00
         21   -1    0    0  502  501  0.00000000000E+00  0.00000000000E+00  0.22583018433E+03  0.22583018433E+03  0.00000000000E+00 0.  1.
         21   -1    0    0  501  502 -0.00000000000E+00 -0.00000000000E+00 -0.48222175027E+03  0.48222175027E+03  0.00000000000E+00 0.  1.
         25    1    1    2    0    0  0.12901055318E+03 -0.30911394006E+01 -0.95448798512E+02  0.20344225498E+03  0.12500000000E+03 0.  0.
         25    1    1    2    0    0 -0.52982383015E+02 -0.19053493692E+03 -0.58305150768E+02  0.24111239226E+03  0.12500000000E+03 0.  0.
         25    1    1    2    0    0 -0.76028170164E+02  0.19362607632E+03 -0.10263761666E+03  0.26349728736E+03  0.12500000000E+03 0.  0.
</event>
<event>
 5    0  0.5815084E-005  0.2731056E+03  0.7546771E-02  0.1099515E+00
         21   -1    0    0  502  501  0.00000000000E+00  0.00000000000E+00  0.54717557792E+03  0.54717557792E+03  0.00000000000E+00 0.  1.
         21   -1    0    0  501  502 -0.00000000000E+00 -0.00000000000E+00 -0.13631210198E+03  0.13631210198E+03  0.00000000000E+00 0.  1.
         25    1    1    2    0    0  0.19682707440E+02 -0.10247488944E+02  0.57353467965E+02  0.13930843582E+03  0.12500000000E+03 0.  0.
         25    1    1    2    0    0  0.64303759897E+02 -0.13760675677E+03  0.21671403767E+03  0.29267826562E+03  0.12500000000E+03 0.  0.
         25    1    1    2    0    0 -0.83986467338E+02  0.14785424572E+03  0.13679597031E+03  0.25150097846E+03  0.12500000000E+03 0.  0.
</event>
<event>
 5    0  0.5815084E-005  0.2807131E+03  0.7546771E-02  0.1095300E+00
         21   -1    0    0  502  501  0.00000000000E+00  0.00000000000E+00  0.10041609474E+04  0.10041609474E+04  0.00000000000E+00 0.  1.
         21   -1    0    0  501  502 -0.00000000000E+00 -0.00000000000E+00 -0.78473348336E+02  0.78473348336E+02  0.00000000000E+00 0.  1.
         25    1    1    2    0    0 -0.87238948875E+02 -0.56375412802E+02  0.22055353346E+03  0.27396657185E+03  0.12500000000E+03 0.  0.
         25    1    1    2    0    0 -0.72089486737E+01  0.11057576620E+03  0.57246038285E+03  0.59633451933E+03  0.12500000000E+03 0.  0.
         25    1    1    2    0    0  0.94447897549E+02 -0.54200353395E+02  0.13267368274E+03  0.21233320454E+03  0.12500000000E+03 0.  0.
</event>
<event>
 5    0  0.5815084E-005  0.3323642E+03  0.7546771E-02  0.1070096E+00
         21   -1    0    0  502  501  0.00000000000E+00  0.00000000000E+00  0.62846082139E+03  0.62846082139E+03  0.00000000000E+00 0.  1.
         21   -1    0    0  501  502 -0.00000000000E+00 -0.00000000000E+00 -0.17577217954E+03  0.17577217954E+03  0.00000000000E+00 0.  1.
         25    1    1    2    0    0 -0.92444112601E+02  0.60325213171E+02 -0.46940199862E+02  0.17324383874E+03  0.12500000000E+03 0.  0.
         25    1    1    2    0    0  0.16766389137E+03  0.14031627867E+02  0.20093960905E+03  0.29036148769E+03  0.12500000000E+03 0.  0.
         25    1    1    2    0    0 -0.75219778764E+02 -0.74356841038E+02  0.29868923267E+03  0.34062767450E+03  0.12500000000E+03 0.  0.
</event>
<event>
 5    0  0.5815084E-005  0.3569706E+03  0.7546771E-02  0.1059790E+00
         21   -1    0    0  502  501  0.00000000000E+00  0.00000000000E+00  0.10888004704E+04  0.10888004704E+04  0.00000000000E+00 0.  1.
         21   -1    0    0  501  502 -0.00000000000E+00 -0.00000000000E+00 -0.11703522292E+03  0.11703522292E+03  0.00000000000E+00 0.  1.
         25    1    1    2    0    0 -0.18247253855E+03  0.18623295434E+03  0.58607090592E+03  0.65351591211E+03  0.12500000000E+03 0.  0.
         25    1    1    2    0    0  0.12330913380E+03 -0.17989535553E+03  0.20308502533E+03  0.32316560604E+03  0.12500000000E+03 0.  0.
         25    1    1    2    0    0  0.59163404748E+02 -0.63375988179E+01  0.18260931619E+03  0.22915417513E+03  0.12500000000E+03 0.  0.
</event>
<event>
 5    0  0.5815084E-005  0.2562206E+03  0.7546771E-02  0.1109435E+00
         21   -1    0    0  502  501  0.00000000000E+00  0.00000000000E+00  0.15433302333E+04  0.15433302333E+04  0.00000000000E+00 0. -1.
         21   -1    0    0  501  502 -0.00000000000E+00 -0.00000000000E+00 -0.42537244343E+02  0.42537244343E+02  0.00000000000E+00 0. -1.
         25    1    1    2    0    0  0.70472264549E+02 -0.86817578779E+02  0.35158306154E+03  0.38953726551E+03  0.12500000000E+03 0.  0.
         25    1    1    2    0    0 -0.16627847567E+02  0.12734723893E+02  0.21678238466E+03  0.25111403944E+03  0.12500000000E+03 0.  0.
         25    1    1    2    0    0 -0.53844416982E+02  0.74082854886E+02  0.93242754279E+03  0.94521617272E+03  0.12500000000E+03 0.  0.
</event>
<event>
 5    0  0.5815084E-005  0.3395618E+03  0.7546771E-02  0.1066983E+00
         21   -1    0    0  502  501  0.00000000000E+00  0.00000000000E+00  0.48750026294E+03  0.48750026294E+03  0.00000000000E+00 0.  1.
         21   -1    0    0  501  502 -0.00000000000E+00 -0.00000000000E+00 -0.23651723826E+03  0.23651723826E+03  0.00000000000E+00 0.  1.
         25    1    1    2    0    0 -0.28325775011E+02  0.51394786534E+02  0.69096745972E+02  0.15441222075E+03  0.12500000000E+03 0.  0.
         25    1    1    2    0    0  0.15723701544E+03 -0.64379345480E+02 -0.10133074766E+03  0.23401089626E+03  0.12500000000E+03 0.  0.
         25    1    1    2    0    0 -0.12891124043E+03  0.12984558945E+02  0.28321702637E+03  0.33559438420E+03  0.12500000000E+03 0.  0.
</event>
<event>
 5    0  0.5815084E-005  0.3795217E+03  0.7546771E-02  0.1051111E+00
         21   -1    0    0  502  501  0.00000000000E+00  0.00000000000E+00  0.18397576244E+04  0.18397576244E+04  0.00000000000E+00 0.  1.
         21   -1    0    0  501  502 -0.00000000000E+00 -0.00000000000E+00 -0.78291121924E+02  0.78291121924E+02  0.00000000000E+00 0.  1.
         25    1    1    2    0    0 -0.21814316943E+03 -0.14575835737E+02  0.47199911820E+03  0.53498323799E+03  0.12500000000E+03 0.  0.
         25    1    1    2    0    0 -0.10984312177E+02 -0.12218547039E+03  0.73030412153E+03  0.75101202002E+03  0.12500000000E+03 0.  0.
         25    1    1    2    0    0  0.22912748160E+03  0.13676130613E+03  0.55916326277E+03  0.63205348833E+03  0.12500000000E+03 0.  0.
</event>
<event>
 5    0  0.6935651E-005  0.3171003E+03  0.7546771E-02  0.1076992E+00
         21   -1    0    0  502  501  0.00000000000E+00  0.00000000000E+00  0.12029380706E+03  0.12029380706E+03  0.00000000000E+00 0. -1.
         21   -1    0    0  501  502 -0.00000000000E+00 -0.00000000000E+00 -0.83589148595E+03  0.83589148595E+03  0.00000000000E+00 0. -1.
         25    1    1    2    0    0 -0.19242877653E+03 -0.54985319444E+02 -0.31538931688E+03  0.39388785281E+03  0.12500000000E+03 0.  0.
         25    1    1    2    0    0  0.86311441174E+02  0.96466076736E+01 -0.30372574292E+02  0.15521022900E+03  0.12500000000E+03 0.  0.
         25    1    1    2    0    0  0.10611733536E+03  0.45338711770E+02 -0.36983578771E+03  0.40708721120E+03  0.12500000000E+03 0.  0.
</event>
<event>
 5    0  0.5815084E-005  0.2483557E+03  0.7546771E-02  0.1114348E+00
         21   -1    0    0  502  501  0.00000000000E+00  0.00000000000E+00  0.14833117104E+04  0.14833117104E+04  0.00000000000E+00 0.  1.
         21   -1    0    0  501  502 -0.00000000000E+00 -0.00000000000E+00 -0.41583017318E+02  0.41583017318E+02  0.00000000000E+00 0.  1.
         25    1    1    2    0    0  0.24884636364E+02  0.48453440313E+02  0.76505409603E+03  0.77710987052E+03  0.12500000000E+03 0.  0.
         25    1    1    2    0    0 -0.65810477916E+02  0.42251584369E+02  0.42326206595E+03  0.44820976323E+03  0.12500000000E+03 0.  0.
         25    1    1    2    0    0  0.40925841552E+02 -0.90705024682E+02  0.25341253114E+03  0.29957509400E+03  0.12500000000E+03 0.  0.
</event>
<event>
 5    0  0.5815084E-005  0.6265023E+03  0.7546771E-02  0.9851898E-01
         21   -1    0    0  502  501  0.00000000000E+00  0.00000000000E+00  0.10336940222E+04  0.10336940222E+04  0.00000000000E+00 0. -1.
         21   -1    0    0  501  502 -0.00000000000E+00 -0.00000000000E+00 -0.37971119666E+03  0.37971119666E+03  0.00000000000E+00 0. -1.
         25    1    1    2    0    0  0.14328359051E+02 -0.77242280220E+02 -0.49110422732E+02  0.15559082668E+03  0.12500000000E+03 0.  0.
         25    1    1    2    0    0 -0.41844168196E+03  0.22567156461E+03  0.92300174936E+02  0.50016539122E+03  0.12500000000E+03 0.  0.
         25    1    1    2    0    0  0.40411332291E+03 -0.14842928439E+03  0.61079307328E+03  0.75764900092E+03  0.12500000000E+03 0.  0.
</event>
<event>
 5    0  0.5815084E-005  0.3010221E+03  0.7546771E-02  0.1084731E+00
         21   -1    0    0  502  501  0.00000000000E+00  0.00000000000E+00  0.12841336328E+04  0.12841336328E+04  0.00000000000E+00 0. -1.
         21   -1    0    0  501  502 -0.00000000000E+00 -0.00000000000E+00 -0.70564536625E+02  0.70564536625E+02  0.00000000000E+00 0. -1.
         25    1    1    2    0    0 -0.18623423387E+03  0.29815992706E+02  0.68386265119E+03  0.72032305876E+03  0.12500000000E+03 0.  0.
         25    1    1    2    0    0  0.13198273086E+03  0.50368532945E+02  0.32424953756E+03  0.37512556959E+03  0.12500000000E+03 0.  0.
         25    1    1    2    0    0  0.54251503011E+02 -0.80184525650E+02  0.20545690738E+03  0.25924954103E+03  0.12500000000E+03 0.  0.
</event>
<event>
 5    0  0.5815084E-005  0.3686365E+03  0.7546771E-02  0.1055216E+00
         21   -1    0    0  502  501  0.00000000000E+00  0.00000000000E+00  0.23345409920E+03  0.23345409920E+03  0.00000000000E+00 0. -1.
         21   -1    0    0  501  502 -0.00000000000E+00 -0.00000000000E+00 -0.58209659511E+03  0.58209659511E+03  0.00000000000E+00 0. -1.
         25    1    1    2    0    0 -0.36577656112E+02  0.53521966125E+01  0.12916450396E+03  0.18350760208E+03  0.12500000000E+03 0.  0.
         25    1    1    2    0    0 -0.86881531110E+02 -0.10058285451E+03 -0.35036105803E+03  0.39502301459E+03  0.12500000000E+03 0.  0.
         25    1    1    2    0    0  0.12345918722E+03  0.95230657899E+02 -0.12744594184E+03  0.23702007764E+03  0.12500000000E+03 0.  0.
</event>
<event>
 5    0  0.5815084E-005  0.5767121E+03  0.7546771E-02  0.9954935E-01
         21   -1    0    0  502  501  0.00000000000E+00  0.00000000000E+00  0.24219002581E+03  0.24219002581E+03  0.00000000000E+00 0.  1.
         21   -1    0    0  501  502 -0.00000000000E+00 -0.00000000000E+00 -0.13732888756E+04  0.13732888756E+04  0.00000000000E+00 0.  1.
         25    1    1    2    0    0 -0.23976350295E+03 -0.27486014326E+03 -0.97658770182E+03  0.10499443676E+04  0.12500000000E+03 0.  0.
         25    1    1    2    0    0 -0.42978778257E+02  0.28267337729E+01 -0.39427136701E+02  0.13796617307E+03  0.12500000000E+03 0.  0.
         25    1    1    2    0    0  0.28274228121E+03  0.27203340949E+03 -0.11508401128E+03  0.42756836075E+03  0.12500000000E+03 0.  0.
</event>
<event>
 5    0  0.5815084E-005  0.3904202E+03  0.7546771E-02  0.1047148E+00
         21   -1    0    0  502  501  0.00000000000E+00  0.00000000000E+00  0.43934212701E+03  0.43934212701E+03  0.00000000000E+00 0.  1.
         21   -1    0    0  501  502 -0.00000000000E+00 -0.00000000000E+00 -0.34694594125E+03  0.34694594125E+03  0.00000000000E+00 0.  1.
         25    1    1    2    0    0  0.83047839119E+02 -0.12344321497E+03 -0.20444222468E+02  0.19539226478E+03  0.12500000000E+03 0.  0.
         25    1    1    2    0    0  0.11062904319E+03 -0.90694533930E+02  0.18815508894E+03  0.26737917117E+03  0.12500000000E+03 0.  0.
         25    1    1    2    0    0 -0.19367688231E+03  0.21413774890E+03 -0.75314680717E+02  0.32351663230E+03  0.12500000000E+03 0.  0.
</event>
<event>
 5    0  0.5815084E-005  0.2710333E+03  0.7546771E-02  0.1100690E+00
         21   -1    0    0  502  501  0.00000000000E+00  0.00000000000E+00  0.71836085903E+02  0.71836085903E+02  0.00000000000E+00 0. -1.
         21   -1    0    0  501  502 -0.00000000000E+00 -0.00000000000E+00 -0.10225928096E+04  0.10225928096E+04  0.00000000000E+00 0. -1.
         25    1    1    2    0    0  0.35071088734E+02 -0.37048492489E+02 -0.22596776964E+03  0.26322804747E+03  0.12500000000E+03 0.  0.
         25    1    1    2    0    0 -0.14438222556E+02  0.11158348841E+03 -0.63952969846E+03  0.66127344750E+03  0.12500000000E+03 0.  0.
         25    1    1    2    0    0 -0.20632866178E+02 -0.74534995922E+02 -0.85259255585E+02  0.16992740052E+03  0.12500000000E+03 0.  0.
</event>
<event>
 5    0  0.5815084E-005  0.3300957E+03  0.7546771E-02  0.1071095E+00
         21   -1    0    0  502  501  0.00000000000E+00  0.00000000000E+00  0.78708685507E+02  0.78708685507E+02  0.00000000000E+00 0. -1.
         21   -1    0    0  501  502 -0.00000000000E+00 -0.00000000000E+00 -0.13843859156E+04  0.13843859156E+04  0.00000000000E+00 0. -1.
         25    1    1    2    0    0 -0.25521895210E+01 -0.15076041877E+03 -0.36836289765E+03  0.41719472900E+03  0.12500000000E+03 0.  0.
         25    1    1    2    0    0  0.91610362730E+02  0.21083942341E+03 -0.76012858197E+03  0.80390682429E+03  0.12500000000E+03 0.  0.
         25    1    1    2    0    0 -0.89058173209E+02 -0.60079004642E+02 -0.17718575044E+03  0.24199304778E+03  0.12500000000E+03 0.  0.
</event>
<event>
 5    0  0.6092248E-005  0.3506759E+03  0.7546771E-02  0.1062338E+00
         21   -1    0    0  502  501  0.00000000000E+00  0.00000000000E+00  0.64941895707E+03  0.64941895707E+03  0.00000000000E+00 0. -1.
         21   -1    0    0  501  502 -0.00000000000E+00 -0.00000000000E+00 -0.18935942175E+03  0.18935942175E+03  0.00000000000E+00 0. -1.
         25    1    1    2    0    0 -0.16209616244E+03 -0.11682235966E+03  0.32330941233E+03  0.40009574566E+03  0.12500000000E+03 0.  0.
         25    1    1    2    0    0  0.30336947506E+02  0.18242515010E+03  0.62533281107E+02  0.23180741364E+03  0.12500000000E+03 0.  0.
         25    1    1    2    0    0  0.13175921493E+03 -0.65602790437E+02  0.74216841879E+02  0.20687521952E+03  0.12500000000E+03 0.  0.
</event>
<event>
 5    0  0.5815084E-005  0.2787185E+03  0.7546771E-02  0.1096391E+00
         21   -1    0    0  502  501  0.00000000000E+00  0.00000000000E+00  0.51517491118E+03  0.51517491118E+03  0.00000000000E+00 0. -1.
         21   -1    0    0  501  502 -0.00000000000E+00 -0.00000000000E+00 -0.15079145578E+03  0.15079145578E+03  0.00000000000E+00 0. -1.
         25    1    1    2    0    0 -0.76797521730E+01 -0.43333077275E+02  0.14868880222E+03  0.19917352757E+03  0.12500000000E+03 0.  0.
         25    1    1    2    0    0 -0.66816955564E+02 -0.64910780113E+02  0.23753452425E+03  0.28412244743E+03  0.12500000000E+03 0.  0.
         25    1    1    2    0    0  0.74496707737E+02  0.10824385739E+03 -0.21839871071E+02  0.18267039195E+03  0.12500000000E+03 0.  0.
</event>
<event>
 5    0  0.5815084E-005  0.3441983E+03  0.7546771E-02  0.1065022E+00
         21   -1    0    0  502  501  0.00000000000E+00  0.00000000000E+00  0.59601036731E+02  0.59601036731E+02  0.00000000000E+00 0. -1.
         21   -1    0    0  501  502 -0.00000000000E+00 -0.00000000000E+00 -0.19877584115E+04  0.19877584115E+04  0.00000000000E+00 0. -1.
         25    1    1    2    0    0 -0.13028455913E+03 -0.13952179014E+03 -0.36018424182E+03  0.42637786566E+03  0.12500000000E+03 0.  0.
         25    1    1    2    0    0 -0.20682704181E+02  0.16983814272E+03 -0.86408177498E+03  0.88968257420E+03  0.12500000000E+03 0.  0.
         25    1    1    2    0    0  0.15096726331E+03 -0.30316352581E+02 -0.70389135794E+03  0.73129900834E+03  0.12500000000E+03 0.  0.
</event>
<event>
 5    0  0.5815084E-005  0.3179440E+03  0.7546771E-02  0.1076599E+00
         21   -1    0    0  502  501  0.00000000000E+00  0.00000000000E+00  0.31642416931E+03  0.31642416931E+03  0.00000000000E+00 0. -1.
         21   -1    0    0  501  502 -0.00000000000E+00 -0.00000000000E+00 -0.31947109429E+03  0.31947109429E+03  0.00000000000E+00 0. -1.
         25    1    1    2    0    0  0.11885686481E+03 -0.30485338847E+02 -0.10705124078E+03  0.20528340983E+03  0.12500000000E+03 0.  0.
         25    1    1    2    0    0 -0.21113248206E+03  0.15746025641E+02  0.52444921152E+01  0.24592146511E+03  0.12500000000E+03 0.  0.
         25    1    1    2    0    0  0.92275617247E+02  0.14739313206E+02  0.98759823689E+02  0.18469038867E+03  0.12500000000E+03 0.  0.
</event>
<event>
 5    0  0.6418335E-005  0.2878685E+03  0.7546771E-02  0.1091467E+00
         21   -1    0    0  502  501  0.00000000000E+00  0.00000000000E+00  0.14989370958E+03  0.14989370958E+03  0.00000000000E+00 0. -1.
         21   -1    0    0  501  502 -0.00000000000E+00 -0.00000000000E+00 -0.55284677691E+03  0.55284677691E+03  0.00000000000E+00 0. -1.
         25    1    1    2    0    0  0.19984401377E+02  0.11377116039E+03 -0.12402912800E+03  0.21059790556E+03  0.12500000000E+03 0.  0.
         25    1    1    2    0    0 -0.11775377875E+03  0.46629836105E+02 -0.99601303290E+02  0.20392575522E+03  0.12500000000E+03 0.  0.
         25    1    1    2    0    0  0.97769377373E+02 -0.16040099649E+03 -0.17932263604E+03  0.28821682571E+03  0.12500000000E+03 0.  0.
</event>
<event>
 5    0  0.5815084E-005  0.2945485E+03  0.7546771E-02  0.1087998E+00
         21   -1    0    0  502  501  0.00000000000E+00  0.00000000000E+00  0.67867463069E+03  0.67867463069E+03  0.00000000000E+00 0.  1.
         21   -1    0    0  501  502 -0.00000000000E+00 -0.00000000000E+00 -0.12783570024E+03  0.12783570024E+03  0.00000000000E+00 0.  1.
         25    1    1    2    0    0  0.10032877388E+03  0.14360572896E+03  0.13548813869E+03  0.25430395983E+03  0.12500000000E+03 0.  0.
         25    1    1    2    0    0 -0.97313907475E+01 -0.16508913372E+03  0.21977594201E+03  0.30211849782E+03  0.12500000000E+03 0.  0.
         25    1    1    2    0    0 -0.90597383136E+02  0.21483404756E+02  0.19557484974E+03  0.25008787328E+03  0.12500000000E+03 0.  0.
</event>
<event>
 5    0  0.5815084E-005  0.2333925E+03  0.7546771E-02  0.1124275E+00
         21   -1    0    0  502  501  0.00000000000E+00  0.00000000000E+00  0.40554506277E+02  0.40554506277E+02  0.00000000000E+00 0.  1.
         21   -1    0    0  501  502 -0.00000000000E+00 -0.00000000000E+00 -0.13431811968E+04  0.13431811968E+04  0.00000000000E+00 0.  1.
         25    1    1    2    0    0 -0.22463499377E+02  0.24345073054E+02 -0.13367434854E+03  0.18598688890E+03  0.12500000000E+03 0.  0.
         25    1    1    2    0    0 -0.18714649970E+02 -0.12322437010E+02 -0.50066165926E+03  0.51651638660E+03  0.12500000000E+03 0.  0.
         25    1    1    2    0    0  0.41178149347E+02 -0.12022636044E+02 -0.66829068277E+03  0.68123242761E+03  0.12500000000E+03 0.  0.
</event>
<event>
 5    0  0.5815084E-005  0.2283700E+03  0.7546771E-02  0.1127792E+00
         21   -1    0    0  502  501  0.00000000000E+00  0.00000000000E+00  0.12462223516E+03  0.12462223516E+03  0.00000000000E+00 0. -1.
         21   -1    0    0  501  502 -0.00000000000E+00 -0.00000000000E+00 -0.41848765601E+03  0.41848765601E+03  0.00000000000E+00 0. -1.
         25    1    1    2    0    0 -0.56644724692E+02 -0.21946860921E+02 -0.85032833466E+01  0.13923934562E+03  0.12500000000E+03 0.  0.
         25    1    1    2    0    0  0.36655020293E+02 -0.50365960410E+02 -0.14959898152E+03  0.20465868111E+03  0.12500000000E+03 0.  0.
         25    1    1    2    0    0  0.19989704399E+02  0.72312821331E+02 -0.13576315599E+03  0.19921186444E+03  0.12500000000E+03 0.  0.
</event>
<event>
 5    0  0.5815084E-005  0.2009549E+03  0.7546771E-02  0.1148936E+00
         21   -1    0    0  502  501  0.00000000000E+00  0.00000000000E+00  0.48269197931E+03  0.48269197931E+03  0.00000000000E+00 0.  1.
         21   -1    0    0  501  502 -0.00000000000E+00 -0.00000000000E+00 -0.83661752597E+02  0.83661752597E+02  0.00000000000E+00 0.  1.
         25    1    1    2    0    0 -0.62208128724E+01 -0.44372598089E+02  0.17885312831E+03  0.22275786738E+03  0.12500000000E+03 0.  0.
         25    1    1    2    0    0  0.53660706863E+01  0.57079034995E+02  0.12672818120E+03  0.18700760108E+03  0.12500000000E+03 0.  0.
         25    1    1    2    0    0  0.85474218612E+00 -0.12706436906E+02  0.93448917204E+02  0.15658826345E+03  0.12500000000E+03 0.  0.
</event>
<event>
 5    0  0.5815084E-005  0.3037763E+03  0.7546771E-02  0.1083368E+00
         21   -1    0    0  502  501  0.00000000000E+00  0.00000000000E+00  0.16034518014E+04  0.16034518014E+04  0.00000000000E+00 0.  1.
         21   -1    0    0  501  502 -0.00000000000E+00 -0.00000000000E+00 -0.57550855451E+02  0.57550855451E+02  0.00000000000E+00 0.  1.
         25    1    1    2    0    0  0.80789392235E+02 -0.13002509491E+02  0.79906309878E+02  0.16942847904E+03  0.12500000000E+03 0.  0.
         25    1    1    2    0    0 -0.20850606053E+02 -0.24850251975E+02  0.78867781504E+03  0.79918081729E+03  0.12500000000E+03 0.  0.
         25    1    1    2    0    0 -0.59938786182E+02  0.37852761466E+02  0.67731682106E+03  0.69239336055E+03  0.12500000000E+03 0.  0.
</event>
<event>
 5    0  0.5815084E-005  0.3605694E+03  0.7546771E-02  0.1058359E+00
         21   -1    0    0  502  501  0.00000000000E+00  0.00000000000E+00  0.34676008053E+03  0.34676008053E+03  0.00000000000E+00 0. -1.
         21   -1    0    0  501  502 -0.00000000000E+00 -0.00000000000E+00 -0.37492865147E+03  0.37492865147E+03  0.00000000000E+00 0. -1.
         25    1    1    2    0    0 -0.29368674443E+03 -0.34895489141E+02 -0.61585218872E+02  0.32693629073E+03  0.12500000000E+03 0.  0.
         25    1    1    2    0    0  0.16634008098E+03  0.50380220895E+02  0.13012215915E+02  0.21447961898E+03  0.12500000000E+03 0.  0.
         25    1    1    2    0    0  0.12734666345E+03 -0.15484731754E+02  0.20404432014E+02  0.18027282229E+03  0.12500000000E+03 0.  0.
</event>
<event>
 5    0  0.5815084E-005  0.2908344E+03  0.7546771E-02  0.1089914E+00
         21   -1    0    0  502  501  0.00000000000E+00  0.00000000000E+00  0.25046925835E+03  0.25046925835E+03  0.00000000000E+00 0.  1.
         21   -1    0    0  501  502 -0.00000000000E+00 -0.00000000000E+00 -0.33770464904E+03  0.33770464904E+03  0.00000000000E+00 0.  1.
         25    1    1    2    0    0  0.91101780849E+02 -0.48451737713E+02  0.10452992151E+03  0.19286941140E+03  0.12500000000E+03 0.  0.
         25    1    1    2    0    0 -0.67680815900E+02 -0.72914213911E+02 -0.44126554028E+02  0.16573873476E+03  0.12500000000E+03 0.  0.
         25    1    1    2    0    0 -0.23420964949E+02  0.12136595162E+03 -0.14763875817E+03  0.22956576122E+03  0.12500000000E+03 0.  0.
</event>
<event>
 5    0  0.5815084E-005  0.2640948E+03  0.7546771E-02  0.1104708E+00
         21   -1    0    0  502  501  0.00000000000E+00  0.00000000000E+00  0.31900191066E+02  0.31900191066E+02  0.00000000000E+00 0. -1.
         21   -1    0    0  501  502 -0.00000000000E+00 -0.00000000000E+00 -0.21863843263E+04  0.21863843263E+04  0.00000000000E+00 0. -1.
         25    1    1    2    0    0 -0.72933566691E+02 -0.36896199370E+02 -0.29850774667E+03  0.33378512474E+03  0.12500000000E+03 0.  0.
         25    1    1    2    0    0 -0.43865733203E+02  0.37689637500E+02 -0.53300564951E+03  0.55051315491E+03  0.12500000000E+03 0.  0.
         25    1    1    2    0    0  0.11679929989E+03 -0.79343813043E+00 -0.13229707391E+04  0.13339862378E+04  0.12500000000E+03 0.  0.
</event>
<event>
 5    0  0.5959984E-005  0.2999148E+03  0.7546771E-02  0.1085283E+00
         21   -1    0    0  502  501  0.00000000000E+00  0.00000000000E+00  0.55587900020E+03  0.55587900020E+03  0.00000000000E+00 0.  1.
         21   -1    0    0  501  502 -0.00000000000E+00 -0.00000000000E+00 -0.16181382961E+03  0.16181382961E+03  0.00000000000E+00 0.  1.
         25    1    1    2    0    0  0.85980537643E+02  0.13177844307E+02  0.15162229336E+03  0.21489678517E+03  0.12500000000E+03 0.  0.
         25    1    1    2    0    0 -0.18899983997E+03 -0.46139711010E+02  0.29343865731E+02  0.23310056820E+03  0.12500000000E+03 0.  0.
         25    1    1    2    0    0  0.10301930233E+03  0.32961866703E+02  0.21309901150E+03  0.26969547644E+03  0.12500000000E+03 0.  0.
</event>
<event>
 5    0  0.5815084E-005  0.3626385E+03  0.7546771E-02  0.1057544E+00
         21   -1    0    0  502  501  0.00000000000E+00  0.00000000000E+00  0.81204497998E+02  0.81204497998E+02  0.00000000000E+00 0.  1.
         21   -1    0    0  501  502 -0.00000000000E+00 -0.00000000000E+00 -0.16194510011E+04  0.16194510011E+04  0.00000000000E+00 0.  1.
         25    1    1    2    0    0  0.15755843686E+02 -0.23387212243E+03 -0.84137677574E+03  0.88231757039E+03  0.12500000000E+03 0.  0.
         25    1    1    2    0    0  0.30412475131E+02  0.10761496801E+03 -0.57260741430E+03  0.59666586202E+03  0.12500000000E+03 0.  0.
         25    1    1    2    0    0 -0.46168318817E+02  0.12625715443E+03 -0.12426231307E+03  0.22167206670E+03  0.12500000000E+03 0.  0.
</event>
<event>
 5    0  0.5815084E-005  0.3432128E+03  0.7546771E-02  0.1065436E+00
         21   -1    0    0  502  501  0.00000000000E+00  0.00000000000E+00  0.43803103012E+03  0.43803103012E+03  0.00000000000E+00 0. -1.
         21   -1    0    0  501  502 -0.00000000000E+00 -0.00000000000E+00 -0.26891932415E+03  0.26891932415E+03  0.00000000000E+00 0. -1.
         25    1    1    2    0    0 -0.77576461772E+02  0.96435995491E+02  0.72031269262E+02  0.19008290928E+03  0.12500000000E+03 0.  0.
         25    1    1    2    0    0  0.12823326862E+03 -0.17347043647E+03  0.20907216758E+03  0.32537967786E+03  0.12500000000E+03 0.  0.
         25    1    1    2    0    0 -0.50656806844E+02  0.77034440975E+02 -0.11199173087E+03  0.19148776713E+03  0.12500000000E+03 0.  0.
</event>
<event>
 5    0  0.5815084E-005  0.3175701E+03  0.7546771E-02  0.1076773E+00
         21   -1    0    0  502  501  0.00000000000E+00  0.00000000000E+00  0.27352875149E+03  0.27352875149E+03  0.00000000000E+00 0. -1.
         21   -1    0    0  501  502 -0.00000000000E+00 -0.00000000000E+00 -0.36870266624E+03  0.36870266624E+03  0.00000000000E+00 0. -1.
         25    1    1    2    0    0 -0.16582852153E+03 -0.32479923171E+02 -0.51606526347E+02  0.21643076843E+03  0.12500000000E+03 0.  0.
         25    1    1    2    0    0 -0.52989270952E+02  0.59668796230E+02  0.48653696764E+02  0.15607821849E+03  0.12500000000E+03 0.  0.
         25    1    1    2    0    0  0.21881779249E+03 -0.27188873059E+02 -0.92221085164E+02  0.26972243080E+03  0.12500000000E+03 0.  0.
</event>
<event>
 5    0  0.5815084E-005  0.3671144E+03  0.7546771E-02  0.1055802E+00
         21   -1    0    0  502  501  0.00000000000E+00  0.00000000000E+00  0.72191196073E+03  0.72191196073E+03  0.00000000000E+00 0. -1.
         21   -1    0    0  501  502 -0.00000000000E+00 -0.00000000000E+00 -0.18668891239E+03  0.18668891239E+03  0.00000000000E+00 0. -1.
         25    1    1    2    0    0 -0.23236374139E+03  0.22000107626E+02  0.86401883335E+02  0.27850888404E+03  0.12500000000E+03 0.  0.
         25    1    1    2    0    0  0.16771018694E+03 -0.14150522343E+03  0.21144641135E+03  0.32937064218E+03  0.12500000000E+03 0.  0.
         25    1    1    2    0    0  0.64653554444E+02  0.11950511580E+03  0.23737475365E+03  0.30072134689E+03  0.12500000000E+03 0.  0.
</event>
<event>
 5    0  0.5815084E-005  0.3542347E+03  0.7546771E-02  0.1060890E+00
         21   -1    0    0  502  501  0.00000000000E+00  0.00000000000E+00  0.79661291220E+02  0.79661291220E+02  0.00000000000E+00 0. -1.
         21   -1    0    0  501  502 -0.00000000000E+00 -0.00000000000E+00 -0.15751969549E+04  0.15751969549E+04  0.00000000000E+00 0. -1.
         25    1    1    2    0    0  0.89649946937E+02  0.75087952573E+02 -0.17132028222E+03  0.24217958772E+03  0.12500000000E+03 0.  0.
         25    1    1    2    0    0  0.26696721829E+02 -0.35315961338E+02 -0.11749520862E+04  0.11824116614E+04  0.12500000000E+03 0.  0.
         25    1    1    2    0    0 -0.11634666877E+03 -0.39771991235E+02 -0.14926329532E+03  0.23026699709E+03  0.12500000000E+03 0.  0.
</event>
<event>
 5    0  0.5815084E-005  0.2837357E+03  0.7546771E-02  0.1093666E+00
         21   -1    0    0  502  501  0.00000000000E+00  0.00000000000E+00  0.21707538967E+03  0.21707538967E+03  0.00000000000E+00 0. -1.
         21   -1    0    0  501  502 -0.00000000000E+00 -0.00000000000E+00 -0.37086628751E+03  0.37086628751E+03  0.00000000000E+00 0. -1.
         25    1    1    2    0    0  0.13535750864E+03 -0.27488194395E+02 -0.11249024280E+03  0.21761505164E+03  0.12500000000E+03 0.  0.
         25    1    1    2    0    0 -0.49009174452E+02  0.12761057306E+03 -0.33291673048E+02  0.18820120359E+03  0.12500000000E+03 0.  0.
         25    1    1    2    0    0 -0.86348334186E+02 -0.10012237867E+03 -0.80089819943E+01  0.18212542195E+03  0.12500000000E+03 0.  0.
</event>
<event>
 5    0  0.5815084E-005  0.4784420E+03  0.7546771E-02  0.1019564E+00
         21   -1    0    0  502  501  0.00000000000E+00  0.00000000000E+00  0.12107502798E+04  0.12107502798E+04  0.00000000000E+00 0.  1.
         21   -1    0    0  501  502 -0.00000000000E+00 -0.00000000000E+00 -0.18906191651E+03  0.18906191651E+03  0.00000000000E+00 0.  1.
         25    1    1    2    0    0  0.29844651089E+03 -0.12159952065E+02  0.32262052267E+03  0.45708553461E+03  0.12500000000E+03 0.  0.
         25    1    1    2    0    0 -0.25006837887E+03 -0.22198868979E+03  0.33473208333E+03  0.48937075936E+03  0.12500000000E+03 0.  0.
         25    1    1    2    0    0 -0.48378132024E+02  0.23414864186E+03  0.36433575730E+03  0.45335590234E+03  0.12500000000E+03 0.  0.
</event>
<event>
 5    0  0.5815084E-005  0.2568962E+03  0.7546771E-02  0.1109023E+00
         21   -1    0    0  502  501  0.00000000000E+00  0.00000000000E+00  0.68229684507E+03  0.68229684507E+03  0.00000000000E+00 0.  1.
         21   -1    0    0  501  502 -0.00000000000E+00 -0.00000000000E+00 -0.96725729463E+02  0.96725729463E+02  0.00000000000E+00 0.  1.
         25    1    1    2    0    0 -0.63636238669E+02 -0.22092189314E+00  0.43473423363E+02  0.14684875967E+03  0.12500000000E+03 0.  0.
         25    1    1    2    0    0 -0.93044840604E+00 -0.62731175463E+02  0.12526205145E+03  0.18775422137E+03  0.12500000000E+03 0.  0.
         25    1    1    2    0    0  0.64566687075E+02  0.62952097356E+02  0.41683564079E+03  0.44441959349E+03  0.12500000000E+03 0.  0.
</event>
<event>
 5    0  0.5815084E-005  0.3256848E+03  0.7546771E-02  0.1073062E+00
         21   -1    0    0  502  501  0.00000000000E+00  0.00000000000E+00  0.12585321671E+03  0.12585321671E+03  0.00000000000E+00 0.  1.
         21   -1    0    0  501  502 -0.00000000000E+00 -0.00000000000E+00 -0.84281212033E+03  0.84281212033E+03  0.00000000000E+00 0.  1.
         25    1    1    2    0    0 -0.19443001270E+03 -0.51994606711E+02 -0.12966371148E+03  0.27008174140E+03  0.12500000000E+03 0.  0.
         25    1    1    2    0    0  0.69263684326E+01 -0.44883632543E+02 -0.20494463946E+03  0.24431500218E+03  0.12500000000E+03 0.  0.
         25    1    1    2    0    0  0.18750364427E+03  0.96878239254E+02 -0.38235055269E+03  0.45426859345E+03  0.12500000000E+03 0.  0.
</event>
<event>
 5    0  0.5815084E-005  0.3719153E+03  0.7546771E-02  0.1053963E+00
         21   -1    0    0  502  501  0.00000000000E+00  0.00000000000E+00  0.23784138347E+04  0.23784138347E+04  0.00000000000E+00 0.  1.
         21   -1    0    0  501  502 -0.00000000000E+00 -0.00000000000E+00 -0.58156837665E+02  0.58156837665E+02  0.00000000000E+00 0. -1.
         25    1    1    2    0    0  0.36859265667E+01  0.13504000150E+02  0.53337229896E+03  0.54800269467E+03  0.12500000000E+03 0.  0.
         25    1    1    2    0    0 -0.15821826412E+03 -0.17779843377E+03  0.42794851733E+03  0.50538127749E+03  0.12500000000E+03 0.  0.
         25    1    1    2    0    0  0.15453233756E+03  0.16429443362E+03  0.13589361807E+04  0.13831867002E+04  0.12500000000E+03 0.  0.
</event>
<event>
 5    0  0.5815084E-005  0.3168875E+03  0.7546771E-02  0.1077091E+00
         21   -1    0    0  502  501  0.00000000000E+00  0.00000000000E+00  0.50773918535E+03  0.50773918535E+03  0.00000000000E+00 0.  1.
         21   -1    0    0  501  502 -0.00000000000E+00 -0.00000000000E+00 -0.19777421190E+03  0.19777421190E+03  0.00000000000E+00 0.  1.
         25    1    1    2    0    0  0.22624404273E+02  0.42717215356E+02  0.17933280251E+03  0.22387915985E+03  0.12500000000E+03 0.  0.
         25    1    1    2    0    0  0.15775644690E+03  0.19752189867E+02 -0.27378443299E+02  0.20408778675E+03  0.12500000000E+03 0.  0.
         25    1    1    2    0    0 -0.18038085117E+03 -0.62469405223E+02  0.15801061424E+03  0.27754645065E+03  0.12500000000E+03 0.  0.
</event>
<event>
 5    0  0.5815084E-005  0.2915221E+03  0.7546771E-02  0.1089557E+00
         21   -1    0    0  502  501  0.00000000000E+00  0.00000000000E+00  0.58215460751E+03  0.58215460751E+03  0.00000000000E+00 0.  1.
         21   -1    0    0  501  502 -0.00000000000E+00 -0.00000000000E+00 -0.14598380877E+03  0.14598380877E+03  0.00000000000E+00 0.  1.
         25    1    1    2    0    0 -0.15055754447E+02  0.67738300725E+02  0.40196477195E+02  0.14851232240E+03  0.12500000000E+03 0.  0.
         25    1    1    2    0    0  0.74311713360E+02 -0.13704537265E+03  0.58238425703E+02  0.20813548265E+03  0.12500000000E+03 0.  0.
         25    1    1    2    0    0 -0.59255958913E+02  0.69307071929E+02  0.33773589584E+03  0.37149061122E+03  0.12500000000E+03 0.  0.
</event>
<event>
 5    0  0.5815084E-005  0.4326522E+03  0.7546771E-02  0.1033025E+00
         21   -1    0    0  502  501  0.00000000000E+00  0.00000000000E+00  0.14076118426E+03  0.14076118426E+03  0.00000000000E+00 0. -1.
         21   -1    0    0  501  502 -0.00000000000E+00 -0.00000000000E+00 -0.13298263259E+04  0.13298263259E+04  0.00000000000E+00 0. -1.
         25    1    1    2    0    0  0.11366612571E+02  0.15986452561E+03 -0.13463216062E+03  0.24379640093E+03  0.12500000000E+03 0.  0.
         25    1    1    2    0    0  0.15219656478E+02  0.16317076478E+03 -0.14153249375E+03  0.25002556511E+03  0.12500000000E+03 0.  0.
         25    1    1    2    0    0 -0.26586269049E+02 -0.32303529039E+03 -0.91290048730E+03  0.97676554416E+03  0.12500000000E+03 0.  0.
</event>
<event>
 5    0  0.5815084E-005  0.4238556E+03  0.7546771E-02  0.1035819E+00
         21   -1    0    0  502  501  0.00000000000E+00  0.00000000000E+00  0.34261406161E+03  0.34261406161E+03  0.00000000000E+00 0. -1.
         21   -1    0    0  501  502 -0.00000000000E+00 -0.00000000000E+00 -0.52436128692E+03  0.52436128692E+03  0.00000000000E+00 0. -1.
         25    1    1    2    0    0  0.60879308320E+02 -0.16706029148E+03 -0.97299185497E+02  0.23813349758E+03  0.12500000000E+03 0.  0.
         25    1    1    2    0    0 -0.24877006309E+03  0.80157934639E+02 -0.20860522569E+03  0.35700557274E+03  0.12500000000E+03 0.  0.
         25    1    1    2    0    0  0.18789075477E+03  0.86902356837E+02  0.12415718588E+03  0.27183627822E+03  0.12500000000E+03 0.  0.
</event>
<event>
 5    0  0.5815084E-005  0.4702058E+03  0.7546771E-02  0.1021862E+00
         21   -1    0    0  502  501  0.00000000000E+00  0.00000000000E+00  0.49645759547E+03  0.49645759547E+03  0.00000000000E+00 0. -1.
         21   -1    0    0  501  502 -0.00000000000E+00 -0.00000000000E+00 -0.44534212202E+03  0.44534212202E+03  0.00000000000E+00 0. -1.
         25    1    1    2    0    0 -0.18590218639E+03  0.68839803238E+02  0.27408635766E+03  0.36062012266E+03  0.12500000000E+03 0.  0.
         25    1    1    2    0    0  0.11703778335E+03  0.16574064727E+03 -0.18885530133E+02  0.23905954936E+03  0.12500000000E+03 0.  0.
         25    1    1    2    0    0  0.68864403036E+02 -0.23458045051E+03 -0.20408535407E+03  0.34212004547E+03  0.12500000000E+03 0.  0.
</event>
<event>
 5    0  0.5815084E-005  0.3088261E+03  0.7546771E-02  0.1080910E+00
         21   -1    0    0  502  501  0.00000000000E+00  0.00000000000E+00  0.56256585260E+03  0.56256585260E+03  0.00000000000E+00 0. -1.
         21   -1    0    0  501  502 -0.00000000000E+00 -0.00000000000E+00 -0.16953310262E+03  0.16953310262E+03  0.00000000000E+00 0. -1.
         25    1    1    2    0    0  0.72261705304E+02 -0.74350309871E+02  0.29594364928E+03  0.33757571918E+03  0.12500000000E+03 0.  0.
         25    1    1    2    0    0  0.13781079296E+02 -0.66832162405E+02  0.11968294158E+03  0.18602543531E+03  0.12500000000E+03 0.  0.
         25    1    1    2    0    0 -0.86042784600E+02  0.14118247228E+03 -0.22593840876E+02  0.20849780072E+03  0.12500000000E+03 0.  0.
</event>
<event>
 5    0  0.5815084E-005  0.2838249E+03  0.7546771E-02  0.1093618E+00
         21   -1    0    0  502  501  0.00000000000E+00  0.00000000000E+00  0.20927317688E+03  0.20927317688E+03  0.00000000000E+00 0. -1.
         21   -1    0    0  501  502 -0.00000000000E+00 -0.00000000000E+00 -0.38493489196E+03  0.38493489196E+03  0.00000000000E+00 0. -1.
         25    1    1    2    0    0  0.53130145592E+02 -0.11359150259E+03 -0.11124701151E+03  0.20910939578E+03  0.12500000000E+03 0.  0.
         25    1    1    2    0    0 -0.26159568691E+02 -0.54399761386E+02  0.46780260683E+02  0.14648225102E+03  0.12500000000E+03 0.  0.
         25    1    1    2    0    0 -0.26970576901E+02  0.16799126398E+03 -0.11119496425E+03  0.23861642204E+03  0.12500000000E+03 0.  0.
</event>
<event>
 5    0  0.5815084E-005  0.4284026E+03  0.7546771E-02  0.1034366E+00
         21   -1    0    0  502  501  0.00000000000E+00  0.00000000000E+00  0.15374430130E+03  0.15374430130E+03  0.00000000000E+00 0.  1.
         21   -1    0    0  501  502 -0.00000000000E+00 -0.00000000000E+00 -0.11937276745E+04  0.11937276745E+04  0.00000000000E+00 0.  1.
         25    1    1    2    0    0  0.18179615262E+03  0.99593522801E+02 -0.56521312541E+03  0.61486550401E+03  0.12500000000E+03 0.  0.
         25    1    1    2    0    0  0.40877853687E+02  0.10560841807E+03 -0.33772958713E+03  0.37750551110E+03  0.12500000000E+03 0.  0.
         25    1    1    2    0    0 -0.22267400630E+03 -0.20520194087E+03 -0.13704066070E+03  0.35510096072E+03  0.12500000000E+03 0.  0.
</event>
<event>
 5    0  0.5815084E-005  0.2671511E+03  0.7546771E-02  0.1102921E+00
         21   -1    0    0  502  501  0.00000000000E+00  0.00000000000E+00  0.45580086007E+03  0.45580086007E+03  0.00000000000E+00 0.  1.
         21   -1    0    0  501  502 -0.00000000000E+00 -0.00000000000E+00 -0.15658091400E+03  0.15658091400E+03  0.00000000000E+00 0.  1.
         25    1    1    2    0    0  0.90050907383E+01  0.58246037084E+02  0.11107631677E+03  0.17730380888E+03  0.12500000000E+03 0.  0.
         25    1    1    2    0    0 -0.73569283832E+02 -0.92939676060E+02 -0.28333319992E+02  0.17457949459E+03  0.12500000000E+03 0.  0.
         25    1    1    2    0    0  0.64564193094E+02  0.34693638976E+02  0.21647694929E+03  0.26049847060E+03  0.12500000000E+03 0.  0.
</event>
<event>
 5    0  0.5815084E-005  0.2533275E+03  0.7546771E-02  0.1111220E+00
         21   -1    0    0  502  501  0.00000000000E+00  0.00000000000E+00  0.10051374823E+04  0.10051374823E+04  0.00000000000E+00 0.  1.
         21   -1    0    0  501  502 -0.00000000000E+00 -0.00000000000E+00 -0.63846808234E+02  0.63846808234E+02  0.00000000000E+00 0.  1.
         25    1    1    2    0    0  0.19105740604E+02  0.87751814682E+02  0.93168192504E+02  0.17991865495E+03  0.12500000000E+03 0.  0.
         25    1    1    2    0    0 -0.23654484528E+00 -0.36068929590E+02  0.41941500241E+03  0.43912978478E+03  0.12500000000E+03 0.  0.
         25    1    1    2    0    0 -0.18869195759E+02 -0.51682885091E+02  0.42870747918E+03  0.44993585083E+03  0.12500000000E+03 0.  0.
</event>
<event>
 5    0  0.5815084E-005  0.5068455E+03  0.7546771E-02  0.1012007E+00
         21   -1    0    0  502  501  0.00000000000E+00  0.00000000000E+00  0.60971456338E+03  0.60971456338E+03  0.00000000000E+00 0. -1.
         21   -1    0    0  501  502 -0.00000000000E+00 -0.00000000000E+00 -0.42133212512E+03  0.42133212512E+03  0.00000000000E+00 0. -1.
         25    1    1    2    0    0 -0.29233743887E+03 -0.26044951144E+03 -0.18646142709E+02  0.41142168734E+03  0.12500000000E+03 0.  0.
         25    1    1    2    0    0  0.33341811434E+03  0.16947092315E+03  0.53609653174E+02  0.39797867741E+03  0.12500000000E+03 0.  0.
         25    1    1    2    0    0 -0.41080675462E+02  0.90978588287E+02  0.15341892780E+03  0.22164632375E+03  0.12500000000E+03 0.  0.
</event>
<event>
 5    0  0.5815084E-005  0.3246586E+03  0.7546771E-02  0.1073525E+00
         21   -1    0    0  502  501  0.00000000000E+00  0.00000000000E+00  0.29497258631E+03  0.29497258631E+03  0.00000000000E+00 0.  1.
         21   -1    0    0  501  502 -0.00000000000E+00 -0.00000000000E+00 -0.35733212102E+03  0.35733212102E+03  0.00000000000E+00 0.  1.
         25    1    1    2    0    0  0.10281773191E+03 -0.47799332365E+02  0.17075272870E+03  0.24007864655E+03  0.12500000000E+03 0.  0.
         25    1    1    2    0    0 -0.11005851199E+02 -0.62035687630E+02 -0.14886755269E+03  0.20434310251E+03  0.12500000000E+03 0.  0.
         25    1    1    2    0    0 -0.91811880716E+02  0.10983501999E+03 -0.84244710716E+02  0.20788295828E+03  0.12500000000E+03 0.  0.
</event>
<event>
 5    0  0.5815084E-005  0.2644066E+03  0.7546771E-02  0.1104524E+00
         21   -1    0    0  502  501  0.00000000000E+00  0.00000000000E+00  0.23900317122E+03  0.23900317122E+03  0.00000000000E+00 0.  1.
         21   -1    0    0  501  502 -0.00000000000E+00 -0.00000000000E+00 -0.29251016749E+03  0.29251016749E+03  0.00000000000E+00 0.  1.
         25    1    1    2    0    0 -0.41365937253E+02  0.73092440213E+02 -0.97876934296E+02  0.17960662529E+03  0.12500000000E+03 0.  0.
         25    1    1    2    0    0  0.11731996661E+03 -0.87851617870E+02 -0.15323340455E+02  0.19323997022E+03  0.12500000000E+03 0.  0.
         25    1    1    2    0    0 -0.75954029361E+02  0.14759177657E+02  0.59693278475E+02  0.15866674320E+03  0.12500000000E+03 0.  0.
</event>
<event>
 5    0  0.5815084E-005  0.2713445E+03  0.7546771E-02  0.1100513E+00
         21   -1    0    0  502  501  0.00000000000E+00  0.00000000000E+00  0.22592224427E+03  0.22592224427E+03  0.00000000000E+00 0. -1.
         21   -1    0    0  501  502 -0.00000000000E+00 -0.00000000000E+00 -0.32589891072E+03  0.32589891072E+03  0.00000000000E+00 0. -1.
         25    1    1    2    0    0 -0.13372657214E+01  0.92951679647E+02 -0.14804627669E+03  0.21490580046E+03  0.12500000000E+03 0.  0.
         25    1    1    2    0    0  0.13663395138E+02  0.49731065446E+02 -0.16343727431E+02  0.13620567045E+03  0.12500000000E+03 0.  0.
         25    1    1    2    0    0 -0.12326129416E+02 -0.14268274509E+03  0.64413337672E+02  0.20070968408E+03  0.12500000000E+03 0.  0.
</event>
<event>
 5    0  0.5815084E-005  0.2699582E+03  0.7546771E-02  0.1101304E+00
         21   -1    0    0  502  501  0.00000000000E+00  0.00000000000E+00  0.19726806077E+04  0.19726806077E+04  0.00000000000E+00 0. -1.
         21   -1    0    0  501  502 -0.00000000000E+00 -0.00000000000E+00 -0.36943358938E+02  0.36943358938E+02  0.00000000000E+00 0. -1.
         25    1    1    2    0    0  0.14185288030E+03 -0.74009855552E+02  0.52722971753E+03  0.56497422367E+03  0.12500000000E+03 0.  0.
         25    1    1    2    0    0 -0.10029545182E+03  0.78326062502E+02  0.98793004194E+03  0.10039048349E+04  0.12500000000E+03 0.  0.
         25    1    1    2    0    0 -0.41557428481E+02 -0.43162069500E+01  0.42057748924E+03  0.44074490804E+03  0.12500000000E+03 0.  0.
</event>
<event>
 5    0  0.5815084E-005  0.2928749E+03  0.7546771E-02  0.1088858E+00
         21   -1    0    0  502  501  0.00000000000E+00  0.00000000000E+00  0.29505119717E+03  0.29505119717E+03  0.00000000000E+00 0.  1.
         21   -1    0    0  501  502 -0.00000000000E+00 -0.00000000000E+00 -0.29071468866E+03  0.29071468866E+03  0.00000000000E+00 0.  1.
         25    1    1    2    0    0 -0.70578601575E+02 -0.49233360806E+02 -0.17928709348E+03  0.23489172975E+03  0.12500000000E+03 0.  0.
         25    1    1    2    0    0  0.70977867471E+02 -0.33499503176E+02  0.10861702528E+03  0.18325592096E+03  0.12500000000E+03 0.  0.
         25    1    1    2    0    0 -0.39926589658E+00  0.82732863982E+02  0.75006576704E+02  0.16761823512E+03  0.12500000000E+03 0.  0.
</event>
<event>
 5    0  0.5815084E-005  0.3016855E+03  0.7546771E-02  0.1084401E+00
         21   -1    0    0  502  501  0.00000000000E+00  0.00000000000E+00  0.25505449582E+03  0.25505449582E+03  0.00000000000E+00 0.  1.
         21   -1    0    0  501  502 -0.00000000000E+00 -0.00000000000E+00 -0.35684185911E+03  0.35684185911E+03  0.00000000000E+00 0.  1.
         25    1    1    2    0    0  0.17716979056E+03 -0.14909858354E+02 -0.11599264764E+03  0.24635489212E+03  0.12500000000E+03 0.  0.
         25    1    1    2    0    0 -0.30906741617E+02 -0.70284431462E+02  0.43694898466E+02  0.15306656113E+03  0.12500000000E+03 0.  0.
         25    1    1    2    0    0 -0.14626304894E+03  0.85194289816E+02 -0.29489614114E+02  0.21247490168E+03  0.12500000000E+03 0.  0.
</event>
<event>
 5    0  0.5815084E-005  0.2492241E+03  0.7546771E-02  0.1113796E+00
         21   -1    0    0  502  501  0.00000000000E+00  0.00000000000E+00  0.20802232151E+03  0.20802232151E+03  0.00000000000E+00 0.  1.
         21   -1    0    0  501  502 -0.00000000000E+00 -0.00000000000E+00 -0.29858651003E+03  0.29858651003E+03  0.00000000000E+00 0.  1.
         25    1    1    2    0    0  0.30303926796E+02 -0.16431591946E+02 -0.42053921685E+01  0.12973438448E+03  0.12500000000E+03 0.  0.
         25    1    1    2    0    0 -0.87904141872E+02  0.15925893779E+02 -0.15912125211E+03  0.22119074376E+03  0.12500000000E+03 0.  0.
         25    1    1    2    0    0  0.57600215076E+02  0.50569816626E+00  0.72762455761E+02  0.15568370331E+03  0.12500000000E+03 0.  0.
</event>
<event>
 5    0  0.5815084E-005  0.2244526E+03  0.7546771E-02  0.1130606E+00
         21   -1    0    0  502  501  0.00000000000E+00  0.00000000000E+00  0.19738789732E+03  0.19738789732E+03  0.00000000000E+00 0. -1.
         21   -1    0    0  501  502 -0.00000000000E+00 -0.00000000000E+00 -0.25522826082E+03  0.25522826082E+03  0.00000000000E+00 0. -1.
         25    1    1    2    0    0 -0.42712605538E+02  0.23030614895E+01 -0.86471508424E+02  0.15789867806E+03  0.12500000000E+03 0.  0.
         25    1    1    2    0    0  0.60456205670E+02 -0.47001172282E+02  0.57922289168E+02  0.15761996886E+03  0.12500000000E+03 0.  0.
         25    1    1    2    0    0 -0.17743600132E+02  0.44698110793E+02 -0.29291144240E+02  0.13709751123E+03  0.12500000000E+03 0.  0.
</event>
<event>
 5    0  0.5815084E-005  0.3711069E+03  0.7546771E-02  0.1054271E+00
         21   -1    0    0  502  501  0.00000000000E+00  0.00000000000E+00  0.16678103721E+04  0.16678103721E+04  0.00000000000E+00 0.  1.
         21   -1    0    0  501  502 -0.00000000000E+00 -0.00000000000E+00 -0.82575519742E+02  0.82575519742E+02  0.00000000000E+00 0.  1.
         25    1    1    2    0    0  0.53701304604E+02 -0.12572545816E+03  0.11700703747E+04  0.11846435762E+04  0.12500000000E+03 0.  0.
         25    1    1    2    0    0 -0.73012400908E+02  0.32730939862E+02  0.37557658984E+03  0.40383771487E+03  0.12500000000E+03 0.  0.
         25    1    1    2    0    0  0.19311096304E+02  0.92994518301E+02  0.39587887786E+02  0.16190460072E+03  0.12500000000E+03 0.  0.
</event>
<event>
 5    0  0.5815084E-005  0.3112509E+03  0.7546771E-02  0.1079748E+00
         21   -1    0    0  502  501  0.00000000000E+00  0.00000000000E+00  0.22491182784E+03  0.22491182784E+03  0.00000000000E+00 0. -1.
         21   -1    0    0  501  502 -0.00000000000E+00 -0.00000000000E+00 -0.43073368697E+03  0.43073368697E+03  0.00000000000E+00 0. -1.
         25    1    1    2    0    0  0.15876942374E+03  0.10380446494E+03 -0.17919501806E+03  0.28934227371E+03  0.12500000000E+03 0.  0.
         25    1    1    2    0    0 -0.74154178368E+02 -0.93546770873E+02  0.70333446438E+02  0.18660555779E+03  0.12500000000E+03 0.  0.
         25    1    1    2    0    0 -0.84615245369E+02 -0.10257694072E+02 -0.96960287501E+02  0.17969768332E+03  0.12500000000E+03 0.  0.
</event>
<event>
 5    0  0.5815084E-005  0.2786281E+03  0.7546771E-02  0.1096441E+00
         21   -1    0    0  502  501  0.00000000000E+00  0.00000000000E+00  0.49676872140E+03  0.49676872140E+03  0.00000000000E+00 0.  1.
         21   -1    0    0  501  502 -0.00000000000E+00 -0.00000000000E+00 -0.15627714125E+03  0.15627714125E+03  0.00000000000E+00 0.  1.
         25    1    1    2    0    0 -0.13540052311E+03 -0.10835613215E+02  0.27256103540E+03  0.32918874554E+03  0.12500000000E+03 0.  0.
         25    1    1    2    0    0  0.36317015526E+02 -0.51619927589E+02  0.12450740101E+01  0.14003604090E+03  0.12500000000E+03 0.  0.
         25    1    1    2    0    0  0.99083507580E+02  0.62455540805E+02  0.66685470741E+02  0.18382107621E+03  0.12500000000E+03 0.  0.
</event>
<event>
 5    0  0.6225094E-005  0.2762418E+03  0.7546771E-02  0.1097759E+00
         21   -1    0    0  502  501  0.00000000000E+00  0.00000000000E+00  0.27739280363E+03  0.27739280363E+03  0.00000000000E+00 0.  1.
         21   -1    0    0  501  502 -0.00000000000E+00 -0.00000000000E+00 -0.27509548352E+03  0.27509548352E+03  0.00000000000E+00 0.  1.
         25    1    1    2    0    0 -0.10835856387E+03  0.14137601459E+03 -0.23144735676E+02  0.21883654781E+03  0.12500000000E+03 0.  0.
         25    1    1    2    0    0  0.36813776811E+02 -0.84385154404E+02 -0.47631107295E+02  0.16238790235E+03  0.12500000000E+03 0.  0.
         25    1    1    2    0    0  0.71544787058E+02 -0.56990860189E+02  0.73073163085E+02  0.17126383700E+03  0.12500000000E+03 0.  0.
</event>
<event>
 5    0  0.5815084E-005  0.2676831E+03  0.7546771E-02  0.1102613E+00
         21   -1    0    0  502  501  0.00000000000E+00  0.00000000000E+00  0.18080368222E+03  0.18080368222E+03  0.00000000000E+00 0. -1.
         21   -1    0    0  501  502 -0.00000000000E+00 -0.00000000000E+00 -0.39630957378E+03  0.39630957378E+03  0.00000000000E+00 0. -1.
         25    1    1    2    0    0  0.19886062712E+02 -0.60935986832E+02  0.41225402334E+02  0.14640076427E+03  0.12500000000E+03 0.  0.
         25    1    1    2    0    0  0.23687011669E+01  0.12510180327E+03 -0.22279487437E+03  0.28446199742E+03  0.12500000000E+03 0.  0.
         25    1    1    2    0    0 -0.22254763879E+02 -0.64165816443E+02 -0.33936419524E+02  0.14625049431E+03  0.12500000000E+03 0.  0.
</event>
<event>
 5    0  0.5815084E-005  0.3384602E+03  0.7546771E-02  0.1067454E+00
         21   -1    0    0  502  501  0.00000000000E+00  0.00000000000E+00  0.14405541309E+04  0.14405541309E+04  0.00000000000E+00 0.  1.
         21   -1    0    0  501  502 -0.00000000000E+00 -0.00000000000E+00 -0.79521712780E+02  0.79521712780E+02  0.00000000000E+00 0.  1.
         25    1    1    2    0    0  0.14981059386E+02  0.88727924088E+02  0.66244673689E+03  0.68011598707E+03  0.12500000000E+03 0.  0.
         25    1    1    2    0    0  0.15182529456E+03 -0.12021526257E+03  0.22750555607E+03  0.32386171040E+03  0.12500000000E+03 0.  0.
         25    1    1    2    0    0 -0.16680635394E+03  0.31487338481E+02  0.47108012520E+03  0.51609814625E+03  0.12500000000E+03 0.  0.
</event>
<event>
 5    0  0.5815084E-005  0.3865454E+03  0.7546771E-02  0.1048541E+00
         21   -1    0    0  502  501  0.00000000000E+00  0.00000000000E+00  0.39473207863E+03  0.39473207863E+03  0.00000000000E+00 0. -1.
         21   -1    0    0  501  502 -0.00000000000E+00 -0.00000000000E+00 -0.37852854185E+03  0.37852854185E+03  0.00000000000E+00 0. -1.
         25    1    1    2    0    0 -0.43036746520E+02 -0.16298115773E+02  0.19987600785E+03  0.24019410618E+03  0.12500000000E+03 0.  0.
         25    1    1    2    0    0 -0.16117229148E+03  0.20290206161E+02 -0.20842829571E+03  0.29232782019E+03  0.12500000000E+03 0.  0.
         25    1    1    2    0    0  0.20420903800E+03 -0.39920903884E+01  0.24755824643E+02  0.24073869411E+03  0.12500000000E+03 0.  0.
</event>
<event>
 5    0  0.5815084E-005  0.2950118E+03  0.7546771E-02  0.1087761E+00
         21   -1    0    0  502  501  0.00000000000E+00  0.00000000000E+00  0.43113145290E+03  0.43113145290E+03  0.00000000000E+00 0.  1.
         21   -1    0    0  501  502 -0.00000000000E+00 -0.00000000000E+00 -0.20186867421E+03  0.20186867421E+03  0.00000000000E+00 0.  1.
         25    1    1    2    0    0 -0.58605814799E+02  0.35281908563E+02  0.99650112578E+00  0.14249718458E+03  0.12500000000E+03 0.  0.
         25    1    1    2    0    0  0.18445113196E+03  0.32617152708E+02  0.19458054668E+03  0.29761163935E+03  0.12500000000E+03 0.  0.
         25    1    1    2    0    0 -0.12584531716E+03 -0.67899061271E+02  0.33685730885E+02  0.19289130317E+03  0.12500000000E+03 0.  0.
</event>
<event>
 5    0  0.5815084E-005  0.3162379E+03  0.7546771E-02  0.1077394E+00
         21   -1    0    0  502  501  0.00000000000E+00  0.00000000000E+00  0.97925272664E+03  0.97925272664E+03  0.00000000000E+00 0. -1.
         21   -1    0    0  501  502 -0.00000000000E+00 -0.00000000000E+00 -0.10212523949E+03  0.10212523949E+03  0.00000000000E+00 0. -1.
         25    1    1    2    0    0 -0.98268682660E+02 -0.10545281834E+03  0.48630265233E+03  0.52239094608E+03  0.12500000000E+03 0.  0.
         25    1    1    2    0    0  0.10087429664E+03  0.65491537895E+02  0.39097592668E+03  0.42772881654E+03  0.12500000000E+03 0.  0.
         25    1    1    2    0    0 -0.26056139828E+01  0.39961280446E+02 -0.15109185483E+00  0.13125820351E+03  0.12500000000E+03 0.  0.
</event>
<event>
 5    0  0.5815084E-005  0.3476496E+03  0.7546771E-02  0.1063584E+00
         21   -1    0    0  502  501  0.00000000000E+00  0.00000000000E+00  0.33205161529E+03  0.33205161529E+03  0.00000000000E+00 0. -1.
         21   -1    0    0  501  502 -0.00000000000E+00 -0.00000000000E+00 -0.36398023324E+03  0.36398023324E+03  0.00000000000E+00 0. -1.
         25    1    1    2    0    0  0.69260433630E+02  0.13300000002E+03 -0.26409339408E+02  0.19699863167E+03  0.12500000000E+03 0.  0.
         25    1    1    2    0    0 -0.71630096104E+02 -0.16405201065E+03  0.17322606452E+03  0.27870450713E+03  0.12500000000E+03 0.  0.
         25    1    1    2    0    0  0.23696624742E+01  0.31052010633E+02 -0.17874534307E+03  0.22032870973E+03  0.12500000000E+03 0.  0.
</event>
<event>
 5    0  0.5815084E-005  0.8784389E+03  0.7546771E-02  0.9452943E-01
         21   -1    0    0  502  501  0.00000000000E+00  0.00000000000E+00  0.11415294527E+04  0.11415294527E+04  0.00000000000E+00 0. -1.
         21   -1    0    0  501  502 -0.00000000000E+00 -0.00000000000E+00 -0.67598327629E+03  0.67598327629E+03  0.00000000000E+00 0. -1.
         25    1    1    2    0    0  0.67906820692E+02 -0.11278023997E+03  0.94482134065E+02  0.20465236984E+03  0.12500000000E+03 0.  0.
         25    1    1    2    0    0 -0.43558149288E+03  0.27957526133E+03  0.83180363090E+03  0.98763143129E+03  0.12500000000E+03 0.  0.
         25    1    1    2    0    0  0.36767467218E+03 -0.16679502137E+03 -0.46073958858E+03  0.62522892784E+03  0.12500000000E+03 0.  0.
</event>
<event>
 5    0  0.5815084E-005  0.2926308E+03  0.7546771E-02  0.1088984E+00
         21   -1    0    0  502  501  0.00000000000E+00  0.00000000000E+00  0.41917998155E+03  0.41917998155E+03  0.00000000000E+00 0. -1.
         21   -1    0    0  501  502 -0.00000000000E+00 -0.00000000000E+00 -0.20428638475E+03  0.20428638475E+03  0.00000000000E+00 0. -1.
         25    1    1    2    0    0 -0.15636039924E+03 -0.20120790784E+01  0.22011919710E+03  0.29754005419E+03  0.12500000000E+03 0.  0.
         25    1    1    2    0    0  0.15697131887E+03  0.67174717897E+01 -0.50014864916E+01  0.20083608799E+03  0.12500000000E+03 0.  0.
         25    1    1    2    0    0 -0.61091962091E+00 -0.47053927113E+01 -0.22411380451E+00  0.12509022412E+03  0.12500000000E+03 0.  0.
</event>
<event>
 5    0  0.5815084E-005  0.3066273E+03  0.7546771E-02  0.1081974E+00
         21   -1    0    0  502  501  0.00000000000E+00  0.00000000000E+00  0.65949374775E+03  0.65949374775E+03  0.00000000000E+00 0.  1.
         21   -1    0    0  501  502 -0.00000000000E+00 -0.00000000000E+00 -0.14256437399E+03  0.14256437399E+03  0.00000000000E+00 0.  1.
         25    1    1    2    0    0  0.66505030126E+02 -0.17561568978E+03  0.82121113295E+02  0.24006804614E+03  0.12500000000E+03 0.  0.
         25    1    1    2    0    0 -0.48716950706E+02  0.17619199043E+03  0.21590851265E+03  0.30928699393E+03  0.12500000000E+03 0.  0.
         25    1    1    2    0    0 -0.17788079420E+02 -0.57630065002E+00  0.21889974781E+03  0.25270308167E+03  0.12500000000E+03 0.  0.
</event>
<event>
 5    0  0.5815084E-005  0.2271617E+03  0.7546771E-02  0.1128654E+00
         21   -1    0    0  502  501  0.00000000000E+00  0.00000000000E+00  0.43085712843E+03  0.43085712843E+03  0.00000000000E+00 0.  1.
         21   -1    0    0  501  502 -0.00000000000E+00 -0.00000000000E+00 -0.11976689976E+03  0.11976689976E+03  0.00000000000E+00 0.  1.
         25    1    1    2    0    0  0.71391203484E+02 -0.28810633762E+02  0.13157894055E+03  0.19714150793E+03  0.12500000000E+03 0.  0.
         25    1    1    2    0    0 -0.83124699304E+02 -0.46632248175E+02  0.79764383353E+02  0.17627149247E+03  0.12500000000E+03 0.  0.
         25    1    1    2    0    0  0.11733495819E+02  0.75442881937E+02  0.99746904774E+02  0.17721102779E+03  0.12500000000E+03 0.  0.
</event>
<event>
 5    0  0.5815084E-005  0.3168964E+03  0.7546771E-02  0.1077087E+00
         21   -1    0    0  502  501  0.00000000000E+00  0.00000000000E+00  0.10018279943E+03  0.10018279943E+03  0.00000000000E+00 0. -1.
         21   -1    0    0  501  502 -0.00000000000E+00 -0.00000000000E+00 -0.10024006533E+04  0.10024006533E+04  0.00000000000E+00 0. -1.
         25    1    1    2    0    0 -0.76469716308E+02 -0.33463998691E+02 -0.38760888320E+02  0.15522520151E+03  0.12500000000E+03 0.  0.
         25    1    1    2    0    0  0.10933345717E+03  0.12477764911E+03 -0.32147927250E+03  0.38274951237E+03  0.12500000000E+03 0.  0.
         25    1    1    2    0    0 -0.32863740861E+02 -0.91313650423E+02 -0.54197769305E+03  0.56460873884E+03  0.12500000000E+03 0.  0.
</event>
<event>
 5    0  0.5815084E-005  0.2723885E+03  0.7546771E-02  0.1099920E+00
         21   -1    0    0  502  501  0.00000000000E+00  0.00000000000E+00  0.11039511926E+03  0.11039511926E+03  0.00000000000E+00 0. -1.
         21   -1    0    0  501  502 -0.00000000000E+00 -0.00000000000E+00 -0.67209023559E+03  0.67209023559E+03  0.00000000000E+00 0.  1.
         25    1    1    2    0    0 -0.17184328074E+01 -0.14709133192E+03 -0.14223425533E+03  0.23977989141E+03  0.12500000000E+03 0.  0.
         25    1    1    2    0    0 -0.51525100244E+02  0.59829454039E+02 -0.32142686263E+03  0.35380026504E+03  0.12500000000E+03 0.  0.
         25    1    1    2    0    0  0.53243533052E+02  0.87261877878E+02 -0.98033998370E+02  0.18890519839E+03  0.12500000000E+03 0.  0.
</event>
<event>
 5    0  0.5815084E-005  0.3057703E+03  0.7546771E-02  0.1082391E+00
         21   -1    0    0  502  501  0.00000000000E+00  0.00000000000E+00  0.43636022243E+03  0.43636022243E+03  0.00000000000E+00 0.  1.
         21   -1    0    0  501  502 -0.00000000000E+00 -0.00000000000E+00 -0.21426219605E+03  0.21426219605E+03  0.00000000000E+00 0.  1.
         25    1    1    2    0    0  0.19847033089E+03 -0.64375681702E+01  0.56765345469E+02  0.24141089241E+03  0.12500000000E+03 0.  0.
         25    1    1    2    0    0 -0.14938445564E+03 -0.80036269066E+02  0.64173293852E+02  0.22014706811E+03  0.12500000000E+03 0.  0.
         25    1    1    2    0    0 -0.49085875243E+02  0.86473837236E+02  0.10115938706E+03  0.18906445796E+03  0.12500000000E+03 0.  0.
</event>
<event>
 5    0  0.5815084E-005  0.3936514E+03  0.7546771E-02  0.1046000E+00
         21   -1    0    0  502  501  0.00000000000E+00  0.00000000000E+00  0.21132565593E+04  0.21132565593E+04  0.00000000000E+00 0. -1.
         21   -1    0    0  501  502 -0.00000000000E+00 -0.00000000000E+00 -0.73328250788E+02  0.73328250788E+02  0.00000000000E+00 0. -1.
         25    1    1    2    0    0 -0.25811750759E+02 -0.19425660429E+02  0.34765688479E+03  0.37085564887E+03  0.12500000000E+03 0.  0.
         25    1    1    2    0    0  0.14381437536E+00  0.24144223767E+03  0.32061073808E+03  0.42036962330E+03  0.12500000000E+03 0.  0.
         25    1    1    2    0    0  0.25667936384E+02 -0.22201657725E+03  0.13716606856E+04  0.13953595379E+04  0.12500000000E+03 0.  0.
</event>
<event>
 5    0  0.5815084E-005  0.2534245E+03  0.7546771E-02  0.1111160E+00
         21   -1    0    0  502  501  0.00000000000E+00  0.00000000000E+00  0.22009441815E+03  0.22009441815E+03  0.00000000000E+00 0. -1.
         21   -1    0    0  501  502 -0.00000000000E+00 -0.00000000000E+00 -0.29180196794E+03  0.29180196794E+03  0.00000000000E+00 0. -1.
         25    1    1    2    0    0  0.77509980666E+02 -0.12338903744E+02  0.62010862072E+02  0.16009494890E+03  0.12500000000E+03 0.  0.
         25    1    1    2    0    0  0.52215117224E+02  0.38899544068E+02 -0.37489704248E+02  0.14584262381E+03  0.12500000000E+03 0.  0.
         25    1    1    2    0    0 -0.12972509789E+03 -0.26560640324E+02 -0.96228707619E+02  0.20595881338E+03  0.12500000000E+03 0.  0.
</event>
<event>
 5    0  0.5815084E-005  0.4850863E+03  0.7546771E-02  0.1017747E+00
         21   -1    0    0  502  501  0.00000000000E+00  0.00000000000E+00  0.18990423947E+03  0.18990423947E+03  0.00000000000E+00 0.  1.
         21   -1    0    0  501  502 -0.00000000000E+00 -0.00000000000E+00 -0.12390915554E+04  0.12390915554E+04  0.00000000000E+00 0.  1.
         25    1    1    2    0    0  0.10581136499E+03  0.18295807442E+03 -0.65506794470E+03  0.69957752546E+03  0.12500000000E+03 0.  0.
         25    1    1    2    0    0  0.97484381281E+02  0.41484919898E+02 -0.36551316770E+03  0.40056095533E+03  0.12500000000E+03 0.  0.
         25    1    1    2    0    0 -0.20329574627E+03 -0.22444299432E+03 -0.28606203553E+02  0.32885731409E+03  0.12500000000E+03 0.  0.
</event>
<event>
 5    0  0.5815084E-005  0.2261105E+03  0.7546771E-02  0.1129408E+00
         21   -1    0    0  502  501  0.00000000000E+00  0.00000000000E+00  0.28875189448E+02  0.28875189448E+02  0.00000000000E+00 0.  1.
         21   -1    0    0  501  502 -0.00000000000E+00 -0.00000000000E+00 -0.17705839478E+04  0.17705839478E+04  0.00000000000E+00 0.  1.
         25    1    1    2    0    0  0.42183825483E+02  0.60580435319E+02 -0.36829184792E+03  0.39587036959E+03  0.12500000000E+03 0.  0.
         25    1    1    2    0    0 -0.34954286421E+02  0.45647675602E+01 -0.41537150210E+03  0.43520239430E+03  0.12500000000E+03 0.  0.
         25    1    1    2    0    0 -0.72295390622E+01 -0.65145202879E+02 -0.95804540837E+03  0.96838637341E+03  0.12500000000E+03 0.  0.
</event>
<event>
 5    0  0.5815084E-005  0.3997868E+03  0.7546771E-02  0.1043854E+00
         21   -1    0    0  502  501  0.00000000000E+00  0.00000000000E+00  0.85822061810E+03  0.85822061810E+03  0.00000000000E+00 0.  1.
         21   -1    0    0  501  502 -0.00000000000E+00 -0.00000000000E+00 -0.18623357848E+03  0.18623357848E+03  0.00000000000E+00 0.  1.
         25    1    1    2    0    0  0.32379751546E+03  0.89957933341E+02  0.34922390993E+03  0.50051933036E+03  0.12500000000E+03 0.  0.
         25    1    1    2    0    0 -0.23193353643E+03 -0.87327585633E+02  0.24574446713E+03  0.37072174964E+03  0.12500000000E+03 0.  0.
         25    1    1    2    0    0 -0.91863979036E+02 -0.26303477082E+01  0.77018662557E+02  0.17321311658E+03  0.12500000000E+03 0.  0.
</event>
<event>
 5    0  0.5815084E-005  0.2220077E+03  0.7546771E-02  0.1132395E+00
         21   -1    0    0  502  501  0.00000000000E+00  0.00000000000E+00  0.42477667820E+02  0.42477667820E+02  0.00000000000E+00 0.  1.
         21   -1    0    0  501  502 -0.00000000000E+00 -0.00000000000E+00 -0.11603135075E+04  0.11603135075E+04  0.00000000000E+00 0.  1.
         25    1    1    2    0    0 -0.17679382049E+02  0.80791787552E+02 -0.54315035025E+03  0.56345113050E+03  0.12500000000E+03 0.  0.
         25    1    1    2    0    0 -0.89329652958E+01 -0.69928354300E+02 -0.38005792834E+03  0.40624967877E+03  0.12500000000E+03 0.  0.
         25    1    1    2    0    0  0.26612347345E+02 -0.10863433253E+02 -0.19462756112E+03  0.23309036608E+03  0.12500000000E+03 0.  0.
</event>
<event>
 5    0  0.5815084E-005  0.2596557E+03  0.7546771E-02  0.1107350E+00
         21   -1    0    0  502  501  0.00000000000E+00  0.00000000000E+00  0.80130680491E+02  0.80130680491E+02  0.00000000000E+00 0.  1.
         21   -1    0    0  501  502 -0.00000000000E+00 -0.00000000000E+00 -0.84138943199E+03  0.84138943199E+03  0.00000000000E+00 0.  1.
         25    1    1    2    0    0  0.33945640707E+02 -0.32976345310E+02 -0.50555024967E+03  0.52292045362E+03  0.12500000000E+03 0.  0.
         25    1    1    2    0    0 -0.55188587333E+02  0.60599759450E+02 -0.21640837293E+03  0.26301272762E+03  0.12500000000E+03 0.  0.
         25    1    1    2    0    0  0.21242946626E+02 -0.27623414140E+02 -0.39300128892E+02  0.13558693123E+03  0.12500000000E+03 0.  0.
</event>
<event>
 5    0  0.5815084E-005  0.4390335E+03  0.7546771E-02  0.1031044E+00
         21   -1    0    0  502  501  0.00000000000E+00  0.00000000000E+00  0.32644652975E+03  0.32644652975E+03  0.00000000000E+00 0.  1.
         21   -1    0    0  501  502 -0.00000000000E+00 -0.00000000000E+00 -0.59045028246E+03  0.59045028246E+03  0.00000000000E+00 0.  1.
         25    1    1    2    0    0  0.20305851941E+03  0.68015241845E+02 -0.13330092488E+03  0.28151904377E+03  0.12500000000E+03 0.  0.
         25    1    1    2    0    0 -0.56478114044E+02 -0.88479641399E+02 -0.32332268848E+03  0.36218915665E+03  0.12500000000E+03 0.  0.
         25    1    1    2    0    0 -0.14658040537E+03  0.20464399554E+02  0.19261986066E+03  0.27318861178E+03  0.12500000000E+03 0.  0.
</event>
<event>
 5    0  0.5815084E-005  0.2510145E+03  0.7546771E-02  0.1112665E+00
         21   -1    0    0  502  501  0.00000000000E+00  0.00000000000E+00  0.13514444386E+04  0.13514444386E+04  0.00000000000E+00 0.  1.
         21   -1    0    0  501  502 -0.00000000000E+00 -0.00000000000E+00 -0.46622906309E+02  0.46622906309E+02  0.00000000000E+00 0.  1.
         25    1    1    2    0    0  0.38314029183E+02  0.78940999507E+02  0.30690585644E+03  0.34280585023E+03  0.12500000000E+03 0.  0.
         25    1    1    2    0    0  0.57655297975E+02 -0.91451197532E+02  0.33226937745E+03  0.37110024805E+03  0.12500000000E+03 0.  0.
         25    1    1    2    0    0 -0.95969327158E+02  0.12510198025E+02  0.66564629842E+03  0.68416124665E+03  0.12500000000E+03 0.  0.
</event>
<event>
 5    0  0.5815084E-005  0.2272503E+03  0.7546771E-02  0.1128590E+00
         21   -1    0    0  502  501  0.00000000000E+00  0.00000000000E+00  0.44698578805E+03  0.44698578805E+03  0.00000000000E+00 0. -1.
         21   -1    0    0  501  502 -0.00000000000E+00 -0.00000000000E+00 -0.11553541470E+03  0.11553541470E+03  0.00000000000E+00 0. -1.
         25    1    1    2    0    0 -0.71829333013E+02  0.85927311145E+02  0.15324450283E+03  0.22727039739E+03  0.12500000000E+03 0.  0.
         25    1    1    2    0    0  0.26053540061E+02 -0.23238560694E+02  0.12081672889E+03  0.17731469096E+03  0.12500000000E+03 0.  0.
         25    1    1    2    0    0  0.45775792952E+02 -0.62688750451E+02  0.57389141643E+02  0.15793611440E+03  0.12500000000E+03 0.  0.
</event>
<event>
 5    0  0.5815084E-005  0.2959583E+03  0.7546771E-02  0.1087279E+00
         21   -1    0    0  502  501  0.00000000000E+00  0.00000000000E+00  0.14897822365E+04  0.14897822365E+04  0.00000000000E+00 0.  1.
         21   -1    0    0  501  502 -0.00000000000E+00 -0.00000000000E+00 -0.58794715257E+02  0.58794715257E+02  0.00000000000E+00 0.  1.
         25    1    1    2    0    0  0.13235252679E+03 -0.15061030761E+03  0.55308526290E+03  0.60143907767E+03  0.12500000000E+03 0.  0.
         25    1    1    2    0    0 -0.33741008952E+02 -0.29428046843E+01  0.25258173073E+03  0.28384792845E+03  0.12500000000E+03 0.  0.
         25    1    1    2    0    0 -0.98611517834E+02  0.15355311230E+03  0.62532052765E+03  0.66328994569E+03  0.12500000000E+03 0.  0.
</event>
<event>
 5    0  0.5815084E-005  0.5585936E+03  0.7546771E-02  0.9995242E-01
         21   -1    0    0  502  501  0.00000000000E+00  0.00000000000E+00  0.16721594697E+04  0.16721594697E+04  0.00000000000E+00 0.  1.
         21   -1    0    0  501  502 -0.00000000000E+00 -0.00000000000E+00 -0.18660110179E+03  0.18660110179E+03  0.00000000000E+00 0.  1.
         25    1    1    2    0    0  0.24028116999E+02 -0.33523441793E+02  0.17237053917E+03  0.21688193639E+03  0.12500000000E+03 0.  0.
         25    1    1    2    0    0  0.15216115975E+03 -0.40778133392E+03  0.86718068517E+03  0.97829748827E+03  0.12500000000E+03 0.  0.
         25    1    1    2    0    0 -0.17618927675E+03  0.44130477572E+03  0.44600714355E+03  0.66358114682E+03  0.12500000000E+03 0.  0.
</event>
<event>
 5    0  0.5815084E-005  0.2249751E+03  0.7546771E-02  0.1130227E+00
         21   -1    0    0  502  501  0.00000000000E+00  0.00000000000E+00  0.46705041566E+02  0.46705041566E+02  0.00000000000E+00 0.  1.
         21   -1    0    0  501  502 -0.00000000000E+00 -0.00000000000E+00 -0.10836899955E+04  0.10836899955E+04  0.00000000000E+00 0.  1.
         25    1    1    2    0    0  0.69921896070E+02  0.11985999987E+02 -0.40943354543E+03  0.43392806301E+03  0.12500000000E+03 0.  0.
         25    1    1    2    0    0 -0.11192718122E+03  0.51255837560E+01 -0.38103171867E+03  0.41637019122E+03  0.12500000000E+03 0.  0.
         25    1    1    2    0    0  0.42005285146E+02 -0.17111583743E+02 -0.24651968984E+03  0.28009678284E+03  0.12500000000E+03 0.  0.
</event>
<event>
 5    0  0.5815084E-005  0.3847121E+03  0.7546771E-02  0.1049206E+00
         21   -1    0    0  502  501  0.00000000000E+00  0.00000000000E+00  0.14557649922E+03  0.14557649922E+03  0.00000000000E+00 0. -1.
         21   -1    0    0  501  502 -0.00000000000E+00 -0.00000000000E+00 -0.10166709798E+04  0.10166709798E+04  0.00000000000E+00 0. -1.
         25    1    1    2    0    0 -0.27634278114E+02  0.72401787705E+02 -0.86441121455E+02  0.17059525101E+03  0.12500000000E+03 0.  0.
         25    1    1    2    0    0  0.23168742320E+03  0.11284265150E+03 -0.26447568130E+03  0.38985242344E+03  0.12500000000E+03 0.  0.
         25    1    1    2    0    0 -0.20405314508E+03 -0.18524443920E+03 -0.52017767783E+03  0.60179980457E+03  0.12500000000E+03 0.  0.
</event>
<event>
 5    0  0.5815084E-005  0.4064096E+03  0.7546771E-02  0.1041583E+00
         21   -1    0    0  502  501  0.00000000000E+00  0.00000000000E+00  0.17224093365E+03  0.17224093365E+03  0.00000000000E+00 0. -1.
         21   -1    0    0  501  502 -0.00000000000E+00 -0.00000000000E+00 -0.95894046976E+03  0.95894046976E+03  0.00000000000E+00 0. -1.
         25    1    1    2    0    0 -0.11484348316E+03 -0.30009918648E+03 -0.16809991768E+03  0.38357675851E+03  0.12500000000E+03 0.  0.
         25    1    1    2    0    0  0.57518895988E+02  0.84277047372E+02 -0.19997678008E+03  0.25695672142E+03  0.12500000000E+03 0.  0.
         25    1    1    2    0    0  0.57324587170E+02  0.21582213911E+03 -0.41862283835E+03  0.49064792348E+03  0.12500000000E+03 0.  0.
</event>
<event>
 5    0  0.5815084E-005  0.2630816E+03  0.7546771E-02  0.1105306E+00
         21   -1    0    0  502  501  0.00000000000E+00  0.00000000000E+00  0.84073542932E+03  0.84073542932E+03  0.00000000000E+00 0. -1.
         21   -1    0    0  501  502 -0.00000000000E+00 -0.00000000000E+00 -0.82323104821E+02  0.82323104821E+02  0.00000000000E+00 0. -1.
         25    1    1    2    0    0 -0.83045944055E+02  0.24520251385E+02  0.39386394395E+03  0.42219862375E+03  0.12500000000E+03 0.  0.
         25    1    1    2    0    0  0.68134964975E+02 -0.21893845126E+02  0.34444904455E+03  0.37335219056E+03  0.12500000000E+03 0.  0.
         25    1    1    2    0    0  0.14910979080E+02 -0.26264062585E+01  0.20099335993E+02  0.12750771982E+03  0.12500000000E+03 0.  0.
</event>
<event>
 5    0  0.6292351E-005  0.2569167E+03  0.7546771E-02  0.1109010E+00
         21   -1    0    0  502  501  0.00000000000E+00  0.00000000000E+00  0.36664061664E+03  0.36664061664E+03  0.00000000000E+00 0.  1.
         21   -1    0    0  501  502 -0.00000000000E+00 -0.00000000000E+00 -0.18002966426E+03  0.18002966426E+03  0.00000000000E+00 0.  1.
         25    1    1    2    0    0  0.46627928343E+02 -0.24070198855E+02  0.17748115106E+03  0.22333404836E+03  0.12500000000E+03 0.  0.
         25    1    1    2    0    0  0.34600177497E+02  0.59567254214E+02  0.69356154621E+02  0.15868429740E+03  0.12500000000E+03 0.  0.
         25    1    1    2    0    0 -0.81228105840E+02 -0.35497055359E+02 -0.60226353299E+02  0.16465193515E+03  0.12500000000E+03 0.  0.
</event>
<event>
 5    0  0.5815084E-005  0.3785441E+03  0.7546771E-02  0.1051473E+00
         21   -1    0    0  502  501  0.00000000000E+00  0.00000000000E+00  0.55729563175E+03  0.55729563175E+03  0.00000000000E+00 0.  1.
         21   -1    0    0  501  502 -0.00000000000E+00 -0.00000000000E+00 -0.25712672011E+03  0.25712672011E+03  0.00000000000E+00 0.  1.
         25    1    1    2    0    0 -0.68041730581E+02  0.27146274626E+03  0.19519043362E+03  0.36338134939E+03  0.12500000000E+03 0.  0.
         25    1    1    2    0    0 -0.28096756969E+02 -0.16075319681E+03  0.14840026445E+03  0.25353235795E+03  0.12500000000E+03 0.  0.
         25    1    1    2    0    0  0.96138487550E+02 -0.11070954945E+03 -0.43421786423E+02  0.19750864453E+03  0.12500000000E+03 0.  0.
</event>
<event>
 5    0  0.5815084E-005  0.5585112E+03  0.7546771E-02  0.9995429E-01
         21   -1    0    0  502  501  0.00000000000E+00  0.00000000000E+00  0.63773846207E+03  0.63773846207E+03  0.00000000000E+00 0. -1.
         21   -1    0    0  501  502 -0.00000000000E+00 -0.00000000000E+00 -0.48912652771E+03  0.48912652771E+03  0.00000000000E+00 0. -1.
         25    1    1    2    0    0 -0.15891391292E+01 -0.15787827656E+03  0.19822433005E+02  0.20235119081E+03  0.12500000000E+03 0.  0.
         25    1    1    2    0    0 -0.23904451831E+03 -0.19981462123E+03 -0.17883035475E+03  0.38035964609E+03  0.12500000000E+03 0.  0.
         25    1    1    2    0    0  0.24063365744E+03  0.35769289779E+03  0.30761985611E+03  0.54415415288E+03  0.12500000000E+03 0.  0.
</event>
<event>
 5    0  0.5815084E-005  0.3182786E+03  0.7546771E-02  0.1076444E+00
         21   -1    0    0  502  501  0.00000000000E+00  0.00000000000E+00  0.99866717939E+02  0.99866717939E+02  0.00000000000E+00 0.  1.
         21   -1    0    0  501  502 -0.00000000000E+00 -0.00000000000E+00 -0.10143647797E+04  0.10143647797E+04  0.00000000000E+00 0.  1.
         25    1    1    2    0    0 -0.60147544947E+01  0.13089787069E+03 -0.14471679115E+03  0.23181539954E+03  0.12500000000E+03 0.  0.
         25    1    1    2    0    0 -0.48068920501E+02  0.78857876811E+02 -0.45232270709E+03  0.47827817973E+03  0.12500000000E+03 0.  0.
         25    1    1    2    0    0  0.54083674996E+02 -0.20975574750E+03 -0.31745856348E+03  0.40413791834E+03  0.12500000000E+03 0.  0.
</event>
<event>
 5    0  0.5815084E-005  0.2894231E+03  0.7546771E-02  0.1090651E+00
         21   -1    0    0  502  501  0.00000000000E+00  0.00000000000E+00  0.21310201126E+03  0.21310201126E+03  0.00000000000E+00 0.  1.
         21   -1    0    0  501  502 -0.00000000000E+00 -0.00000000000E+00 -0.39307802033E+03  0.39307802033E+03  0.00000000000E+00 0.  1.
         25    1    1    2    0    0 -0.15803035224E+02  0.84426647281E+02 -0.26313131135E+03  0.30371151066E+03  0.12500000000E+03 0.  0.
         25    1    1    2    0    0  0.17541976301E+02  0.17056445751E+02  0.56158824065E+02  0.13920293386E+03  0.12500000000E+03 0.  0.
         25    1    1    2    0    0 -0.17389410764E+01 -0.10148309303E+03  0.26996478205E+02  0.16326558707E+03  0.12500000000E+03 0.  0.
</event>
<event>
 5    0  0.5815084E-005  0.3141898E+03  0.7546771E-02  0.1078355E+00
         21   -1    0    0  502  501  0.00000000000E+00  0.00000000000E+00  0.60254494624E+03  0.60254494624E+03  0.00000000000E+00 0. -1.
         21   -1    0    0  501  502 -0.00000000000E+00 -0.00000000000E+00 -0.16383048595E+03  0.16383048595E+03  0.00000000000E+00 0. -1.
         25    1    1    2    0    0  0.63963214072E+02  0.57179043154E+02  0.77772222154E+02  0.17039440797E+03  0.12500000000E+03 0.  0.
         25    1    1    2    0    0 -0.13303842554E+03 -0.19621901367E+03  0.15601607064E+03  0.31010826866E+03  0.12500000000E+03 0.  0.
         25    1    1    2    0    0  0.69075211466E+02  0.13903997052E+03  0.20492616750E+03  0.28587275555E+03  0.12500000000E+03 0.  0.
</event>
<event>
 5    0  0.5815084E-005  0.2121496E+03  0.7546771E-02  0.1139875E+00
         21   -1    0    0  502  501  0.00000000000E+00  0.00000000000E+00  0.25133423819E+03  0.25133423819E+03  0.00000000000E+00 0.  1.
         21   -1    0    0  501  502 -0.00000000000E+00 -0.00000000000E+00 -0.17907414569E+03  0.17907414569E+03  0.00000000000E+00 0.  1.
         25    1    1    2    0    0 -0.40106536894E+02  0.44178565044E+02  0.65913013085E+02  0.15339428022E+03  0.12500000000E+03 0.  0.
         25    1    1    2    0    0  0.18821544735E+02  0.11024874641E+02  0.42943924129E+02  0.13395887065E+03  0.12500000000E+03 0.  0.
         25    1    1    2    0    0  0.21284992159E+02 -0.55203439686E+02 -0.36596844715E+02  0.14305523300E+03  0.12500000000E+03 0.  0.
</event>
<event>
 5    0  0.5815084E-005  0.3278261E+03  0.7546771E-02  0.1072103E+00
         21   -1    0    0  502  501  0.00000000000E+00  0.00000000000E+00  0.21047180639E+04  0.21047180639E+04  0.00000000000E+00 0. -1.
         21   -1    0    0  501  502 -0.00000000000E+00 -0.00000000000E+00 -0.51061452363E+02  0.51061452363E+02  0.00000000000E+00 0. -1.
         25    1    1    2    0    0  0.17485722536E+03 -0.10184100835E+03  0.44086168727E+03  0.50092980301E+03  0.12500000000E+03 0.  0.
         25    1    1    2    0    0 -0.12142109867E+03  0.84392805024E+02  0.54658486286E+03  0.57986657176E+03  0.12500000000E+03 0.  0.
         25    1    1    2    0    0 -0.53436126693E+02  0.17448203326E+02  0.10662100615E+04  0.10749831415E+04  0.12500000000E+03 0.  0.
</event>
<event>
 5    0  0.5815084E-005  0.2223218E+03  0.7546771E-02  0.1132164E+00
         21   -1    0    0  502  501  0.00000000000E+00  0.00000000000E+00  0.96232594172E+03  0.96232594172E+03  0.00000000000E+00 0. -1.
         21   -1    0    0  501  502 -0.00000000000E+00 -0.00000000000E+00 -0.51361977984E+02  0.51361977984E+02  0.00000000000E+00 0. -1.
         25    1    1    2    0    0  0.48725055992E+01  0.10140522871E+03  0.28298615908E+03  0.32559626526E+03  0.12500000000E+03 0.  0.
         25    1    1    2    0    0  0.24599963829E+02 -0.58843463556E+02  0.25092535151E+03  0.28749998861E+03  0.12500000000E+03 0.  0.
         25    1    1    2    0    0 -0.29472469428E+02 -0.42561765153E+02  0.37705245316E+03  0.40059166584E+03  0.12500000000E+03 0.  0.
</event>
<event>
 5    0  0.5815084E-005  0.2864764E+03  0.7546771E-02  0.1092203E+00
         21   -1    0    0  502  501  0.00000000000E+00  0.00000000000E+00  0.14551321957E+04  0.14551321957E+04  0.00000000000E+00 0. -1.
         21   -1    0    0  501  502 -0.00000000000E+00 -0.00000000000E+00 -0.56399491849E+02  0.56399491849E+02  0.00000000000E+00 0.  1.
         25    1    1    2    0    0  0.98556095292E+02  0.16363143064E+03  0.48871385311E+03  0.53940224252E+03  0.12500000000E+03 0.  0.
         25    1    1    2    0    0 -0.99974743379E+02 -0.53800926849E+02  0.36286809201E+03  0.40023460775E+03  0.12500000000E+03 0.  0.
         25    1    1    2    0    0  0.14186480875E+01 -0.10983050380E+03  0.54715075876E+03  0.57189483731E+03  0.12500000000E+03 0.  0.
</event>
<event>
 5    0  0.5815084E-005  0.3618374E+03  0.7546771E-02  0.1057859E+00
         21   -1    0    0  502  501  0.00000000000E+00  0.00000000000E+00  0.86243043255E+02  0.86243043255E+02  0.00000000000E+00 0. -1.
         21   -1    0    0  501  502 -0.00000000000E+00 -0.00000000000E+00 -0.15181086359E+04  0.15181086359E+04  0.00000000000E+00 0. -1.
         25    1    1    2    0    0 -0.51396104415E+02 -0.96663647669E+02 -0.50724670157E+02  0.17373374022E+03  0.12500000000E+03 0.  0.
         25    1    1    2    0    0 -0.64048958313E+02 -0.77951222625E+01 -0.87992386600E+03  0.89109710074E+03  0.12500000000E+03 0.  0.
         25    1    1    2    0    0  0.11544506273E+03  0.10445876993E+03 -0.50121705645E+03  0.53952083815E+03  0.12500000000E+03 0.  0.
</event>
<event>
 5    0  0.5815084E-005  0.3214569E+03  0.7546771E-02  0.1074981E+00
         21   -1    0    0  502  501  0.00000000000E+00  0.00000000000E+00  0.21409819170E+03  0.21409819170E+03  0.00000000000E+00 0. -1.
         21   -1    0    0  501  502 -0.00000000000E+00 -0.00000000000E+00 -0.48265009131E+03  0.48265009131E+03  0.00000000000E+00 0. -1.
         25    1    1    2    0    0  0.18943929979E+03 -0.97597571082E+02 -0.14854947507E+03  0.28827847774E+03  0.12500000000E+03 0.  0.
         25    1    1    2    0    0 -0.58362800849E+02  0.91483169710E+02 -0.15165525871E+03  0.22449878476E+03  0.12500000000E+03 0.  0.
         25    1    1    2    0    0 -0.13107649894E+03  0.61144013723E+01  0.31652834161E+02  0.18397102051E+03  0.12500000000E+03 0.  0.
</event>
<event>
 5    0  0.5815084E-005  0.2617105E+03  0.7546771E-02  0.1106120E+00
         21   -1    0    0  502  501  0.00000000000E+00  0.00000000000E+00  0.18653783918E+03  0.18653783918E+03  0.00000000000E+00 0.  1.
         21   -1    0    0  501  502 -0.00000000000E+00 -0.00000000000E+00 -0.36717699660E+03  0.36717699660E+03  0.00000000000E+00 0.  1.
         25    1    1    2    0    0  0.41231622113E+02 -0.13838374534E+03 -0.42921156362E+02  0.19574813741E+03  0.12500000000E+03 0.  0.
         25    1    1    2    0    0  0.34864139062E+02  0.11849972853E+03 -0.38079957070E+02  0.17981317244E+03  0.12500000000E+03 0.  0.
         25    1    1    2    0    0 -0.76095761176E+02  0.19884016807E+02 -0.99638043988E+02  0.17815352593E+03  0.12500000000E+03 0.  0.
</event>
<event>
 5    0  0.5815084E-005  0.2794130E+03  0.7546771E-02  0.1096010E+00
         21   -1    0    0  502  501  0.00000000000E+00  0.00000000000E+00  0.99197780903E+02  0.99197780903E+02  0.00000000000E+00 0.  1.
         21   -1    0    0  501  502 -0.00000000000E+00 -0.00000000000E+00 -0.78702968670E+03  0.78702968670E+03  0.00000000000E+00 0.  1.
         25    1    1    2    0    0 -0.33733965264E+02  0.23326085748E+02 -0.98494218770E+02  0.16434171053E+03  0.12500000000E+03 0.  0.
         25    1    1    2    0    0  0.12503583242E+03  0.63680636753E+02 -0.12750988784E+03  0.22709679518E+03  0.12500000000E+03 0.  0.
         25    1    1    2    0    0 -0.91301867155E+02 -0.87006722501E+02 -0.46182779918E+03  0.49478896189E+03  0.12500000000E+03 0.  0.
</event>
<event>
 5    0  0.5815084E-005  0.6281781E+03  0.7546771E-02  0.9848611E-01
         21   -1    0    0  502  501  0.00000000000E+00  0.00000000000E+00  0.85499638306E+03  0.85499638306E+03  0.00000000000E+00 0.  1.
         21   -1    0    0  501  502 -0.00000000000E+00 -0.00000000000E+00 -0.46153147393E+03  0.46153147393E+03  0.00000000000E+00 0. -1.
         25    1    1    2    0    0  0.70059114030E+02  0.24868573760E+03  0.16593738437E+03  0.33153143302E+03  0.12500000000E+03 0.  0.
         25    1    1    2    0    0 -0.37905917399E+03  0.12754230580E+03 -0.30238449503E+02  0.42010982015E+03  0.12500000000E+03 0.  0.
         25    1    1    2    0    0  0.30900005996E+03 -0.37622804340E+03  0.25776597426E+03  0.56488660383E+03  0.12500000000E+03 0.  0.
</event>
<event>
 5    0  0.5815084E-005  0.3459430E+03  0.7546771E-02  0.1064293E+00
         21   -1    0    0  502  501  0.00000000000E+00  0.00000000000E+00  0.17026738670E+03  0.17026738670E+03  0.00000000000E+00 0. -1.
         21   -1    0    0  501  502 -0.00000000000E+00 -0.00000000000E+00 -0.70287415571E+03  0.70287415571E+03  0.00000000000E+00 0. -1.
         25    1    1    2    0    0 -0.25055907146E+02  0.94394829033E+02  0.28063187110E+02  0.16109228629E+03  0.12500000000E+03 0.  0.
         25    1    1    2    0    0  0.14542070193E+03 -0.11801439846E+03 -0.16437031968E+03  0.27877801346E+03  0.12500000000E+03 0.  0.
         25    1    1    2    0    0 -0.12036479479E+03  0.23619569428E+02 -0.39629963643E+03  0.43327124267E+03  0.12500000000E+03 0.  0.
</event>
<event>
 5    0  0.5815084E-005  0.6032347E+03  0.7546771E-02  0.9898718E-01
         21   -1    0    0  502  501  0.00000000000E+00  0.00000000000E+00  0.45449039234E+03  0.45449039234E+03  0.00000000000E+00 0. -1.
         21   -1    0    0  501  502 -0.00000000000E+00 -0.00000000000E+00 -0.80065972133E+03  0.80065972133E+03  0.00000000000E+00 0. -1.
         25    1    1    2    0    0 -0.70052495496E+02 -0.25560450939E+02  0.20902938363E+03  0.25471350965E+03  0.12500000000E+03 0.  0.
         25    1    1    2    0    0  0.11762162964E+03  0.88710715264E+02 -0.73938719168E+03  0.76421388236E+03  0.12500000000E+03 0.  0.
         25    1    1    2    0    0 -0.47569134141E+02 -0.63150264325E+02  0.18418847906E+03  0.23622272166E+03  0.12500000000E+03 0.  0.
</event>
<event>
 5    0  0.5815084E-005  0.3007418E+03  0.7546771E-02  0.1084870E+00
         21   -1    0    0  502  501  0.00000000000E+00  0.00000000000E+00  0.10972104568E+04  0.10972104568E+04  0.00000000000E+00 0.  1.
         21   -1    0    0  501  502 -0.00000000000E+00 -0.00000000000E+00 -0.82432323194E+02  0.82432323194E+02  0.00000000000E+00 0.  1.
         25    1    1    2    0    0 -0.26128935174E+02 -0.12484692292E+03  0.21699874238E+03  0.28103901795E+03  0.12500000000E+03 0.  0.
         25    1    1    2    0    0 -0.82677902849E+02 -0.58630254628E+02  0.24597419721E+03  0.29394123234E+03  0.12500000000E+03 0.  0.
         25    1    1    2    0    0  0.10880683802E+03  0.18347717755E+03  0.55180519404E+03  0.60466252972E+03  0.12500000000E+03 0.  0.
</event>
<event>
 5    0  0.5815084E-005  0.5496027E+03  0.7546771E-02  0.1001586E+00
         21   -1    0    0  502  501  0.00000000000E+00  0.00000000000E+00  0.21030790743E+04  0.21030790743E+04  0.00000000000E+00 0.  1.
         21   -1    0    0  501  502 -0.00000000000E+00 -0.00000000000E+00 -0.14362897906E+03  0.14362897906E+03  0.00000000000E+00 0.  1.
         25    1    1    2    0    0 -0.37948933302E+02 -0.12874145894E+03  0.96043523541E+02  0.20703585004E+03  0.12500000000E+03 0.  0.
         25    1    1    2    0    0 -0.27039917924E+03  0.75625138290E+01  0.15109657435E+04  0.15400699288E+04  0.12500000000E+03 0.  0.
         25    1    1    2    0    0  0.30834811254E+03  0.12117894511E+03  0.35244082817E+03  0.49960227442E+03  0.12500000000E+03 0.  0.
</event>
<event>
 5    0  0.5815084E-005  0.2872541E+03  0.7546771E-02  0.1091792E+00
         21   -1    0    0  502  501  0.00000000000E+00  0.00000000000E+00  0.13081274225E+03  0.13081274225E+03  0.00000000000E+00 0. -1.
         21   -1    0    0  501  502 -0.00000000000E+00 -0.00000000000E+00 -0.63078633419E+03  0.63078633419E+03  0.00000000000E+00 0. -1.
         25    1    1    2    0    0  0.12145999396E+02 -0.15249525590E+03 -0.25472231537E+03  0.32235196032E+03  0.12500000000E+03 0.  0.
         25    1    1    2    0    0 -0.11410321393E+03  0.79967361269E+02 -0.13574830634E+03  0.23122916116E+03  0.12500000000E+03 0.  0.
         25    1    1    2    0    0  0.10195721454E+03  0.72527894634E+02 -0.10950297024E+03  0.20801795496E+03  0.12500000000E+03 0.  0.
</event>
<event>
 5    0  0.5815084E-005  0.3617147E+03  0.7546771E-02  0.1057907E+00
         21   -1    0    0  502  501  0.00000000000E+00  0.00000000000E+00  0.22557895140E+04  0.22557895140E+04  0.00000000000E+00 0.  1.
         21   -1    0    0  501  502 -0.00000000000E+00 -0.00000000000E+00 -0.58000782235E+02  0.58000782235E+02  0.00000000000E+00 0.  1.
         25    1    1    2    0    0  0.25033364289E+03  0.10950355948E+03  0.95986175304E+03  0.10057920000E+04  0.12500000000E+03 0.  0.
         25    1    1    2    0    0 -0.97191194730E+02  0.44791810143E+02  0.37824338565E+03  0.41248696146E+03  0.12500000000E+03 0.  0.
         25    1    1    2    0    0 -0.15314244816E+03 -0.15429536962E+03  0.85968359311E+03  0.89551133481E+03  0.12500000000E+03 0.  0.
</event>
<event>
 5    0  0.5815084E-005  0.3746431E+03  0.7546771E-02  0.1052932E+00
         21   -1    0    0  502  501  0.00000000000E+00  0.00000000000E+00  0.11342629113E+04  0.11342629113E+04  0.00000000000E+00 0.  1.
         21   -1    0    0  501  502 -0.00000000000E+00 -0.00000000000E+00 -0.12374329930E+03  0.12374329930E+03  0.00000000000E+00 0.  1.
         25    1    1    2    0    0  0.74109842048E+02  0.10187802620E+03  0.20170431057E+02  0.17861480118E+03  0.12500000000E+03 0.  0.
         25    1    1    2    0    0 -0.13835708112E+03 -0.94582757861E+02  0.25055545586E+03  0.32633053250E+03  0.12500000000E+03 0.  0.
         25    1    1    2    0    0  0.64247239072E+02 -0.72952683344E+01  0.73979372512E+03  0.75306087695E+03  0.12500000000E+03 0.  0.
</event>
<event>
 5    0  0.7815391E-005  0.4021774E+03  0.7546771E-02  0.1043028E+00
         21   -1    0    0  502  501  0.00000000000E+00  0.00000000000E+00  0.87600713877E+03  0.87600713877E+03  0.00000000000E+00 0. -1.
         21   -1    0    0  501  502 -0.00000000000E+00 -0.00000000000E+00 -0.18464079663E+03  0.18464079663E+03  0.00000000000E+00 0. -1.
         25    1    1    2    0    0 -0.73301372242E+01  0.13546864918E+02 -0.61063324389E+02  0.13996777503E+03  0.12500000000E+03 0.  0.
         25    1    1    2    0    0  0.23459253831E+03 -0.37381994916E+02  0.34534611297E+03  0.43740142926E+03  0.12500000000E+03 0.  0.
         25    1    1    2    0    0 -0.22726240109E+03  0.23835129998E+02  0.40708355356E+03  0.48327873112E+03  0.12500000000E+03 0.  0.
</event>
<event>
 5    0  0.5815084E-005  0.4389455E+03  0.7546771E-02  0.1031071E+00
         21   -1    0    0  502  501  0.00000000000E+00  0.00000000000E+00  0.11765386908E+03  0.11765386908E+03  0.00000000000E+00 0.  1.
         21   -1    0    0  501  502 -0.00000000000E+00 -0.00000000000E+00 -0.16376269950E+04  0.16376269950E+04  0.00000000000E+00 0.  1.
         25    1    1    2    0    0 -0.69518003901E+01  0.15441921415E+03 -0.67805357217E+03  0.70659413242E+03  0.12500000000E+03 0.  0.
         25    1    1    2    0    0  0.24388227356E+03 -0.39647690912E+02 -0.19358351914E+03  0.33786103894E+03  0.12500000000E+03 0.  0.
         25    1    1    2    0    0 -0.23693047317E+03 -0.11477152324E+03 -0.64833603463E+03  0.71082569274E+03  0.12500000000E+03 0.  0.
</event>
<event>
 5    0  0.5815084E-005  0.3269714E+03  0.7546771E-02  0.1072485E+00
         21   -1    0    0  502  501  0.00000000000E+00  0.00000000000E+00  0.50671248836E+03  0.50671248836E+03  0.00000000000E+00 0. -1.
         21   -1    0    0  501  502 -0.00000000000E+00 -0.00000000000E+00 -0.21098803641E+03  0.21098803641E+03  0.00000000000E+00 0. -1.
         25    1    1    2    0    0 -0.11563606818E+03  0.14660325364E+03  0.18177685096E+03  0.28901909588E+03  0.12500000000E+03 0.  0.
         25    1    1    2    0    0  0.12279699512E+03 -0.52119153137E+02  0.18176219383E+03  0.25779449808E+03  0.12500000000E+03 0.  0.
         25    1    1    2    0    0 -0.71609269464E+01 -0.94484100504E+02 -0.67814592835E+02  0.17088693082E+03  0.12500000000E+03 0.  0.
</event>
<event>
 5    0  0.5815084E-005  0.2786694E+03  0.7546771E-02  0.1096418E+00
         21   -1    0    0  502  501  0.00000000000E+00  0.00000000000E+00  0.37732910736E+03  0.37732910736E+03  0.00000000000E+00 0. -1.
         21   -1    0    0  501  502 -0.00000000000E+00 -0.00000000000E+00 -0.20580606065E+03  0.20580606065E+03  0.00000000000E+00 0. -1.
         25    1    1    2    0    0 -0.85852034506E+02 -0.77397510775E+01  0.95875993183E+02  0.17957639501E+03  0.12500000000E+03 0.  0.
         25    1    1    2    0    0  0.90909500779E+02 -0.41320276917E+02  0.17449594252E+03  0.23673980775E+03  0.12500000000E+03 0.  0.
         25    1    1    2    0    0 -0.50574662728E+01  0.49060027994E+02 -0.98848888998E+02  0.16681896525E+03  0.12500000000E+03 0.  0.
</event>
<event>
 5    0  0.5815084E-005  0.3052848E+03  0.7546771E-02  0.1082628E+00
         21   -1    0    0  502  501  0.00000000000E+00  0.00000000000E+00  0.50862084649E+03  0.50862084649E+03  0.00000000000E+00 0.  1.
         21   -1    0    0  501  502 -0.00000000000E+00 -0.00000000000E+00 -0.18323825770E+03  0.18323825770E+03  0.00000000000E+00 0.  1.
         25    1    1    2    0    0 -0.12330853258E+03  0.33413635236E+02 -0.61206152534E+01  0.17884050760E+03  0.12500000000E+03 0.  0.
         25    1    1    2    0    0 -0.11680799696E+02  0.22242236808E+01 -0.73716699325E+01  0.12578048247E+03  0.12500000000E+03 0.  0.
         25    1    1    2    0    0  0.13498933228E+03 -0.35637858917E+02  0.33887487397E+03  0.38723811412E+03  0.12500000000E+03 0.  0.
</event>
<event>
 5    0  0.5815084E-005  0.2861543E+03  0.7546771E-02  0.1092374E+00
         21   -1    0    0  502  501  0.00000000000E+00  0.00000000000E+00  0.86356783822E+02  0.86356783822E+02  0.00000000000E+00 0.  1.
         21   -1    0    0  501  502 -0.00000000000E+00 -0.00000000000E+00 -0.94820878185E+03  0.94820878185E+03  0.00000000000E+00 0.  1.
         25    1    1    2    0    0  0.12769470447E+03 -0.28503582400E+02 -0.18181743875E+03  0.25651700293E+03  0.12500000000E+03 0.  0.
         25    1    1    2    0    0 -0.19310722552E+02  0.22873666441E+01 -0.68237799078E+02  0.14373424531E+03  0.12500000000E+03 0.  0.
         25    1    1    2    0    0 -0.10838398192E+03  0.26216215756E+02 -0.61179676020E+03  0.63431431743E+03  0.12500000000E+03 0.  0.
</event>
<event>
 5    0  0.5815084E-005  0.4020132E+03  0.7546771E-02  0.1043085E+00
         21   -1    0    0  502  501  0.00000000000E+00  0.00000000000E+00  0.15378853164E+03  0.15378853164E+03  0.00000000000E+00 0.  1.
         21   -1    0    0  501  502 -0.00000000000E+00 -0.00000000000E+00 -0.10508885878E+04  0.10508885878E+04  0.00000000000E+00 0.  1.
         25    1    1    2    0    0 -0.70162191616E+02  0.18461788824E+03 -0.56596574481E+03  0.61233056603E+03  0.12500000000E+03 0.  0.
         25    1    1    2    0    0  0.98782796642E+02  0.23307468476E+02 -0.30726053259E+03  0.34689380780E+03  0.12500000000E+03 0.  0.
         25    1    1    2    0    0 -0.28620605026E+02 -0.20792535672E+03 -0.23873778715E+02  0.24545274557E+03  0.12500000000E+03 0.  0.
</event>
<event>
 5    0  0.5815084E-005  0.2575114E+03  0.7546771E-02  0.1108648E+00
         21   -1    0    0  502  501  0.00000000000E+00  0.00000000000E+00  0.26583049000E+02  0.26583049000E+02  0.00000000000E+00 0.  1.
         21   -1    0    0  501  502 -0.00000000000E+00 -0.00000000000E+00 -0.24945274158E+04  0.24945274158E+04  0.00000000000E+00 0.  1.
         25    1    1    2    0    0 -0.36386597290E+02 -0.76081572884E+01 -0.75289013328E+03  0.76410105438E+03  0.12500000000E+03 0.  0.
         25    1    1    2    0    0 -0.36412202649E+02 -0.80732341199E+02 -0.12952738204E+04  0.13043016634E+04  0.12500000000E+03 0.  0.
         25    1    1    2    0    0  0.72798799939E+02  0.88340498488E+02 -0.41978041319E+03  0.45270774706E+03  0.12500000000E+03 0.  0.
</event>
<event>
 5    0  0.5815084E-005  0.4715051E+03  0.7546771E-02  0.1021496E+00
         21   -1    0    0  502  501  0.00000000000E+00  0.00000000000E+00  0.66979676772E+03  0.66979676772E+03  0.00000000000E+00 0.  1.
         21   -1    0    0  501  502 -0.00000000000E+00 -0.00000000000E+00 -0.33191716408E+03  0.33191716408E+03  0.00000000000E+00 0.  1.
         25    1    1    2    0    0 -0.23292009193E+03  0.24948401998E+03  0.96578486411E+02  0.37609367116E+03  0.12500000000E+03 0.  0.
         25    1    1    2    0    0  0.81879575114E+01 -0.30385426539E+02 -0.86225221975E+02  0.15508096498E+03  0.12500000000E+03 0.  0.
         25    1    1    2    0    0  0.22473213442E+03 -0.21909859344E+03  0.32752633921E+03  0.47053929566E+03  0.12500000000E+03 0.  0.
</event>
<event>
 5    0  0.5815084E-005  0.2642227E+03  0.7546771E-02  0.1104632E+00
         21   -1    0    0  502  501  0.00000000000E+00  0.00000000000E+00  0.35260918507E+03  0.35260918507E+03  0.00000000000E+00 0. -1.
         21   -1    0    0  501  502 -0.00000000000E+00 -0.00000000000E+00 -0.19799148040E+03  0.19799148040E+03  0.00000000000E+00 0. -1.
         25    1    1    2    0    0 -0.12388020634E+03 -0.63731219603E+02  0.12240092287E+03  0.22364024636E+03  0.12500000000E+03 0.  0.
         25    1    1    2    0    0  0.47630513761E+02 -0.87154532137E+00  0.84941694976E+02  0.15845982765E+03  0.12500000000E+03 0.  0.
         25    1    1    2    0    0  0.76249692580E+02  0.64602764924E+02 -0.52724913177E+02  0.16850059146E+03  0.12500000000E+03 0.  0.
</event>
<event>
 5    0  0.5815084E-005  0.5548651E+03  0.7546771E-02  0.1000374E+00
         21   -1    0    0  502  501  0.00000000000E+00  0.00000000000E+00  0.28925490102E+04  0.28925490102E+04  0.00000000000E+00 0.  1.
         21   -1    0    0  501  502 -0.00000000000E+00 -0.00000000000E+00 -0.10643737463E+03  0.10643737463E+03  0.00000000000E+00 0.  1.
         25    1    1    2    0    0  0.13288916409E+03  0.17369053812E+03  0.60921467449E+03  0.65923853996E+03  0.12500000000E+03 0.  0.
         25    1    1    2    0    0 -0.38876778448E+03 -0.32790117050E+03  0.15128957280E+04  0.16009803408E+04  0.12500000000E+03 0.  0.
         25    1    1    2    0    0  0.25587862038E+03  0.15421063239E+03  0.66400123311E+03  0.73876750408E+03  0.12500000000E+03 0.  0.
</event>
<event>
 5    0  0.5815084E-005  0.2793832E+03  0.7546771E-02  0.1096026E+00
         21   -1    0    0  502  501  0.00000000000E+00  0.00000000000E+00  0.47869824812E+03  0.47869824812E+03  0.00000000000E+00 0.  1.
         21   -1    0    0  501  502 -0.00000000000E+00 -0.00000000000E+00 -0.16305671256E+03  0.16305671256E+03  0.00000000000E+00 0.  1.
         25    1    1    2    0    0  0.47916349275E+01 -0.19528139506E+02  0.14967649586E+02  0.12748858197E+03  0.12500000000E+03 0.  0.
         25    1    1    2    0    0  0.29273774374E+02  0.15816178032E+02 -0.51325044069E+02  0.13916308958E+03  0.12500000000E+03 0.  0.
         25    1    1    2    0    0 -0.34065409302E+02  0.37119614740E+01  0.35199893004E+03  0.37510328913E+03  0.12500000000E+03 0.  0.
</event>
<event>
 5    0  0.5815084E-005  0.2454859E+03  0.7546771E-02  0.1116191E+00
         21   -1    0    0  502  501  0.00000000000E+00  0.00000000000E+00  0.89163178520E+03  0.89163178520E+03  0.00000000000E+00 0. -1.
         21   -1    0    0  501  502 -0.00000000000E+00 -0.00000000000E+00 -0.67587710946E+02  0.67587710946E+02  0.00000000000E+00 0. -1.
         25    1    1    2    0    0 -0.31498554946E+01  0.98332468201E+02  0.24823081192E+03  0.29482661325E+03  0.12500000000E+03 0.  0.
         25    1    1    2    0    0 -0.64958213851E+02 -0.27395550829E+02  0.41108355626E+03  0.43541333923E+03  0.12500000000E+03 0.  0.
         25    1    1    2    0    0  0.68108069346E+02 -0.70936917372E+02  0.16472970608E+03  0.22897954367E+03  0.12500000000E+03 0.  0.
</event>
<event>
 5    0  0.5815084E-005  0.3329637E+03  0.7546771E-02  0.1069833E+00
         21   -1    0    0  502  501  0.00000000000E+00  0.00000000000E+00  0.11249680801E+03  0.11249680801E+03  0.00000000000E+00 0.  1.
         21   -1    0    0  501  502 -0.00000000000E+00 -0.00000000000E+00 -0.98549333416E+03  0.98549333416E+03  0.00000000000E+00 0.  1.
         25    1    1    2    0    0  0.99395267487E+02 -0.77624180277E+02 -0.17208138548E+03  0.24726895436E+03  0.12500000000E+03 0.  0.
         25    1    1    2    0    0 -0.54563238859E+02  0.13093142701E+03 -0.66577785609E+02  0.20044397509E+03  0.12500000000E+03 0.  0.
         25    1    1    2    0    0 -0.44832028628E+02 -0.53307246732E+02 -0.63433735507E+03  0.65027721272E+03  0.12500000000E+03 0.  0.
</event>
<event>
 5    0  0.5815084E-005  0.3101945E+03  0.7546771E-02  0.1080253E+00
         21   -1    0    0  502  501  0.00000000000E+00  0.00000000000E+00  0.53950348424E+03  0.53950348424E+03  0.00000000000E+00 0.  1.
         21   -1    0    0  501  502 -0.00000000000E+00 -0.00000000000E+00 -0.17835030653E+03  0.17835030653E+03  0.00000000000E+00 0.  1.
         25    1    1    2    0    0 -0.12965765779E+03 -0.14747953357E+03  0.85829110267E+02  0.24809868443E+03  0.12500000000E+03 0.  0.
         25    1    1    2    0    0  0.11843021051E+03 -0.15300491710E+02  0.10080658562E+03  0.20011693460E+03  0.12500000000E+03 0.  0.
         25    1    1    2    0    0  0.11227447282E+02  0.16278002528E+03  0.17451748183E+03  0.26963817175E+03  0.12500000000E+03 0.  0.
</event>
<event>
 5    0  0.5815084E-005  0.3799288E+03  0.7546771E-02  0.1050960E+00
         21   -1    0    0  502  501  0.00000000000E+00  0.00000000000E+00  0.10463303332E+03  0.10463303332E+03  0.00000000000E+00 0.  1.
         21   -1    0    0  501  502 -0.00000000000E+00 -0.00000000000E+00 -0.13795441598E+04  0.13795441598E+04  0.00000000000E+00 0.  1.
         25    1    1    2    0    0  0.12786667861E+02 -0.20403293980E+02 -0.30406689614E+03  0.32963839371E+03  0.12500000000E+03 0.  0.
         25    1    1    2    0    0 -0.14366253078E+02  0.17889076545E+03 -0.67457552464E+02  0.22887511131E+03  0.12500000000E+03 0.  0.
         25    1    1    2    0    0  0.15795852169E+01 -0.15848747147E+03 -0.90338667790E+03  0.92566368812E+03  0.12500000000E+03 0.  0.
</event>
<event>
 5    0  0.5815084E-005  0.3108556E+03  0.7546771E-02  0.1079937E+00
         21   -1    0    0  502  501  0.00000000000E+00  0.00000000000E+00  0.37495000088E+03  0.37495000088E+03  0.00000000000E+00 0.  1.
         21   -1    0    0  501  502 -0.00000000000E+00 -0.00000000000E+00 -0.25771752800E+03  0.25771752800E+03  0.00000000000E+00 0.  1.
         25    1    1    2    0    0  0.11329920162E+03  0.66497855152E+02 -0.10031230547E+03  0.20723472792E+03  0.12500000000E+03 0.  0.
         25    1    1    2    0    0  0.12717398670E+02 -0.24446395775E+02  0.20616328619E+03  0.24266779570E+03  0.12500000000E+03 0.  0.
         25    1    1    2    0    0 -0.12601660029E+03 -0.42051459377E+02  0.11381492165E+02  0.18276500526E+03  0.12500000000E+03 0.  0.
</event>
<event>
 5    0  0.6410345E-005  0.3485509E+03  0.7546771E-02  0.1063211E+00
         21   -1    0    0  502  501  0.00000000000E+00  0.00000000000E+00  0.70700741669E+03  0.70700741669E+03  0.00000000000E+00 0.  1.
         21   -1    0    0  501  502 -0.00000000000E+00 -0.00000000000E+00 -0.17183372557E+03  0.17183372557E+03  0.00000000000E+00 0.  1.
         25    1    1    2    0    0 -0.44510320237E+02  0.88910709731E+02  0.36557664062E+01  0.15976435003E+03  0.12500000000E+03 0.  0.
         25    1    1    2    0    0  0.10706968615E+03  0.96702863696E+02  0.41999070953E+03  0.46133779124E+03  0.12500000000E+03 0.  0.
         25    1    1    2    0    0 -0.62559365910E+02 -0.18561357343E+03  0.11152721518E+03  0.25773900099E+03  0.12500000000E+03 0.  0.
</event>
<event>
 5    0  0.5815084E-005  0.3546010E+03  0.7546771E-02  0.1060742E+00
         21   -1    0    0  502  501  0.00000000000E+00  0.00000000000E+00  0.23739029016E+03  0.23739029016E+03  0.00000000000E+00 0.  1.
         21   -1    0    0  501  502 -0.00000000000E+00 -0.00000000000E+00 -0.52968407164E+03  0.52968407164E+03  0.00000000000E+00 0.  1.
         25    1    1    2    0    0  0.24277350466E+03  0.44191708156E+02 -0.28071323778E+03  0.39410252917E+03  0.12500000000E+03 0.  0.
         25    1    1    2    0    0 -0.18782876533E+03 -0.53721336060E+02 -0.33559585783E+02  0.23434349326E+03  0.12500000000E+03 0.  0.
         25    1    1    2    0    0 -0.54944739328E+02  0.95296279041E+01  0.21979042072E+02  0.13862833938E+03  0.12500000000E+03 0.  0.
</event>
<event>
 5    0  0.5815084E-005  0.3257552E+03  0.7546771E-02  0.1073031E+00
         21   -1    0    0  502  501  0.00000000000E+00  0.00000000000E+00  0.11835620729E+04  0.11835620729E+04  0.00000000000E+00 0. -1.
         21   -1    0    0  501  502 -0.00000000000E+00 -0.00000000000E+00 -0.89658566336E+02  0.89658566336E+02  0.00000000000E+00 0. -1.
         25    1    1    2    0    0 -0.10840674381E+02  0.13653958829E+03  0.30020749560E+03  0.35285991527E+03  0.12500000000E+03 0.  0.
         25    1    1    2    0    0 -0.17541884589E+03 -0.10305810965E+03  0.42528722936E+03  0.48773658148E+03  0.12500000000E+03 0.  0.
         25    1    1    2    0    0  0.18625952027E+03 -0.33481478638E+02  0.36840878163E+03  0.43262414251E+03  0.12500000000E+03 0.  0.
</event>
<event>
 5    0  0.5815084E-005  0.4382891E+03  0.7546771E-02  0.1031273E+00
         21   -1    0    0  502  501  0.00000000000E+00  0.00000000000E+00  0.44591915395E+03  0.44591915395E+03  0.00000000000E+00 0. -1.
         21   -1    0    0  501  502 -0.00000000000E+00 -0.00000000000E+00 -0.43078968623E+03  0.43078968623E+03  0.00000000000E+00 0. -1.
         25    1    1    2    0    0  0.24633475464E+03  0.22783462000E+03 -0.28728266012E+02  0.35922101648E+03  0.12500000000E+03 0.  0.
         25    1    1    2    0    0 -0.11962069587E+03 -0.11612179114E+02 -0.10255947630E+03  0.20146314741E+03  0.12500000000E+03 0.  0.
         25    1    1    2    0    0 -0.12671405877E+03 -0.21622244088E+03  0.14641721004E+03  0.31602467629E+03  0.12500000000E+03 0.  0.
</event>
<event>
 5    0  0.5815084E-005  0.3487614E+03  0.7546771E-02  0.1063125E+00
         21   -1    0    0  502  501  0.00000000000E+00  0.00000000000E+00  0.65467053265E+03  0.65467053265E+03  0.00000000000E+00 0. -1.
         21   -1    0    0  501  502 -0.00000000000E+00 -0.00000000000E+00 -0.18579497585E+03  0.18579497585E+03  0.00000000000E+00 0. -1.
         25    1    1    2    0    0 -0.19781533520E+03  0.97016201197E+02  0.22408229051E+03  0.33820248824E+03  0.12500000000E+03 0.  0.
         25    1    1    2    0    0 -0.18786329543E+02  0.59640840678E+01  0.18685206324E+03  0.22567053422E+03  0.12500000000E+03 0.  0.
         25    1    1    2    0    0  0.21660166474E+03 -0.10298028527E+03  0.57941203059E+02  0.27659248604E+03  0.12500000000E+03 0.  0.
</event>
<event>
 5    0  0.5815084E-005  0.3221359E+03  0.7546771E-02  0.1074670E+00
         21   -1    0    0  502  501  0.00000000000E+00  0.00000000000E+00  0.10821476189E+04  0.10821476189E+04  0.00000000000E+00 0.  1.
         21   -1    0    0  501  502 -0.00000000000E+00 -0.00000000000E+00 -0.95894058318E+02  0.95894058318E+02  0.00000000000E+00 0.  1.
         25    1    1    2    0    0 -0.74384844988E+01 -0.80213729187E+02  0.17389252426E+03  0.22880818035E+03  0.12500000000E+03 0.  0.
         25    1    1    2    0    0 -0.15826179050E+03  0.15562806550E+03  0.31547433189E+03  0.40548235866E+03  0.12500000000E+03 0.  0.
         25    1    1    2    0    0  0.16570027500E+03 -0.75414336310E+02  0.49688670438E+03  0.54375113816E+03  0.12500000000E+03 0.  0.
</event>
<event>
 5    0  0.5815084E-005  0.2820108E+03  0.7546771E-02  0.1094596E+00
         21   -1    0    0  502  501  0.00000000000E+00  0.00000000000E+00  0.44400522313E+03  0.44400522313E+03  0.00000000000E+00 0. -1.
         21   -1    0    0  501  502 -0.00000000000E+00 -0.00000000000E+00 -0.17911969828E+03  0.17911969828E+03  0.00000000000E+00 0. -1.
         25    1    1    2    0    0 -0.61936273114E+02 -0.63953658099E+02  0.13856558649E+03  0.20676458612E+03  0.12500000000E+03 0.  0.
         25    1    1    2    0    0  0.67238642978E+02 -0.84636101575E+02 -0.28837464502E+02  0.16775250865E+03  0.12500000000E+03 0.  0.
         25    1    1    2    0    0 -0.53023698637E+01  0.14858975967E+03  0.15515740286E+03  0.24860782665E+03  0.12500000000E+03 0.  0.
</event>
<event>
 5    0  0.5815084E-005  0.5339705E+03  0.7546771E-02  0.1005274E+00
         21   -1    0    0  502  501  0.00000000000E+00  0.00000000000E+00  0.15971035025E+03  0.15971035025E+03  0.00000000000E+00 0. -1.
         21   -1    0    0  501  502 -0.00000000000E+00 -0.00000000000E+00 -0.17852601206E+04  0.17852601206E+04  0.00000000000E+00 0. -1.
         25    1    1    2    0    0  0.77837433810E+02  0.38735905194E+03 -0.71208517445E+03  0.82389076757E+03  0.12500000000E+03 0.  0.
         25    1    1    2    0    0  0.19858464140E+02 -0.35329185371E+03 -0.87820440701E+03  0.95502747237E+03  0.12500000000E+03 0.  0.
         25    1    1    2    0    0 -0.97695897951E+02 -0.34067198234E+02 -0.35260188901E+02  0.16605223092E+03  0.12500000000E+03 0.  0.
</event>
<event>
 5    0  0.5815084E-005  0.3018154E+03  0.7546771E-02  0.1084337E+00
         21   -1    0    0  502  501  0.00000000000E+00  0.00000000000E+00  0.73772033952E+02  0.73772033952E+02  0.00000000000E+00 0.  1.
         21   -1    0    0  501  502 -0.00000000000E+00 -0.00000000000E+00 -0.12347842908E+04  0.12347842908E+04  0.00000000000E+00 0.  1.
         25    1    1    2    0    0 -0.20268448902E+02 -0.28333879368E+02 -0.72064520319E+03  0.73223502212E+03  0.12500000000E+03 0.  0.
         25    1    1    2    0    0  0.11970021120E+03 -0.41560417339E+02 -0.13025683316E+03  0.22056121925E+03  0.12500000000E+03 0.  0.
         25    1    1    2    0    0 -0.99431762303E+02  0.69894296707E+02 -0.31011022045E+03  0.35576008333E+03  0.12500000000E+03 0.  0.
</event>
<event>
 5    0  0.5894576E-005  0.3270194E+03  0.7546771E-02  0.1072463E+00
         21   -1    0    0  502  501  0.00000000000E+00  0.00000000000E+00  0.45011342514E+03  0.45011342514E+03  0.00000000000E+00 0. -1.
         21   -1    0    0  501  502 -0.00000000000E+00 -0.00000000000E+00 -0.23758835411E+03  0.23758835411E+03  0.00000000000E+00 0. -1.
         25    1    1    2    0    0 -0.10150387322E+02  0.12942740213E+03  0.91389070161E+02  0.20206792157E+03  0.12500000000E+03 0.  0.
         25    1    1    2    0    0  0.10772722118E+03 -0.45153449214E+01  0.20827792467E+03  0.26576349717E+03  0.12500000000E+03 0.  0.
         25    1    1    2    0    0 -0.97576833858E+02 -0.12491205721E+03 -0.87141923812E+02  0.21987036050E+03  0.12500000000E+03 0.  0.
</event>
<event>
 5    0  0.5815084E-005  0.2417546E+03  0.7546771E-02  0.1118629E+00
         21   -1    0    0  502  501  0.00000000000E+00  0.00000000000E+00  0.64323235438E+03  0.64323235438E+03  0.00000000000E+00 0. -1.
         21   -1    0    0  501  502 -0.00000000000E+00 -0.00000000000E+00 -0.90861835113E+02  0.90861835113E+02  0.00000000000E+00 0. -1.
         25    1    1    2    0    0 -0.10508987521E+03 -0.26153450690E+02  0.13723095375E+03  0.21490746735E+03  0.12500000000E+03 0.  0.
         25    1    1    2    0    0  0.73000962246E+02  0.57063834917E+02  0.32024925406E+03  0.35604775869E+03  0.12500000000E+03 0.  0.
         25    1    1    2    0    0  0.32088912962E+02 -0.30910384227E+02  0.94890311456E+02  0.16313896345E+03  0.12500000000E+03 0.  0.
</event>
<event>
 5    0  0.5815084E-005  0.3702579E+03  0.7546771E-02  0.1054594E+00
         21   -1    0    0  502  501  0.00000000000E+00  0.00000000000E+00  0.31492130398E+03  0.31492130398E+03  0.00000000000E+00 0. -1.
         21   -1    0    0  501  502 -0.00000000000E+00 -0.00000000000E+00 -0.43531789782E+03  0.43531789782E+03  0.00000000000E+00 0. -1.
         25    1    1    2    0    0  0.17766182068E+02  0.22789082476E+03  0.31595207420E+02  0.26243689216E+03  0.12500000000E+03 0.  0.
         25    1    1    2    0    0  0.59060978687E+02 -0.18055619319E+03  0.50850004471E+02  0.23302244754E+03  0.12500000000E+03 0.  0.
         25    1    1    2    0    0 -0.76827160755E+02 -0.47334631564E+02 -0.20284180574E+03  0.25477986210E+03  0.12500000000E+03 0.  0.
</event>
<event>
 5    0  0.5815084E-005  0.2529356E+03  0.7546771E-02  0.1111464E+00
         21   -1    0    0  502  501  0.00000000000E+00  0.00000000000E+00  0.10549295008E+04  0.10549295008E+04  0.00000000000E+00 0.  1.
         21   -1    0    0  501  502 -0.00000000000E+00 -0.00000000000E+00 -0.60645222337E+02  0.60645222337E+02  0.00000000000E+00 0.  1.
         25    1    1    2    0    0  0.54872357294E+02  0.12517786428E+03  0.55194833109E+03  0.58219621563E+03  0.12500000000E+03 0.  0.
         25    1    1    2    0    0 -0.50375800616E+02 -0.45148999563E+02  0.15742746605E+03  0.21209564002E+03  0.12500000000E+03 0.  0.
         25    1    1    2    0    0 -0.44965566785E+01 -0.80028864713E+02  0.28490848131E+03  0.32128286747E+03  0.12500000000E+03 0.  0.
</event>
<event>
 5    0  0.5815084E-005  0.3968511E+03  0.7546771E-02  0.1044876E+00
         21   -1    0    0  502  501  0.00000000000E+00  0.00000000000E+00  0.11327308138E+04  0.11327308138E+04  0.00000000000E+00 0. -1.
         21   -1    0    0  501  502 -0.00000000000E+00 -0.00000000000E+00 -0.13903638941E+03  0.13903638941E+03  0.00000000000E+00 0. -1.
         25    1    1    2    0    0 -0.49124908980E+02  0.18150827719E+03  0.11906733797E+03  0.25526563095E+03  0.12500000000E+03 0.  0.
         25    1    1    2    0    0 -0.16489934086E+03 -0.88703613487E+02  0.57065498774E+03  0.61345923964E+03  0.12500000000E+03 0.  0.
         25    1    1    2    0    0  0.21402424984E+03 -0.92804663703E+02  0.30397209871E+03  0.40304233267E+03  0.12500000000E+03 0.  0.
</event>
<event>
 5    0  0.6023793E-005  0.3401589E+03  0.7546771E-02  0.1066728E+00
         21   -1    0    0  502  501  0.00000000000E+00  0.00000000000E+00  0.56036766043E+03  0.56036766043E+03  0.00000000000E+00 0.  1.
         21   -1    0    0  501  502 -0.00000000000E+00 -0.00000000000E+00 -0.20648602401E+03  0.20648602401E+03  0.00000000000E+00 0.  1.
         25    1    1    2    0    0 -0.11419350314E+03  0.74133866160E+02  0.14687110147E+02  0.18540953987E+03  0.12500000000E+03 0.  0.
         25    1    1    2    0    0 -0.87670431029E+02 -0.15665483429E+03  0.18551817764E+03  0.28682544485E+03  0.12500000000E+03 0.  0.
         25    1    1    2    0    0  0.20186393416E+03  0.82520968125E+02  0.15367634863E+03  0.29461869972E+03  0.12500000000E+03 0.  0.
</event>
<event>
 5    0  0.5815084E-005  0.4667078E+03  0.7546771E-02  0.1022854E+00
         21   -1    0    0  502  501  0.00000000000E+00  0.00000000000E+00  0.13311965988E+04  0.13311965988E+04  0.00000000000E+00 0. -1.
         21   -1    0    0  501  502 -0.00000000000E+00 -0.00000000000E+00 -0.16362432795E+03  0.16362432795E+03  0.00000000000E+00 0. -1.
         25    1    1    2    0    0  0.30339751213E+03 -0.76886898449E+02  0.35498826025E+03  0.48949291153E+03  0.12500000000E+03 0.  0.
         25    1    1    2    0    0  0.18763122286E+01  0.30879328439E+02  0.17843062546E+01  0.12878368383E+03  0.12500000000E+03 0.  0.
         25    1    1    2    0    0 -0.30527382436E+03  0.46007570010E+02  0.81079970439E+03  0.87654433144E+03  0.12500000000E+03 0.  0.
</event>
<event>
 5    0  0.5815084E-005  0.3561550E+03  0.7546771E-02  0.1060117E+00
         21   -1    0    0  502  501  0.00000000000E+00  0.00000000000E+00  0.11888822344E+04  0.11888822344E+04  0.00000000000E+00 0.  1.
         21   -1    0    0  501  502 -0.00000000000E+00 -0.00000000000E+00 -0.10669384001E+03  0.10669384001E+03  0.00000000000E+00 0.  1.
         25    1    1    2    0    0 -0.13347653506E+03  0.22698726845E+03  0.45499143665E+03  0.54035304466E+03  0.12500000000E+03 0.  0.
         25    1    1    2    0    0  0.10725340506E+02 -0.11145547813E+02  0.10641563766E+03  0.16488949058E+03  0.12500000000E+03 0.  0.
         25    1    1    2    0    0  0.12275119455E+03 -0.21584172063E+03  0.52078132010E+03  0.59033353919E+03  0.12500000000E+03 0.  0.
</event>
<event>
 5    0  0.5815084E-005  0.2624449E+03  0.7546771E-02  0.1105683E+00
         21   -1    0    0  502  501  0.00000000000E+00  0.00000000000E+00  0.65034252601E+03  0.65034252601E+03  0.00000000000E+00 0.  1.
         21   -1    0    0  501  502 -0.00000000000E+00 -0.00000000000E+00 -0.10590934434E+03  0.10590934434E+03  0.00000000000E+00 0.  1.
         25    1    1    2    0    0 -0.15278161526E+02 -0.12564204359E+02  0.57208781094E+02  0.13888529830E+03  0.12500000000E+03 0.  0.
         25    1    1    2    0    0 -0.40221289669E+01  0.61481419525E+02  0.32839534891E+02  0.14317673526E+03  0.12500000000E+03 0.  0.
         25    1    1    2    0    0  0.19300290492E+02 -0.48917215165E+02  0.45438486568E+03  0.47418983679E+03  0.12500000000E+03 0.  0.
</event>
<event>
 5    0  0.5815084E-005  0.3721408E+03  0.7546771E-02  0.1053877E+00
         21   -1    0    0  502  501  0.00000000000E+00  0.00000000000E+00  0.18802856111E+04  0.18802856111E+04  0.00000000000E+00 0. -1.
         21   -1    0    0  501  502 -0.00000000000E+00 -0.00000000000E+00 -0.73653033272E+02  0.73653033272E+02  0.00000000000E+00 0. -1.
         25    1    1    2    0    0  0.18037392095E+03  0.99502068424E+00  0.50575893916E+03  0.55131918701E+03  0.12500000000E+03 0.  0.
         25    1    1    2    0    0 -0.74014734880E+02  0.14168884625E+03  0.21682446882E+03  0.29697097570E+03  0.12500000000E+03 0.  0.
         25    1    1    2    0    0 -0.10635918607E+03 -0.14268386694E+03  0.10840491699E+04  0.11056484817E+04  0.12500000000E+03 0.  0.
</event>
<event>
 5    0  0.5815084E-005  0.2948553E+03  0.7546771E-02  0.1087841E+00
         21   -1    0    0  502  501  0.00000000000E+00  0.00000000000E+00  0.34499150939E+02  0.34499150939E+02  0.00000000000E+00 0. -1.
         21   -1    0    0  501  502 -0.00000000000E+00 -0.00000000000E+00 -0.25200511869E+04  0.25200511869E+04  0.00000000000E+00 0. -1.
         25    1    1    2    0    0 -0.41917785197E+02  0.18285194564E+03 -0.76930808671E+03  0.80165570354E+03  0.12500000000E+03 0.  0.
         25    1    1    2    0    0 -0.62232700584E+02 -0.58946844675E+02 -0.77665167515E+03  0.79130301657E+03  0.12500000000E+03 0.  0.
         25    1    1    2    0    0  0.10415048578E+03 -0.12390510097E+03 -0.93959227407E+03  0.96159161770E+03  0.12500000000E+03 0.  0.
</event>
<event>
 5    0  0.5815084E-005  0.3073206E+03  0.7546771E-02  0.1081637E+00
         21   -1    0    0  502  501  0.00000000000E+00  0.00000000000E+00  0.14299790568E+03  0.14299790568E+03  0.00000000000E+00 0. -1.
         21   -1    0    0  501  502 -0.00000000000E+00 -0.00000000000E+00 -0.66047081329E+03  0.66047081329E+03  0.00000000000E+00 0. -1.
         25    1    1    2    0    0  0.11179279434E+03 -0.19960899501E+03 -0.17522309039E+03  0.31411703418E+03  0.12500000000E+03 0.  0.
         25    1    1    2    0    0 -0.81365974274E+02  0.12630179839E+03 -0.14828184491E+03  0.24532645918E+03  0.12500000000E+03 0.  0.
         25    1    1    2    0    0 -0.30426820061E+02  0.73307196620E+02 -0.19396797231E+03  0.24402522562E+03  0.12500000000E+03 0.  0.
</event>
<event>
 5    0  0.5815084E-005  0.2436852E+03  0.7546771E-02  0.1117362E+00
         21   -1    0    0  502  501  0.00000000000E+00  0.00000000000E+00  0.97893088710E+02  0.97893088710E+02  0.00000000000E+00 0.  1.
         21   -1    0    0  501  502 -0.00000000000E+00 -0.00000000000E+00 -0.60660534050E+03  0.60660534050E+03  0.00000000000E+00 0.  1.
         25    1    1    2    0    0  0.42266555146E+02 -0.10810905097E+01 -0.24979663838E+03  0.28250839100E+03  0.12500000000E+03 0.  0.
         25    1    1    2    0    0 -0.10266102010E+02 -0.86389219542E+02 -0.20841634726E+03  0.25812954869E+03  0.12500000000E+03 0.  0.
         25    1    1    2    0    0 -0.32000453136E+02  0.87470310051E+02 -0.50499266146E+02  0.16386048951E+03  0.12500000000E+03 0.  0.
</event>
<event>
 5    0  0.5815084E-005  0.4258329E+03  0.7546771E-02  0.1035184E+00
         21   -1    0    0  502  501  0.00000000000E+00  0.00000000000E+00  0.12251613531E+04  0.12251613531E+04  0.00000000000E+00 0. -1.
         21   -1    0    0  501  502 -0.00000000000E+00 -0.00000000000E+00 -0.14800796240E+03  0.14800796240E+03  0.00000000000E+00 0. -1.
         25    1    1    2    0    0 -0.12121547854E+03  0.15245124826E+03  0.32765229915E+03  0.40114287290E+03  0.12500000000E+03 0.  0.
         25    1    1    2    0    0 -0.17138890597E+03  0.61039967428E+02  0.38150504834E+03  0.44076199544E+03  0.12500000000E+03 0.  0.
         25    1    1    2    0    0  0.29260438452E+03 -0.21349121569E+03  0.36799604321E+03  0.53126444718E+03  0.12500000000E+03 0.  0.
</event>
<event>
 5    0  0.5815084E-005  0.3084221E+03  0.7546771E-02  0.1081105E+00
         21   -1    0    0  502  501  0.00000000000E+00  0.00000000000E+00  0.69237732091E+03  0.69237732091E+03  0.00000000000E+00 0.  1.
         21   -1    0    0  501  502 -0.00000000000E+00 -0.00000000000E+00 -0.13738782377E+03  0.13738782377E+03  0.00000000000E+00 0.  1.
         25    1    1    2    0    0  0.10251925554E+03  0.71330492963E+02  0.38398344153E+03  0.42268962650E+03  0.12500000000E+03 0.  0.
         25    1    1    2    0    0 -0.91590252429E+02 -0.13924249247E+03  0.16237938776E+03  0.26413881126E+03  0.12500000000E+03 0.  0.
         25    1    1    2    0    0 -0.10929003111E+02  0.67911999504E+02  0.86266678621E+01  0.14293670692E+03  0.12500000000E+03 0.  0.
</event>
<event>
 5    0  0.5815084E-005  0.2814209E+03  0.7546771E-02  0.1094915E+00
         21   -1    0    0  502  501  0.00000000000E+00  0.00000000000E+00  0.10545989378E+03  0.10545989378E+03  0.00000000000E+00 0. -1.
         21   -1    0    0  501  502 -0.00000000000E+00 -0.00000000000E+00 -0.75097457285E+03  0.75097457285E+03  0.00000000000E+00 0. -1.
         25    1    1    2    0    0 -0.68650036477E+02  0.92284604908E+02 -0.21672213152E+03  0.27535932543E+03  0.12500000000E+03 0.  0.
         25    1    1    2    0    0  0.17616898120E+03 -0.47912245410E+02 -0.24992593012E+03  0.33379494266E+03  0.12500000000E+03 0.  0.
         25    1    1    2    0    0 -0.10751894472E+03 -0.44372359497E+02 -0.17886661742E+03  0.24728019854E+03  0.12500000000E+03 0.  0.
</event>
<event>
 5    0  0.5815084E-005  0.4138619E+03  0.7546771E-02  0.1039083E+00
         21   -1    0    0  502  501  0.00000000000E+00  0.00000000000E+00  0.27436949078E+03  0.27436949078E+03  0.00000000000E+00 0. -1.
         21   -1    0    0  501  502 -0.00000000000E+00 -0.00000000000E+00 -0.62427361401E+03  0.62427361401E+03  0.00000000000E+00 0. -1.
         25    1    1    2    0    0 -0.18260292740E+03 -0.15369019242E+03 -0.68016634627E+01  0.26951023537E+03  0.12500000000E+03 0.  0.
         25    1    1    2    0    0  0.26641756347E+03  0.48520763804E+02 -0.33037193250E+03  0.44508785249E+03  0.12500000000E+03 0.  0.
         25    1    1    2    0    0 -0.83814636069E+02  0.10516942862E+03 -0.12730527265E+02  0.18404501694E+03  0.12500000000E+03 0.  0.
</event>
<event>
 5    0  0.5815084E-005  0.4534694E+03  0.7546771E-02  0.1026692E+00
         21   -1    0    0  502  501  0.00000000000E+00  0.00000000000E+00  0.13590960467E+04  0.13590960467E+04  0.00000000000E+00 0.  1.
         21   -1    0    0  501  502 -0.00000000000E+00 -0.00000000000E+00 -0.15130242372E+03  0.15130242372E+03  0.00000000000E+00 0.  1.
         25    1    1    2    0    0  0.21456167224E+03 -0.30906425907E+03  0.65536480744E+03  0.76595395309E+03  0.12500000000E+03 0.  0.
         25    1    1    2    0    0 -0.12884383990E+03  0.27726860675E+03  0.28911915362E+03  0.43896867810E+03  0.12500000000E+03 0.  0.
         25    1    1    2    0    0 -0.85717832346E+02  0.31795652319E+02  0.26330966193E+03  0.30547583923E+03  0.12500000000E+03 0.  0.
</event>
<event>
 5    0  0.5815084E-005  0.2654819E+03  0.7546771E-02  0.1103894E+00
         21   -1    0    0  502  501  0.00000000000E+00  0.00000000000E+00  0.28076881217E+03  0.28076881217E+03  0.00000000000E+00 0. -1.
         21   -1    0    0  501  502 -0.00000000000E+00 -0.00000000000E+00 -0.25102739345E+03  0.25102739345E+03  0.00000000000E+00 0.  1.
         25    1    1    2    0    0 -0.85248871144E+01 -0.15403558238E+02  0.74725908006E+02  0.14669323309E+03  0.12500000000E+03 0.  0.
         25    1    1    2    0    0  0.12311417017E+03 -0.73815255471E+02 -0.32351284868E+02  0.19307355197E+03  0.12500000000E+03 0.  0.
         25    1    1    2    0    0 -0.11458928305E+03  0.89218813709E+02 -0.12633204415E+02  0.19202942057E+03  0.12500000000E+03 0.  0.
</event>
<event>
 5    0  0.6506497E-005  0.3377387E+03  0.7546771E-02  0.1067763E+00
         21   -1    0    0  502  501  0.00000000000E+00  0.00000000000E+00  0.14960643667E+03  0.14960643667E+03  0.00000000000E+00 0. -1.
         21   -1    0    0  501  502 -0.00000000000E+00 -0.00000000000E+00 -0.76244988562E+03  0.76244988562E+03  0.00000000000E+00 0. -1.
         25    1    1    2    0    0 -0.90857498579E+02 -0.66146615518E+02 -0.63337812912E+02  0.17963056070E+03  0.12500000000E+03 0.  0.
         25    1    1    2    0    0  0.21299865108E+03 -0.59476359139E+02 -0.38618374650E+03  0.46224317055E+03  0.12500000000E+03 0.  0.
         25    1    1    2    0    0 -0.12214115251E+03  0.12562297466E+03 -0.16332188954E+03  0.27018259104E+03  0.12500000000E+03 0.  0.
</event>
<event>
 5    0  0.7045277E-005  0.3568187E+03  0.7546771E-02  0.1059851E+00
         21   -1    0    0  502  501  0.00000000000E+00  0.00000000000E+00  0.17440639027E+03  0.17440639027E+03  0.00000000000E+00 0. -1.
         21   -1    0    0  501  502 -0.00000000000E+00 -0.00000000000E+00 -0.73001667749E+03  0.73001667749E+03  0.00000000000E+00 0. -1.
         25    1    1    2    0    0 -0.16593539760E+03  0.19618137194E+02 -0.19813142241E+03  0.28775073941E+03  0.12500000000E+03 0.  0.
         25    1    1    2    0    0 -0.63963795661E+02  0.20072290452E+02 -0.31912890247E+03  0.34923132790E+03  0.12500000000E+03 0.  0.
         25    1    1    2    0    0  0.22989919326E+03 -0.39690427646E+02 -0.38349962352E+02  0.26744100045E+03  0.12500000000E+03 0.  0.
</event>
<event>
 5    0  0.5815084E-005  0.2700872E+03  0.7546771E-02  0.1101230E+00
         21   -1    0    0  502  501  0.00000000000E+00  0.00000000000E+00  0.11339566959E+03  0.11339566959E+03  0.00000000000E+00 0.  1.
         21   -1    0    0  501  502 -0.00000000000E+00 -0.00000000000E+00 -0.64329680551E+03  0.64329680551E+03  0.00000000000E+00 0.  1.
         25    1    1    2    0    0  0.60326959438E+01  0.25572568181E+02 -0.91857396010E+02  0.15733127745E+03  0.12500000000E+03 0.  0.
         25    1    1    2    0    0 -0.36556766645E+02  0.30415686970E+02 -0.43911613823E+03  0.45903103823E+03  0.12500000000E+03 0.  0.
         25    1    1    2    0    0  0.30524070701E+02 -0.55988255151E+02  0.10723983172E+01  0.14033015943E+03  0.12500000000E+03 0.  0.
</event>
<event>
 5    0  0.5815084E-005  0.3317403E+03  0.7546771E-02  0.1070369E+00
         21   -1    0    0  502  501  0.00000000000E+00  0.00000000000E+00  0.16969195923E+03  0.16969195923E+03  0.00000000000E+00 0.  1.
         21   -1    0    0  501  502 -0.00000000000E+00 -0.00000000000E+00 -0.64853759801E+03  0.64853759801E+03  0.00000000000E+00 0.  1.
         25    1    1    2    0    0  0.31476295677E+02 -0.14183282177E+03 -0.31123747349E+03  0.36551480329E+03  0.12500000000E+03 0.  0.
         25    1    1    2    0    0  0.12100759703E+03  0.49823699527E+01 -0.10997988018E+03  0.20588403677E+03  0.12500000000E+03 0.  0.
         25    1    1    2    0    0 -0.15248389271E+03  0.13685045182E+03 -0.57628285105E+02  0.24683071718E+03  0.12500000000E+03 0.  0.
</event>
<event>
 5    0  0.5815084E-005  0.2989179E+03  0.7546771E-02  0.1085783E+00
         21   -1    0    0  502  501  0.00000000000E+00  0.00000000000E+00  0.44856039272E+03  0.44856039272E+03  0.00000000000E+00 0.  1.
         21   -1    0    0  501  502 -0.00000000000E+00 -0.00000000000E+00 -0.19919702431E+03  0.19919702431E+03  0.00000000000E+00 0.  1.
         25    1    1    2    0    0 -0.15669766998E+02 -0.53045430105E+02  0.64103351037E+01  0.13684097211E+03  0.12500000000E+03 0.  0.
         25    1    1    2    0    0 -0.16445672217E+03  0.71770439812E+02  0.65645609426E+02  0.22832291942E+03  0.12500000000E+03 0.  0.
         25    1    1    2    0    0  0.18012648917E+03 -0.18725009707E+02  0.17730742388E+03  0.28259352550E+03  0.12500000000E+03 0.  0.
</event>
<event>
 5    0  0.5815084E-005  0.2743517E+03  0.7546771E-02  0.1098815E+00
         21   -1    0    0  502  501  0.00000000000E+00  0.00000000000E+00  0.45331597206E+03  0.45331597206E+03  0.00000000000E+00 0.  1.
         21   -1    0    0  501  502 -0.00000000000E+00 -0.00000000000E+00 -0.16604061383E+03  0.16604061383E+03  0.00000000000E+00 0.  1.
         25    1    1    2    0    0  0.56405860731E+02 -0.39838559172E+02 -0.31527440294E+02  0.14624538083E+03  0.12500000000E+03 0.  0.
         25    1    1    2    0    0 -0.13211506015E+03 -0.23992766765E+01  0.10284644260E+03  0.20895582405E+03  0.12500000000E+03 0.  0.
         25    1    1    2    0    0  0.75709199421E+02  0.42237835848E+02  0.21595635593E+03  0.26415538102E+03  0.12500000000E+03 0.  0.
</event>
<event>
 5    0  0.5815084E-005  0.4053441E+03  0.7546771E-02  0.1041945E+00
         21   -1    0    0  502  501  0.00000000000E+00  0.00000000000E+00  0.90852624927E+03  0.90852624927E+03  0.00000000000E+00 0. -1.
         21   -1    0    0  501  502 -0.00000000000E+00 -0.00000000000E+00 -0.18084654168E+03  0.18084654168E+03  0.00000000000E+00 0. -1.
         25    1    1    2    0    0  0.15839668490E+02 -0.88677771979E+02  0.24425007827E+03  0.28878667399E+03  0.12500000000E+03 0.  0.
         25    1    1    2    0    0  0.54432916270E+02  0.25042319613E+02  0.59315566049E+03  0.60913766729E+03  0.12500000000E+03 0.  0.
         25    1    1    2    0    0 -0.70272584760E+02  0.63635452367E+02 -0.10972603117E+03  0.19144844967E+03  0.12500000000E+03 0.  0.
</event>
<event>
 5    0  0.5815084E-005  0.2204144E+03  0.7546771E-02  0.1133574E+00
         21   -1    0    0  502  501  0.00000000000E+00  0.00000000000E+00  0.77346523411E+03  0.77346523411E+03  0.00000000000E+00 0. -1.
         21   -1    0    0  501  502 -0.00000000000E+00 -0.00000000000E+00 -0.62811492094E+02  0.62811492094E+02  0.00000000000E+00 0. -1.
         25    1    1    2    0    0  0.71196540272E+01 -0.29173393219E+02  0.14250393792E+03  0.19192224641E+03  0.12500000000E+03 0.  0.
         25    1    1    2    0    0 -0.53390650394E+02 -0.44910004063E+02  0.20073227590E+03  0.24654800061E+03  0.12500000000E+03 0.  0.
         25    1    1    2    0    0  0.46270996367E+02  0.74083397282E+02  0.36741752820E+03  0.39780647919E+03  0.12500000000E+03 0.  0.
</event>
<event>
 5    0  0.5815084E-005  0.2986911E+03  0.7546771E-02  0.1085897E+00
         21   -1    0    0  502  501  0.00000000000E+00  0.00000000000E+00  0.31064507643E+03  0.31064507643E+03  0.00000000000E+00 0.  1.
         21   -1    0    0  501  502 -0.00000000000E+00 -0.00000000000E+00 -0.28719709066E+03  0.28719709066E+03  0.00000000000E+00 0.  1.
         25    1    1    2    0    0  0.10125764688E+03 -0.45987484898E+02  0.41166750566E+02  0.17230107711E+03  0.12500000000E+03 0.  0.
         25    1    1    2    0    0 -0.11672796368E+03  0.17467766212E+03  0.13103433629E+01  0.24446762597E+03  0.12500000000E+03 0.  0.
         25    1    1    2    0    0  0.15470316796E+02 -0.12869017722E+03 -0.19029108163E+02  0.18107346402E+03  0.12500000000E+03 0.  0.
</event>
<event>
 5    0  0.5815084E-005  0.4263193E+03  0.7546771E-02  0.1035029E+00
         21   -1    0    0  502  501  0.00000000000E+00  0.00000000000E+00  0.63559168113E+02  0.63559168113E+02  0.00000000000E+00 0. -1.
         21   -1    0    0  501  502 -0.00000000000E+00 -0.00000000000E+00 -0.28595114759E+04  0.28595114759E+04  0.00000000000E+00 0.  1.
         25    1    1    2    0    0 -0.12805579521E+03 -0.16883676222E+03 -0.52948222521E+03  0.58384978015E+03  0.12500000000E+03 0.  0.
         25    1    1    2    0    0 -0.13964243751E+03  0.15221926976E+02 -0.13711147364E+04  0.13839480979E+04  0.12500000000E+03 0.  0.
         25    1    1    2    0    0  0.26769823272E+03  0.15361483524E+03 -0.89535534625E+03  0.95527276600E+03  0.12500000000E+03 0.  0.
</event>
<event>
 5    0  0.5815084E-005  0.3675028E+03  0.7546771E-02  0.1055652E+00
         21   -1    0    0  502  501  0.00000000000E+00  0.00000000000E+00  0.79653523534E+03  0.79653523534E+03  0.00000000000E+00 0. -1.
         21   -1    0    0  501  502 -0.00000000000E+00 -0.00000000000E+00 -0.16955721449E+03  0.16955721449E+03  0.00000000000E+00 0. -1.
         25    1    1    2    0    0  0.21699482121E+02  0.85613732144E+02  0.14552747583E+03  0.21119617629E+03  0.12500000000E+03 0.  0.
         25    1    1    2    0    0  0.15873608579E+03 -0.21458457779E+03  0.37984376186E+03  0.48078058340E+03  0.12500000000E+03 0.  0.
         25    1    1    2    0    0 -0.18043556791E+03  0.12897084564E+03  0.10160678317E+03  0.27411569014E+03  0.12500000000E+03 0.  0.
</event>
<event>
 5    0  0.5815084E-005  0.2393193E+03  0.7546771E-02  0.1120247E+00
         21   -1    0    0  502  501  0.00000000000E+00  0.00000000000E+00  0.18771301972E+03  0.18771301972E+03  0.00000000000E+00 0. -1.
         21   -1    0    0  501  502 -0.00000000000E+00 -0.00000000000E+00 -0.30511314833E+03  0.30511314833E+03  0.00000000000E+00 0. -1.
         25    1    1    2    0    0 -0.24646954833E+02  0.10497889770E+02 -0.10243649801E+03  0.16381670915E+03  0.12500000000E+03 0.  0.
         25    1    1    2    0    0 -0.33223215170E+02 -0.99825089570E+02  0.60563083201E+01  0.16349467699E+03  0.12500000000E+03 0.  0.
         25    1    1    2    0    0  0.57870170003E+02  0.89327199799E+02 -0.21019938920E+02  0.16551478192E+03  0.12500000000E+03 0.  0.
</event>
<event>
 5    0  0.5815084E-005  0.3288133E+03  0.7546771E-02  0.1071663E+00
         21   -1    0    0  502  501  0.00000000000E+00  0.00000000000E+00  0.85264049211E+03  0.85264049211E+03  0.00000000000E+00 0. -1.
         21   -1    0    0  501  502 -0.00000000000E+00 -0.00000000000E+00 -0.12680394363E+03  0.12680394363E+03  0.00000000000E+00 0. -1.
         25    1    1    2    0    0 -0.10157998603E+03 -0.12538942576E+03  0.59479264680E+03  0.62884361676E+03  0.12500000000E+03 0.  0.
         25    1    1    2    0    0  0.98725540106E+02  0.35586236574E+02  0.28626487861E+02  0.16570331412E+03  0.12500000000E+03 0.  0.
         25    1    1    2    0    0  0.28544459241E+01  0.89803189182E+02  0.10241741382E+03  0.18489750486E+03  0.12500000000E+03 0.  0.
</event>
<event>
 5    0  0.7137312E-005  0.3465651E+03  0.7546771E-02  0.1064034E+00
         21   -1    0    0  502  501  0.00000000000E+00  0.00000000000E+00  0.38500212778E+03  0.38500212778E+03  0.00000000000E+00 0.  1.
         21   -1    0    0  501  502 -0.00000000000E+00 -0.00000000000E+00 -0.31196540944E+03  0.31196540944E+03  0.00000000000E+00 0.  1.
         25    1    1    2    0    0  0.15902190791E+03 -0.91513970289E+02 -0.86833324554E+01  0.22217824875E+03  0.12500000000E+03 0.  0.
         25    1    1    2    0    0 -0.47554380401E+02 -0.57945390838E+02 -0.10757699124E+03  0.18115434430E+03  0.12500000000E+03 0.  0.
         25    1    1    2    0    0 -0.11146752751E+03  0.14945936113E+03  0.18929704204E+03  0.29363494418E+03  0.12500000000E+03 0.  0.
</event>
<event>
 5    0  0.5815084E-005  0.2745882E+03  0.7546771E-02  0.1098682E+00
         21   -1    0    0  502  501  0.00000000000E+00  0.00000000000E+00  0.17897956146E+03  0.17897956146E+03  0.00000000000E+00 0.  1.
         21   -1    0    0  501  502 -0.00000000000E+00 -0.00000000000E+00 -0.42126987686E+03  0.42126987686E+03  0.00000000000E+00 0.  1.
         25    1    1    2    0    0 -0.40006411412E+02  0.32239433100E+02 -0.54356505570E+02  0.14566922701E+03  0.12500000000E+03 0.  0.
         25    1    1    2    0    0 -0.90496885354E+02 -0.12250198163E+03 -0.15327675346E+03  0.24963009617E+03  0.12500000000E+03 0.  0.
         25    1    1    2    0    0  0.13050329677E+03  0.90262548534E+02 -0.34657056365E+02  0.20495011513E+03  0.12500000000E+03 0.  0.
</event>
<event>
 5    0  0.5815084E-005  0.2633614E+03  0.7546771E-02  0.1105140E+00
         21   -1    0    0  502  501  0.00000000000E+00  0.00000000000E+00  0.64416618713E+02  0.64416618713E+02  0.00000000000E+00 0. -1.
         21   -1    0    0  501  502 -0.00000000000E+00 -0.00000000000E+00 -0.10767285998E+04  0.10767285998E+04  0.00000000000E+00 0. -1.
         25    1    1    2    0    0 -0.70258501007E+02  0.26300643561E+02 -0.36522597819E+03  0.39324673674E+03  0.12500000000E+03 0.  0.
         25    1    1    2    0    0 -0.93029652860E+02  0.27512244632E+02 -0.22187127283E+03  0.27251293845E+03  0.12500000000E+03 0.  0.
         25    1    1    2    0    0  0.16328815387E+03 -0.53812888193E+02 -0.42521473007E+03  0.47538554332E+03  0.12500000000E+03 0.  0.
</event>
<event>
 5    0  0.5815084E-005  0.3494150E+03  0.7546771E-02  0.1062855E+00
         21   -1    0    0  502  501  0.00000000000E+00  0.00000000000E+00  0.74516634096E+03  0.74516634096E+03  0.00000000000E+00 0. -1.
         21   -1    0    0  501  502 -0.00000000000E+00 -0.00000000000E+00 -0.16384372598E+03  0.16384372598E+03  0.00000000000E+00 0. -1.
         25    1    1    2    0    0  0.18297535262E+03  0.15089440536E+03  0.31922020584E+03  0.41686405584E+03  0.12500000000E+03 0.  0.
         25    1    1    2    0    0 -0.14189836345E+03 -0.49103055791E+02  0.17258683932E+02  0.19613545780E+03  0.12500000000E+03 0.  0.
         25    1    1    2    0    0 -0.41076989172E+02 -0.10179134957E+03  0.24484372521E+03  0.29601055329E+03  0.12500000000E+03 0.  0.
</event>
<event>
 5    0  0.5815084E-005  0.3254910E+03  0.7546771E-02  0.1073150E+00
         21   -1    0    0  502  501  0.00000000000E+00  0.00000000000E+00  0.54714986286E+03  0.54714986286E+03  0.00000000000E+00 0. -1.
         21   -1    0    0  501  502 -0.00000000000E+00 -0.00000000000E+00 -0.19362956752E+03  0.19362956752E+03  0.00000000000E+00 0. -1.
         25    1    1    2    0    0 -0.10526684990E+03  0.10568744013E+03  0.69013870184E+02  0.20649178911E+03  0.12500000000E+03 0.  0.
         25    1    1    2    0    0 -0.78542656053E+02  0.65069852704E+02  0.16119501701E+03  0.22806110598E+03  0.12500000000E+03 0.  0.
         25    1    1    2    0    0  0.18380950596E+03 -0.17075729284E+03  0.12331140815E+03  0.30622653529E+03  0.12500000000E+03 0.  0.
</event>
<event>
 5    0  0.5815084E-005  0.2826558E+03  0.7546771E-02  0.1094247E+00
         21   -1    0    0  502  501  0.00000000000E+00  0.00000000000E+00  0.12202278353E+04  0.12202278353E+04  0.00000000000E+00 0. -1.
         21   -1    0    0  501  502 -0.00000000000E+00 -0.00000000000E+00 -0.65474886170E+02  0.65474886170E+02  0.00000000000E+00 0. -1.
         25    1    1    2    0    0  0.32051579149E+02 -0.10783335068E+03  0.12438526735E+03  0.20916985915E+03  0.12500000000E+03 0.  0.
         25    1    1    2    0    0  0.36871687270E+02  0.94480325190E+02  0.66101026802E+03  0.68032758845E+03  0.12500000000E+03 0.  0.
         25    1    1    2    0    0 -0.68923266419E+02  0.13353025495E+02  0.36935741381E+03  0.39620527391E+03  0.12500000000E+03 0.  0.
</event>
<event>
 5    0  0.5880137E-005  0.3144485E+03  0.7546771E-02  0.1078233E+00
         21   -1    0    0  502  501  0.00000000000E+00  0.00000000000E+00  0.18518126126E+03  0.18518126126E+03  0.00000000000E+00 0.  1.
         21   -1    0    0  501  502 -0.00000000000E+00 -0.00000000000E+00 -0.53395174945E+03  0.53395174945E+03  0.00000000000E+00 0.  1.
         25    1    1    2    0    0  0.16238750679E+03  0.43140205999E+02  0.31760434852E+02  0.21181242871E+03  0.12500000000E+03 0.  0.
         25    1    1    2    0    0 -0.81781392170E+02  0.42596196531E+02 -0.23792199341E+03  0.28413818295E+03  0.12500000000E+03 0.  0.
         25    1    1    2    0    0 -0.80606114615E+02 -0.85736402529E+02 -0.14260892963E+03  0.22318239904E+03  0.12500000000E+03 0.  0.
</event>
<event>
 5    0  0.5815084E-005  0.3094350E+03  0.7546771E-02  0.1080617E+00
         21   -1    0    0  502  501  0.00000000000E+00  0.00000000000E+00  0.33839991836E+03  0.33839991836E+03  0.00000000000E+00 0. -1.
         21   -1    0    0  501  502 -0.00000000000E+00 -0.00000000000E+00 -0.28294938047E+03  0.28294938047E+03  0.00000000000E+00 0. -1.
         25    1    1    2    0    0  0.77559914168E+02  0.11378481020E+03  0.74481763473E+02  0.20033735650E+03  0.12500000000E+03 0.  0.
         25    1    1    2    0    0 -0.27163000735E+02  0.30163791410E+02 -0.13811221220E+03  0.19065063881E+03  0.12500000000E+03 0.  0.
         25    1    1    2    0    0 -0.50396913433E+02 -0.14394860161E+03  0.11908098661E+03  0.23036130352E+03  0.12500000000E+03 0.  0.
</event>
<event>
 5    0  0.5815084E-005  0.4164706E+03  0.7546771E-02  0.1038221E+00
         21   -1    0    0  502  501  0.00000000000E+00  0.00000000000E+00  0.22963566325E+04  0.22963566325E+04  0.00000000000E+00 0. -1.
         21   -1    0    0  501  502 -0.00000000000E+00 -0.00000000000E+00 -0.75531723102E+02  0.75531723102E+02  0.00000000000E+00 0. -1.
         25    1    1    2    0    0  0.80706329765E+02  0.26910912127E+03  0.38314854854E+03  0.49128509143E+03  0.12500000000E+03 0.  0.
         25    1    1    2    0    0  0.35386760173E+01 -0.76758397994E+02  0.88507712855E+03  0.89715711967E+03  0.12500000000E+03 0.  0.
         25    1    1    2    0    0 -0.84245005783E+02 -0.19235072327E+03  0.95259923234E+03  0.98344614454E+03  0.12500000000E+03 0.  0.
</event>
<event>
 5    0  0.5815084E-005  0.2547647E+03  0.7546771E-02  0.1110330E+00
         21   -1    0    0  502  501  0.00000000000E+00  0.00000000000E+00  0.77243385916E+02  0.77243385916E+02  0.00000000000E+00 0. -1.
         21   -1    0    0  501  502 -0.00000000000E+00 -0.00000000000E+00 -0.84026671513E+03  0.84026671513E+03  0.00000000000E+00 0. -1.
         25    1    1    2    0    0  0.57367705730E+02  0.74718834202E+02 -0.71792819360E+02  0.17220094877E+03  0.12500000000E+03 0.  0.
         25    1    1    2    0    0 -0.61289378607E+02 -0.30913592616E+02 -0.29828789811E+03  0.33062472427E+03  0.12500000000E+03 0.  0.
         25    1    1    2    0    0  0.39216728777E+01 -0.43805241585E+02 -0.39294261174E+03  0.41468442800E+03  0.12500000000E+03 0.  0.
</event>
<event>
 5    0  0.5815084E-005  0.4171953E+03  0.7546771E-02  0.1037983E+00
         21   -1    0    0  502  501  0.00000000000E+00  0.00000000000E+00  0.18941716670E+03  0.18941716670E+03  0.00000000000E+00 0. -1.
         21   -1    0    0  501  502 -0.00000000000E+00 -0.00000000000E+00 -0.91888158118E+03  0.91888158118E+03  0.00000000000E+00 0. -1.
         25    1    1    2    0    0  0.17161374831E+03 -0.10200787836E+03 -0.15394450997E+03  0.28139082787E+03  0.12500000000E+03 0.  0.
         25    1    1    2    0    0  0.11040145751E+02 -0.12797910394E+03 -0.44918892390E+03  0.48362818903E+03  0.12500000000E+03 0.  0.
         25    1    1    2    0    0 -0.18265389406E+03  0.22998698230E+03 -0.12633098061E+03  0.34327973099E+03  0.12500000000E+03 0.  0.
</event>
<event>
 5    0  0.5815084E-005  0.4404175E+03  0.7546771E-02  0.1030619E+00
         21   -1    0    0  502  501  0.00000000000E+00  0.00000000000E+00  0.74987826705E+03  0.74987826705E+03  0.00000000000E+00 0.  1.
         21   -1    0    0  501  502 -0.00000000000E+00 -0.00000000000E+00 -0.25866542449E+03  0.25866542449E+03  0.00000000000E+00 0.  1.
         25    1    1    2    0    0 -0.11038700303E+03  0.36094552019E+02  0.81875487464E+02  0.18925301205E+03  0.12500000000E+03 0.  0.
         25    1    1    2    0    0  0.11877838874E+03  0.30151923706E+03  0.16839410702E+03  0.38601001441E+03  0.12500000000E+03 0.  0.
         25    1    1    2    0    0 -0.83913857060E+01 -0.33761378908E+03  0.24094324808E+03  0.43328066508E+03  0.12500000000E+03 0.  0.
</event>
<event>
 5    0  0.5815084E-005  0.3036501E+03  0.7546771E-02  0.1083430E+00
         21   -1    0    0  502  501  0.00000000000E+00  0.00000000000E+00  0.15776359225E+03  0.15776359225E+03  0.00000000000E+00 0. -1.
         21   -1    0    0  501  502 -0.00000000000E+00 -0.00000000000E+00 -0.58444014375E+03  0.58444014375E+03  0.00000000000E+00 0. -1.
         25    1    1    2    0    0 -0.63079689531E+01  0.26018598997E+02 -0.88768076482E+01  0.12814271606E+03  0.12500000000E+03 0.  0.
         25    1    1    2    0    0  0.12779778828E+03 -0.73070232505E+02 -0.38476611385E+03  0.43051306129E+03  0.12500000000E+03 0.  0.
         25    1    1    2    0    0 -0.12148981933E+03  0.47051633508E+02 -0.33033629997E+02  0.18354795866E+03  0.12500000000E+03 0.  0.
</event>
<event>
 5    0  0.5815084E-005  0.2808259E+03  0.7546771E-02  0.1095239E+00
         21   -1    0    0  502  501  0.00000000000E+00  0.00000000000E+00  0.35301476616E+03  0.35301476616E+03  0.00000000000E+00 0. -1.
         21   -1    0    0  501  502 -0.00000000000E+00 -0.00000000000E+00 -0.22339917286E+03  0.22339917286E+03  0.00000000000E+00 0. -1.
         25    1    1    2    0    0  0.11822663342E+03 -0.39899712610E+02  0.43711952788E+02  0.18194850572E+03  0.12500000000E+03 0.  0.
         25    1    1    2    0    0 -0.13679576837E+03  0.12224645226E+03  0.98987338086E+02  0.24306536248E+03  0.12500000000E+03 0.  0.
         25    1    1    2    0    0  0.18569134951E+02 -0.82346739648E+02 -0.13083697575E+02  0.15140007082E+03  0.12500000000E+03 0.  0.
</event>
<event>
 5    0  0.5874380E-005  0.5139397E+03  0.7546771E-02  0.1010203E+00
         21   -1    0    0  502  501  0.00000000000E+00  0.00000000000E+00  0.13608109321E+04  0.13608109321E+04  0.00000000000E+00 0. -1.
         21   -1    0    0  501  502 -0.00000000000E+00 -0.00000000000E+00 -0.19410043219E+03  0.19410043219E+03  0.00000000000E+00 0. -1.
         25    1    1    2    0    0  0.67790878185E+02  0.31815213634E+03  0.37529998150E+03  0.51214398477E+03  0.12500000000E+03 0.  0.
         25    1    1    2    0    0  0.65875248282E+02 -0.88767686442E+02  0.72226188553E+03  0.74128704412E+03  0.12500000000E+03 0.  0.
         25    1    1    2    0    0 -0.13366612647E+03 -0.22938444990E+03  0.69148632912E+02  0.30148033543E+03  0.12500000000E+03 0.  0.
</event>
<event>
 5    0  0.5815084E-005  0.5857521E+03  0.7546771E-02  0.9935415E-01
         21   -1    0    0  502  501  0.00000000000E+00  0.00000000000E+00  0.47405502387E+03  0.47405502387E+03  0.00000000000E+00 0.  1.
         21   -1    0    0  501  502 -0.00000000000E+00 -0.00000000000E+00 -0.72376728616E+03  0.72376728616E+03  0.00000000000E+00 0.  1.
         25    1    1    2    0    0 -0.63474518887E+02 -0.18127374881E+03  0.33934888412E+03  0.40947753505E+03  0.12500000000E+03 0.  0.
         25    1    1    2    0    0 -0.12500580248E+03 -0.30653543028E+02 -0.89639411461E+02  0.20056498807E+03  0.12500000000E+03 0.  0.
         25    1    1    2    0    0  0.18848032136E+03  0.21192729184E+03 -0.49942173495E+03  0.58777978691E+03  0.12500000000E+03 0.  0.
</event>
<event>
 5    0  0.5815084E-005  0.3254822E+03  0.7546771E-02  0.1073154E+00
         21   -1    0    0  502  501  0.00000000000E+00  0.00000000000E+00  0.22126962266E+03  0.22126962266E+03  0.00000000000E+00 0.  1.
         21   -1    0    0  501  502 -0.00000000000E+00 -0.00000000000E+00 -0.47877643503E+03  0.47877643503E+03  0.00000000000E+00 0.  1.
         25    1    1    2    0    0 -0.59363721349E+02 -0.90708792324E+01  0.13828448072E+03  0.19584159382E+03  0.12500000000E+03 0.  0.
         25    1    1    2    0    0  0.65555744563E+02 -0.71914588470E+02 -0.15934336350E+03  0.22468771923E+03  0.12500000000E+03 0.  0.
         25    1    1    2    0    0 -0.61920232143E+01  0.80985467702E+02 -0.23644792958E+03  0.27951674464E+03  0.12500000000E+03 0.  0.
</event>
<event>
 5    0  0.5815084E-005  0.3016687E+03  0.7546771E-02  0.1084409E+00
         21   -1    0    0  502  501  0.00000000000E+00  0.00000000000E+00  0.65591161546E+03  0.65591161546E+03  0.00000000000E+00 0.  1.
         21   -1    0    0  501  502 -0.00000000000E+00 -0.00000000000E+00 -0.13874426905E+03  0.13874426905E+03  0.00000000000E+00 0.  1.
         25    1    1    2    0    0  0.11560595930E+03 -0.12216121856E+03  0.21075116991E+03  0.29720221528E+03  0.12500000000E+03 0.  0.
         25    1    1    2    0    0  0.39733954613E+02 -0.19618483892E+02  0.17549166927E+03  0.21996817507E+03  0.12500000000E+03 0.  0.
         25    1    1    2    0    0 -0.15533991391E+03  0.14177970245E+03  0.13092450723E+03  0.27748549417E+03  0.12500000000E+03 0.  0.
</event>
<event>
 5    0  0.5815084E-005  0.2125722E+03  0.7546771E-02  0.1139545E+00
         21   -1    0    0  502  501  0.00000000000E+00  0.00000000000E+00  0.68936774234E+03  0.68936774234E+03  0.00000000000E+00 0.  1.
         21   -1    0    0  501  502 -0.00000000000E+00 -0.00000000000E+00 -0.65548396032E+02  0.65548396032E+02  0.00000000000E+00 0.  1.
         25    1    1    2    0    0 -0.36157402292E+02 -0.32673958819E+02  0.27029216579E+03  0.30175785030E+03  0.12500000000E+03 0.  0.
         25    1    1    2    0    0 -0.12176645067E+02 -0.37592640764E+02  0.14451260662E+03  0.19511630069E+03  0.12500000000E+03 0.  0.
         25    1    1    2    0    0  0.48334047360E+02  0.70266599583E+02  0.20901457390E+03  0.25804198738E+03  0.12500000000E+03 0.  0.
</event>
<event>
 5    0  0.5815084E-005  0.2535556E+03  0.7546771E-02  0.1111078E+00
         21   -1    0    0  502  501  0.00000000000E+00  0.00000000000E+00  0.13561482408E+03  0.13561482408E+03  0.00000000000E+00 0. -1.
         21   -1    0    0  501  502 -0.00000000000E+00 -0.00000000000E+00 -0.47406654317E+03  0.47406654317E+03  0.00000000000E+00 0. -1.
         25    1    1    2    0    0 -0.80510132779E+02 -0.97632228258E+02 -0.78626284548E+02  0.19447628672E+03  0.12500000000E+03 0.  0.
         25    1    1    2    0    0  0.72079486136E+02 -0.26068623672E+02 -0.13570461958E+03  0.19978931212E+03  0.12500000000E+03 0.  0.
         25    1    1    2    0    0  0.84306466423E+01  0.12370085193E+03 -0.12412081497E+03  0.21541576841E+03  0.12500000000E+03 0.  0.
</event>
<event>
 5    0  0.5815084E-005  0.3671841E+03  0.7546771E-02  0.1055775E+00
         21   -1    0    0  502  501  0.00000000000E+00  0.00000000000E+00  0.14363220704E+04  0.14363220704E+04  0.00000000000E+00 0. -1.
         21   -1    0    0  501  502 -0.00000000000E+00 -0.00000000000E+00 -0.93867643515E+02  0.93867643515E+02  0.00000000000E+00 0. -1.
         25    1    1    2    0    0 -0.19780194226E+02  0.91410273875E+02  0.37730565898E+03  0.40832787629E+03  0.12500000000E+03 0.  0.
         25    1    1    2    0    0 -0.17067755079E+03 -0.88736276512E+02  0.82055587922E+03  0.85202224386E+03  0.12500000000E+03 0.  0.
         25    1    1    2    0    0  0.19045774502E+03 -0.26739973628E+01  0.14459288866E+03  0.26983959374E+03  0.12500000000E+03 0.  0.
</event>
<event>
 5    0  0.5815084E-005  0.2972221E+03  0.7546771E-02  0.1086638E+00
         21   -1    0    0  502  501  0.00000000000E+00  0.00000000000E+00  0.82154719683E+03  0.82154719683E+03  0.00000000000E+00 0.  1.
         21   -1    0    0  501  502 -0.00000000000E+00 -0.00000000000E+00 -0.10753002800E+03  0.10753002800E+03  0.00000000000E+00 0.  1.
         25    1    1    2    0    0 -0.70130851042E+01  0.64931713179E+02  0.13226400723E+03  0.19334962722E+03  0.12500000000E+03 0.  0.
         25    1    1    2    0    0 -0.85608791161E+02  0.12017077175E+03  0.16638456027E+03  0.25510527514E+03  0.12500000000E+03 0.  0.
         25    1    1    2    0    0  0.92621876265E+02 -0.18510248493E+03  0.41536860133E+03  0.48062232247E+03  0.12500000000E+03 0.  0.
</event>
<event>
 5    0  0.5815084E-005  0.3540643E+03  0.7546771E-02  0.1060959E+00
         21   -1    0    0  502  501  0.00000000000E+00  0.00000000000E+00  0.47004895540E+03  0.47004895540E+03  0.00000000000E+00 0. -1.
         21   -1    0    0  501  502 -0.00000000000E+00 -0.00000000000E+00 -0.26669884118E+03  0.26669884118E+03  0.00000000000E+00 0. -1.
         25    1    1    2    0    0 -0.93624538770E+02 -0.16705067489E+03 -0.45923463247E+02  0.23324975180E+03  0.12500000000E+03 0.  0.
         25    1    1    2    0    0  0.11571081410E+03  0.84663932883E+02  0.28997075531E+03  0.34679246383E+03  0.12500000000E+03 0.  0.
         25    1    1    2    0    0 -0.22086275331E+02  0.82386742003E+02 -0.40697177842E+02  0.15670558095E+03  0.12500000000E+03 0.  0.
</event>
<event>
 5    0  0.5815084E-005  0.3411871E+03  0.7546771E-02  0.1066291E+00
         21   -1    0    0  502  501  0.00000000000E+00  0.00000000000E+00  0.19104466356E+03  0.19104466356E+03  0.00000000000E+00 0.  1.
         21   -1    0    0  501  502 -0.00000000000E+00 -0.00000000000E+00 -0.60932692066E+03  0.60932692066E+03  0.00000000000E+00 0.  1.
         25    1    1    2    0    0  0.59041056443E+02  0.10457417657E+03 -0.41170550529E+01  0.17338845087E+03  0.12500000000E+03 0.  0.
         25    1    1    2    0    0  0.13619994163E+01 -0.17731617980E+03 -0.39045321570E+02  0.22043688393E+03  0.12500000000E+03 0.  0.
         25    1    1    2    0    0 -0.60403055859E+02  0.72742003228E+02 -0.37511988048E+03  0.40654624942E+03  0.12500000000E+03 0.  0.
</event>
<event>
 5    0  0.5815084E-005  0.4670290E+03  0.7546771E-02  0.1022762E+00
         21   -1    0    0  502  501  0.00000000000E+00  0.00000000000E+00  0.11911707477E+03  0.11911707477E+03  0.00000000000E+00 0. -1.
         21   -1    0    0  501  502 -0.00000000000E+00 -0.00000000000E+00 -0.18311068029E+04  0.18311068029E+04  0.00000000000E+00 0. -1.
         25    1    1    2    0    0  0.12670458973E+03 -0.37607054472E+03 -0.59543385494E+03  0.72639492239E+03  0.12500000000E+03 0.  0.
         25    1    1    2    0    0 -0.11887640457E+03  0.29710066144E+03 -0.66308062959E+03  0.74679403046E+03  0.12500000000E+03 0.  0.
         25    1    1    2    0    0 -0.78281851592E+01  0.78969883278E+02 -0.45347524359E+03  0.47703492482E+03  0.12500000000E+03 0.  0.
</event>
<event>
 5    0  0.5815084E-005  0.3540631E+03  0.7546771E-02  0.1060960E+00
         21   -1    0    0  502  501  0.00000000000E+00  0.00000000000E+00  0.65996354680E+03  0.65996354680E+03  0.00000000000E+00 0.  1.
         21   -1    0    0  501  502 -0.00000000000E+00 -0.00000000000E+00 -0.18995091946E+03  0.18995091946E+03  0.00000000000E+00 0.  1.
         25    1    1    2    0    0  0.32424935238E+02  0.10386557815E+03  0.54595659633E+02  0.17448530254E+03  0.12500000000E+03 0.  0.
         25    1    1    2    0    0  0.20292939160E+03 -0.11413432278E+03  0.18038104956E+03  0.31995203493E+03  0.12500000000E+03 0.  0.
         25    1    1    2    0    0 -0.23535432684E+03  0.10268744624E+02  0.23503591815E+03  0.35547712880E+03  0.12500000000E+03 0.  0.
</event>
<event>
 5    0  0.5815084E-005  0.2186393E+03  0.7546771E-02  0.1134902E+00
         21   -1    0    0  502  501  0.00000000000E+00  0.00000000000E+00  0.11602628477E+03  0.11602628477E+03  0.00000000000E+00 0.  1.
         21   -1    0    0  501  502 -0.00000000000E+00 -0.00000000000E+00 -0.41200266161E+03  0.41200266161E+03  0.00000000000E+00 0.  1.
         25    1    1    2    0    0  0.34571483621E+02  0.12443337973E+02 -0.45545227023E+02  0.13801953428E+03  0.12500000000E+03 0.  0.
         25    1    1    2    0    0 -0.48903463662E+02 -0.45495723007E+01 -0.22403898688E+03  0.26121009745E+03  0.12500000000E+03 0.  0.
         25    1    1    2    0    0  0.14331980041E+02 -0.78937656720E+01 -0.26392162942E+02  0.12879931465E+03  0.12500000000E+03 0.  0.
</event>
<event>
 5    0  0.5815084E-005  0.3092786E+03  0.7546771E-02  0.1080692E+00
         21   -1    0    0  502  501  0.00000000000E+00  0.00000000000E+00  0.21243972151E+03  0.21243972151E+03  0.00000000000E+00 0.  1.
         21   -1    0    0  501  502 -0.00000000000E+00 -0.00000000000E+00 -0.45026078633E+03  0.45026078633E+03  0.00000000000E+00 0.  1.
         25    1    1    2    0    0 -0.70038944687E+02 -0.94658068666E+02  0.69101204435E+02  0.18510964370E+03  0.12500000000E+03 0.  0.
         25    1    1    2    0    0  0.14426790910E+01 -0.36584879071E+02 -0.20628423279E+02  0.13187519307E+03  0.12500000000E+03 0.  0.
         25    1    1    2    0    0  0.68596265596E+02  0.13124294774E+03 -0.28629384597E+03  0.34571567107E+03  0.12500000000E+03 0.  0.
</event>
<event>
 5    0  0.6498159E-005  0.3452174E+03  0.7546771E-02  0.1064595E+00
         21   -1    0    0  502  501  0.00000000000E+00  0.00000000000E+00  0.66786085316E+03  0.66786085316E+03  0.00000000000E+00 0. -1.
         21   -1    0    0  501  502 -0.00000000000E+00 -0.00000000000E+00 -0.17844296205E+03  0.17844296205E+03  0.00000000000E+00 0. -1.
         25    1    1    2    0    0 -0.15787914079E+03 -0.13226207249E+03  0.19714879448E+03  0.31130648256E+03  0.12500000000E+03 0.  0.
         25    1    1    2    0    0 -0.10406451882E+02  0.13883763390E+03  0.15515190523E+02  0.18774957780E+03  0.12500000000E+03 0.  0.
         25    1    1    2    0    0  0.16828559268E+03 -0.65755614028E+01  0.27675390610E+03  0.34724775486E+03  0.12500000000E+03 0.  0.
</event>
<event>
 5    0  0.5815084E-005  0.2669494E+03  0.7546771E-02  0.1103038E+00
         21   -1    0    0  502  501  0.00000000000E+00  0.00000000000E+00  0.26036388072E+03  0.26036388072E+03  0.00000000000E+00 0. -1.
         21   -1    0    0  501  502 -0.00000000000E+00 -0.00000000000E+00 -0.27370153393E+03  0.27370153393E+03  0.00000000000E+00 0. -1.
         25    1    1    2    0    0  0.95465629634E+02 -0.60349967085E+01 -0.76194667075E+02  0.17487348260E+03  0.12500000000E+03 0.  0.
         25    1    1    2    0    0 -0.24018809164E+02 -0.35525962027E+02  0.13840998897E+03  0.19136698309E+03  0.12500000000E+03 0.  0.
         25    1    1    2    0    0 -0.71446820470E+02  0.41560958736E+02 -0.75552975105E+02  0.16782494896E+03  0.12500000000E+03 0.  0.
</event>
<event>
 5    0  0.5815084E-005  0.5794858E+03  0.7546771E-02  0.9948905E-01
         21   -1    0    0  502  501  0.00000000000E+00  0.00000000000E+00  0.77958474063E+03  0.77958474063E+03  0.00000000000E+00 0. -1.
         21   -1    0    0  501  502 -0.00000000000E+00 -0.00000000000E+00 -0.43074702434E+03  0.43074702434E+03  0.00000000000E+00 0. -1.
         25    1    1    2    0    0 -0.33359206088E+03 -0.10154568629E+03 -0.22460145042E+03  0.43320434096E+03  0.12500000000E+03 0.  0.
         25    1    1    2    0    0  0.28529625202E+03  0.46107395235E+02  0.54488805078E+03  0.62932331213E+03  0.12500000000E+03 0.  0.
         25    1    1    2    0    0  0.48295808861E+02  0.55438291058E+02  0.28551115941E+02  0.14780411189E+03  0.12500000000E+03 0.  0.
</event>
<event>
 5    0  0.5815084E-005  0.2462898E+03  0.7546771E-02  0.1115672E+00
         21   -1    0    0  502  501  0.00000000000E+00  0.00000000000E+00  0.14151028019E+04  0.14151028019E+04  0.00000000000E+00 0.  1.
         21   -1    0    0  501  502 -0.00000000000E+00 -0.00000000000E+00 -0.42865200565E+02  0.42865200565E+02  0.00000000000E+00 0.  1.
         25    1    1    2    0    0  0.73455969994E+02 -0.22741790384E+02  0.34299548415E+03  0.37307354597E+03  0.12500000000E+03 0.  0.
         25    1    1    2    0    0 -0.12022113918E+03 -0.11323886271E+02  0.78947331104E+03  0.80837767260E+03  0.12500000000E+03 0.  0.
         25    1    1    2    0    0  0.46765169187E+02  0.34065676655E+02  0.23976880612E+03  0.27651678387E+03  0.12500000000E+03 0.  0.
</event>
<event>
 5    0  0.6090771E-005  0.2784913E+03  0.7546771E-02  0.1096516E+00
         21   -1    0    0  502  501  0.00000000000E+00  0.00000000000E+00  0.13914646110E+03  0.13914646110E+03  0.00000000000E+00 0. -1.
         21   -1    0    0  501  502 -0.00000000000E+00 -0.00000000000E+00 -0.55737980319E+03  0.55737980319E+03  0.00000000000E+00 0. -1.
         25    1    1    2    0    0  0.21170591002E+02 -0.12022880312E+03 -0.21835607813E+03  0.27965610289E+03  0.12500000000E+03 0.  0.
         25    1    1    2    0    0 -0.11438090516E+03  0.83570738353E+00 -0.93563867864E+02  0.19355331886E+03  0.12500000000E+03 0.  0.
         25    1    1    2    0    0  0.93210314155E+02  0.11939309574E+03 -0.10631339610E+03  0.22331684255E+03  0.12500000000E+03 0.  0.
</event>
<event>
 5    0  0.5815084E-005  0.3108618E+03  0.7546771E-02  0.1079934E+00
         21   -1    0    0  502  501  0.00000000000E+00  0.00000000000E+00  0.15314929531E+03  0.15314929531E+03  0.00000000000E+00 0. -1.
         21   -1    0    0  501  502 -0.00000000000E+00 -0.00000000000E+00 -0.63098610389E+03  0.63098610389E+03  0.00000000000E+00 0. -1.
         25    1    1    2    0    0  0.18415204413E+02 -0.20378969016E+02 -0.99296359246E+02  0.16198515084E+03  0.12500000000E+03 0.  0.
         25    1    1    2    0    0 -0.13924639775E+03  0.15059424276E+03 -0.80436611562E+02  0.25330462633E+03  0.12500000000E+03 0.  0.
         25    1    1    2    0    0  0.12083119334E+03 -0.13021527375E+03 -0.29810383778E+03  0.36884562204E+03  0.12500000000E+03 0.  0.
</event>
<event>
 5    0  0.5815084E-005  0.3782213E+03  0.7546771E-02  0.1051593E+00
         21   -1    0    0  502  501  0.00000000000E+00  0.00000000000E+00  0.12269058295E+04  0.12269058295E+04  0.00000000000E+00 0.  1.
         21   -1    0    0  501  502 -0.00000000000E+00 -0.00000000000E+00 -0.11659521686E+03  0.11659521686E+03  0.00000000000E+00 0.  1.
         25    1    1    2    0    0 -0.54470670839E+00  0.29025827204E+03  0.39274943236E+03  0.50411038257E+03  0.12500000000E+03 0.  0.
         25    1    1    2    0    0  0.88504245155E+02 -0.10819473394E+03  0.40848851606E+03  0.44947410338E+03  0.12500000000E+03 0.  0.
         25    1    1    2    0    0 -0.87959538447E+02 -0.18206353811E+03  0.30907266424E+03  0.38991656043E+03  0.12500000000E+03 0.  0.
</event>
<event>
 5    0  0.5815084E-005  0.3338943E+03  0.7546771E-02  0.1069427E+00
         21   -1    0    0  502  501  0.00000000000E+00  0.00000000000E+00  0.45255885671E+03  0.45255885671E+03  0.00000000000E+00 0. -1.
         21   -1    0    0  501  502 -0.00000000000E+00 -0.00000000000E+00 -0.24634457333E+03  0.24634457333E+03  0.00000000000E+00 0. -1.
         25    1    1    2    0    0 -0.63561609965E+02 -0.89873999836E+02  0.17611305703E+03  0.24240095496E+03  0.12500000000E+03 0.  0.
         25    1    1    2    0    0 -0.12427146838E+02  0.10674542836E+03 -0.15068195873E+03  0.22333623338E+03  0.12500000000E+03 0.  0.
         25    1    1    2    0    0  0.75988756803E+02 -0.16871428523E+02  0.18078318509E+03  0.23316624170E+03  0.12500000000E+03 0.  0.
</event>
<event>
 5    0  0.5815084E-005  0.4017562E+03  0.7546771E-02  0.1043173E+00
         21   -1    0    0  502  501  0.00000000000E+00  0.00000000000E+00  0.18520368495E+04  0.18520368495E+04  0.00000000000E+00 0.  1.
         21   -1    0    0  501  502 -0.00000000000E+00 -0.00000000000E+00 -0.87151651936E+02  0.87151651936E+02  0.00000000000E+00 0.  1.
         25    1    1    2    0    0  0.34588911399E+02 -0.26949791731E+03  0.79838126644E+03  0.85256270551E+03  0.12500000000E+03 0.  0.
         25    1    1    2    0    0 -0.88230877410E+02 -0.39637943894E+02  0.27955603005E+03  0.32114238005E+03  0.12500000000E+03 0.  0.
         25    1    1    2    0    0  0.53641966011E+02  0.30913586120E+03  0.68694790110E+03  0.76548341590E+03  0.12500000000E+03 0.  0.
</event>
<event>
 5    0  0.5815084E-005  0.3755756E+03  0.7546771E-02  0.1052581E+00
         21   -1    0    0  502  501  0.00000000000E+00  0.00000000000E+00  0.21567272913E+03  0.21567272913E+03  0.00000000000E+00 0. -1.
         21   -1    0    0  501  502 -0.00000000000E+00 -0.00000000000E+00 -0.65403281536E+03  0.65403281536E+03  0.00000000000E+00 0. -1.
         25    1    1    2    0    0  0.20980118370E+03 -0.40023317934E+02 -0.18008297802E+03  0.30606091164E+03  0.12500000000E+03 0.  0.
         25    1    1    2    0    0 -0.18299772961E+03  0.59011342222E+02  0.45239298887E+02  0.23375650091E+03  0.12500000000E+03 0.  0.
         25    1    1    2    0    0 -0.26803454090E+02 -0.18988024288E+02 -0.30351640710E+03  0.32988813194E+03  0.12500000000E+03 0.  0.
</event>
<event>
 5    0  0.5815084E-005  0.2724682E+03  0.7546771E-02  0.1099875E+00
         21   -1    0    0  502  501  0.00000000000E+00  0.00000000000E+00  0.31277953989E+03  0.31277953989E+03  0.00000000000E+00 0. -1.
         21   -1    0    0  501  502 -0.00000000000E+00 -0.00000000000E+00 -0.23735219241E+03  0.23735219241E+03  0.00000000000E+00 0. -1.
         25    1    1    2    0    0  0.28136201381E+02 -0.78287580755E+02  0.13960964912E+03  0.20502791336E+03  0.12500000000E+03 0.  0.
         25    1    1    2    0    0  0.14207699039E+02  0.14175630814E+03 -0.13013974439E+02  0.18997650681E+03  0.12500000000E+03 0.  0.
         25    1    1    2    0    0 -0.42343900420E+02 -0.63468727387E+02 -0.51168327207E+02  0.15512731213E+03  0.12500000000E+03 0.  0.
</event>
<event>
 5    0  0.5815084E-005  0.5820130E+03  0.7546771E-02  0.9943442E-01
         21   -1    0    0  502  501  0.00000000000E+00  0.00000000000E+00  0.26018296802E+03  0.26018296802E+03  0.00000000000E+00 0. -1.
         21   -1    0    0  501  502 -0.00000000000E+00 -0.00000000000E+00 -0.13019264497E+04  0.13019264497E+04  0.00000000000E+00 0. -1.
         25    1    1    2    0    0  0.10734168370E+03 -0.12851612460E+03 -0.29953032501E+03  0.36521506943E+03  0.12500000000E+03 0.  0.
         25    1    1    2    0    0 -0.81875240733E+02 -0.17732890717E+03  0.12859651475E+03  0.26516251614E+03  0.12500000000E+03 0.  0.
         25    1    1    2    0    0 -0.25466442968E+02  0.30584503176E+03 -0.87080967145E+03  0.93173183216E+03  0.12500000000E+03 0.  0.
</event>
<event>
 5    0  0.5815084E-005  0.3023650E+03  0.7546771E-02  0.1084064E+00
         21   -1    0    0  502  501  0.00000000000E+00  0.00000000000E+00  0.16175597154E+03  0.16175597154E+03  0.00000000000E+00 0.  1.
         21   -1    0    0  501  502 -0.00000000000E+00 -0.00000000000E+00 -0.56520062916E+03  0.56520062916E+03  0.00000000000E+00 0.  1.
         25    1    1    2    0    0 -0.10313269224E+03 -0.93803449072E+02 -0.15375098126E+03  0.24228042328E+03  0.12500000000E+03 0.  0.
         25    1    1    2    0    0  0.15020610502E+03  0.59887704632E+02 -0.27694653257E+03  0.34419876969E+03  0.12500000000E+03 0.  0.
         25    1    1    2    0    0 -0.47073412777E+02  0.33915744441E+02  0.27252856217E+02  0.14047740773E+03  0.12500000000E+03 0.  0.
</event>
<event>
 5    0  0.5815084E-005  0.7267685E+03  0.7546771E-02  0.9672519E-01
         21   -1    0    0  502  501  0.00000000000E+00  0.00000000000E+00  0.19193449284E+04  0.19193449284E+04  0.00000000000E+00 0.  1.
         21   -1    0    0  501  502 -0.00000000000E+00 -0.00000000000E+00 -0.27519410794E+03  0.27519410794E+03  0.00000000000E+00 0.  1.
         25    1    1    2    0    0  0.20926829877E+03 -0.19954713718E+03  0.16944947779E+04  0.17235283093E+04  0.12500000000E+03 0.  0.
         25    1    1    2    0    0 -0.82147646869E+02  0.15341826149E+03  0.96966397997E+02  0.23518690692E+03  0.12500000000E+03 0.  0.
         25    1    1    2    0    0 -0.12712065190E+03  0.46128875689E+02 -0.14731035542E+03  0.23582382010E+03  0.12500000000E+03 0.  0.
</event>
<event>
 5    0  0.5815084E-005  0.4106334E+03  0.7546771E-02  0.1040159E+00
         21   -1    0    0  502  501  0.00000000000E+00  0.00000000000E+00  0.12264168068E+04  0.12264168068E+04  0.00000000000E+00 0. -1.
         21   -1    0    0  501  502 -0.00000000000E+00 -0.00000000000E+00 -0.13748976226E+03  0.13748976226E+03  0.00000000000E+00 0. -1.
         25    1    1    2    0    0  0.34199023323E+02 -0.20645235924E+01  0.20308403190E+03  0.24091898943E+03  0.12500000000E+03 0.  0.
         25    1    1    2    0    0  0.87720874154E+02  0.26312931916E+03  0.68675900377E+03  0.75112909651E+03  0.12500000000E+03 0.  0.
         25    1    1    2    0    0 -0.12191989748E+03 -0.26106479557E+03  0.19908400887E+03  0.37185848313E+03  0.12500000000E+03 0.  0.
</event>
<event>
 5    0  0.6106175E-005  0.2763745E+03  0.7546771E-02  0.1097686E+00
         21   -1    0    0  502  501  0.00000000000E+00  0.00000000000E+00  0.38131277724E+03  0.38131277724E+03  0.00000000000E+00 0.  1.
         21   -1    0    0  501  502 -0.00000000000E+00 -0.00000000000E+00 -0.20031550246E+03  0.20031550246E+03  0.00000000000E+00 0.  1.
         25    1    1    2    0    0  0.27727278162E+02 -0.11349478593E+03  0.57979498185E+02  0.18065572395E+03  0.12500000000E+03 0.  0.
         25    1    1    2    0    0 -0.20282421063E+01 -0.11681237584E+02 -0.65128427227E+02  0.14144708237E+03  0.12500000000E+03 0.  0.
         25    1    1    2    0    0 -0.25699036056E+02  0.12517602351E+03  0.18814620382E+03  0.25952547337E+03  0.12500000000E+03 0.  0.
</event>
<event>
 5    0  0.5815084E-005  0.3833656E+03  0.7546771E-02  0.1049697E+00
         21   -1    0    0  502  501  0.00000000000E+00  0.00000000000E+00  0.51143651097E+03  0.51143651097E+03  0.00000000000E+00 0.  1.
         21   -1    0    0  501  502 -0.00000000000E+00 -0.00000000000E+00 -0.28736549504E+03  0.28736549504E+03  0.00000000000E+00 0.  1.
         25    1    1    2    0    0  0.16752386764E+03 -0.21740313884E+03 -0.18085994112E+02  0.30212658636E+03  0.12500000000E+03 0.  0.
         25    1    1    2    0    0 -0.24301284356E+02  0.92521691195E+02 -0.92182469814E+01  0.15767305363E+03  0.12500000000E+03 0.  0.
         25    1    1    2    0    0 -0.14322258328E+03  0.12488144764E+03  0.25137525701E+03  0.33900236602E+03  0.12500000000E+03 0.  0.
</event>
<event>
 5    0  0.5815084E-005  0.3168971E+03  0.7546771E-02  0.1077086E+00
         21   -1    0    0  502  501  0.00000000000E+00  0.00000000000E+00  0.37274607476E+03  0.37274607476E+03  0.00000000000E+00 0.  1.
         21   -1    0    0  501  502 -0.00000000000E+00 -0.00000000000E+00 -0.26941604907E+03  0.26941604907E+03  0.00000000000E+00 0.  1.
         25    1    1    2    0    0  0.18811532317E+03  0.68207444232E+02  0.14188859352E+02  0.23635979774E+03  0.12500000000E+03 0.  0.
         25    1    1    2    0    0 -0.19018370248E+03 -0.63625374750E+02 -0.23481213474E+02  0.23747504371E+03  0.12500000000E+03 0.  0.
         25    1    1    2    0    0  0.20683793088E+01 -0.45820694828E+01  0.11262237981E+03  0.16832728236E+03  0.12500000000E+03 0.  0.
</event>
<event>
 5    0  0.5815084E-005  0.2834127E+03  0.7546771E-02  0.1093839E+00
         21   -1    0    0  502  501  0.00000000000E+00  0.00000000000E+00  0.58881368508E+03  0.58881368508E+03  0.00000000000E+00 0. -1.
         21   -1    0    0  501  502 -0.00000000000E+00 -0.00000000000E+00 -0.13641457968E+03  0.13641457968E+03  0.00000000000E+00 0. -1.
         25    1    1    2    0    0 -0.19330821786E+02  0.12475588469E+03  0.36146022229E+03  0.40276072765E+03  0.12500000000E+03 0.  0.
         25    1    1    2    0    0 -0.27182866701E+02 -0.80546173532E+02 -0.67784855700E+01  0.15131933842E+03  0.12500000000E+03 0.  0.
         25    1    1    2    0    0  0.46513688488E+02 -0.44209711162E+02  0.97717368679E+02  0.17114819870E+03  0.12500000000E+03 0.  0.
</event>
<event>
 5    0  0.5815084E-005  0.3321514E+03  0.7546771E-02  0.1070189E+00
         21   -1    0    0  502  501  0.00000000000E+00  0.00000000000E+00  0.47438273696E+02  0.47438273696E+02  0.00000000000E+00 0.  1.
         21   -1    0    0  501  502 -0.00000000000E+00 -0.00000000000E+00 -0.23256444064E+04  0.23256444064E+04  0.00000000000E+00 0.  1.
         25    1    1    2    0    0  0.14497435655E+02 -0.64895842424E+02 -0.59080501097E+03  0.60753370852E+03  0.12500000000E+03 0.  0.
         25    1    1    2    0    0  0.91978608266E+02 -0.14986313030E+03 -0.45109471781E+03  0.50003046571E+03  0.12500000000E+03 0.  0.
         25    1    1    2    0    0 -0.10647604392E+03  0.21475897273E+03 -0.12363064039E+04  0.12655185058E+04  0.12500000000E+03 0.  0.
</event>
<event>
 5    0  0.5815084E-005  0.2785709E+03  0.7546771E-02  0.1096472E+00
         21   -1    0    0  502  501  0.00000000000E+00  0.00000000000E+00  0.11628016582E+03  0.11628016582E+03  0.00000000000E+00 0. -1.
         21   -1    0    0  501  502 -0.00000000000E+00 -0.00000000000E+00 -0.66736868850E+03  0.66736868850E+03  0.00000000000E+00 0. -1.
         25    1    1    2    0    0  0.12656924506E+03  0.25734995325E+02 -0.14758814654E+03  0.23257111768E+03  0.12500000000E+03 0.  0.
         25    1    1    2    0    0 -0.14545030985E+03  0.69360777462E+02 -0.29736616298E+03  0.36058056655E+03  0.12500000000E+03 0.  0.
         25    1    1    2    0    0  0.18881064795E+02 -0.95095772787E+02 -0.10613421316E+03  0.19049717009E+03  0.12500000000E+03 0.  0.
</event>
<event>
 5    0  0.6030736E-005  0.5743252E+03  0.7546771E-02  0.9960153E-01
         21   -1    0    0  502  501  0.00000000000E+00  0.00000000000E+00  0.70434459673E+03  0.70434459673E+03  0.00000000000E+00 0. -1.
         21   -1    0    0  501  502 -0.00000000000E+00 -0.00000000000E+00 -0.46830683355E+03  0.46830683355E+03  0.00000000000E+00 0. -1.
         25    1    1    2    0    0 -0.32035829152E+03 -0.82937237257E+02  0.23247629095E+03  0.42329451464E+03  0.12500000000E+03 0.  0.
         25    1    1    2    0    0  0.22238836760E+03 -0.19831885798E+03  0.19154813834E+03  0.37563631983E+03  0.12500000000E+03 0.  0.
         25    1    1    2    0    0  0.97969923916E+02  0.28125609524E+03 -0.18798666610E+03  0.37372059581E+03  0.12500000000E+03 0.  0.
</event>
<event>
 5    0  0.6763861E-005  0.3346524E+03  0.7546771E-02  0.1069097E+00
         21   -1    0    0  502  501  0.00000000000E+00  0.00000000000E+00  0.35060283579E+03  0.35060283579E+03  0.00000000000E+00 0.  1.
         21   -1    0    0  501  502 -0.00000000000E+00 -0.00000000000E+00 -0.31942770815E+03  0.31942770815E+03  0.00000000000E+00 0.  1.
         25    1    1    2    0    0  0.66554106390E+02 -0.90662495625E+02 -0.10276877883E+03  0.19706739734E+03  0.12500000000E+03 0.  0.
         25    1    1    2    0    0  0.10835636747E+03  0.15734905757E+03  0.60407474260E+02  0.23616496615E+03  0.12500000000E+03 0.  0.
         25    1    1    2    0    0 -0.17491047386E+03 -0.66686561946E+02  0.73536432212E+02  0.23679818047E+03  0.12500000000E+03 0.  0.
</event>
<event>
 5    0  0.5815084E-005  0.3362284E+03  0.7546771E-02  0.1068414E+00
         21   -1    0    0  502  501  0.00000000000E+00  0.00000000000E+00  0.11882169897E+03  0.11882169897E+03  0.00000000000E+00 0.  1.
         21   -1    0    0  501  502 -0.00000000000E+00 -0.00000000000E+00 -0.95142147810E+03  0.95142147810E+03  0.00000000000E+00 0.  1.
         25    1    1    2    0    0  0.14600358205E+03 -0.16628745073E+03 -0.32553580948E+03  0.41299773062E+03  0.12500000000E+03 0.  0.
         25    1    1    2    0    0 -0.37851229409E+02 -0.31828683732E+02 -0.74810677213E+02  0.15384218570E+03  0.12500000000E+03 0.  0.
         25    1    1    2    0    0 -0.10815235265E+03  0.19811613446E+03 -0.43225329244E+03  0.50340326076E+03  0.12500000000E+03 0.  0.
</event>
<event>
 5    0  0.5815084E-005  0.2969102E+03  0.7546771E-02  0.1086795E+00
         21   -1    0    0  502  501  0.00000000000E+00  0.00000000000E+00  0.16154306103E+03  0.16154306103E+03  0.00000000000E+00 0.  1.
         21   -1    0    0  501  502 -0.00000000000E+00 -0.00000000000E+00 -0.54570994930E+03  0.54570994930E+03  0.00000000000E+00 0.  1.
         25    1    1    2    0    0  0.14951146096E+02 -0.54233631010E+02 -0.47063491117E+02  0.14493031325E+03  0.12500000000E+03 0.  0.
         25    1    1    2    0    0 -0.10268526436E+03  0.14285347302E+03 -0.44167479719E+02  0.22028877533E+03  0.12500000000E+03 0.  0.
         25    1    1    2    0    0  0.87734118264E+02 -0.88619842014E+02 -0.29293591744E+03  0.34203392176E+03  0.12500000000E+03 0.  0.
</event>
<event>
 5    0  0.5815084E-005  0.3244786E+03  0.7546771E-02  0.1073606E+00
         21   -1    0    0  502  501  0.00000000000E+00  0.00000000000E+00  0.78248092842E+02  0.78248092842E+02  0.00000000000E+00 0.  1.
         21   -1    0    0  501  502 -0.00000000000E+00 -0.00000000000E+00 -0.13455457656E+04  0.13455457656E+04  0.00000000000E+00 0.  1.
         25    1    1    2    0    0  0.80680396519E+02 -0.16888677684E+02 -0.27998713103E+03  0.31750960199E+03  0.12500000000E+03 0.  0.
         25    1    1    2    0    0  0.96692678631E+02  0.90134539342E+02 -0.76777331325E+03  0.78903394719E+03  0.12500000000E+03 0.  0.
         25    1    1    2    0    0 -0.17737307515E+03 -0.73245861658E+02 -0.21953722850E+03  0.31725030927E+03  0.12500000000E+03 0.  0.
</event>
<event>
 5    0  0.5815084E-005  0.3097652E+03  0.7546771E-02  0.1080458E+00
         21   -1    0    0  502  501  0.00000000000E+00  0.00000000000E+00  0.28940283565E+03  0.28940283565E+03  0.00000000000E+00 0. -1.
         21   -1    0    0  501  502 -0.00000000000E+00 -0.00000000000E+00 -0.33156021030E+03  0.33156021030E+03  0.00000000000E+00 0. -1.
         25    1    1    2    0    0 -0.11715796876E+03  0.22441381922E+02  0.67418257679E+02  0.18547190282E+03  0.12500000000E+03 0.  0.
         25    1    1    2    0    0  0.62939522697E+02 -0.17029147301E+03 -0.57805543680E+02  0.22787507582E+03  0.12500000000E+03 0.  0.
         25    1    1    2    0    0  0.54218446061E+02  0.14785009109E+03 -0.51770088653E+02  0.20761606732E+03  0.12500000000E+03 0.  0.
</event>
<event>
 5    0  0.5815084E-005  0.4281627E+03  0.7546771E-02  0.1034442E+00
         21   -1    0    0  502  501  0.00000000000E+00  0.00000000000E+00  0.88019318019E+03  0.88019318019E+03  0.00000000000E+00 0.  1.
         21   -1    0    0  501  502 -0.00000000000E+00 -0.00000000000E+00 -0.20827620732E+03  0.20827620732E+03  0.00000000000E+00 0.  1.
         25    1    1    2    0    0  0.12211336139E+03 -0.19996288664E+03  0.33013066792E+03  0.42368394702E+03  0.12500000000E+03 0.  0.
         25    1    1    2    0    0 -0.18428081745E+02  0.21892387421E+03  0.41477384589E+03  0.48572584874E+03  0.12500000000E+03 0.  0.
         25    1    1    2    0    0 -0.10368527965E+03 -0.18960987568E+02 -0.72987540942E+02  0.17905959175E+03  0.12500000000E+03 0.  0.
</event>
<event>
 5    0  0.5815084E-005  0.2464114E+03  0.7546771E-02  0.1115594E+00
         21   -1    0    0  502  501  0.00000000000E+00  0.00000000000E+00  0.43605767589E+03  0.43605767589E+03  0.00000000000E+00 0. -1.
         21   -1    0    0  501  502 -0.00000000000E+00 -0.00000000000E+00 -0.13924441871E+03  0.13924441871E+03  0.00000000000E+00 0. -1.
         25    1    1    2    0    0 -0.13604464761E+03 -0.69079809447E+00  0.11786239286E+03  0.21914645102E+03  0.12500000000E+03 0.  0.
         25    1    1    2    0    0  0.13059698107E+03 -0.59873896232E+01  0.86829892110E+02  0.20063860661E+03  0.12500000000E+03 0.  0.
         25    1    1    2    0    0  0.54476665410E+01  0.66781877177E+01  0.92120972216E+02  0.15551703696E+03  0.12500000000E+03 0.  0.
</event>
<event>
 5    0  0.5815084E-005  0.2430573E+03  0.7546771E-02  0.1117773E+00
         21   -1    0    0  502  501  0.00000000000E+00  0.00000000000E+00  0.41359748654E+03  0.41359748654E+03  0.00000000000E+00 0.  1.
         21   -1    0    0  501  502 -0.00000000000E+00 -0.00000000000E+00 -0.14283653636E+03  0.14283653636E+03  0.00000000000E+00 0.  1.
         25    1    1    2    0    0 -0.48286624900E+02 -0.11346819487E+03  0.56512707562E+02  0.18445952268E+03  0.12500000000E+03 0.  0.
         25    1    1    2    0    0  0.27492863107E+02  0.21243387607E+02  0.16030071805E+03  0.20622429354E+03  0.12500000000E+03 0.  0.
         25    1    1    2    0    0  0.20793761793E+02  0.92224807268E+02  0.53947524576E+02  0.16575020668E+03  0.12500000000E+03 0.  0.
</event>
<event>
 5    0  0.5815084E-005  0.2478716E+03  0.7546771E-02  0.1114657E+00
         21   -1    0    0  502  501  0.00000000000E+00  0.00000000000E+00  0.24443797285E+03  0.24443797285E+03  0.00000000000E+00 0.  1.
         21   -1    0    0  501  502 -0.00000000000E+00 -0.00000000000E+00 -0.25135337206E+03  0.25135337206E+03  0.00000000000E+00 0.  1.
         25    1    1    2    0    0  0.80880117337E+02 -0.74045809851E+02  0.11556181781E+02  0.16668209464E+03  0.12500000000E+03 0.  0.
         25    1    1    2    0    0  0.85599586248E+01  0.77556412459E+02  0.56808211741E+02  0.15792543470E+03  0.12500000000E+03 0.  0.
         25    1    1    2    0    0 -0.89440075962E+02 -0.35106026071E+01 -0.75279792724E+02  0.17118381557E+03  0.12500000000E+03 0.  0.
</event>
<event>
 5    0  0.5815084E-005  0.3966972E+03  0.7546771E-02  0.1044929E+00
         21   -1    0    0  502  501  0.00000000000E+00  0.00000000000E+00  0.18787405022E+04  0.18787405022E+04  0.00000000000E+00 0.  1.
         21   -1    0    0  501  502 -0.00000000000E+00 -0.00000000000E+00 -0.83762848325E+02  0.83762848325E+02  0.00000000000E+00 0.  1.
         25    1    1    2    0    0  0.13046544395E+03  0.73733864066E+02  0.43220065885E+03  0.47421548296E+03  0.12500000000E+03 0.  0.
         25    1    1    2    0    0  0.99237241305E+02  0.10205248193E+03  0.16980817106E+03  0.25440627761E+03  0.12500000000E+03 0.  0.
         25    1    1    2    0    0 -0.22970268526E+03 -0.17578634600E+03  0.11929688239E+04  0.12338815899E+04  0.12500000000E+03 0.  0.
</event>
<event>
 5    0  0.5815084E-005  0.4249559E+03  0.7546771E-02  0.1035465E+00
         21   -1    0    0  502  501  0.00000000000E+00  0.00000000000E+00  0.43592127774E+03  0.43592127774E+03  0.00000000000E+00 0. -1.
         21   -1    0    0  501  502 -0.00000000000E+00 -0.00000000000E+00 -0.41426640934E+03  0.41426640934E+03  0.00000000000E+00 0. -1.
         25    1    1    2    0    0  0.13832641347E+03 -0.11515948350E+03 -0.25212929957E+03  0.33405102455E+03  0.12500000000E+03 0.  0.
         25    1    1    2    0    0 -0.84800102727E+02  0.12172640066E+03  0.31842784240E+03  0.37286681919E+03  0.12500000000E+03 0.  0.
         25    1    1    2    0    0 -0.53526310743E+02 -0.65669171633E+01 -0.44643674431E+02  0.14326984334E+03  0.12500000000E+03 0.  0.
</event>
<event>
 5    0  0.5815084E-005  0.4217736E+03  0.7546771E-02  0.1036491E+00
         21   -1    0    0  502  501  0.00000000000E+00  0.00000000000E+00  0.58859334858E+03  0.58859334858E+03  0.00000000000E+00 0.  1.
         21   -1    0    0  501  502 -0.00000000000E+00 -0.00000000000E+00 -0.30223410095E+03  0.30223410095E+03  0.00000000000E+00 0.  1.
         25    1    1    2    0    0  0.33967026563E+03 -0.12679489644E+03  0.12462439027E+03  0.40324815408E+03  0.12500000000E+03 0.  0.
         25    1    1    2    0    0 -0.24529742185E+03  0.10017956807E+03  0.60368135545E+02  0.29912553019E+03  0.12500000000E+03 0.  0.
         25    1    1    2    0    0 -0.94372843780E+02  0.26615328370E+02  0.10136672182E+03  0.18845376526E+03  0.12500000000E+03 0.  0.
</event>
<event>
 5    0  0.5815084E-005  0.3030645E+03  0.7546771E-02  0.1083719E+00
         21   -1    0    0  502  501  0.00000000000E+00  0.00000000000E+00  0.16651994076E+03  0.16651994076E+03  0.00000000000E+00 0.  1.
         21   -1    0    0  501  502 -0.00000000000E+00 -0.00000000000E+00 -0.55157405887E+03  0.55157405887E+03  0.00000000000E+00 0.  1.
         25    1    1    2    0    0 -0.10795484663E+02 -0.11301651565E+03  0.23525381773E+02  0.17049257722E+03  0.12500000000E+03 0.  0.
         25    1    1    2    0    0 -0.11206035764E+03  0.48753060411E+02 -0.23334396980E+03  0.29156267404E+03  0.12500000000E+03 0.  0.
         25    1    1    2    0    0  0.12285584230E+03  0.64263455238E+02 -0.17523553008E+03  0.25603874838E+03  0.12500000000E+03 0.  0.
</event>
<event>
 5    0  0.5815084E-005  0.3030149E+03  0.7546771E-02  0.1083743E+00
         21   -1    0    0  502  501  0.00000000000E+00  0.00000000000E+00  0.74352402989E+02  0.74352402989E+02  0.00000000000E+00 0.  1.
         21   -1    0    0  501  502 -0.00000000000E+00 -0.00000000000E+00 -0.12349029221E+04  0.12349029221E+04  0.00000000000E+00 0.  1.
         25    1    1    2    0    0  0.62871273998E+02  0.93276574409E+02 -0.42253793229E+03  0.45477095406E+03  0.12500000000E+03 0.  0.
         25    1    1    2    0    0 -0.11095321590E+03 -0.66876211756E+02 -0.10817405287E+03  0.21002302143E+03  0.12500000000E+03 0.  0.
         25    1    1    2    0    0  0.48081941899E+02 -0.26400362652E+02 -0.62983853395E+03  0.64446134961E+03  0.12500000000E+03 0.  0.
</event>
<event>
 5    0  0.5815084E-005  0.3456513E+03  0.7546771E-02  0.1064414E+00
         21   -1    0    0  502  501  0.00000000000E+00  0.00000000000E+00  0.81319112084E+02  0.81319112084E+02  0.00000000000E+00 0. -1.
         21   -1    0    0  501  502 -0.00000000000E+00 -0.00000000000E+00 -0.14692096150E+04  0.14692096150E+04  0.00000000000E+00 0. -1.
         25    1    1    2    0    0  0.14290164988E+03 -0.10765779994E+03 -0.37654444008E+03  0.43522614671E+03  0.12500000000E+03 0.  0.
         25    1    1    2    0    0 -0.23192943914E+02  0.35827184368E+02 -0.87157696367E+03  0.88152873089E+03  0.12500000000E+03 0.  0.
         25    1    1    2    0    0 -0.11970870597E+03  0.71830615576E+02 -0.13976909917E+03  0.23377384948E+03  0.12500000000E+03 0.  0.
</event>
<event>
 5    0  0.5815084E-005  0.2541278E+03  0.7546771E-02  0.1110724E+00
         21   -1    0    0  502  501  0.00000000000E+00  0.00000000000E+00  0.29743683189E+03  0.29743683189E+03  0.00000000000E+00 0. -1.
         21   -1    0    0  501  502 -0.00000000000E+00 -0.00000000000E+00 -0.21712489163E+03  0.21712489163E+03  0.00000000000E+00 0. -1.
         25    1    1    2    0    0  0.59286793976E+02  0.33476661325E+01 -0.21651134977E+02  0.14007106216E+03  0.12500000000E+03 0.  0.
         25    1    1    2    0    0  0.41084481075E+02 -0.62630819464E+02  0.13700500371E+03  0.20001481238E+03  0.12500000000E+03 0.  0.
         25    1    1    2    0    0 -0.10037127505E+03  0.59283153332E+02 -0.35041928468E+02  0.17447584897E+03  0.12500000000E+03 0.  0.
</event>
<event>
 5    0  0.5815084E-005  0.2407084E+03  0.7546771E-02  0.1119322E+00
         21   -1    0    0  502  501  0.00000000000E+00  0.00000000000E+00  0.63179383804E+02  0.63179383804E+02  0.00000000000E+00 0.  1.
         21   -1    0    0  501  502 -0.00000000000E+00 -0.00000000000E+00 -0.91707947832E+03  0.91707947832E+03  0.00000000000E+00 0.  1.
         25    1    1    2    0    0 -0.86861712263E+01  0.30676717268E+02 -0.29009617881E+03  0.31748591074E+03  0.12500000000E+03 0.  0.
         25    1    1    2    0    0 -0.16861243186E+02  0.77404693178E+02 -0.40882859781E+03  0.43478915630E+03  0.12500000000E+03 0.  0.
         25    1    1    2    0    0  0.25547414412E+02 -0.10808141045E+03 -0.15497531789E+03  0.22798379508E+03  0.12500000000E+03 0.  0.
</event>
<event>
 5    0  0.5815084E-005  0.2881411E+03  0.7546771E-02  0.1091324E+00
         21   -1    0    0  502  501  0.00000000000E+00  0.00000000000E+00  0.54817595194E+03  0.54817595194E+03  0.00000000000E+00 0.  1.
         21   -1    0    0  501  502 -0.00000000000E+00 -0.00000000000E+00 -0.15145742480E+03  0.15145742480E+03  0.00000000000E+00 0.  1.
         25    1    1    2    0    0  0.98440556600E+01  0.12069324929E+03  0.74787428462E+02  0.18942524994E+03  0.12500000000E+03 0.  0.
         25    1    1    2    0    0  0.11902226862E+03 -0.71456944363E+02  0.75792362734E+02  0.20159830747E+03  0.12500000000E+03 0.  0.
         25    1    1    2    0    0 -0.12886632428E+03 -0.49236304932E+02  0.24613873595E+03  0.30860981934E+03  0.12500000000E+03 0.  0.
</event>
<event>
 5    0  0.5950895E-005  0.4010373E+03  0.7546771E-02  0.1043421E+00
         21   -1    0    0  502  501  0.00000000000E+00  0.00000000000E+00  0.44058638595E+03  0.44058638595E+03  0.00000000000E+00 0. -1.
         21   -1    0    0  501  502 -0.00000000000E+00 -0.00000000000E+00 -0.36503836146E+03  0.36503836146E+03  0.00000000000E+00 0. -1.
         25    1    1    2    0    0 -0.23090761030E+02 -0.91898201523E+02  0.27796915899E+03  0.31917129576E+03  0.12500000000E+03 0.  0.
         25    1    1    2    0    0  0.18568503887E+03  0.45953856357E+02 -0.74186601048E+02  0.24024850124E+03  0.12500000000E+03 0.  0.
         25    1    1    2    0    0 -0.16259427784E+03  0.45944345165E+02 -0.12823453344E+03  0.24620495041E+03  0.12500000000E+03 0.  0.
</event>
<event>
 5    0  0.5815084E-005  0.2268807E+03  0.7546771E-02  0.1128855E+00
         21   -1    0    0  502  501  0.00000000000E+00  0.00000000000E+00  0.12212640600E+03  0.12212640600E+03  0.00000000000E+00 0.  1.
         21   -1    0    0  501  502 -0.00000000000E+00 -0.00000000000E+00 -0.42148844597E+03  0.42148844597E+03  0.00000000000E+00 0.  1.
         25    1    1    2    0    0  0.38641554158E+02  0.15538573437E+02 -0.23121055907E+03  0.26611640234E+03  0.12500000000E+03 0.  0.
         25    1    1    2    0    0 -0.48996328881E+02  0.74520024453E+01 -0.34624246516E+01  0.13451082101E+03  0.12500000000E+03 0.  0.
         25    1    1    2    0    0  0.10354774723E+02 -0.22990575882E+02 -0.64689056252E+02  0.14298762862E+03  0.12500000000E+03 0.  0.
</event>
<event>
 5    0  0.6121737E-005  0.2843684E+03  0.7546771E-02  0.1093327E+00
         21   -1    0    0  502  501  0.00000000000E+00  0.00000000000E+00  0.52356977919E+02  0.52356977919E+02  0.00000000000E+00 0. -1.
         21   -1    0    0  501  502 -0.00000000000E+00 -0.00000000000E+00 -0.15445003916E+04  0.15445003916E+04  0.00000000000E+00 0. -1.
         25    1    1    2    0    0 -0.66796528547E+02 -0.96811952237E+02 -0.68083179677E+03  0.70213336754E+03  0.12500000000E+03 0.  0.
         25    1    1    2    0    0  0.29448675998E+02  0.42594312218E+02 -0.70512764668E+03  0.71799129387E+03  0.12500000000E+03 0.  0.
         25    1    1    2    0    0  0.37347852549E+02  0.54217640019E+02 -0.10618397020E+03  0.17673270809E+03  0.12500000000E+03 0.  0.
</event>
<event>
 5    0  0.5815084E-005  0.2944625E+03  0.7546771E-02  0.1088042E+00
         21   -1    0    0  502  501  0.00000000000E+00  0.00000000000E+00  0.19219526195E+03  0.19219526195E+03  0.00000000000E+00 0. -1.
         21   -1    0    0  501  502 -0.00000000000E+00 -0.00000000000E+00 -0.45114636224E+03  0.45114636224E+03  0.00000000000E+00 0. -1.
         25    1    1    2    0    0  0.37066803987E+02 -0.12725077194E+03  0.40063391798E+02  0.18653895647E+03  0.12500000000E+03 0.  0.
         25    1    1    2    0    0  0.68918400588E+02  0.81237992297E+02 -0.90128717706E+02  0.18734338282E+03  0.12500000000E+03 0.  0.
         25    1    1    2    0    0 -0.10598520458E+03  0.46012779646E+02 -0.20888577438E+03  0.26945928490E+03  0.12500000000E+03 0.  0.
</event>
<event>
 5    0  0.5815084E-005  0.5195488E+03  0.7546771E-02  0.1008799E+00
         21   -1    0    0  502  501  0.00000000000E+00  0.00000000000E+00  0.23886937692E+03  0.23886937692E+03  0.00000000000E+00 0. -1.
         21   -1    0    0  501  502 -0.00000000000E+00 -0.00000000000E+00 -0.11300359608E+04  0.11300359608E+04  0.00000000000E+00 0. -1.
         25    1    1    2    0    0  0.27210764311E+02 -0.11092018526E+03 -0.36405417360E+03  0.40150237173E+03  0.12500000000E+03 0.  0.
         25    1    1    2    0    0  0.23970057720E+03  0.24598275922E+03 -0.20676077088E+02  0.36608248348E+03  0.12500000000E+03 0.  0.
         25    1    1    2    0    0 -0.26691134151E+03 -0.13506257396E+03 -0.50643633319E+03  0.60132048251E+03  0.12500000000E+03 0.  0.
</event>
<event>
 5    0  0.5815084E-005  0.2557612E+03  0.7546771E-02  0.1109717E+00
         21   -1    0    0  502  501  0.00000000000E+00  0.00000000000E+00  0.20325333613E+03  0.20325333613E+03  0.00000000000E+00 0.  1.
         21   -1    0    0  501  502 -0.00000000000E+00 -0.00000000000E+00 -0.32183388730E+03  0.32183388730E+03  0.00000000000E+00 0.  1.
         25    1    1    2    0    0 -0.53248158178E+02  0.92468705879E+01  0.71799717458E+02  0.15395151962E+03  0.12500000000E+03 0.  0.
         25    1    1    2    0    0 -0.41522730271E+02  0.40099197302E+02 -0.28943583740E+02  0.14069404320E+03  0.12500000000E+03 0.  0.
         25    1    1    2    0    0  0.94770888449E+02 -0.49346067890E+02 -0.16143668489E+03  0.23044166061E+03  0.12500000000E+03 0.  0.
</event>
<event>
 5    0  0.5815084E-005  0.3966016E+03  0.7546771E-02  0.1044963E+00
         21   -1    0    0  502  501  0.00000000000E+00  0.00000000000E+00  0.92937320469E+02  0.92937320469E+02  0.00000000000E+00 0. -1.
         21   -1    0    0  501  502 -0.00000000000E+00 -0.00000000000E+00 -0.16924611254E+04  0.16924611254E+04  0.00000000000E+00 0. -1.
         25    1    1    2    0    0  0.11189199846E+03  0.22366279332E+02 -0.92619168627E+03  0.94152860259E+03  0.12500000000E+03 0.  0.
         25    1    1    2    0    0  0.81026980072E+02  0.15329939412E+03 -0.22547057718E+03  0.31068964725E+03  0.12500000000E+03 0.  0.
         25    1    1    2    0    0 -0.19291897853E+03 -0.17566567345E+03 -0.44786154152E+03  0.53318019606E+03  0.12500000000E+03 0.  0.
</event>
<event>
 5    0  0.5815084E-005  0.4363039E+03  0.7546771E-02  0.1031887E+00
         21   -1    0    0  502  501  0.00000000000E+00  0.00000000000E+00  0.65664591514E+03  0.65664591514E+03  0.00000000000E+00 0. -1.
         21   -1    0    0  501  502 -0.00000000000E+00 -0.00000000000E+00 -0.28989921448E+03  0.28989921448E+03  0.00000000000E+00 0. -1.
         25    1    1    2    0    0 -0.54792332050E+02  0.13886156699E+03 -0.63008183024E+02  0.20464546309E+03  0.12500000000E+03 0.  0.
         25    1    1    2    0    0  0.15488776220E+03 -0.25726659250E+03  0.43440583940E+03  0.54268752685E+03  0.12500000000E+03 0.  0.
         25    1    1    2    0    0 -0.10009543015E+03  0.11840502552E+03 -0.46509557254E+01  0.19921213967E+03  0.12500000000E+03 0.  0.
</event>
<event>
 5    0  0.5815084E-005  0.3314964E+03  0.7546771E-02  0.1070477E+00
         21   -1    0    0  502  501  0.00000000000E+00  0.00000000000E+00  0.12436855545E+04  0.12436855545E+04  0.00000000000E+00 0.  1.
         21   -1    0    0  501  502 -0.00000000000E+00 -0.00000000000E+00 -0.88358211265E+02  0.88358211265E+02  0.00000000000E+00 0.  1.
         25    1    1    2    0    0 -0.15849607071E+02 -0.16086924256E+03  0.12515422289E+03  0.23962199973E+03  0.12500000000E+03 0.  0.
         25    1    1    2    0    0 -0.74251728093E+02  0.10886277798E+03  0.36549147334E+03  0.40813409640E+03  0.12500000000E+03 0.  0.
         25    1    1    2    0    0  0.90101335164E+02  0.52006464580E+02  0.66468164702E+03  0.68428766965E+03  0.12500000000E+03 0.  0.
</event>
<event>
 5    0  0.5815084E-005  0.2426217E+03  0.7546771E-02  0.1118059E+00
         21   -1    0    0  502  501  0.00000000000E+00  0.00000000000E+00  0.41711213354E+02  0.41711213354E+02  0.00000000000E+00 0. -1.
         21   -1    0    0  501  502 -0.00000000000E+00 -0.00000000000E+00 -0.14112584308E+04  0.14112584308E+04  0.00000000000E+00 0. -1.
         25    1    1    2    0    0 -0.23293205811E+01 -0.71452382878E+02 -0.33628917124E+03  0.36582273774E+03  0.12500000000E+03 0.  0.
         25    1    1    2    0    0  0.31326678716E+02  0.99801958095E+02 -0.82460097392E+03  0.84055550550E+03  0.12500000000E+03 0.  0.
         25    1    1    2    0    0 -0.28997358134E+02 -0.28349575217E+02 -0.20865707233E+03  0.24659140096E+03  0.12500000000E+03 0.  0.
</event>
<event>
 5    0  0.5815084E-005  0.2443698E+03  0.7546771E-02  0.1116916E+00
         21   -1    0    0  502  501  0.00000000000E+00  0.00000000000E+00  0.51208136815E+02  0.51208136815E+02  0.00000000000E+00 0.  1.
         21   -1    0    0  501  502 -0.00000000000E+00 -0.00000000000E+00 -0.11661546192E+04  0.11661546192E+04  0.00000000000E+00 0.  1.
         25    1    1    2    0    0 -0.15327787786E+02 -0.82323433398E+02 -0.19546459768E+03  0.24666474761E+03  0.12500000000E+03 0.  0.
         25    1    1    2    0    0 -0.43150327275E+02 -0.27137676366E+02 -0.40068756351E+03  0.42281665976E+03  0.12500000000E+03 0.  0.
         25    1    1    2    0    0  0.58478115061E+02  0.10946110976E+03 -0.51879432124E+03  0.54788134869E+03  0.12500000000E+03 0.  0.
</event>
<event>
 5    0  0.5815084E-005  0.3973425E+03  0.7546771E-02  0.1044704E+00
         21   -1    0    0  502  501  0.00000000000E+00  0.00000000000E+00  0.77909048512E+03  0.77909048512E+03  0.00000000000E+00 0.  1.
         21   -1    0    0  501  502 -0.00000000000E+00 -0.00000000000E+00 -0.20264792910E+03  0.20264792910E+03  0.00000000000E+00 0.  1.
         25    1    1    2    0    0 -0.12836332411E+03  0.10486701096E+03 -0.59390330359E+02  0.21593157320E+03  0.12500000000E+03 0.  0.
         25    1    1    2    0    0  0.65756019231E+02  0.61148732248E+02  0.89731071003E+02  0.17815635443E+03  0.12500000000E+03 0.  0.
         25    1    1    2    0    0  0.62607304883E+02 -0.16601574321E+03  0.54610181538E+03  0.58765048659E+03  0.12500000000E+03 0.  0.
</event>
<event>
 5    0  0.5815084E-005  0.3395615E+03  0.7546771E-02  0.1066983E+00
         21   -1    0    0  502  501  0.00000000000E+00  0.00000000000E+00  0.11353356778E+03  0.11353356778E+03  0.00000000000E+00 0.  1.
         21   -1    0    0  501  502 -0.00000000000E+00 -0.00000000000E+00 -0.10155766643E+04  0.10155766643E+04  0.00000000000E+00 0.  1.
         25    1    1    2    0    0  0.50893655074E+02  0.12322309527E+02 -0.99595883440E+02  0.16818544359E+03  0.12500000000E+03 0.  0.
         25    1    1    2    0    0  0.17590808571E+03 -0.11200343911E+03 -0.29238082062E+03  0.38026302642E+03  0.12500000000E+03 0.  0.
         25    1    1    2    0    0 -0.22680174079E+03  0.99681129587E+02 -0.51006639246E+03  0.58066176208E+03  0.12500000000E+03 0.  0.
</event>
<event>
 5    0  0.5815084E-005  0.2752518E+03  0.7546771E-02  0.1098311E+00
         21   -1    0    0  502  501  0.00000000000E+00  0.00000000000E+00  0.71282138539E+03  0.71282138539E+03  0.00000000000E+00 0.  1.
         21   -1    0    0  501  502 -0.00000000000E+00 -0.00000000000E+00 -0.10628684962E+03  0.10628684962E+03  0.00000000000E+00 0.  1.
         25    1    1    2    0    0  0.50614595652E+02  0.38265434713E+02  0.57778621648E+02  0.15162272226E+03  0.12500000000E+03 0.  0.
         25    1    1    2    0    0  0.63393358519E+02  0.36509714539E+02  0.84366330659E+02  0.16761370740E+03  0.12500000000E+03 0.  0.
         25    1    1    2    0    0 -0.11400795417E+03 -0.74775149251E+02  0.46438958346E+03  0.49987180535E+03  0.12500000000E+03 0.  0.
</event>
<event>
 5    0  0.5815084E-005  0.4235259E+03  0.7546771E-02  0.1035925E+00
         21   -1    0    0  502  501  0.00000000000E+00  0.00000000000E+00  0.10519151524E+04  0.10519151524E+04  0.00000000000E+00 0. -1.
         21   -1    0    0  501  502 -0.00000000000E+00 -0.00000000000E+00 -0.17052153382E+03  0.17052153382E+03  0.00000000000E+00 0. -1.
         25    1    1    2    0    0  0.11196514360E+01 -0.60576445266E+02 -0.88835840894E+02  0.16488652452E+03  0.12500000000E+03 0.  0.
         25    1    1    2    0    0 -0.69636059251E+02  0.18176583446E+03  0.48014707365E+03  0.53296736453E+03  0.12500000000E+03 0.  0.
         25    1    1    2    0    0  0.68516407816E+02 -0.12118938919E+03  0.49008238585E+03  0.52458279719E+03  0.12500000000E+03 0.  0.
</event>
<event>
 5    0  0.5815084E-005  0.3326891E+03  0.7546771E-02  0.1069953E+00
         21   -1    0    0  502  501  0.00000000000E+00  0.00000000000E+00  0.41642738854E+03  0.41642738854E+03  0.00000000000E+00 0. -1.
         21   -1    0    0  501  502 -0.00000000000E+00 -0.00000000000E+00 -0.26578951843E+03  0.26578951843E+03  0.00000000000E+00 0. -1.
         25    1    1    2    0    0 -0.25340026327E+02  0.35497405310E+02 -0.87667191073E+02  0.15878513504E+03  0.12500000000E+03 0.  0.
         25    1    1    2    0    0 -0.13375678985E+03 -0.13266298110E+03  0.52620025655E+02  0.23212973202E+03  0.12500000000E+03 0.  0.
         25    1    1    2    0    0  0.15909681618E+03  0.97165575794E+02  0.18568503553E+03  0.29130203991E+03  0.12500000000E+03 0.  0.
</event>
<event>
 5    0  0.5887848E-005  0.4418908E+03  0.7546771E-02  0.1030168E+00
         21   -1    0    0  502  501  0.00000000000E+00  0.00000000000E+00  0.82577621406E+03  0.82577621406E+03  0.00000000000E+00 0.  1.
         21   -1    0    0  501  502 -0.00000000000E+00 -0.00000000000E+00 -0.23646534512E+03  0.23646534512E+03  0.00000000000E+00 0.  1.
         25    1    1    2    0    0  0.14555407158E+02  0.31163711709E+03  0.14880475717E+03  0.36755599353E+03  0.12500000000E+03 0.  0.
         25    1    1    2    0    0 -0.59463550226E+02 -0.17259411038E+03  0.80334362353E+01  0.22139145612E+03  0.12500000000E+03 0.  0.
         25    1    1    2    0    0  0.44908143069E+02 -0.13904300670E+03  0.43247267554E+03  0.47329410953E+03  0.12500000000E+03 0.  0.
</event>
<event>
 5    0  0.6293468E-005  0.2844816E+03  0.7546771E-02  0.1093266E+00
         21   -1    0    0  502  501  0.00000000000E+00  0.00000000000E+00  0.67024300586E+03  0.67024300586E+03  0.00000000000E+00 0. -1.
         21   -1    0    0  501  502 -0.00000000000E+00 -0.00000000000E+00 -0.12074693515E+03  0.12074693515E+03  0.00000000000E+00 0. -1.
         25    1    1    2    0    0 -0.10282366844E+03 -0.76940651931E+02  0.13933426359E+03  0.22700574381E+03  0.12500000000E+03 0.  0.
         25    1    1    2    0    0 -0.79912291225E+02  0.26140467737E+01  0.11574759258E+03  0.18818956591E+03  0.12500000000E+03 0.  0.
         25    1    1    2    0    0  0.18273595966E+03  0.74326605157E+02  0.29441421454E+03  0.37579463129E+03  0.12500000000E+03 0.  0.
</event>
<event>
 5    0  0.6762227E-005  0.3126744E+03  0.7546771E-02  0.1079071E+00
         21   -1    0    0  502  501  0.00000000000E+00  0.00000000000E+00  0.57327391954E+03  0.57327391954E+03  0.00000000000E+00 0.  1.
         21   -1    0    0  501  502 -0.00000000000E+00 -0.00000000000E+00 -0.17053854264E+03  0.17053854264E+03  0.00000000000E+00 0.  1.
         25    1    1    2    0    0  0.24427757664E+02  0.19015204679E+03  0.21053426640E+03  0.31097297884E+03  0.12500000000E+03 0.  0.
         25    1    1    2    0    0 -0.40117914960E+01 -0.36009476223E+02 -0.30678635147E+02  0.13371221150E+03  0.12500000000E+03 0.  0.
         25    1    1    2    0    0 -0.20415966168E+02 -0.15414257056E+03  0.22287974565E+03  0.29912727183E+03  0.12500000000E+03 0.  0.
</event>
<event>
 5    0  0.5815084E-005  0.3591686E+03  0.7546771E-02  0.1058914E+00
         21   -1    0    0  502  501  0.00000000000E+00  0.00000000000E+00  0.11346103135E+04  0.11346103135E+04  0.00000000000E+00 0. -1.
         21   -1    0    0  501  502 -0.00000000000E+00 -0.00000000000E+00 -0.11369728233E+03  0.11369728233E+03  0.00000000000E+00 0. -1.
         25    1    1    2    0    0 -0.47103630172E+02  0.34525452782E+02  0.73599887847E+03  0.74881914237E+03  0.12500000000E+03 0.  0.
         25    1    1    2    0    0  0.16909173074E+03  0.38234116538E+02  0.19771415345E+03  0.29115244726E+03  0.12500000000E+03 0.  0.
         25    1    1    2    0    0 -0.12198810057E+03 -0.72759569320E+02  0.87199999255E+02  0.20833600620E+03  0.12500000000E+03 0.  0.
</event>
<event>
 5    0  0.5815084E-005  0.4199593E+03  0.7546771E-02  0.1037080E+00
         21   -1    0    0  502  501  0.00000000000E+00  0.00000000000E+00  0.65148101860E+03  0.65148101860E+03  0.00000000000E+00 0. -1.
         21   -1    0    0  501  502 -0.00000000000E+00 -0.00000000000E+00 -0.27071514333E+03  0.27071514333E+03  0.00000000000E+00 0. -1.
         25    1    1    2    0    0  0.55107565570E+02 -0.33816940942E+02  0.24299484993E+02  0.14281419484E+03  0.12500000000E+03 0.  0.
         25    1    1    2    0    0 -0.74509306396E+02 -0.30140180515E+03  0.17880029248E+03  0.37945912754E+03  0.12500000000E+03 0.  0.
         25    1    1    2    0    0  0.19401740826E+02  0.33521874609E+03  0.17766609781E+03  0.39992283954E+03  0.12500000000E+03 0.  0.
</event>
<event>
 5    0  0.5815084E-005  0.2505021E+03  0.7546771E-02  0.1112988E+00
         21   -1    0    0  502  501  0.00000000000E+00  0.00000000000E+00  0.80877054407E+02  0.80877054407E+02  0.00000000000E+00 0.  1.
         21   -1    0    0  501  502 -0.00000000000E+00 -0.00000000000E+00 -0.77588491470E+03  0.77588491470E+03  0.00000000000E+00 0.  1.
         25    1    1    2    0    0 -0.13727964229E+03 -0.52543571458E+02 -0.24923450884E+03  0.31519734689E+03  0.12500000000E+03 0.  0.
         25    1    1    2    0    0  0.10670121872E+03  0.65291207843E+02 -0.28247699917E+03  0.33326618034E+03  0.12500000000E+03 0.  0.
         25    1    1    2    0    0  0.30578423569E+02 -0.12747636385E+02 -0.16329635228E+03  0.20829844188E+03  0.12500000000E+03 0.  0.
</event>
<event>
 5    0  0.5815084E-005  0.1987269E+03  0.7546771E-02  0.1150818E+00
         21   -1    0    0  502  501  0.00000000000E+00  0.00000000000E+00  0.46881053856E+03  0.46881053856E+03  0.00000000000E+00 0.  1.
         21   -1    0    0  501  502 -0.00000000000E+00 -0.00000000000E+00 -0.84239538635E+02  0.84239538635E+02  0.00000000000E+00 0.  1.
         25    1    1    2    0    0 -0.48288126505E+02  0.26411696762E+01  0.15457471874E+03  0.20458998659E+03  0.12500000000E+03 0.  0.
         25    1    1    2    0    0  0.85536830691E+01 -0.21008708528E+02  0.89653640779E+02  0.15549053551E+03  0.12500000000E+03 0.  0.
         25    1    1    2    0    0  0.39734443436E+02  0.18367538852E+02  0.14034264041E+03  0.19296955510E+03  0.12500000000E+03 0.  0.
</event>
<event>
 5    0  0.5815084E-005  0.3255499E+03  0.7546771E-02  0.1073123E+00
         21   -1    0    0  502  501  0.00000000000E+00  0.00000000000E+00  0.58731561778E+03  0.58731561778E+03  0.00000000000E+00 0.  1.
         21   -1    0    0  501  502 -0.00000000000E+00 -0.00000000000E+00 -0.18045278944E+03  0.18045278944E+03  0.00000000000E+00 0.  1.
         25    1    1    2    0    0 -0.43165711689E+02  0.12423695984E+03  0.42274511494E+03  0.46003970814E+03  0.12500000000E+03 0.  0.
         25    1    1    2    0    0  0.60932871167E+02 -0.16142316191E+02  0.57882342007E+01  0.14011385662E+03  0.12500000000E+03 0.  0.
         25    1    1    2    0    0 -0.17767159478E+02 -0.10809464365E+03 -0.21670520798E+02  0.16761484246E+03  0.12500000000E+03 0.  0.
</event>
<event>
 5    0  0.5815084E-005  0.3718929E+03  0.7546771E-02  0.1053972E+00
         21   -1    0    0  502  501  0.00000000000E+00  0.00000000000E+00  0.20999118267E+04  0.20999118267E+04  0.00000000000E+00 0.  1.
         21   -1    0    0  501  502 -0.00000000000E+00 -0.00000000000E+00 -0.65861978232E+02  0.65861978232E+02  0.00000000000E+00 0.  1.
         25    1    1    2    0    0 -0.18558445318E+03  0.14618536375E+03  0.85199664182E+03  0.89293618333E+03  0.12500000000E+03 0.  0.
         25    1    1    2    0    0 -0.19267745780E+02  0.58122006542E+02  0.21867786175E+03  0.25921886677E+03  0.12500000000E+03 0.  0.
         25    1    1    2    0    0  0.20485219896E+03 -0.20430737029E+03  0.96337534494E+03  0.10136187549E+04  0.12500000000E+03 0.  0.
</event>
<event>
 5    0  0.5815084E-005  0.2341436E+03  0.7546771E-02  0.1123757E+00
         21   -1    0    0  502  501  0.00000000000E+00  0.00000000000E+00  0.29507988851E+02  0.29507988851E+02  0.00000000000E+00 0. -1.
         21   -1    0    0  501  502 -0.00000000000E+00 -0.00000000000E+00 -0.18579112651E+04  0.18579112651E+04  0.00000000000E+00 0. -1.
         25    1    1    2    0    0  0.54987244617E+02  0.54044166830E+02 -0.46411931030E+03  0.48680191375E+03  0.12500000000E+03 0.  0.
         25    1    1    2    0    0  0.32422345531E+01  0.43968063622E+02 -0.82008210220E+03  0.83072459759E+03  0.12500000000E+03 0.  0.
         25    1    1    2    0    0 -0.58229479170E+02 -0.98012230451E+02 -0.54420186374E+03  0.56989274260E+03  0.12500000000E+03 0.  0.
</event>
<event>
 5    0  0.5815084E-005  0.6064969E+03  0.7546771E-02  0.9892018E-01
         21   -1    0    0  502  501  0.00000000000E+00  0.00000000000E+00  0.49646354566E+03  0.49646354566E+03  0.00000000000E+00 0.  1.
         21   -1    0    0  501  502 -0.00000000000E+00 -0.00000000000E+00 -0.74091737867E+03  0.74091737867E+03  0.00000000000E+00 0.  1.
         25    1    1    2    0    0 -0.49117663098E+02  0.33581782218E+02 -0.33495692158E+03  0.36243816058E+03  0.12500000000E+03 0.  0.
         25    1    1    2    0    0  0.94946054584E+02 -0.18955982627E+03  0.42002516741E+03  0.48682011285E+03  0.12500000000E+03 0.  0.
         25    1    1    2    0    0 -0.45828391486E+02  0.15597804406E+03 -0.32952207885E+03  0.38812265090E+03  0.12500000000E+03 0.  0.
</event>
<event>
 5    0  0.5815084E-005  0.3634060E+03  0.7546771E-02  0.1057243E+00
         21   -1    0    0  502  501  0.00000000000E+00  0.00000000000E+00  0.29758320026E+03  0.29758320026E+03  0.00000000000E+00 0. -1.
         21   -1    0    0  501  502 -0.00000000000E+00 -0.00000000000E+00 -0.44378815771E+03  0.44378815771E+03  0.00000000000E+00 0. -1.
         25    1    1    2    0    0 -0.55346358308E+02 -0.68697454367E+01 -0.10978922110E+03  0.17546819042E+03  0.12500000000E+03 0.  0.
         25    1    1    2    0    0 -0.21913090944E+03  0.45782131086E+02  0.17775021053E+02  0.25701227669E+03  0.12500000000E+03 0.  0.
         25    1    1    2    0    0  0.27447726774E+03 -0.38912385649E+02 -0.54190757414E+02  0.30889089086E+03  0.12500000000E+03 0.  0.
</event>
<event>
 5    0  0.5815084E-005  0.4314557E+03  0.7546771E-02  0.1033401E+00
         21   -1    0    0  502  501  0.00000000000E+00  0.00000000000E+00  0.26491916437E+03  0.26491916437E+03  0.00000000000E+00 0. -1.
         21   -1    0    0  501  502 -0.00000000000E+00 -0.00000000000E+00 -0.70268219598E+03  0.70268219598E+03  0.00000000000E+00 0. -1.
         25    1    1    2    0    0 -0.26265755181E+02 -0.30741499588E+03 -0.16905127290E+02  0.33332364590E+03  0.12500000000E+03 0.  0.
         25    1    1    2    0    0 -0.78240242367E+02  0.14840674982E+03 -0.32662176025E+03  0.38788255077E+03  0.12500000000E+03 0.  0.
         25    1    1    2    0    0  0.10450599755E+03  0.15900824606E+03 -0.94236144061E+02  0.24639516368E+03  0.12500000000E+03 0.  0.
</event>
<event>
 5    0  0.5815084E-005  0.4865022E+03  0.7546771E-02  0.1017363E+00
         21   -1    0    0  502  501  0.00000000000E+00  0.00000000000E+00  0.16638242322E+03  0.16638242322E+03  0.00000000000E+00 0.  1.
         21   -1    0    0  501  502 -0.00000000000E+00 -0.00000000000E+00 -0.14225324753E+04  0.14225324753E+04  0.00000000000E+00 0.  1.
         25    1    1    2    0    0 -0.82237787579E+01 -0.21174873768E+03 -0.27255356423E+03  0.36717244426E+03  0.12500000000E+03 0.  0.
         25    1    1    2    0    0 -0.29502884205E+02 -0.81843741556E+02  0.32781420196E+02  0.15578331014E+03  0.12500000000E+03 0.  0.
         25    1    1    2    0    0  0.37726662963E+02  0.29359247924E+03 -0.10163779080E+04  0.10659591441E+04  0.12500000000E+03 0.  0.
</event>
<event>
 5    0  0.5815084E-005  0.2147497E+03  0.7546771E-02  0.1137859E+00
         21   -1    0    0  502  501  0.00000000000E+00  0.00000000000E+00  0.92516910663E+02  0.92516910663E+02  0.00000000000E+00 0.  1.
         21   -1    0    0  501  502 -0.00000000000E+00 -0.00000000000E+00 -0.49847587200E+03  0.49847587200E+03  0.00000000000E+00 0.  1.
         25    1    1    2    0    0 -0.53932150627E+02  0.41584528552E+02 -0.68023754866E+02  0.15776622298E+03  0.12500000000E+03 0.  0.
         25    1    1    2    0    0  0.20963589960E+00 -0.95216230565E+01 -0.11515582207E+03  0.17022505283E+03  0.12500000000E+03 0.  0.
         25    1    1    2    0    0  0.53722514727E+02 -0.32062905496E+02 -0.22277938440E+03  0.26300150686E+03  0.12500000000E+03 0.  0.
</event>
<event>
 5    0  0.6078844E-005  0.2562027E+03  0.7546771E-02  0.1109446E+00
         21   -1    0    0  502  501  0.00000000000E+00  0.00000000000E+00  0.29609912912E+03  0.29609912912E+03  0.00000000000E+00 0.  1.
         21   -1    0    0  501  502 -0.00000000000E+00 -0.00000000000E+00 -0.22168197908E+03  0.22168197908E+03  0.00000000000E+00 0.  1.
         25    1    1    2    0    0  0.23784857169E+02  0.12706530011E+02  0.11054923375E+03  0.16903641152E+03  0.12500000000E+03 0.  0.
         25    1    1    2    0    0  0.91406229342E+02  0.37850265520E+02  0.24582680543E+02  0.16129801470E+03  0.12500000000E+03 0.  0.
         25    1    1    2    0    0 -0.11519108651E+03 -0.50556795532E+02 -0.60714764254E+02  0.18744668198E+03  0.12500000000E+03 0.  0.
</event>
<event>
 5    0  0.5815084E-005  0.3309977E+03  0.7546771E-02  0.1070696E+00
         21   -1    0    0  502  501  0.00000000000E+00  0.00000000000E+00  0.71495788675E+02  0.71495788675E+02  0.00000000000E+00 0. -1.
         21   -1    0    0  501  502 -0.00000000000E+00 -0.00000000000E+00 -0.15323905095E+04  0.15323905095E+04  0.00000000000E+00 0. -1.
         25    1    1    2    0    0  0.16814148586E+03 -0.18720688554E+01 -0.21484842655E+03  0.30009983389E+03  0.12500000000E+03 0.  0.
         25    1    1    2    0    0 -0.10304164824E+03 -0.11013943149E+03 -0.51772009578E+03  0.55354076021E+03  0.12500000000E+03 0.  0.
         25    1    1    2    0    0 -0.65099837618E+02  0.11201150035E+03 -0.72832619848E+03  0.75024570406E+03  0.12500000000E+03 0.  0.
</event>
<event>
 5    0  0.5943138E-005  0.2590874E+03  0.7546771E-02  0.1107693E+00
         21   -1    0    0  502  501  0.00000000000E+00  0.00000000000E+00  0.14569870166E+03  0.14569870166E+03  0.00000000000E+00 0. -1.
         21   -1    0    0  501  502 -0.00000000000E+00 -0.00000000000E+00 -0.46071979202E+03  0.46071979202E+03  0.00000000000E+00 0. -1.
         25    1    1    2    0    0  0.14352333426E+03  0.54891181123E+00 -0.15618978661E+03  0.24621027237E+03  0.12500000000E+03 0.  0.
         25    1    1    2    0    0 -0.11409159792E+03 -0.62488981958E+02 -0.80784307351E+02  0.19766858601E+03  0.12500000000E+03 0.  0.
         25    1    1    2    0    0 -0.29431736342E+02  0.61940070146E+02 -0.78046996407E+02  0.16253963530E+03  0.12500000000E+03 0.  0.
</event>
<event>
 5    0  0.5815084E-005  0.2209926E+03  0.7546771E-02  0.1133145E+00
         21   -1    0    0  502  501  0.00000000000E+00  0.00000000000E+00  0.54000579337E+03  0.54000579337E+03  0.00000000000E+00 0.  1.
         21   -1    0    0  501  502 -0.00000000000E+00 -0.00000000000E+00 -0.90439304323E+02  0.90439304323E+02  0.00000000000E+00 0.  1.
         25    1    1    2    0    0 -0.31811739190E+02  0.35908335195E+02  0.75938435526E+02  0.15392544064E+03  0.12500000000E+03 0.  0.
         25    1    1    2    0    0 -0.19091703336E+02  0.43595133406E+02  0.21764615862E+03  0.25546013222E+03  0.12500000000E+03 0.  0.
         25    1    1    2    0    0  0.50903442525E+02 -0.79503468601E+02  0.15598189490E+03  0.22105952483E+03  0.12500000000E+03 0.  0.
</event>
<event>
 5    0  0.5815084E-005  0.2898913E+03  0.7546771E-02  0.1090406E+00
         21   -1    0    0  502  501  0.00000000000E+00  0.00000000000E+00  0.37974536101E+03  0.37974536101E+03  0.00000000000E+00 0. -1.
         21   -1    0    0  501  502 -0.00000000000E+00 -0.00000000000E+00 -0.22129818952E+03  0.22129818952E+03  0.00000000000E+00 0. -1.
         25    1    1    2    0    0 -0.15947294650E+02  0.25843584483E+02 -0.58492334477E+01  0.12876886502E+03  0.12500000000E+03 0.  0.
         25    1    1    2    0    0  0.71830288491E+02 -0.20392549243E+02  0.26489980819E+03  0.30227860458E+03  0.12500000000E+03 0.  0.
         25    1    1    2    0    0 -0.55882993842E+02 -0.54510352396E+01 -0.10060340325E+03  0.16999608093E+03  0.12500000000E+03 0.  0.
</event>
<event>
 5    0  0.5815084E-005  0.2388448E+03  0.7546771E-02  0.1120565E+00
         21   -1    0    0  502  501  0.00000000000E+00  0.00000000000E+00  0.20569521080E+03  0.20569521080E+03  0.00000000000E+00 0.  1.
         21   -1    0    0  501  502 -0.00000000000E+00 -0.00000000000E+00 -0.27733673136E+03  0.27733673136E+03  0.00000000000E+00 0.  1.
         25    1    1    2    0    0  0.48843944333E+02  0.91433243481E+02 -0.83965831739E+02  0.18281419477E+03  0.12500000000E+03 0.  0.
         25    1    1    2    0    0 -0.11394945738E+02 -0.41298587704E+02 -0.57327195428E+02  0.14403758353E+03  0.12500000000E+03 0.  0.
         25    1    1    2    0    0 -0.37448998595E+02 -0.50134655777E+02  0.69651506611E+02  0.15618016385E+03  0.12500000000E+03 0.  0.
</event>
<event>
 5    0  0.5815084E-005  0.3083822E+03  0.7546771E-02  0.1081124E+00
         21   -1    0    0  502  501  0.00000000000E+00  0.00000000000E+00  0.98188493650E+03  0.98188493650E+03  0.00000000000E+00 0.  1.
         21   -1    0    0  501  502 -0.00000000000E+00 -0.00000000000E+00 -0.96854116237E+02  0.96854116237E+02  0.00000000000E+00 0.  1.
         25    1    1    2    0    0  0.82011664349E+00 -0.10454647898E+03  0.56463174819E+03  0.58767733487E+03  0.12500000000E+03 0.  0.
         25    1    1    2    0    0 -0.66566790335E+02 -0.19210434928E+02  0.31262412381E+02  0.14629599042E+03  0.12500000000E+03 0.  0.
         25    1    1    2    0    0  0.65746673691E+02  0.12375691391E+03  0.28913665969E+03  0.34476572744E+03  0.12500000000E+03 0.  0.
</event>
<event>
 5    0  0.5815084E-005  0.3074993E+03  0.7546771E-02  0.1081551E+00
         21   -1    0    0  502  501  0.00000000000E+00  0.00000000000E+00  0.26495761083E+04  0.26495761083E+04  0.00000000000E+00 0.  1.
         21   -1    0    0  501  502 -0.00000000000E+00 -0.00000000000E+00 -0.35687139888E+02  0.35687139888E+02  0.00000000000E+00 0.  1.
         25    1    1    2    0    0 -0.18274027170E+03  0.16722855250E+01  0.53777182716E+03  0.58156714275E+03  0.12500000000E+03 0.  0.
         25    1    1    2    0    0  0.31854006065E+02 -0.42909277454E+02  0.69878467037E+03  0.71188545381E+03  0.12500000000E+03 0.  0.
         25    1    1    2    0    0  0.15088626563E+03  0.41236991929E+02  0.13773324709E+04  0.13918106517E+04  0.12500000000E+03 0.  0.
</event>
<event>
 5    0  0.5952768E-005  0.2987805E+03  0.7546771E-02  0.1085852E+00
         21   -1    0    0  502  501  0.00000000000E+00  0.00000000000E+00  0.19869145836E+03  0.19869145836E+03  0.00000000000E+00 0. -1.
         21   -1    0    0  501  502 -0.00000000000E+00 -0.00000000000E+00 -0.44928861501E+03  0.44928861501E+03  0.00000000000E+00 0. -1.
         25    1    1    2    0    0 -0.18781463947E+02 -0.37806526824E+00 -0.23581356923E+03  0.26755546295E+03  0.12500000000E+03 0.  0.
         25    1    1    2    0    0  0.84858806186E+02 -0.77008002421E+02 -0.10126028402E+03  0.19750922648E+03  0.12500000000E+03 0.  0.
         25    1    1    2    0    0 -0.66077342238E+02  0.77386067690E+02  0.86476696599E+02  0.18291538395E+03  0.12500000000E+03 0.  0.
</event>
<event>
 5    0  0.5815084E-005  0.4275177E+03  0.7546771E-02  0.1034647E+00
         21   -1    0    0  502  501  0.00000000000E+00  0.00000000000E+00  0.95857521233E+02  0.95857521233E+02  0.00000000000E+00 0. -1.
         21   -1    0    0  501  502 -0.00000000000E+00 -0.00000000000E+00 -0.19066986899E+04  0.19066986899E+04  0.00000000000E+00 0. -1.
         25    1    1    2    0    0  0.82564682212E+02  0.24604221149E+03 -0.34252756429E+03  0.44755315760E+03  0.12500000000E+03 0.  0.
         25    1    1    2    0    0 -0.92629318790E+02 -0.30793852391E+03 -0.78415081130E+03  0.85669353918E+03  0.12500000000E+03 0.  0.
         25    1    1    2    0    0  0.10064636577E+02  0.61896312427E+02 -0.68416279303E+03  0.69830951431E+03  0.12500000000E+03 0.  0.
</event>
<event>
 5    0  0.5815084E-005  0.3228340E+03  0.7546771E-02  0.1074352E+00
         21   -1    0    0  502  501  0.00000000000E+00  0.00000000000E+00  0.27026278805E+03  0.27026278805E+03  0.00000000000E+00 0.  1.
         21   -1    0    0  501  502 -0.00000000000E+00 -0.00000000000E+00 -0.38563127342E+03  0.38563127342E+03  0.00000000000E+00 0.  1.
         25    1    1    2    0    0 -0.18203377823E+03  0.47441152309E+01 -0.97177248693E+01  0.22108423106E+03  0.12500000000E+03 0.  0.
         25    1    1    2    0    0  0.16472554870E+03  0.33332246589E+02  0.64883581135E+02  0.21927248838E+03  0.12500000000E+03 0.  0.
         25    1    1    2    0    0  0.17308229525E+02 -0.38076361820E+02 -0.17053434164E+03  0.21553734205E+03  0.12500000000E+03 0.  0.
</event>
<event>
 5    0  0.5815084E-005  0.3091328E+03  0.7546771E-02  0.1080762E+00
         21   -1    0    0  502  501  0.00000000000E+00  0.00000000000E+00  0.64458792503E+02  0.64458792503E+02  0.00000000000E+00 0.  1.
         21   -1    0    0  501  502 -0.00000000000E+00 -0.00000000000E+00 -0.14825456099E+04  0.14825456099E+04  0.00000000000E+00 0.  1.
         25    1    1    2    0    0 -0.37454699210E+02 -0.18438711080E+03 -0.57644855917E+03  0.61912793710E+03  0.12500000000E+03 0.  0.
         25    1    1    2    0    0 -0.63748336315E+02  0.71141535600E+02 -0.57748623524E+03  0.59853180397E+03  0.12500000000E+03 0.  0.
         25    1    1    2    0    0  0.10120303553E+03  0.11324557520E+03 -0.26415202297E+03  0.32934466133E+03  0.12500000000E+03 0.  0.
</event>
<event>
 5    0  0.5815084E-005  0.2545782E+03  0.7546771E-02  0.1110445E+00
         21   -1    0    0  502  501  0.00000000000E+00  0.00000000000E+00  0.18549040593E+04  0.18549040593E+04  0.00000000000E+00 0.  1.
         21   -1    0    0  501  502 -0.00000000000E+00 -0.00000000000E+00 -0.34939831126E+02  0.34939831126E+02  0.00000000000E+00 0.  1.
         25    1    1    2    0    0  0.58340908736E+02  0.56440646458E+02  0.29938719947E+03  0.33443520062E+03  0.12500000000E+03 0.  0.
         25    1    1    2    0    0  0.31685695383E+02 -0.99001746747E+02  0.90112565947E+03  0.91567340428E+03  0.12500000000E+03 0.  0.
         25    1    1    2    0    0 -0.90026604119E+02  0.42561100290E+02  0.61945136925E+03  0.63973528554E+03  0.12500000000E+03 0.  0.
</event>
<event>
 5    0  0.5815084E-005  0.3280013E+03  0.7546771E-02  0.1072025E+00
         21   -1    0    0  502  501  0.00000000000E+00  0.00000000000E+00  0.21981710020E+03  0.21981710020E+03  0.00000000000E+00 0.  1.
         21   -1    0    0  501  502 -0.00000000000E+00 -0.00000000000E+00 -0.48942896382E+03  0.48942896382E+03  0.00000000000E+00 0.  1.
         25    1    1    2    0    0  0.14969766410E+03  0.40178660009E+02 -0.38293591663E+02  0.20276862311E+03  0.12500000000E+03 0.  0.
         25    1    1    2    0    0  0.22215924152E+02 -0.92768000340E+02 -0.24047837457E+03  0.28732263713E+03  0.12500000000E+03 0.  0.
         25    1    1    2    0    0 -0.17191358825E+03  0.52589340331E+02  0.91601026142E+01  0.21915480378E+03  0.12500000000E+03 0.  0.
</event>
<event>
 5    0  0.5815084E-005  0.3382379E+03  0.7546771E-02  0.1067549E+00
         21   -1    0    0  502  501  0.00000000000E+00  0.00000000000E+00  0.13480351209E+04  0.13480351209E+04  0.00000000000E+00 0.  1.
         21   -1    0    0  501  502 -0.00000000000E+00 -0.00000000000E+00 -0.84867865627E+02  0.84867865627E+02  0.00000000000E+00 0.  1.
         25    1    1    2    0    0 -0.53754470156E+02 -0.38157548142E+02  0.92165199290E+03  0.93242315371E+03  0.12500000000E+03 0.  0.
         25    1    1    2    0    0  0.40698505003E+00 -0.20668735576E+02 -0.16658100038E+01  0.12670886784E+03  0.12500000000E+03 0.  0.
         25    1    1    2    0    0  0.53347485106E+02  0.58826283718E+02  0.34318107233E+03  0.37377096493E+03  0.12500000000E+03 0.  0.
</event>
<event>
 5    0  0.5815084E-005  0.3221992E+03  0.7546771E-02  0.1074642E+00
         21   -1    0    0  502  501  0.00000000000E+00  0.00000000000E+00  0.68678197915E+03  0.68678197915E+03  0.00000000000E+00 0.  1.
         21   -1    0    0  501  502 -0.00000000000E+00 -0.00000000000E+00 -0.15115765559E+03  0.15115765559E+03  0.00000000000E+00 0.  1.
         25    1    1    2    0    0 -0.10450591053E+03 -0.12181131995E+03  0.11003423417E+03  0.23128340989E+03  0.12500000000E+03 0.  0.
         25    1    1    2    0    0  0.18492355272E+03  0.16001786627E+03  0.23127967171E+03  0.35905114457E+03  0.12500000000E+03 0.  0.
         25    1    1    2    0    0 -0.80417642190E+02 -0.38206546321E+02  0.19431041769E+03  0.24760508028E+03  0.12500000000E+03 0.  0.
</event>
<event>
 5    0  0.5815084E-005  0.3826272E+03  0.7546771E-02  0.1049967E+00
         21   -1    0    0  502  501  0.00000000000E+00  0.00000000000E+00  0.56922071418E+03  0.56922071418E+03  0.00000000000E+00 0. -1.
         21   -1    0    0  501  502 -0.00000000000E+00 -0.00000000000E+00 -0.25719996687E+03  0.25719996687E+03  0.00000000000E+00 0. -1.
         25    1    1    2    0    0  0.14737662362E+02 -0.23059194799E+03  0.27344182189E+00  0.26270690882E+03  0.12500000000E+03 0.  0.
         25    1    1    2    0    0 -0.24979719585E+02  0.11676298324E+03 -0.36306261356E+02  0.17663727030E+03  0.12500000000E+03 0.  0.
         25    1    1    2    0    0  0.10242057223E+02  0.11382896475E+03  0.34805356685E+03  0.38707650193E+03  0.12500000000E+03 0.  0.
</event>
<event>
 5    0  0.5815084E-005  0.5187056E+03  0.7546771E-02  0.1009009E+00
         21   -1    0    0  502  501  0.00000000000E+00  0.00000000000E+00  0.35156418313E+03  0.35156418313E+03  0.00000000000E+00 0. -1.
         21   -1    0    0  501  502 -0.00000000000E+00 -0.00000000000E+00 -0.76530972645E+03  0.76530972645E+03  0.00000000000E+00 0. -1.
         25    1    1    2    0    0  0.67362528340E+02  0.13542782829E+02  0.55899490310E+02  0.15320205680E+03  0.12500000000E+03 0.  0.
         25    1    1    2    0    0  0.22066754774E+03 -0.31585510902E+03 -0.20888006162E+03  0.45575705882E+03  0.12500000000E+03 0.  0.
         25    1    1    2    0    0 -0.28803007608E+03  0.30231232619E+03 -0.26076497202E+03  0.50791479396E+03  0.12500000000E+03 0.  0.
</event>
<event>
 5    0  0.6038023E-005  0.3738880E+03  0.7546771E-02  0.1053216E+00
         21   -1    0    0  502  501  0.00000000000E+00  0.00000000000E+00  0.71880121739E+03  0.71880121739E+03  0.00000000000E+00 0. -1.
         21   -1    0    0  501  502 -0.00000000000E+00 -0.00000000000E+00 -0.19447967574E+03  0.19447967574E+03  0.00000000000E+00 0. -1.
         25    1    1    2    0    0  0.16017186215E+02  0.16037142233E+03  0.11944725683E+03  0.23636452889E+03  0.12500000000E+03 0.  0.
         25    1    1    2    0    0  0.91704556135E+02 -0.61836813153E+02 -0.57222371505E+02  0.17644522345E+03  0.12500000000E+03 0.  0.
         25    1    1    2    0    0 -0.10772174235E+03 -0.98534609174E+02  0.46209665632E+03  0.50047114079E+03  0.12500000000E+03 0.  0.
</event>
<event>
 5    0  0.5815084E-005  0.3728769E+03  0.7546771E-02  0.1053598E+00
         21   -1    0    0  502  501  0.00000000000E+00  0.00000000000E+00  0.54655783045E+03  0.54655783045E+03  0.00000000000E+00 0. -1.
         21   -1    0    0  501  502 -0.00000000000E+00 -0.00000000000E+00 -0.25438695909E+03  0.25438695909E+03  0.00000000000E+00 0. -1.
         25    1    1    2    0    0  0.13165208543E+03  0.22920664270E+02  0.56428440476E+02  0.19148576277E+03  0.12500000000E+03 0.  0.
         25    1    1    2    0    0 -0.30780804718E+03 -0.13948390428E+02  0.77168824691E+02  0.34135081516E+03  0.12500000000E+03 0.  0.
         25    1    1    2    0    0  0.17615596175E+03 -0.89722738418E+01  0.15857360620E+03  0.26810821162E+03  0.12500000000E+03 0.  0.
</event>
<event>
 5    0  0.5815084E-005  0.3462141E+03  0.7546771E-02  0.1064180E+00
         21   -1    0    0  502  501  0.00000000000E+00  0.00000000000E+00  0.31135294573E+03  0.31135294573E+03  0.00000000000E+00 0.  1.
         21   -1    0    0  501  502 -0.00000000000E+00 -0.00000000000E+00 -0.38497852222E+03  0.38497852222E+03  0.00000000000E+00 0. -1.
         25    1    1    2    0    0  0.69647624433E+02 -0.84568878143E+02 -0.49993153848E+02  0.17357131725E+03  0.12500000000E+03 0.  0.
         25    1    1    2    0    0  0.15571514158E+03  0.15633594720E+03  0.55331012470E+01  0.25366069643E+03  0.12500000000E+03 0.  0.
         25    1    1    2    0    0 -0.22536276601E+03 -0.71767069059E+02 -0.29165523894E+02  0.26909945428E+03  0.12500000000E+03 0.  0.
</event>
<event>
 5    0  0.5815084E-005  0.2767375E+03  0.7546771E-02  0.1097484E+00
         21   -1    0    0  502  501  0.00000000000E+00  0.00000000000E+00  0.53844516890E+03  0.53844516890E+03  0.00000000000E+00 0. -1.
         21   -1    0    0  501  502 -0.00000000000E+00 -0.00000000000E+00 -0.14223113561E+03  0.14223113561E+03  0.00000000000E+00 0. -1.
         25    1    1    2    0    0  0.64730386711E+02  0.12883365396E+03  0.14806562441E+03  0.24152963066E+03  0.12500000000E+03 0.  0.
         25    1    1    2    0    0  0.23263672437E+02 -0.21394393498E+02  0.21306025127E+03  0.24903531717E+03  0.12500000000E+03 0.  0.
         25    1    1    2    0    0 -0.87994059148E+02 -0.10743926046E+03  0.35088157606E+02  0.19011135668E+03  0.12500000000E+03 0.  0.
</event>
<event>
 5    0  0.5815084E-005  0.2764730E+03  0.7546771E-02  0.1097631E+00
         21   -1    0    0  502  501  0.00000000000E+00  0.00000000000E+00  0.47065102651E+03  0.47065102651E+03  0.00000000000E+00 0.  1.
         21   -1    0    0  501  502 -0.00000000000E+00 -0.00000000000E+00 -0.16240761881E+03  0.16240761881E+03  0.00000000000E+00 0.  1.
         25    1    1    2    0    0  0.47263140407E+02  0.29550351410E+02  0.70852306655E+02  0.15411708883E+03  0.12500000000E+03 0.  0.
         25    1    1    2    0    0 -0.12810724635E+03  0.93138020163E+02  0.19671162072E+03  0.28179180097E+03  0.12500000000E+03 0.  0.
         25    1    1    2    0    0  0.80844105941E+02 -0.12268837157E+03  0.40679480323E+02  0.19714975553E+03  0.12500000000E+03 0.  0.
</event>
<event>
 5    0  0.5815084E-005  0.3654939E+03  0.7546771E-02  0.1056429E+00
         21   -1    0    0  502  501  0.00000000000E+00  0.00000000000E+00  0.25439131987E+04  0.25439131987E+04  0.00000000000E+00 0. -1.
         21   -1    0    0  501  502 -0.00000000000E+00 -0.00000000000E+00 -0.52511928443E+02  0.52511928443E+02  0.00000000000E+00 0. -1.
         25    1    1    2    0    0  0.13535264033E+03 -0.69674278516E+02  0.72622178653E+03  0.75246124523E+03  0.12500000000E+03 0.  0.
         25    1    1    2    0    0  0.19431904604E+02  0.16450739069E+03  0.14154293104E+04  0.14305612232E+04  0.12500000000E+03 0.  0.
         25    1    1    2    0    0 -0.15478454494E+03 -0.94833112178E+02  0.34975017333E+03  0.41340265875E+03  0.12500000000E+03 0.  0.
</event>
<event>
 5    0  0.5815084E-005  0.2350929E+03  0.7546771E-02  0.1123106E+00
         21   -1    0    0  502  501  0.00000000000E+00  0.00000000000E+00  0.94141422569E+02  0.94141422569E+02  0.00000000000E+00 0. -1.
         21   -1    0    0  501  502 -0.00000000000E+00 -0.00000000000E+00 -0.58708115261E+03  0.58708115261E+03  0.00000000000E+00 0. -1.
         25    1    1    2    0    0 -0.62403703545E+02 -0.47337784998E+02 -0.13515588937E+03  0.20006799478E+03  0.12500000000E+03 0.  0.
         25    1    1    2    0    0  0.46099387995E+02 -0.57717351159E+02 -0.23488598755E+03  0.27613922819E+03  0.12500000000E+03 0.  0.
         25    1    1    2    0    0  0.16304315550E+02  0.10505513616E+03 -0.12289785312E+03  0.20501535221E+03  0.12500000000E+03 0.  0.
</event>
<event>
 5    0  0.5815084E-005  0.3367872E+03  0.7546771E-02  0.1068173E+00
         21   -1    0    0  502  501  0.00000000000E+00  0.00000000000E+00  0.20142281992E+04  0.20142281992E+04  0.00000000000E+00 0. -1.
         21   -1    0    0  501  502 -0.00000000000E+00 -0.00000000000E+00 -0.56312184363E+02  0.56312184363E+02  0.00000000000E+00 0. -1.
         25    1    1    2    0    0  0.14361359833E+01 -0.21301293353E+03  0.10357911395E+04  0.10648309054E+04  0.12500000000E+03 0.  0.
         25    1    1    2    0    0 -0.98415508719E+02  0.17769297659E+03  0.51731332258E+03  0.56964768059E+03  0.12500000000E+03 0.  0.
         25    1    1    2    0    0  0.96979372736E+02  0.35319956944E+02  0.40481155278E+03  0.43606179764E+03  0.12500000000E+03 0.  0.
</event>
<event>
 5    0  0.5815084E-005  0.3302935E+03  0.7546771E-02  0.1071007E+00
         21   -1    0    0  502  501  0.00000000000E+00  0.00000000000E+00  0.11096781017E+03  0.11096781017E+03  0.00000000000E+00 0. -1.
         21   -1    0    0  501  502 -0.00000000000E+00 -0.00000000000E+00 -0.98311226791E+03  0.98311226791E+03  0.00000000000E+00 0. -1.
         25    1    1    2    0    0  0.10521684783E+03  0.21208549442E+02 -0.14550285969E+03  0.21981007669E+03  0.12500000000E+03 0.  0.
         25    1    1    2    0    0  0.14525380474E+03 -0.13087029144E+02 -0.40197935131E+03  0.44551356545E+03  0.12500000000E+03 0.  0.
         25    1    1    2    0    0 -0.25047065257E+03 -0.81215202986E+01 -0.32466224675E+03  0.42875643594E+03  0.12500000000E+03 0.  0.
</event>
<event>
 5    0  0.5815084E-005  0.2626025E+03  0.7546771E-02  0.1105590E+00
         21   -1    0    0  502  501  0.00000000000E+00  0.00000000000E+00  0.68517683304E+02  0.68517683304E+02  0.00000000000E+00 0. -1.
         21   -1    0    0  501  502 -0.00000000000E+00 -0.00000000000E+00 -0.10064565187E+04  0.10064565187E+04  0.00000000000E+00 0. -1.
         25    1    1    2    0    0  0.18413816956E+02 -0.11163647714E+03 -0.29082760478E+03  0.33616583316E+03  0.12500000000E+03 0.  0.
         25    1    1    2    0    0  0.21639361885E+02  0.44168258943E+02 -0.53998629371E+03  0.55644343332E+03  0.12500000000E+03 0.  0.
         25    1    1    2    0    0 -0.40053178842E+02  0.67468218196E+02 -0.10712493689E+03  0.18236493552E+03  0.12500000000E+03 0.  0.
</event>
<event>
 5    0  0.5815084E-005  0.2469130E+03  0.7546771E-02  0.1115271E+00
         21   -1    0    0  502  501  0.00000000000E+00  0.00000000000E+00  0.19034827795E+03  0.19034827795E+03  0.00000000000E+00 0.  1.
         21   -1    0    0  501  502 -0.00000000000E+00 -0.00000000000E+00 -0.32028664368E+03  0.32028664368E+03  0.00000000000E+00 0.  1.
         25    1    1    2    0    0 -0.21018638170E+02 -0.13631848056E+02 -0.15327714862E+03  0.19936522947E+03  0.12500000000E+03 0.  0.
         25    1    1    2    0    0  0.34173810507E+02  0.48015768511E+02  0.89980949641E+02  0.16490886771E+03  0.12500000000E+03 0.  0.
         25    1    1    2    0    0 -0.13155172337E+02 -0.34383920456E+02 -0.66642166752E+02  0.14636082445E+03  0.12500000000E+03 0.  0.
</event>
<event>
 5    0  0.6100884E-005  0.2888155E+03  0.7546771E-02  0.1090969E+00
         21   -1    0    0  502  501  0.00000000000E+00  0.00000000000E+00  0.76848085771E+02  0.76848085771E+02  0.00000000000E+00 0. -1.
         21   -1    0    0  501  502 -0.00000000000E+00 -0.00000000000E+00 -0.10854454167E+04  0.10854454167E+04  0.00000000000E+00 0. -1.
         25    1    1    2    0    0 -0.20711756904E+02  0.14095837987E+03 -0.65459546141E+03  0.68148254551E+03  0.12500000000E+03 0.  0.
         25    1    1    2    0    0  0.86286912623E+02 -0.78806639824E+02 -0.18394916424E+03  0.25123338312E+03  0.12500000000E+03 0.  0.
         25    1    1    2    0    0 -0.65575155719E+02 -0.62151740045E+02 -0.17005270527E+03  0.22957757383E+03  0.12500000000E+03 0.  0.
</event>
<event>
 5    0  0.5815084E-005  0.3760004E+03  0.7546771E-02  0.1052422E+00
         21   -1    0    0  502  501  0.00000000000E+00  0.00000000000E+00  0.92074133264E+03  0.92074133264E+03  0.00000000000E+00 0. -1.
         21   -1    0    0  501  502 -0.00000000000E+00 -0.00000000000E+00 -0.15354616993E+03  0.15354616993E+03  0.00000000000E+00 0. -1.
         25    1    1    2    0    0 -0.16635934241E+03  0.67962062781E+01  0.12935520134E+03  0.24511096944E+03  0.12500000000E+03 0.  0.
         25    1    1    2    0    0 -0.85661576579E+02 -0.37548685752E+02  0.30399246059E+02  0.15905006653E+03  0.12500000000E+03 0.  0.
         25    1    1    2    0    0  0.25202091899E+03  0.30752479473E+02  0.60744071531E+03  0.67012646659E+03  0.12500000000E+03 0.  0.
</event>
<event>
 5    0  0.5815084E-005  0.4094410E+03  0.7546771E-02  0.1040559E+00
         21   -1    0    0  502  501  0.00000000000E+00  0.00000000000E+00  0.57801564416E+02  0.57801564416E+02  0.00000000000E+00 0. -1.
         21   -1    0    0  501  502 -0.00000000000E+00 -0.00000000000E+00 -0.29003007259E+04  0.29003007259E+04  0.00000000000E+00 0. -1.
         25    1    1    2    0    0 -0.18276165562E+03  0.95206111112E+02 -0.31917567920E+03  0.39995517318E+03  0.12500000000E+03 0.  0.
         25    1    1    2    0    0  0.14702907486E+03  0.69672741949E+02 -0.14539289914E+04  0.14683345504E+04  0.12500000000E+03 0.  0.
         25    1    1    2    0    0  0.35732580760E+02 -0.16487885306E+03 -0.10693944909E+04  0.10898125668E+04  0.12500000000E+03 0.  0.
</event>
<event>
 5    0  0.5815084E-005  0.2246250E+03  0.7546771E-02  0.1130481E+00
         21   -1    0    0  502  501  0.00000000000E+00  0.00000000000E+00  0.62415978855E+03  0.62415978855E+03  0.00000000000E+00 0. -1.
         21   -1    0    0  501  502 -0.00000000000E+00 -0.00000000000E+00 -0.80838900565E+02  0.80838900565E+02  0.00000000000E+00 0. -1.
         25    1    1    2    0    0 -0.45170321753E+02  0.21609490669E+02  0.30257602293E+03  0.33118662066E+03  0.12500000000E+03 0.  0.
         25    1    1    2    0    0  0.72839594091E+02 -0.11826293845E+02  0.72746867308E+02  0.16236555791E+03  0.12500000000E+03 0.  0.
         25    1    1    2    0    0 -0.27669272338E+02 -0.97831968244E+01  0.16799799775E+03  0.21144651054E+03  0.12500000000E+03 0.  0.
</event>
<event>
 5    0  0.5815084E-005  0.2336122E+03  0.7546771E-02  0.1124123E+00
         21   -1    0    0  502  501  0.00000000000E+00  0.00000000000E+00  0.53772342003E+03  0.53772342003E+03  0.00000000000E+00 0. -1.
         21   -1    0    0  501  502 -0.00000000000E+00 -0.00000000000E+00 -0.10149204853E+03  0.10149204853E+03  0.00000000000E+00 0. -1.
         25    1    1    2    0    0  0.10414750942E+02 -0.38406096164E+02  0.25338965901E+02  0.13360598210E+03  0.12500000000E+03 0.  0.
         25    1    1    2    0    0 -0.61419127450E+02  0.28950155401E+01  0.12375245356E+03  0.18633400144E+03  0.12500000000E+03 0.  0.
         25    1    1    2    0    0  0.51004376508E+02  0.35511080624E+02  0.28713995204E+03  0.31927548501E+03  0.12500000000E+03 0.  0.
</event>
<event>
 5    0  0.5815084E-005  0.3184510E+03  0.7546771E-02  0.1076364E+00
         21   -1    0    0  502  501  0.00000000000E+00  0.00000000000E+00  0.27006945946E+03  0.27006945946E+03  0.00000000000E+00 0.  1.
         21   -1    0    0  501  502 -0.00000000000E+00 -0.00000000000E+00 -0.37549986042E+03  0.37549986042E+03  0.00000000000E+00 0.  1.
         25    1    1    2    0    0  0.38151413796E+02  0.13130603759E+03 -0.25336810837E+03  0.31387450393E+03  0.12500000000E+03 0.  0.
         25    1    1    2    0    0  0.17644491169E+01 -0.24412131132E+02  0.70362637995E+02  0.14551620615E+03  0.12500000000E+03 0.  0.
         25    1    1    2    0    0 -0.39915862913E+02 -0.10689390646E+03  0.77575069421E+02  0.18617860980E+03  0.12500000000E+03 0.  0.
</event>
<event>
 5    0  0.5815084E-005  0.4381225E+03  0.7546771E-02  0.1031324E+00
         21   -1    0    0  502  501  0.00000000000E+00  0.00000000000E+00  0.15311194985E+04  0.15311194985E+04  0.00000000000E+00 0.  1.
         21   -1    0    0  501  502 -0.00000000000E+00 -0.00000000000E+00 -0.12536663564E+03  0.12536663564E+03  0.00000000000E+00 0.  1.
         25    1    1    2    0    0 -0.35156691311E+02  0.23727416849E+03  0.52840532932E+03  0.59360948108E+03  0.12500000000E+03 0.  0.
         25    1    1    2    0    0 -0.16046204604E+03 -0.15903988126E+03  0.73616435429E+03  0.78013121241E+03  0.12500000000E+03 0.  0.
         25    1    1    2    0    0  0.19561873735E+03 -0.78234287232E+02  0.14118317922E+03  0.28274544062E+03  0.12500000000E+03 0.  0.
</event>
<event>
 5    0  0.6164594E-005  0.2726597E+03  0.7546771E-02  0.1099767E+00
         21   -1    0    0  502  501  0.00000000000E+00  0.00000000000E+00  0.95357601698E+02  0.95357601698E+02  0.00000000000E+00 0. -1.
         21   -1    0    0  501  502 -0.00000000000E+00 -0.00000000000E+00 -0.77962663517E+03  0.77962663517E+03  0.00000000000E+00 0. -1.
         25    1    1    2    0    0  0.11761539071E+03  0.25077584775E+02 -0.23050243480E+03  0.28847640777E+03  0.12500000000E+03 0.  0.
         25    1    1    2    0    0 -0.11961251161E+03 -0.53213426439E+02 -0.41479623068E+03  0.45257014337E+03  0.12500000000E+03 0.  0.
         25    1    1    2    0    0  0.19971209016E+01  0.28135841664E+02 -0.38970368001E+02  0.13393768574E+03  0.12500000000E+03 0.  0.
</event>
<event>
 5    0  0.5815084E-005  0.2601684E+03  0.7546771E-02  0.1107042E+00
         21   -1    0    0  502  501  0.00000000000E+00  0.00000000000E+00  0.15443422155E+04  0.15443422155E+04  0.00000000000E+00 0. -1.
         21   -1    0    0  501  502 -0.00000000000E+00 -0.00000000000E+00 -0.43829397184E+02  0.43829397184E+02  0.00000000000E+00 0. -1.
         25    1    1    2    0    0 -0.97006038493E+02 -0.20536918485E+02  0.55016747009E+03  0.57283608622E+03  0.12500000000E+03 0.  0.
         25    1    1    2    0    0 -0.36777921265E+02  0.91753629280E+02  0.47384606849E+03  0.49992643519E+03  0.12500000000E+03 0.  0.
         25    1    1    2    0    0  0.13378395976E+03 -0.71216710795E+02  0.47649927976E+03  0.51540909130E+03  0.12500000000E+03 0.  0.
</event>
<event>
 5    0  0.5815084E-005  0.3080570E+03  0.7546771E-02  0.1081281E+00
         21   -1    0    0  502  501  0.00000000000E+00  0.00000000000E+00  0.33114077187E+03  0.33114077187E+03  0.00000000000E+00 0. -1.
         21   -1    0    0  501  502 -0.00000000000E+00 -0.00000000000E+00 -0.28658243770E+03  0.28658243770E+03  0.00000000000E+00 0. -1.
         25    1    1    2    0    0 -0.68322083388E+02  0.12172634348E+03 -0.25956001948E+02  0.18916639187E+03  0.12500000000E+03 0.  0.
         25    1    1    2    0    0  0.12523456673E+03 -0.10492669009E+03 -0.83052453614E+02  0.22184683241E+03  0.12500000000E+03 0.  0.
         25    1    1    2    0    0 -0.56912483341E+02 -0.16799653385E+02  0.15356678973E+03  0.20670998530E+03  0.12500000000E+03 0.  0.
</event>
<event>
 5    0  0.5815084E-005  0.4357875E+03  0.7546771E-02  0.1032047E+00
         21   -1    0    0  502  501  0.00000000000E+00  0.00000000000E+00  0.15953759614E+03  0.15953759614E+03  0.00000000000E+00 0. -1.
         21   -1    0    0  501  502 -0.00000000000E+00 -0.00000000000E+00 -0.11903825191E+04  0.11903825191E+04  0.00000000000E+00 0. -1.
         25    1    1    2    0    0  0.59813045291E+02 -0.30952517880E+03 -0.49272198963E+03  0.59814997765E+03  0.12500000000E+03 0.  0.
         25    1    1    2    0    0 -0.71108672116E+02  0.32910741693E+03 -0.25208290483E+03  0.43879257746E+03  0.12500000000E+03 0.  0.
         25    1    1    2    0    0  0.11295626826E+02 -0.19582238126E+02 -0.28604002846E+03  0.31297756008E+03  0.12500000000E+03 0.  0.
</event>
<event>
 5    0  0.5815084E-005  0.4344315E+03  0.7546771E-02  0.1032469E+00
         21   -1    0    0  502  501  0.00000000000E+00  0.00000000000E+00  0.11718684401E+04  0.11718684401E+04  0.00000000000E+00 0.  1.
         21   -1    0    0  501  502 -0.00000000000E+00 -0.00000000000E+00 -0.16105111759E+03  0.16105111759E+03  0.00000000000E+00 0.  1.
         25    1    1    2    0    0  0.12658583973E+03  0.24558266786E+03  0.34722359083E+03  0.46100330107E+03  0.12500000000E+03 0.  0.
         25    1    1    2    0    0  0.13693341178E+03 -0.16630707202E+03  0.20450638692E+03  0.32226799989E+03  0.12500000000E+03 0.  0.
         25    1    1    2    0    0 -0.26351925150E+03 -0.79275595843E+02  0.45908734476E+03  0.54964825673E+03  0.12500000000E+03 0.  0.
</event>
<event>
 5    0  0.5815084E-005  0.2894582E+03  0.7546771E-02  0.1090632E+00
         21   -1    0    0  502  501  0.00000000000E+00  0.00000000000E+00  0.32177600784E+03  0.32177600784E+03  0.00000000000E+00 0.  1.
         21   -1    0    0  501  502 -0.00000000000E+00 -0.00000000000E+00 -0.26038630868E+03  0.26038630868E+03  0.00000000000E+00 0.  1.
         25    1    1    2    0    0 -0.82264655612E+02 -0.63031564905E+02 -0.66943734256E+02  0.17563289923E+03  0.12500000000E+03 0.  0.
         25    1    1    2    0    0  0.17956646893E+03  0.60964653666E+02  0.69204630656E+02  0.23743438391E+03  0.12500000000E+03 0.  0.
         25    1    1    2    0    0 -0.97301813314E+02  0.20669112387E+01  0.59128802758E+02  0.16909503337E+03  0.12500000000E+03 0.  0.
</event>
<event>
 5    0  0.5815084E-005  0.3418811E+03  0.7546771E-02  0.1065998E+00
         21   -1    0    0  502  501  0.00000000000E+00  0.00000000000E+00  0.20996518916E+03  0.20996518916E+03  0.00000000000E+00 0.  1.
         21   -1    0    0  501  502 -0.00000000000E+00 -0.00000000000E+00 -0.55667655884E+03  0.55667655884E+03  0.00000000000E+00 0. -1.
         25    1    1    2    0    0 -0.20650919966E+03 -0.60102791027E+02 -0.15378264142E+03  0.29245939177E+03  0.12500000000E+03 0.  0.
         25    1    1    2    0    0  0.12853478962E+02 -0.47645007124E+02  0.27931523629E+02  0.13726044091E+03  0.12500000000E+03 0.  0.
         25    1    1    2    0    0  0.19365572070E+03  0.10774779815E+03 -0.22086025189E+03  0.33692191533E+03  0.12500000000E+03 0.  0.
</event>
<event>
 5    0  0.5815084E-005  0.4121272E+03  0.7546771E-02  0.1039660E+00
         21   -1    0    0  502  501  0.00000000000E+00  0.00000000000E+00  0.44937147924E+03  0.44937147924E+03  0.00000000000E+00 0.  1.
         21   -1    0    0  501  502 -0.00000000000E+00 -0.00000000000E+00 -0.37796973054E+03  0.37796973054E+03  0.00000000000E+00 0.  1.
         25    1    1    2    0    0 -0.58877133035E+02 -0.16545131815E+03 -0.24204868381E+03  0.32411914600E+03  0.12500000000E+03 0.  0.
         25    1    1    2    0    0  0.24023684584E+02  0.80926992504E+02 -0.30468920265E+01  0.15086616283E+03  0.12500000000E+03 0.  0.
         25    1    1    2    0    0  0.34853448452E+02  0.84524325649E+02  0.31649732453E+03  0.35235590095E+03  0.12500000000E+03 0.  0.
</event>
<event>
 5    0  0.6303307E-005  0.3425370E+03  0.7546771E-02  0.1065721E+00
         21   -1    0    0  502  501  0.00000000000E+00  0.00000000000E+00  0.41444726128E+03  0.41444726128E+03  0.00000000000E+00 0. -1.
         21   -1    0    0  501  502 -0.00000000000E+00 -0.00000000000E+00 -0.28310374416E+03  0.28310374416E+03  0.00000000000E+00 0. -1.
         25    1    1    2    0    0  0.16653973479E+02 -0.12745437183E+03  0.21210610006E+03  0.27773363033E+03  0.12500000000E+03 0.  0.
         25    1    1    2    0    0 -0.11676026854E+03  0.10656194295E+03  0.54928635071E+02  0.20887930234E+03  0.12500000000E+03 0.  0.
         25    1    1    2    0    0  0.10010629506E+03  0.20892428882E+02 -0.13569121802E+03  0.21093807277E+03  0.12500000000E+03 0.  0.
</event>
<event>
 5    0  0.5815084E-005  0.3603399E+03  0.7546771E-02  0.1058449E+00
         21   -1    0    0  502  501  0.00000000000E+00  0.00000000000E+00  0.11562485700E+03  0.11562485700E+03  0.00000000000E+00 0.  1.
         21   -1    0    0  501  502 -0.00000000000E+00 -0.00000000000E+00 -0.11229839730E+04  0.11229839730E+04  0.00000000000E+00 0.  1.
         25    1    1    2    0    0 -0.15899885162E+03  0.19260385079E+03 -0.44384658718E+03  0.52440601742E+03  0.12500000000E+03 0.  0.
         25    1    1    2    0    0  0.15183317941E+03 -0.18009297184E+03 -0.21144265532E+03  0.34032306617E+03  0.12500000000E+03 0.  0.
         25    1    1    2    0    0  0.71656722044E+01 -0.12510878949E+02 -0.35206987353E+03  0.37387974644E+03  0.12500000000E+03 0.  0.
</event>
<event>
 5    0  0.5815084E-005  0.3329463E+03  0.7546771E-02  0.1069841E+00
         21   -1    0    0  502  501  0.00000000000E+00  0.00000000000E+00  0.17149801335E+03  0.17149801335E+03  0.00000000000E+00 0.  1.
         21   -1    0    0  501  502 -0.00000000000E+00 -0.00000000000E+00 -0.64638189376E+03  0.64638189376E+03  0.00000000000E+00 0.  1.
         25    1    1    2    0    0  0.16381123962E+03 -0.29343275359E+02 -0.92367202232E+02  0.22771001313E+03  0.12500000000E+03 0.  0.
         25    1    1    2    0    0  0.80025138999E+02 -0.22814754137E+02 -0.22300653844E+03  0.26885210073E+03  0.12500000000E+03 0.  0.
         25    1    1    2    0    0 -0.24383637861E+03  0.52158029497E+02 -0.15951013974E+03  0.32131779324E+03  0.12500000000E+03 0.  0.
</event>
<event>
 5    0  0.5815084E-005  0.3020135E+03  0.7546771E-02  0.1084238E+00
         21   -1    0    0  502  501  0.00000000000E+00  0.00000000000E+00  0.15837253228E+03  0.15837253228E+03  0.00000000000E+00 0.  1.
         21   -1    0    0  501  502 -0.00000000000E+00 -0.00000000000E+00 -0.57593430939E+03  0.57593430939E+03  0.00000000000E+00 0.  1.
         25    1    1    2    0    0 -0.10494553217E+03 -0.44183390001E+02 -0.33346478591E+03  0.37388434056E+03  0.12500000000E+03 0.  0.
         25    1    1    2    0    0  0.29360171097E+02  0.72894492601E+02  0.54144069060E+02  0.15726476691E+03  0.12500000000E+03 0.  0.
         25    1    1    2    0    0  0.75585361076E+02 -0.28711102600E+02 -0.13824106026E+03  0.20315773419E+03  0.12500000000E+03 0.  0.
</event>
<event>
 5    0  0.5815084E-005  0.3214399E+03  0.7546771E-02  0.1074989E+00
         21   -1    0    0  502  501  0.00000000000E+00  0.00000000000E+00  0.13171546654E+04  0.13171546654E+04  0.00000000000E+00 0. -1.
         21   -1    0    0  501  502 -0.00000000000E+00 -0.00000000000E+00 -0.78444551599E+02  0.78444551599E+02  0.00000000000E+00 0. -1.
         25    1    1    2    0    0 -0.38220631729E+02  0.17298683513E+03  0.52952029669E+03  0.57219053332E+03  0.12500000000E+03 0.  0.
         25    1    1    2    0    0 -0.28923737253E+01 -0.23855593659E+03  0.49655116553E+03  0.56489411459E+03  0.12500000000E+03 0.  0.
         25    1    1    2    0    0  0.41113005454E+02  0.65569101462E+02  0.21263865157E+03  0.25851456908E+03  0.12500000000E+03 0.  0.
</event>
<event>
 5    0  0.5815084E-005  0.3508405E+03  0.7546771E-02  0.1062271E+00
         21   -1    0    0  502  501  0.00000000000E+00  0.00000000000E+00  0.63257844664E+02  0.63257844664E+02  0.00000000000E+00 0. -1.
         21   -1    0    0  501  502 -0.00000000000E+00 -0.00000000000E+00 -0.19458310175E+04  0.19458310175E+04  0.00000000000E+00 0. -1.
         25    1    1    2    0    0  0.59136357349E+02 -0.40822779479E+02 -0.12787669297E+03  0.19272015123E+03  0.12500000000E+03 0.  0.
         25    1    1    2    0    0 -0.18982421076E+03  0.11704193641E+03 -0.12272745061E+04  0.12536186658E+04  0.12500000000E+03 0.  0.
         25    1    1    2    0    0  0.13068785341E+03 -0.76219156933E+02 -0.52742197376E+03  0.56275004515E+03  0.12500000000E+03 0.  0.
</event>
<event>
 5    0  0.5815084E-005  0.2860230E+03  0.7546771E-02  0.1092444E+00
         21   -1    0    0  502  501  0.00000000000E+00  0.00000000000E+00  0.57312611517E+02  0.57312611517E+02  0.00000000000E+00 0. -1.
         21   -1    0    0  501  502 -0.00000000000E+00 -0.00000000000E+00 -0.14274202295E+04  0.14274202295E+04  0.00000000000E+00 0. -1.
         25    1    1    2    0    0 -0.12382314836E+03  0.10134072753E+02 -0.41702210925E+03  0.45273315662E+03  0.12500000000E+03 0.  0.
         25    1    1    2    0    0  0.18117713072E+03  0.71838763038E+02 -0.48838784999E+03  0.54049389690E+03  0.12500000000E+03 0.  0.
         25    1    1    2    0    0 -0.57353982356E+02 -0.81972835790E+02 -0.46469765873E+03  0.49150578748E+03  0.12500000000E+03 0.  0.
</event>
<event>
 5    0  0.5910085E-005  0.3273359E+03  0.7546771E-02  0.1072322E+00
         21   -1    0    0  502  501  0.00000000000E+00  0.00000000000E+00  0.64047361588E+03  0.64047361588E+03  0.00000000000E+00 0. -1.
         21   -1    0    0  501  502 -0.00000000000E+00 -0.00000000000E+00 -0.16729613571E+03  0.16729613571E+03  0.00000000000E+00 0. -1.
         25    1    1    2    0    0  0.12197584550E+02 -0.10041298575E+03 -0.32996084750E+02  0.16415020678E+03  0.12500000000E+03 0.  0.
         25    1    1    2    0    0 -0.50974061732E+02  0.11815557837E+03  0.78149418106E+02  0.19568195425E+03  0.12500000000E+03 0.  0.
         25    1    1    2    0    0  0.38776477182E+02 -0.17742592617E+02  0.42802414682E+03  0.44793759056E+03  0.12500000000E+03 0.  0.
</event>
<event>
 5    0  0.5815084E-005  0.3774113E+03  0.7546771E-02  0.1051895E+00
         21   -1    0    0  502  501  0.00000000000E+00  0.00000000000E+00  0.43556048252E+03  0.43556048252E+03  0.00000000000E+00 0.  1.
         21   -1    0    0  501  502 -0.00000000000E+00 -0.00000000000E+00 -0.32702524603E+03  0.32702524603E+03  0.00000000000E+00 0.  1.
         25    1    1    2    0    0 -0.29805558181E+03  0.11088715091E+03  0.46666194952E+02  0.34487073497E+03  0.12500000000E+03 0.  0.
         25    1    1    2    0    0  0.17428715153E+03 -0.50690905907E+02  0.71074624736E+02  0.23156463766E+03  0.12500000000E+03 0.  0.
         25    1    1    2    0    0  0.12376843028E+03 -0.60196245006E+02 -0.92055831983E+01  0.18615035592E+03  0.12500000000E+03 0.  0.
</event>
<event>
 5    0  0.5815084E-005  0.2469744E+03  0.7546771E-02  0.1115232E+00
         21   -1    0    0  502  501  0.00000000000E+00  0.00000000000E+00  0.16262871438E+03  0.16262871438E+03  0.00000000000E+00 0. -1.
         21   -1    0    0  501  502 -0.00000000000E+00 -0.00000000000E+00 -0.37506518994E+03  0.37506518994E+03  0.00000000000E+00 0. -1.
         25    1    1    2    0    0  0.34572346553E+02  0.13373585954E+03 -0.75679016568E+02  0.20107919042E+03  0.12500000000E+03 0.  0.
         25    1    1    2    0    0 -0.60247783348E+02 -0.94723145334E+02 -0.42681212688E+02  0.17334634573E+03  0.12500000000E+03 0.  0.
         25    1    1    2    0    0  0.25675436795E+02 -0.39012714206E+02 -0.94076246304E+02  0.16326836816E+03  0.12500000000E+03 0.  0.
</event>
<event>
 5    0  0.5815084E-005  0.6520325E+03  0.7546771E-02  0.9802973E-01
         21   -1    0    0  502  501  0.00000000000E+00  0.00000000000E+00  0.40691145215E+03  0.40691145215E+03  0.00000000000E+00 0.  1.
         21   -1    0    0  501  502 -0.00000000000E+00 -0.00000000000E+00 -0.10448131104E+04  0.10448131104E+04  0.00000000000E+00 0.  1.
         25    1    1    2    0    0 -0.15008198582E+03 -0.44534510926E+02 -0.86735192183E+03  0.89018665539E+03  0.12500000000E+03 0.  0.
         25    1    1    2    0    0  0.10369245517E+03  0.91788571770E+02  0.33608616084E+03  0.38439065373E+03  0.12500000000E+03 0.  0.
         25    1    1    2    0    0  0.46389530647E+02 -0.47254060844E+02 -0.10663589730E+03  0.17714725347E+03  0.12500000000E+03 0.  0.
</event>
<event>
 5    0  0.5815084E-005  0.2292751E+03  0.7546771E-02  0.1127151E+00
         21   -1    0    0  502  501  0.00000000000E+00  0.00000000000E+00  0.21142363714E+03  0.21142363714E+03  0.00000000000E+00 0. -1.
         21   -1    0    0  501  502 -0.00000000000E+00 -0.00000000000E+00 -0.24863394401E+03  0.24863394401E+03  0.00000000000E+00 0. -1.
         25    1    1    2    0    0  0.47489520514E+02  0.43872086233E+02  0.24732893090E+02  0.14288712507E+03  0.12500000000E+03 0.  0.
         25    1    1    2    0    0 -0.66657151189E+02  0.44624971658E+02  0.57325114985E+01  0.14863520979E+03  0.12500000000E+03 0.  0.
         25    1    1    2    0    0  0.19167630674E+02 -0.88497057891E+02 -0.67675711457E+02  0.16853524629E+03  0.12500000000E+03 0.  0.
</event>
<event>
 5    0  0.5815084E-005  0.2750909E+03  0.7546771E-02  0.1098401E+00
         21   -1    0    0  502  501  0.00000000000E+00  0.00000000000E+00  0.84486237323E+03  0.84486237323E+03  0.00000000000E+00 0.  1.
         21   -1    0    0  501  502 -0.00000000000E+00 -0.00000000000E+00 -0.89570784047E+02  0.89570784047E+02  0.00000000000E+00 0.  1.
         25    1    1    2    0    0  0.25467333830E+02 -0.67701433533E+02  0.98485124202E+02  0.17480385832E+03  0.12500000000E+03 0.  0.
         25    1    1    2    0    0  0.10274187967E+03  0.77049945140E+02  0.19815965275E+03  0.26717940763E+03  0.12500000000E+03 0.  0.
         25    1    1    2    0    0 -0.12820921350E+03 -0.93485116072E+01  0.45864681223E+03  0.49244989133E+03  0.12500000000E+03 0.  0.
</event>
<event>
 5    0  0.5815084E-005  0.2809704E+03  0.7546771E-02  0.1095160E+00
         21   -1    0    0  502  501  0.00000000000E+00  0.00000000000E+00  0.17558868342E+03  0.17558868342E+03  0.00000000000E+00 0. -1.
         21   -1    0    0  501  502 -0.00000000000E+00 -0.00000000000E+00 -0.44959815815E+03  0.44959815815E+03  0.00000000000E+00 0. -1.
         25    1    1    2    0    0 -0.21682220566E+02  0.46053538127E+02 -0.27817839101E+03  0.30919130694E+03  0.12500000000E+03 0.  0.
         25    1    1    2    0    0  0.22712340116E+02  0.73353496591E+01  0.89431156015E+02  0.15553967151E+03  0.12500000000E+03 0.  0.
         25    1    1    2    0    0 -0.10301195495E+01 -0.53388887786E+02 -0.85262239728E+02  0.16045586312E+03  0.12500000000E+03 0.  0.
</event>
<event>
 5    0  0.7451169E-005  0.2951839E+03  0.7546771E-02  0.1087673E+00
         21   -1    0    0  502  501  0.00000000000E+00  0.00000000000E+00  0.19822204590E+03  0.19822204590E+03  0.00000000000E+00 0.  1.
         21   -1    0    0  501  502 -0.00000000000E+00 -0.00000000000E+00 -0.43957535780E+03  0.43957535780E+03  0.00000000000E+00 0.  1.
         25    1    1    2    0    0  0.11147365783E+03 -0.19258942714E+02  0.28040373471E+02  0.17090507836E+03  0.12500000000E+03 0.  0.
         25    1    1    2    0    0 -0.18513486229E+03  0.12987646605E+02 -0.10387530105E+03  0.24669550942E+03  0.12500000000E+03 0.  0.
         25    1    1    2    0    0  0.73661204454E+02  0.62712961093E+01 -0.16551838431E+03  0.22019681592E+03  0.12500000000E+03 0.  0.
</event>
<event>
 5    0  0.5815084E-005  0.3890489E+03  0.7546771E-02  0.1047639E+00
         21   -1    0    0  502  501  0.00000000000E+00  0.00000000000E+00  0.36264574613E+03  0.36264574613E+03  0.00000000000E+00 0. -1.
         21   -1    0    0  501  502 -0.00000000000E+00 -0.00000000000E+00 -0.41737438955E+03  0.41737438955E+03  0.00000000000E+00 0. -1.
         25    1    1    2    0    0 -0.86245028075E+02  0.19128528863E+03 -0.89233176388E+02  0.26003043338E+03  0.12500000000E+03 0.  0.
         25    1    1    2    0    0  0.61333919390E+02 -0.31059881796E+03  0.52776983982E+02  0.34444721718E+03  0.12500000000E+03 0.  0.
         25    1    1    2    0    0  0.24911108686E+02  0.11931352933E+03 -0.18272451016E+02  0.17554248512E+03  0.12500000000E+03 0.  0.
</event>
<event>
 5    0  0.5815084E-005  0.2762488E+03  0.7546771E-02  0.1097756E+00
         21   -1    0    0  502  501  0.00000000000E+00  0.00000000000E+00  0.52706233406E+02  0.52706233406E+02  0.00000000000E+00 0.  1.
         21   -1    0    0  501  502 -0.00000000000E+00 -0.00000000000E+00 -0.14479012047E+04  0.14479012047E+04  0.00000000000E+00 0.  1.
         25    1    1    2    0    0 -0.36287828304E+02  0.21970735372E+02 -0.14620629226E+03  0.19697918568E+03  0.12500000000E+03 0.  0.
         25    1    1    2    0    0  0.28557287208E+02  0.11843737520E+03 -0.44714903459E+03  0.48001061408E+03  0.12500000000E+03 0.  0.
         25    1    1    2    0    0  0.77305410956E+01 -0.14040811058E+03 -0.80183964447E+03  0.82361763836E+03  0.12500000000E+03 0.  0.
</event>
<event>
 5    0  0.5815084E-005  0.2631880E+03  0.7546771E-02  0.1105243E+00
         21   -1    0    0  502  501  0.00000000000E+00  0.00000000000E+00  0.22298421292E+03  0.22298421292E+03  0.00000000000E+00 0.  1.
         21   -1    0    0  501  502 -0.00000000000E+00 -0.00000000000E+00 -0.31064043249E+03  0.31064043249E+03  0.00000000000E+00 0.  1.
         25    1    1    2    0    0  0.10513645614E+03  0.55712556820E+02 -0.10573111561E+03  0.20238980262E+03  0.12500000000E+03 0.  0.
         25    1    1    2    0    0 -0.43329175404E+02  0.27134856277E+02  0.80745560163E+02  0.15734854099E+03  0.12500000000E+03 0.  0.
         25    1    1    2    0    0 -0.61807280736E+02 -0.82847413097E+02 -0.62670664126E+02  0.17388630179E+03  0.12500000000E+03 0.  0.
</event>
<event>
 5    0  0.5815084E-005  0.2267403E+03  0.7546771E-02  0.1128955E+00
         21   -1    0    0  502  501  0.00000000000E+00  0.00000000000E+00  0.34326337203E+03  0.34326337203E+03  0.00000000000E+00 0. -1.
         21   -1    0    0  501  502 -0.00000000000E+00 -0.00000000000E+00 -0.14977179866E+03  0.14977179866E+03  0.00000000000E+00 0. -1.
         25    1    1    2    0    0 -0.95206474422E+02  0.31760430605E+02  0.10338830104E+03  0.19075413106E+03  0.12500000000E+03 0.  0.
         25    1    1    2    0    0  0.87178940433E+02  0.17655454966E+02  0.39374649580E+02  0.15838953808E+03  0.12500000000E+03 0.  0.
         25    1    1    2    0    0  0.80275339895E+01 -0.49415885571E+02  0.50728622754E+02  0.14389150154E+03  0.12500000000E+03 0.  0.
</event>
<event>
 5    0  0.5815084E-005  0.3125726E+03  0.7546771E-02  0.1079119E+00
         21   -1    0    0  502  501  0.00000000000E+00  0.00000000000E+00  0.36182688280E+03  0.36182688280E+03  0.00000000000E+00 0.  1.
         21   -1    0    0  501  502 -0.00000000000E+00 -0.00000000000E+00 -0.27002314822E+03  0.27002314822E+03  0.00000000000E+00 0.  1.
         25    1    1    2    0    0 -0.58508281078E+01  0.29929166148E+02  0.13744444984E+03  0.18827098547E+03  0.12500000000E+03 0.  0.
         25    1    1    2    0    0  0.52365589571E+02  0.59397491624E+02 -0.18087038933E+03  0.23368635972E+03  0.12500000000E+03 0.  0.
         25    1    1    2    0    0 -0.46514761463E+02 -0.89326657771E+02  0.13522967407E+03  0.20989268585E+03  0.12500000000E+03 0.  0.
</event>
<event>
 5    0  0.5815084E-005  0.2746280E+03  0.7546771E-02  0.1098660E+00
         21   -1    0    0  502  501  0.00000000000E+00  0.00000000000E+00  0.16901702211E+03  0.16901702211E+03  0.00000000000E+00 0. -1.
         21   -1    0    0  501  502 -0.00000000000E+00 -0.00000000000E+00 -0.44623032502E+03  0.44623032502E+03  0.00000000000E+00 0. -1.
         25    1    1    2    0    0  0.75570380812E+02 -0.11083270256E+03 -0.69074174272E+02  0.19593624464E+03  0.12500000000E+03 0.  0.
         25    1    1    2    0    0 -0.15326971977E+03  0.80818055702E+02 -0.12794644629E+03  0.24903505425E+03  0.12500000000E+03 0.  0.
         25    1    1    2    0    0  0.77699338961E+02  0.30014646857E+02 -0.80192682350E+02  0.17027604824E+03  0.12500000000E+03 0.  0.
</event>
<event>
 5    0  0.5815084E-005  0.2171234E+03  0.7546771E-02  0.1136046E+00
         21   -1    0    0  502  501  0.00000000000E+00  0.00000000000E+00  0.51553447321E+03  0.51553447321E+03  0.00000000000E+00 0.  1.
         21   -1    0    0  501  502 -0.00000000000E+00 -0.00000000000E+00 -0.91444076211E+02  0.91444076211E+02  0.00000000000E+00 0.  1.
         25    1    1    2    0    0 -0.40189008450E+02 -0.82879086585E+02  0.16043535762E+03  0.22326800794E+03  0.12500000000E+03 0.  0.
         25    1    1    2    0    0  0.38387261866E+02  0.58388637517E+02  0.93004944167E+02  0.17075636007E+03  0.12500000000E+03 0.  0.
         25    1    1    2    0    0  0.18017465841E+01  0.24490449068E+02  0.17065009521E+03  0.21295418142E+03  0.12500000000E+03 0.  0.
</event>
<event>
 5    0  0.5815084E-005  0.2622718E+03  0.7546771E-02  0.1105786E+00
         21   -1    0    0  502  501  0.00000000000E+00  0.00000000000E+00  0.20677247931E+03  0.20677247931E+03  0.00000000000E+00 0. -1.
         21   -1    0    0  501  502 -0.00000000000E+00 -0.00000000000E+00 -0.33266761825E+03  0.33266761825E+03  0.00000000000E+00 0. -1.
         25    1    1    2    0    0  0.71908609313E+02  0.95464056115E+02  0.21979625152E+02  0.17433398414E+03  0.12500000000E+03 0.  0.
         25    1    1    2    0    0 -0.27941673667E+02 -0.13123056660E+03 -0.13407771288E+03  0.22716520823E+03  0.12500000000E+03 0.  0.
         25    1    1    2    0    0 -0.43966935646E+02  0.35766510487E+02 -0.13797051215E+02  0.13794090519E+03  0.12500000000E+03 0.  0.
</event>
<event>
 5    0  0.5815084E-005  0.2348681E+03  0.7546771E-02  0.1123260E+00
         21   -1    0    0  502  501  0.00000000000E+00  0.00000000000E+00  0.94524454364E+03  0.94524454364E+03  0.00000000000E+00 0.  1.
         21   -1    0    0  501  502 -0.00000000000E+00 -0.00000000000E+00 -0.58358464616E+02  0.58358464616E+02  0.00000000000E+00 0.  1.
         25    1    1    2    0    0 -0.54978741868E+02  0.70674386886E+02  0.17329615131E+03  0.23167668652E+03  0.12500000000E+03 0.  0.
         25    1    1    2    0    0  0.65653896990E+02 -0.25924537871E+02  0.23711521882E+03  0.27718431206E+03  0.12500000000E+03 0.  0.
         25    1    1    2    0    0 -0.10675155122E+02 -0.44749849015E+02  0.47647470889E+03  0.49474200967E+03  0.12500000000E+03 0.  0.
</event>
<event>
 5    0  0.5815084E-005  0.3144783E+03  0.7546771E-02  0.1078219E+00
         21   -1    0    0  502  501  0.00000000000E+00  0.00000000000E+00  0.46488322372E+03  0.46488322372E+03  0.00000000000E+00 0.  1.
         21   -1    0    0  501  502 -0.00000000000E+00 -0.00000000000E+00 -0.21273424616E+03  0.21273424616E+03  0.00000000000E+00 0.  1.
         25    1    1    2    0    0 -0.23374261862E+02 -0.55934636685E+02 -0.13044008419E+03  0.19056404504E+03  0.12500000000E+03 0.  0.
         25    1    1    2    0    0  0.93336714876E+01 -0.15182127427E+02  0.28769129364E+03  0.31417971744E+03  0.12500000000E+03 0.  0.
         25    1    1    2    0    0  0.14040590374E+02  0.71116764112E+02  0.94897768114E+02  0.17287370740E+03  0.12500000000E+03 0.  0.
</event>
<event>
 5    0  0.5815084E-005  0.3140105E+03  0.7546771E-02  0.1078439E+00
         21   -1    0    0  502  501  0.00000000000E+00  0.00000000000E+00  0.10444938059E+03  0.10444938059E+03  0.00000000000E+00 0.  1.
         21   -1    0    0  501  502 -0.00000000000E+00 -0.00000000000E+00 -0.94402289423E+03  0.94402289423E+03  0.00000000000E+00 0.  1.
         25    1    1    2    0    0  0.29248540319E+02 -0.11976784508E+03 -0.38872864725E+03  0.42653812844E+03  0.12500000000E+03 0.  0.
         25    1    1    2    0    0  0.11910111185E+03 -0.39732880564E+01 -0.30199446543E+03  0.34788865893E+03  0.12500000000E+03 0.  0.
         25    1    1    2    0    0 -0.14834965216E+03  0.12374113313E+03 -0.14885040097E+03  0.27404548746E+03  0.12500000000E+03 0.  0.
</event>
<event>
 5    0  0.5815084E-005  0.3281120E+03  0.7546771E-02  0.1071975E+00
         21   -1    0    0  502  501  0.00000000000E+00  0.00000000000E+00  0.63607504951E+02  0.63607504951E+02  0.00000000000E+00 0. -1.
         21   -1    0    0  501  502 -0.00000000000E+00 -0.00000000000E+00 -0.16925283878E+04  0.16925283878E+04  0.00000000000E+00 0. -1.
         25    1    1    2    0    0 -0.43930850057E+02 -0.12049542419E+03 -0.73812146215E+03  0.75953759599E+03  0.12500000000E+03 0.  0.
         25    1    1    2    0    0  0.19450132333E+03  0.58655432920E+02 -0.41994257214E+03  0.48295754315E+03  0.12500000000E+03 0.  0.
         25    1    1    2    0    0 -0.15057047327E+03  0.61839991274E+02 -0.47085684861E+03  0.51364075366E+03  0.12500000000E+03 0.  0.
</event>
<event>
 5    0  0.5815084E-005  0.3096341E+03  0.7546771E-02  0.1080521E+00
         21   -1    0    0  502  501  0.00000000000E+00  0.00000000000E+00  0.91030786729E+03  0.91030786729E+03  0.00000000000E+00 0. -1.
         21   -1    0    0  501  502 -0.00000000000E+00 -0.00000000000E+00 -0.10531959971E+03  0.10531959971E+03  0.00000000000E+00 0. -1.
         25    1    1    2    0    0  0.88913622208E+02  0.16226285323E+03  0.15776374022E+03  0.27340311535E+03  0.12500000000E+03 0.  0.
         25    1    1    2    0    0  0.38791867668E+02 -0.80172802035E+02  0.18821725707E+03  0.24286461875E+03  0.12500000000E+03 0.  0.
         25    1    1    2    0    0 -0.12770548988E+03 -0.82090051199E+02  0.45900727030E+03  0.49935973289E+03  0.12500000000E+03 0.  0.
</event>
<event>
 5    0  0.5815084E-005  0.3972415E+03  0.7546771E-02  0.1044739E+00
         21   -1    0    0  502  501  0.00000000000E+00  0.00000000000E+00  0.22310057268E+03  0.22310057268E+03  0.00000000000E+00 0. -1.
         21   -1    0    0  501  502 -0.00000000000E+00 -0.00000000000E+00 -0.70730790424E+03  0.70730790424E+03  0.00000000000E+00 0. -1.
         25    1    1    2    0    0 -0.11768630880E+03 -0.24948774099E+03 -0.21085837825E+02  0.30358493497E+03  0.12500000000E+03 0.  0.
         25    1    1    2    0    0  0.39817404708E+02  0.13780162764E+03 -0.90091991389E+02  0.21051432543E+03  0.12500000000E+03 0.  0.
         25    1    1    2    0    0  0.77868904093E+02  0.11168611335E+03 -0.37302950235E+03  0.41630921653E+03  0.12500000000E+03 0.  0.
</event>
<event>
 5    0  0.5815084E-005  0.3180706E+03  0.7546771E-02  0.1076541E+00
         21   -1    0    0  502  501  0.00000000000E+00  0.00000000000E+00  0.34111732170E+03  0.34111732170E+03  0.00000000000E+00 0.  1.
         21   -1    0    0  501  502 -0.00000000000E+00 -0.00000000000E+00 -0.29658098529E+03  0.29658098529E+03  0.00000000000E+00 0.  1.
         25    1    1    2    0    0  0.61850841164E+02 -0.69110986713E+02  0.40981259728E+02  0.16095439940E+03  0.12500000000E+03 0.  0.
         25    1    1    2    0    0  0.11790666002E+02  0.22686817543E+03 -0.25124884482E+02  0.26050805870E+03  0.12500000000E+03 0.  0.
         25    1    1    2    0    0 -0.73641507166E+02 -0.15775718872E+03  0.28679961168E+02  0.21623584888E+03  0.12500000000E+03 0.  0.
</event>
<event>
 5    0  0.5815084E-005  0.3327492E+03  0.7546771E-02  0.1069927E+00
         21   -1    0    0  502  501  0.00000000000E+00  0.00000000000E+00  0.43504126422E+03  0.43504126422E+03  0.00000000000E+00 0.  1.
         21   -1    0    0  501  502 -0.00000000000E+00 -0.00000000000E+00 -0.25450931761E+03  0.25450931761E+03  0.00000000000E+00 0.  1.
         25    1    1    2    0    0 -0.11381570804E+02  0.58074115520E+02 -0.14589195563E+02  0.13906828422E+03  0.12500000000E+03 0.  0.
         25    1    1    2    0    0 -0.12885679565E+03  0.45059108073E+02  0.26661234169E+03  0.32456361125E+03  0.12500000000E+03 0.  0.
         25    1    1    2    0    0  0.14023836646E+03 -0.10313322359E+03 -0.71491199525E+02  0.22591868636E+03  0.12500000000E+03 0.  0.
</event>
<event>
 5    0  0.5815084E-005  0.3223012E+03  0.7546771E-02  0.1074595E+00
         21   -1    0    0  502  501  0.00000000000E+00  0.00000000000E+00  0.11891470705E+03  0.11891470705E+03  0.00000000000E+00 0. -1.
         21   -1    0    0  501  502 -0.00000000000E+00 -0.00000000000E+00 -0.87355091471E+03  0.87355091471E+03  0.00000000000E+00 0. -1.
         25    1    1    2    0    0  0.40115851544E+02 -0.18750850996E+02 -0.35256596195E+03  0.37668107662E+03  0.12500000000E+03 0.  0.
         25    1    1    2    0    0 -0.85117627501E+02 -0.16322171615E+03 -0.28591495330E+03  0.36229642512E+03  0.12500000000E+03 0.  0.
         25    1    1    2    0    0  0.45001775957E+02  0.18197256715E+03 -0.11615529241E+03  0.25348812001E+03  0.12500000000E+03 0.  0.
</event>
<event>
 5    0  0.5815084E-005  0.2549469E+03  0.7546771E-02  0.1110218E+00
         21   -1    0    0  502  501  0.00000000000E+00  0.00000000000E+00  0.42255666019E+03  0.42255666019E+03  0.00000000000E+00 0.  1.
         21   -1    0    0  501  502 -0.00000000000E+00 -0.00000000000E+00 -0.15382054739E+03  0.15382054739E+03  0.00000000000E+00 0.  1.
         25    1    1    2    0    0  0.77904888985E+02 -0.59406892425E+00  0.42333008646E+02  0.15325341192E+03  0.12500000000E+03 0.  0.
         25    1    1    2    0    0 -0.57984927591E+02 -0.55307068760E+02 -0.10414492245E+02  0.14884416459E+03  0.12500000000E+03 0.  0.
         25    1    1    2    0    0 -0.19919961394E+02  0.55901137685E+02  0.23681759640E+03  0.27427963107E+03  0.12500000000E+03 0.  0.
</event>
<event>
 5    0  0.5815084E-005  0.2720974E+03  0.7546771E-02  0.1100085E+00
         21   -1    0    0  502  501  0.00000000000E+00  0.00000000000E+00  0.52272919356E+03  0.52272919356E+03  0.00000000000E+00 0. -1.
         21   -1    0    0  501  502 -0.00000000000E+00 -0.00000000000E+00 -0.14163545035E+03  0.14163545035E+03  0.00000000000E+00 0. -1.
         25    1    1    2    0    0 -0.79704130500E+02 -0.69187938451E+01  0.97090216797E+02  0.17734747905E+03  0.12500000000E+03 0.  0.
         25    1    1    2    0    0  0.10900180945E+03  0.61478269227E+02  0.71717537728E+01  0.17702374446E+03  0.12500000000E+03 0.  0.
         25    1    1    2    0    0 -0.29297678950E+02 -0.54559475382E+02  0.27683177264E+03  0.30999342040E+03  0.12500000000E+03 0.  0.
</event>
<event>
 5    0  0.5815084E-005  0.3128695E+03  0.7546771E-02  0.1078979E+00
         21   -1    0    0  502  501  0.00000000000E+00  0.00000000000E+00  0.29644475914E+03  0.29644475914E+03  0.00000000000E+00 0. -1.
         21   -1    0    0  501  502 -0.00000000000E+00 -0.00000000000E+00 -0.33020422802E+03  0.33020422802E+03  0.00000000000E+00 0. -1.
         25    1    1    2    0    0 -0.12709753121E+03  0.11618434484E+03  0.11608258617E+03  0.24238966818E+03  0.12500000000E+03 0.  0.
         25    1    1    2    0    0  0.51329024874E+01  0.25210806645E+02 -0.37384198584E+02  0.13298311834E+03  0.12500000000E+03 0.  0.
         25    1    1    2    0    0  0.12196462873E+03 -0.14139515149E+03 -0.11245785647E+03  0.25127620064E+03  0.12500000000E+03 0.  0.
</event>
<event>
 5    0  0.5815084E-005  0.3294769E+03  0.7546771E-02  0.1071369E+00
         21   -1    0    0  502  501  0.00000000000E+00  0.00000000000E+00  0.36710533068E+03  0.36710533068E+03  0.00000000000E+00 0. -1.
         21   -1    0    0  501  502 -0.00000000000E+00 -0.00000000000E+00 -0.29570547496E+03  0.29570547496E+03  0.00000000000E+00 0. -1.
         25    1    1    2    0    0 -0.87957850722E+02 -0.86101644199E+02 -0.15982612145E+03  0.23731722595E+03  0.12500000000E+03 0.  0.
         25    1    1    2    0    0 -0.83760204506E+01 -0.18316673244E+02 -0.12143085986E+00  0.12661229396E+03  0.12500000000E+03 0.  0.
         25    1    1    2    0    0  0.96333871172E+02  0.10441831744E+03  0.23134740802E+03  0.29888128572E+03  0.12500000000E+03 0.  0.
</event>
<event>
 5    0  0.5815084E-005  0.2148991E+03  0.7546771E-02  0.1137744E+00
         21   -1    0    0  502  501  0.00000000000E+00  0.00000000000E+00  0.16160927642E+03  0.16160927642E+03  0.00000000000E+00 0.  1.
         21   -1    0    0  501  502 -0.00000000000E+00 -0.00000000000E+00 -0.28576089870E+03  0.28576089870E+03  0.00000000000E+00 0.  1.
         25    1    1    2    0    0  0.71559057449E+02 -0.54058357593E+02 -0.69558182296E+02  0.16883822272E+03  0.12500000000E+03 0.  0.
         25    1    1    2    0    0 -0.28972722670E+02 -0.51092518979E+01 -0.24520563389E+02  0.13073553894E+03  0.12500000000E+03 0.  0.
         25    1    1    2    0    0 -0.42586334779E+02  0.59167609491E+02 -0.30072876586E+02  0.14779641345E+03  0.12500000000E+03 0.  0.
</event>
<event>
 5    0  0.5815084E-005  0.2817225E+03  0.7546771E-02  0.1094752E+00
         21   -1    0    0  502  501  0.00000000000E+00  0.00000000000E+00  0.25731849266E+03  0.25731849266E+03  0.00000000000E+00 0.  1.
         21   -1    0    0  501  502 -0.00000000000E+00 -0.00000000000E+00 -0.30844103235E+03  0.30844103235E+03  0.00000000000E+00 0.  1.
         25    1    1    2    0    0 -0.81178801284E-01  0.53031760124E+02 -0.11912213077E+03  0.18063071779E+03  0.12500000000E+03 0.  0.
         25    1    1    2    0    0  0.28566287064E+02  0.11170149446E+03  0.37919034209E+02  0.17423004843E+03  0.12500000000E+03 0.  0.
         25    1    1    2    0    0 -0.28485108262E+02 -0.16473325458E+03  0.30080556869E+02  0.21089875879E+03  0.12500000000E+03 0.  0.
</event>
<event>
 5    0  0.5815084E-005  0.4114512E+03  0.7546771E-02  0.1039885E+00
         21   -1    0    0  502  501  0.00000000000E+00  0.00000000000E+00  0.26123897516E+03  0.26123897516E+03  0.00000000000E+00 0.  1.
         21   -1    0    0  501  502 -0.00000000000E+00 -0.00000000000E+00 -0.64803539692E+03  0.64803539692E+03  0.00000000000E+00 0.  1.
         25    1    1    2    0    0 -0.18711463450E+03 -0.13293337562E+03 -0.24339406613E+03  0.35713980487E+03  0.12500000000E+03 0.  0.
         25    1    1    2    0    0  0.21777033935E+02 -0.10485315124E+03 -0.16867767710E+03  0.23568110082E+03  0.12500000000E+03 0.  0.
         25    1    1    2    0    0  0.16533760057E+03  0.23778652685E+03  0.25275321476E+02  0.31645346639E+03  0.12500000000E+03 0.  0.
</event>
<event>
 5    0  0.5815084E-005  0.2175301E+03  0.7546771E-02  0.1135738E+00
         21   -1    0    0  502  501  0.00000000000E+00  0.00000000000E+00  0.42870610176E+03  0.42870610176E+03  0.00000000000E+00 0.  1.
         21   -1    0    0  501  502 -0.00000000000E+00 -0.00000000000E+00 -0.11037716731E+03  0.11037716731E+03  0.00000000000E+00 0.  1.
         25    1    1    2    0    0 -0.85749688993E+02 -0.41576843813E+02  0.15630512379E+03  0.22167078027E+03  0.12500000000E+03 0.  0.
         25    1    1    2    0    0  0.26880325012E+02  0.42478153545E+02  0.77135796339E+02  0.15524779057E+03  0.12500000000E+03 0.  0.
         25    1    1    2    0    0  0.58869363981E+02 -0.90130973248E+00  0.84888014331E+02  0.16216469823E+03  0.12500000000E+03 0.  0.
</event>
<event>
 5    0  0.5815084E-005  0.3019057E+03  0.7546771E-02  0.1084292E+00
         21   -1    0    0  502  501  0.00000000000E+00  0.00000000000E+00  0.91617426100E+03  0.91617426100E+03  0.00000000000E+00 0. -1.
         21   -1    0    0  501  502 -0.00000000000E+00 -0.00000000000E+00 -0.99486569108E+02  0.99486569108E+02  0.00000000000E+00 0. -1.
         25    1    1    2    0    0 -0.12273898505E+02 -0.20277307496E+03  0.34945791035E+03  0.42309975138E+03  0.12500000000E+03 0.  0.
         25    1    1    2    0    0 -0.29963733243E+02  0.95157686621E+02  0.35296789412E+03  0.38751018685E+03  0.12500000000E+03 0.  0.
         25    1    1    2    0    0  0.42237631748E+02  0.10761538834E+03  0.11426188742E+03  0.20505089188E+03  0.12500000000E+03 0.  0.
</event>
<event>
 5    0  0.5815084E-005  0.2288803E+03  0.7546771E-02  0.1127430E+00
         21   -1    0    0  502  501  0.00000000000E+00  0.00000000000E+00  0.13869715385E+04  0.13869715385E+04  0.00000000000E+00 0. -1.
         21   -1    0    0  501  502 -0.00000000000E+00 -0.00000000000E+00 -0.37770197682E+02  0.37770197682E+02  0.00000000000E+00 0. -1.
         25    1    1    2    0    0  0.84810333397E+01  0.62418612778E+02  0.27401943288E+03  0.30770060244E+03  0.12500000000E+03 0.  0.
         25    1    1    2    0    0 -0.39050774399E+02 -0.45016347316E+02  0.29206655013E+03  0.32323258532E+03  0.12500000000E+03 0.  0.
         25    1    1    2    0    0  0.30569741059E+02 -0.17402265462E+02  0.78311535781E+03  0.79380854842E+03  0.12500000000E+03 0.  0.
</event>
<event>
 5    0  0.5815084E-005  0.4103667E+03  0.7546771E-02  0.1040248E+00
         21   -1    0    0  502  501  0.00000000000E+00  0.00000000000E+00  0.21346368847E+03  0.21346368847E+03  0.00000000000E+00 0.  1.
         21   -1    0    0  501  502 -0.00000000000E+00 -0.00000000000E+00 -0.78889689181E+03  0.78889689181E+03  0.00000000000E+00 0.  1.
         25    1    1    2    0    0  0.30526716366E+03 -0.21139542741E+02 -0.24881344124E+03  0.41372460649E+03  0.12500000000E+03 0.  0.
         25    1    1    2    0    0 -0.32259073942E+03 -0.38321979431E+02 -0.25735046117E+03  0.43288291620E+03  0.12500000000E+03 0.  0.
         25    1    1    2    0    0  0.17323575763E+02  0.59461522171E+02 -0.69269300937E+02  0.15575305759E+03  0.12500000000E+03 0.  0.
</event>
<event>
 5    0  0.5853586E-005  0.2363653E+03  0.7546771E-02  0.1122238E+00
         21   -1    0    0  502  501  0.00000000000E+00  0.00000000000E+00  0.58756398456E+03  0.58756398456E+03  0.00000000000E+00 0.  1.
         21   -1    0    0  501  502 -0.00000000000E+00 -0.00000000000E+00 -0.95085023458E+02  0.95085023458E+02  0.00000000000E+00 0.  1.
         25    1    1    2    0    0  0.39764973887E+02  0.13785741825E+02  0.12731786932E+03  0.18331977437E+03  0.12500000000E+03 0.  0.
         25    1    1    2    0    0 -0.11613189798E+03 -0.67427101952E+02  0.21735897813E+03  0.28443445146E+03  0.12500000000E+03 0.  0.
         25    1    1    2    0    0  0.76366924092E+02  0.53641360127E+02  0.14780211366E+03  0.21489478219E+03  0.12500000000E+03 0.  0.
</event>
<event>
 5    0  0.5815084E-005  0.2894111E+03  0.7546771E-02  0.1090657E+00
         21   -1    0    0  502  501  0.00000000000E+00  0.00000000000E+00  0.51337143102E+02  0.51337143102E+02  0.00000000000E+00 0.  1.
         21   -1    0    0  501  502 -0.00000000000E+00 -0.00000000000E+00 -0.16315437350E+04  0.16315437350E+04  0.00000000000E+00 0.  1.
         25    1    1    2    0    0  0.79350592975E+02  0.89521315402E+02 -0.45116353345E+03  0.48320194167E+03  0.12500000000E+03 0.  0.
         25    1    1    2    0    0 -0.12937571227E+03  0.46209746776E+02 -0.33603011369E+03  0.38394615889E+03  0.12500000000E+03 0.  0.
         25    1    1    2    0    0  0.50025119296E+02 -0.13573106218E+03 -0.79301294477E+03  0.81573277755E+03  0.12500000000E+03 0.  0.
</event>
<event>
 5    0  0.5815084E-005  0.3752086E+03  0.7546771E-02  0.1052719E+00
         21   -1    0    0  502  501  0.00000000000E+00  0.00000000000E+00  0.95344836655E+03  0.95344836655E+03  0.00000000000E+00 0. -1.
         21   -1    0    0  501  502 -0.00000000000E+00 -0.00000000000E+00 -0.14765505933E+03  0.14765505933E+03  0.00000000000E+00 0. -1.
         25    1    1    2    0    0 -0.92556963458E+02 -0.59251777466E+02  0.28231769248E+03  0.32772830836E+03  0.12500000000E+03 0.  0.
         25    1    1    2    0    0  0.89637759391E+02  0.23550254532E+03  0.10105144656E+03  0.29888588393E+03  0.12500000000E+03 0.  0.
         25    1    1    2    0    0  0.29192040664E+01 -0.17625076786E+03  0.42242416818E+03  0.47448923358E+03  0.12500000000E+03 0.  0.
</event>
<event>
 5    0  0.5815084E-005  0.4168294E+03  0.7546771E-02  0.1038103E+00
         21   -1    0    0  502  501  0.00000000000E+00  0.00000000000E+00  0.12272189340E+04  0.12272189340E+04  0.00000000000E+00 0.  1.
         21   -1    0    0  501  502 -0.00000000000E+00 -0.00000000000E+00 -0.14157764763E+03  0.14157764763E+03  0.00000000000E+00 0.  1.
         25    1    1    2    0    0 -0.70474359532E+02  0.93775205188E+01 -0.34819603934E+02  0.14795937977E+03  0.12500000000E+03 0.  0.
         25    1    1    2    0    0 -0.48290915886E+02 -0.16053071413E+02  0.62207997039E+02  0.14860870955E+03  0.12500000000E+03 0.  0.
         25    1    1    2    0    0  0.11876527542E+03  0.66755508941E+01  0.10582528933E+04  0.10722284923E+04  0.12500000000E+03 0.  0.
</event>
<event>
 5    0  0.5815084E-005  0.3319015E+03  0.7546771E-02  0.1070299E+00
         21   -1    0    0  502  501  0.00000000000E+00  0.00000000000E+00  0.20935376063E+03  0.20935376063E+03  0.00000000000E+00 0.  1.
         21   -1    0    0  501  502 -0.00000000000E+00 -0.00000000000E+00 -0.52618399978E+03  0.52618399978E+03  0.00000000000E+00 0.  1.
         25    1    1    2    0    0  0.14963852429E+03 -0.67210991157E+02 -0.35300178621E+02  0.20923696589E+03  0.12500000000E+03 0.  0.
         25    1    1    2    0    0 -0.18965267759E+03  0.15694004217E+03 -0.22949215441E+03  0.35901248431E+03  0.12500000000E+03 0.  0.
         25    1    1    2    0    0  0.40014153302E+02 -0.89729051014E+02 -0.52037906112E+02  0.16728831021E+03  0.12500000000E+03 0.  0.
</event>
<event>
 5    0  0.5815084E-005  0.2626756E+03  0.7546771E-02  0.1105546E+00
         21   -1    0    0  502  501  0.00000000000E+00  0.00000000000E+00  0.11979579825E+04  0.11979579825E+04  0.00000000000E+00 0.  1.
         21   -1    0    0  501  502 -0.00000000000E+00 -0.00000000000E+00 -0.57596725718E+02  0.57596725718E+02  0.00000000000E+00 0.  1.
         25    1    1    2    0    0 -0.73749761598E+02 -0.25301351743E+02  0.75294313630E+03  0.76722066723E+03  0.12500000000E+03 0.  0.
         25    1    1    2    0    0  0.61515332562E+02  0.78514158335E+02  0.18942606965E+03  0.24790289442E+03  0.12500000000E+03 0.  0.
         25    1    1    2    0    0  0.12234429036E+02 -0.53212806592E+02  0.19799205079E+03  0.24043114651E+03  0.12500000000E+03 0.  0.
</event>
<event>
 5    0  0.6325131E-005  0.2934548E+03  0.7546771E-02  0.1088559E+00
         21   -1    0    0  502  501  0.00000000000E+00  0.00000000000E+00  0.12080347183E+03  0.12080347183E+03  0.00000000000E+00 0. -1.
         21   -1    0    0  501  502 -0.00000000000E+00 -0.00000000000E+00 -0.71285813496E+03  0.71285813496E+03  0.00000000000E+00 0. -1.
         25    1    1    2    0    0 -0.38378234835E+02  0.67920231634E+02 -0.24825254457E+03  0.28868732680E+03  0.12500000000E+03 0.  0.
         25    1    1    2    0    0  0.11761300809E+03  0.10022429809E+03 -0.16730371521E+03  0.25979465492E+03  0.12500000000E+03 0.  0.
         25    1    1    2    0    0 -0.79234773259E+02 -0.16814452973E+03 -0.17649840335E+03  0.28517962507E+03  0.12500000000E+03 0.  0.
</event>
<event>
 5    0  0.5815084E-005  0.2593472E+03  0.7546771E-02  0.1107536E+00
         21   -1    0    0  502  501  0.00000000000E+00  0.00000000000E+00  0.13444918632E+04  0.13444918632E+04  0.00000000000E+00 0. -1.
         21   -1    0    0  501  502 -0.00000000000E+00 -0.00000000000E+00 -0.50027049028E+02  0.50027049028E+02  0.00000000000E+00 0. -1.
         25    1    1    2    0    0 -0.22829665721E+01  0.99625912642E+02  0.20338033929E+03  0.25868725677E+03  0.12500000000E+03 0.  0.
         25    1    1    2    0    0 -0.73005029978E+02 -0.84844246904E+02  0.63152384664E+03  0.65343373766E+03  0.12500000000E+03 0.  0.
         25    1    1    2    0    0  0.75287996550E+02 -0.14781665738E+02  0.45956062824E+03  0.48239791779E+03  0.12500000000E+03 0.  0.
</event>
<event>
 5    0  0.5815084E-005  0.3558396E+03  0.7546771E-02  0.1060243E+00
         21   -1    0    0  502  501  0.00000000000E+00  0.00000000000E+00  0.27348304479E+03  0.27348304479E+03  0.00000000000E+00 0.  1.
         21   -1    0    0  501  502 -0.00000000000E+00 -0.00000000000E+00 -0.46299699410E+03  0.46299699410E+03  0.00000000000E+00 0.  1.
         25    1    1    2    0    0 -0.12524710717E+03 -0.17211986605E+03 -0.17991125948E+03  0.30545891284E+03  0.12500000000E+03 0.  0.
         25    1    1    2    0    0 -0.72549337150E+02  0.13099617986E+02 -0.26875199546E+02  0.14758821993E+03  0.12500000000E+03 0.  0.
         25    1    1    2    0    0  0.19779644432E+03  0.15902024806E+03  0.17272509712E+02  0.28343290612E+03  0.12500000000E+03 0.  0.
</event>
<event>
 5    0  0.5815084E-005  0.3051921E+03  0.7546771E-02  0.1082674E+00
         21   -1    0    0  502  501  0.00000000000E+00  0.00000000000E+00  0.31062159778E+03  0.31062159778E+03  0.00000000000E+00 0.  1.
         21   -1    0    0  501  502 -0.00000000000E+00 -0.00000000000E+00 -0.29985750276E+03  0.29985750276E+03  0.00000000000E+00 0.  1.
         25    1    1    2    0    0 -0.12090845582E+02  0.34374560255E+02 -0.16783078924E+03  0.21241462463E+03  0.12500000000E+03 0.  0.
         25    1    1    2    0    0 -0.10227185108E+03  0.93312314205E+01  0.15030435183E+03  0.22082346248E+03  0.12500000000E+03 0.  0.
         25    1    1    2    0    0  0.11436269666E+03 -0.43705791675E+02  0.28290532428E+02  0.17724101342E+03  0.12500000000E+03 0.  0.
</event>
<event>
 5    0  0.5815084E-005  0.2340178E+03  0.7546771E-02  0.1123843E+00
         21   -1    0    0  502  501  0.00000000000E+00  0.00000000000E+00  0.29695545853E+02  0.29695545853E+02  0.00000000000E+00 0.  1.
         21   -1    0    0  501  502 -0.00000000000E+00 -0.00000000000E+00 -0.18441936388E+04  0.18441936388E+04  0.00000000000E+00 0.  1.
         25    1    1    2    0    0 -0.75955049858E+01  0.13297344809E+03 -0.64408786142E+03  0.66948771671E+03  0.12500000000E+03 0.  0.
         25    1    1    2    0    0  0.99626880707E+01 -0.76865707476E+02 -0.60815366250E+03  0.62568639856E+03  0.12500000000E+03 0.  0.
         25    1    1    2    0    0 -0.23671830849E+01 -0.56107740614E+02 -0.56225656900E+03  0.57871506935E+03  0.12500000000E+03 0.  0.
</event>
<event>
 5    0  0.5815084E-005  0.2374590E+03  0.7546771E-02  0.1121497E+00
         21   -1    0    0  502  501  0.00000000000E+00  0.00000000000E+00  0.58424928985E+02  0.58424928985E+02  0.00000000000E+00 0.  1.
         21   -1    0    0  501  502 -0.00000000000E+00 -0.00000000000E+00 -0.96511468080E+03  0.96511468080E+03  0.00000000000E+00 0.  1.
         25    1    1    2    0    0 -0.80733425730E+01  0.96814547635E+00 -0.30331110254E+03  0.32815962746E+03  0.12500000000E+03 0.  0.
         25    1    1    2    0    0  0.69543468342E+02  0.55206200968E+02 -0.13771604608E+03  0.20609397847E+03  0.12500000000E+03 0.  0.
         25    1    1    2    0    0 -0.61470125769E+02 -0.56174346445E+02 -0.46566260319E+03  0.48928600386E+03  0.12500000000E+03 0.  0.
</event>
<event>
 5    0  0.5815084E-005  0.3881102E+03  0.7546771E-02  0.1047976E+00
         21   -1    0    0  502  501  0.00000000000E+00  0.00000000000E+00  0.30090208546E+03  0.30090208546E+03  0.00000000000E+00 0.  1.
         21   -1    0    0  501  502 -0.00000000000E+00 -0.00000000000E+00 -0.50059306582E+03  0.50059306582E+03  0.00000000000E+00 0.  1.
         25    1    1    2    0    0  0.28602863163E+02  0.16188007184E+02 -0.37710991264E+02  0.13463764043E+03  0.12500000000E+03 0.  0.
         25    1    1    2    0    0 -0.28632350195E+03 -0.12922201276E+03 -0.67539215609E+02  0.34476952011E+03  0.12500000000E+03 0.  0.
         25    1    1    2    0    0  0.25772063879E+03  0.11303400558E+03 -0.94440773488E+02  0.32208799073E+03  0.12500000000E+03 0.  0.
</event>
<event>
 5    0  0.5815084E-005  0.3901239E+03  0.7546771E-02  0.1047254E+00
         21   -1    0    0  502  501  0.00000000000E+00  0.00000000000E+00  0.57160580273E+03  0.57160580273E+03  0.00000000000E+00 0.  1.
         21   -1    0    0  501  502 -0.00000000000E+00 -0.00000000000E+00 -0.26626159988E+03  0.26626159988E+03  0.00000000000E+00 0.  1.
         25    1    1    2    0    0  0.22438889677E+03  0.20373499853E+02  0.31105620732E+02  0.25953422921E+03  0.12500000000E+03 0.  0.
         25    1    1    2    0    0 -0.52673081798E+02  0.15221352206E+03  0.20124279148E+02  0.20487409904E+03  0.12500000000E+03 0.  0.
         25    1    1    2    0    0 -0.17171581497E+03 -0.17258702192E+03  0.25411430298E+03  0.37345907436E+03  0.12500000000E+03 0.  0.
</event>
<event>
 5    0  0.5815084E-005  0.3687883E+03  0.7546771E-02  0.1055157E+00
         21   -1    0    0  502  501  0.00000000000E+00  0.00000000000E+00  0.58690651740E+03  0.58690651740E+03  0.00000000000E+00 0.  1.
         21   -1    0    0  501  502 -0.00000000000E+00 -0.00000000000E+00 -0.23173165282E+03  0.23173165282E+03  0.00000000000E+00 0.  1.
         25    1    1    2    0    0 -0.26848503164E+02 -0.40232138353E-01  0.90274925635E+02  0.15651008255E+03  0.12500000000E+03 0.  0.
         25    1    1    2    0    0 -0.24336537977E+03 -0.60593181655E+02  0.21726317379E+03  0.35457936829E+03  0.12500000000E+03 0.  0.
         25    1    1    2    0    0  0.27021388293E+03  0.60633413793E+02  0.47636765160E+02  0.30754871938E+03  0.12500000000E+03 0.  0.
</event>
