<event>
 4    0  0.2250660E-002  0.2715253E+03  0.7546771E-02  0.1100410E+00
         21   -1    0    0  502  501  0.00000000000E+00  0.00000000000E+00  0.14443593196E+04  0.14443593196E+04  0.00000000000E+00 0.  1.
         21   -1    0    0  501  502 -0.00000000000E+00 -0.00000000000E+00 -0.51044093845E+02  0.51044093845E+02  0.00000000000E+00 0.  1.
         25    1    1    2    0    0 -0.13922483463E+03  0.85214335421E+02  0.11850507752E+04  0.12027532487E+04  0.12500000000E+03 0.  0.
         25    1    1    2    0    0  0.13922483463E+03 -0.85214335421E+02  0.20826445056E+03  0.29265016471E+03  0.12500000000E+03 0.  0.
</event>
<event>
 4    0  0.2250660E-002  0.2417104E+03  0.7546771E-02  0.1118659E+00
         21   -1    0    0  502  501  0.00000000000E+00  0.00000000000E+00  0.54056810695E+03  0.54056810695E+03  0.00000000000E+00 0.  1.
         21   -1    0    0  501  502 -0.00000000000E+00 -0.00000000000E+00 -0.10807872556E+03  0.10807872556E+03  0.00000000000E+00 0.  1.
         25    1    1    2    0    0 -0.72705468631E+02  0.18853343875E+03  0.15672068390E+03  0.28463540794E+03  0.12500000000E+03 0.  0.
         25    1    1    2    0    0  0.72705468631E+02 -0.18853343875E+03  0.27576869750E+03  0.36401142456E+03  0.12500000000E+03 0.  0.
</event>
<event>
 4    0  0.2250660E-002  0.1576806E+03  0.7546771E-02  0.1191341E+00
         21   -1    0    0  502  501  0.00000000000E+00  0.00000000000E+00  0.22522393983E+03  0.22522393983E+03  0.00000000000E+00 0.  1.
         21   -1    0    0  501  502 -0.00000000000E+00 -0.00000000000E+00 -0.11039306932E+03  0.11039306932E+03  0.00000000000E+00 0.  1.
         25    1    1    2    0    0 -0.20142108387E+02 -0.72936305368E+02 -0.56599023270E+01  0.14622736975E+03  0.12500000000E+03 0.  0.
         25    1    1    2    0    0  0.20142108387E+02  0.72936305368E+02  0.12049077283E+03  0.18938963939E+03  0.12500000000E+03 0.  0.
</event>
<event>
 4    0  0.2250660E-002  0.2207177E+03  0.7546771E-02  0.1133349E+00
         21   -1    0    0  502  501  0.00000000000E+00  0.00000000000E+00  0.68598883076E+03  0.68598883076E+03  0.00000000000E+00 0. -1.
         21   -1    0    0  501  502 -0.00000000000E+00 -0.00000000000E+00 -0.71016153929E+02  0.71016153929E+02  0.00000000000E+00 0.  1.
         25    1    1    2    0    0 -0.12018861578E+03 -0.13234773968E+03  0.24983856215E+03  0.33167082280E+03  0.12500000000E+03 0.  0.
         25    1    1    2    0    0  0.12018861578E+03  0.13234773968E+03  0.36513411469E+03  0.42533416189E+03  0.12500000000E+03 0.  0.
</event>
<event>
 4    0  0.2250660E-002  0.1815989E+03  0.7546771E-02  0.1166265E+00
         21   -1    0    0  502  501  0.00000000000E+00  0.00000000000E+00  0.38102418376E+02  0.38102418376E+02  0.00000000000E+00 0. -1.
         21   -1    0    0  501  502 -0.00000000000E+00 -0.00000000000E+00 -0.86551374133E+03  0.86551374133E+03  0.00000000000E+00 0. -1.
         25    1    1    2    0    0  0.92613512332E+02  0.17685976072E+02 -0.18482677147E+03  0.24223127764E+03  0.12500000000E+03 0.  0.
         25    1    1    2    0    0 -0.92613512332E+02 -0.17685976072E+02 -0.64258455149E+03  0.66138488207E+03  0.12500000000E+03 0.  0.
</event>
<event>
 4    0  0.2250660E-002  0.2549360E+03  0.7546771E-02  0.1110225E+00
         21   -1    0    0  502  501  0.00000000000E+00  0.00000000000E+00  0.15201467221E+03  0.15201467221E+03  0.00000000000E+00 0.  1.
         21   -1    0    0  501  502 -0.00000000000E+00 -0.00000000000E+00 -0.42754004045E+03  0.42754004045E+03  0.00000000000E+00 0.  1.
         25    1    1    2    0    0 -0.22022128467E+03 -0.21940214962E+02 -0.16016892308E+03  0.30042947787E+03  0.12500000000E+03 0.  0.
         25    1    1    2    0    0  0.22022128467E+03  0.21940214962E+02 -0.11535644517E+03  0.27912523479E+03  0.12500000000E+03 0.  0.
</event>
<event>
 4    0  0.2250660E-002  0.1942456E+03  0.7546771E-02  0.1154687E+00
         21   -1    0    0  502  501  0.00000000000E+00  0.00000000000E+00  0.57747041037E+03  0.57747041037E+03  0.00000000000E+00 0.  1.
         21   -1    0    0  501  502 -0.00000000000E+00 -0.00000000000E+00 -0.65339050548E+02  0.65339050548E+02  0.00000000000E+00 0.  1.
         25    1    1    2    0    0 -0.43197223599E+02  0.20311238075E+02  0.23075031223E+02  0.13577924578E+03  0.12500000000E+03 0.  0.
         25    1    1    2    0    0  0.43197223599E+02 -0.20311238075E+02  0.48905632860E+03  0.50703021514E+03  0.12500000000E+03 0.  0.
</event>
<event>
 4    0  0.2250660E-002  0.2338972E+03  0.7546771E-02  0.1123926E+00
         21   -1    0    0  502  501  0.00000000000E+00  0.00000000000E+00  0.32026438503E+02  0.32026438503E+02  0.00000000000E+00 0.  1.
         21   -1    0    0  501  502 -0.00000000000E+00 -0.00000000000E+00 -0.17082104013E+04  0.17082104013E+04  0.00000000000E+00 0.  1.
         25    1    1    2    0    0 -0.18009623430E+03 -0.20779366756E+02 -0.11314006640E+04  0.11526312933E+04  0.12500000000E+03 0.  0.
         25    1    1    2    0    0  0.18009623430E+03  0.20779366756E+02 -0.54478329884E+03  0.58760554659E+03  0.12500000000E+03 0.  0.
</event>
<event>
 4    0  0.2250660E-002  0.1804464E+03  0.7546771E-02  0.1167372E+00
         21   -1    0    0  502  501  0.00000000000E+00  0.00000000000E+00  0.13266828453E+03  0.13266828453E+03  0.00000000000E+00 0.  1.
         21   -1    0    0  501  502 -0.00000000000E+00 -0.00000000000E+00 -0.24543086245E+03  0.24543086245E+03  0.00000000000E+00 0.  1.
         25    1    1    2    0    0  0.32756271871E+02 -0.98287728140E+02 -0.13889172206E+03  0.21365711153E+03  0.12500000000E+03 0.  0.
         25    1    1    2    0    0 -0.32756271871E+02  0.98287728140E+02  0.26129144142E+02  0.16444203545E+03  0.12500000000E+03 0.  0.
</event>
<event>
 4    0  0.2250660E-002  0.1911736E+03  0.7546771E-02  0.1157407E+00
         21   -1    0    0  502  501  0.00000000000E+00  0.00000000000E+00  0.76274289055E+02  0.76274289055E+02  0.00000000000E+00 0.  1.
         21   -1    0    0  501  502 -0.00000000000E+00 -0.00000000000E+00 -0.47915665205E+03  0.47915665205E+03  0.00000000000E+00 0.  1.
         25    1    1    2    0    0  0.10909740455E+03 -0.92404322511E+02 -0.16956369131E+03  0.25459310263E+03  0.12500000000E+03 0.  0.
         25    1    1    2    0    0 -0.10909740455E+03  0.92404322511E+02 -0.23331867169E+03  0.30083783848E+03  0.12500000000E+03 0.  0.
</event>
<event>
 4    0  0.2250660E-002  0.1971242E+03  0.7546771E-02  0.1152188E+00
         21   -1    0    0  502  501  0.00000000000E+00  0.00000000000E+00  0.65622235686E+03  0.65622235686E+03  0.00000000000E+00 0.  1.
         21   -1    0    0  501  502 -0.00000000000E+00 -0.00000000000E+00 -0.59214579103E+02  0.59214579103E+02  0.00000000000E+00 0.  1.
         25    1    1    2    0    0 -0.60289287377E+02  0.68751627265E+02  0.77206306121E+02  0.17305316561E+03  0.12500000000E+03 0.  0.
         25    1    1    2    0    0  0.60289287377E+02 -0.68751627265E+02  0.51980147164E+03  0.54238377035E+03  0.12500000000E+03 0.  0.
</event>
<event>
 4    0  0.2250660E-002  0.2619439E+03  0.7546771E-02  0.1105981E+00
         21   -1    0    0  502  501  0.00000000000E+00  0.00000000000E+00  0.53557231181E+02  0.53557231181E+02  0.00000000000E+00 0. -1.
         21   -1    0    0  501  502 -0.00000000000E+00 -0.00000000000E+00 -0.12811451248E+04  0.12811451248E+04  0.00000000000E+00 0. -1.
         25    1    1    2    0    0  0.58820245064E+02 -0.69343805037E+02 -0.11525633678E+04  0.11628824968E+04  0.12500000000E+03 0.  0.
         25    1    1    2    0    0 -0.58820245064E+02  0.69343805037E+02 -0.75024525743E+02  0.17181985912E+03  0.12500000000E+03 0.  0.
</event>
<event>
 4    0  0.2250660E-002  0.2399900E+03  0.7546771E-02  0.1119799E+00
         21   -1    0    0  502  501  0.00000000000E+00  0.00000000000E+00  0.24228927464E+03  0.24228927464E+03  0.00000000000E+00 0.  1.
         21   -1    0    0  501  502 -0.00000000000E+00 -0.00000000000E+00 -0.23771254128E+03  0.23771254128E+03  0.00000000000E+00 0.  1.
         25    1    1    2    0    0  0.98170107086E+02 -0.15840078469E+03  0.87392298080E+02  0.24081235907E+03  0.12500000000E+03 0.  0.
         25    1    1    2    0    0 -0.98170107086E+02  0.15840078469E+03 -0.82815564719E+02  0.23918945686E+03  0.12500000000E+03 0.  0.
</event>
<event>
 4    0  0.2250660E-002  0.2435549E+03  0.7546771E-02  0.1117447E+00
         21   -1    0    0  502  501  0.00000000000E+00  0.00000000000E+00  0.39869131216E+03  0.39869131216E+03  0.00000000000E+00 0.  1.
         21   -1    0    0  501  502 -0.00000000000E+00 -0.00000000000E+00 -0.14878430872E+03  0.14878430872E+03  0.00000000000E+00 0.  1.
         25    1    1    2    0    0  0.73322726925E+02  0.11070308771E+03 -0.56492262676E+02  0.19091299499E+03  0.12500000000E+03 0.  0.
         25    1    1    2    0    0 -0.73322726925E+02 -0.11070308771E+03  0.30639926611E+03  0.35656262590E+03  0.12500000000E+03 0.  0.
</event>
<event>
 4    0  0.2250660E-002  0.2696375E+03  0.7546771E-02  0.1101487E+00
         21   -1    0    0  502  501  0.00000000000E+00  0.00000000000E+00  0.17183300824E+03  0.17183300824E+03  0.00000000000E+00 0. -1.
         21   -1    0    0  501  502 -0.00000000000E+00 -0.00000000000E+00 -0.42311078809E+03  0.42311078809E+03  0.00000000000E+00 0. -1.
         25    1    1    2    0    0  0.64602065181E+02  0.17775045783E+03  0.35412671559E+02  0.22945088666E+03  0.12500000000E+03 0.  0.
         25    1    1    2    0    0 -0.64602065181E+02 -0.17775045783E+03 -0.28669045142E+03  0.36549290967E+03  0.12500000000E+03 0.  0.
</event>
<event>
 4    0  0.2250660E-002  0.1831996E+03  0.7546771E-02  0.1164742E+00
         21   -1    0    0  502  501  0.00000000000E+00  0.00000000000E+00  0.16793642510E+04  0.16793642510E+04  0.00000000000E+00 0.  1.
         21   -1    0    0  501  502 -0.00000000000E+00 -0.00000000000E+00 -0.19984995590E+02  0.19984995590E+02  0.00000000000E+00 0.  1.
         25    1    1    2    0    0  0.81936880730E+02 -0.10428932580E+03  0.91610679856E+03  0.93405919634E+03  0.12500000000E+03 0.  0.
         25    1    1    2    0    0 -0.81936880730E+02  0.10428932580E+03  0.74327245688E+03  0.76529005028E+03  0.12500000000E+03 0.  0.
</event>
<event>
 4    0  0.2250660E-002  0.2160662E+03  0.7546771E-02  0.1136850E+00
         21   -1    0    0  502  501  0.00000000000E+00  0.00000000000E+00  0.44384697128E+02  0.44384697128E+02  0.00000000000E+00 0. -1.
         21   -1    0    0  501  502 -0.00000000000E+00 -0.00000000000E+00 -0.10518175350E+04  0.10518175350E+04  0.00000000000E+00 0. -1.
         25    1    1    2    0    0 -0.17096465601E+03 -0.30068723153E+02 -0.42649978548E+03  0.47713741075E+03  0.12500000000E+03 0.  0.
         25    1    1    2    0    0  0.17096465601E+03  0.30068723153E+02 -0.58093305240E+03  0.61906482140E+03  0.12500000000E+03 0.  0.
</event>
<event>
 4    0  0.2250660E-002  0.2274460E+03  0.7546771E-02  0.1128450E+00
         21   -1    0    0  502  501  0.00000000000E+00  0.00000000000E+00  0.87396893832E+02  0.87396893832E+02  0.00000000000E+00 0.  1.
         21   -1    0    0  501  502 -0.00000000000E+00 -0.00000000000E+00 -0.59191659741E+03  0.59191659741E+03  0.00000000000E+00 0.  1.
         25    1    1    2    0    0 -0.15014997149E+03  0.60591089093E+02 -0.10374549740E+03  0.22935653958E+03  0.12500000000E+03 0.  0.
         25    1    1    2    0    0  0.15014997149E+03 -0.60591089093E+02 -0.40077420617E+03  0.44995695166E+03  0.12500000000E+03 0.  0.
</event>
<event>
 4    0  0.2250660E-002  0.1793897E+03  0.7546771E-02  0.1168395E+00
         21   -1    0    0  502  501  0.00000000000E+00  0.00000000000E+00  0.88035130152E+03  0.88035130152E+03  0.00000000000E+00 0.  1.
         21   -1    0    0  501  502 -0.00000000000E+00 -0.00000000000E+00 -0.36554352375E+02  0.36554352375E+02  0.00000000000E+00 0.  1.
         25    1    1    2    0    0 -0.93692612729E+02  0.77017319779E+02  0.31210476010E+03  0.35741342239E+03  0.12500000000E+03 0.  0.
         25    1    1    2    0    0  0.93692612729E+02 -0.77017319779E+02  0.53169218905E+03  0.55949223151E+03  0.12500000000E+03 0.  0.
</event>
<event>
 4    0  0.2250660E-002  0.4692671E+03  0.7546771E-02  0.1022127E+00
         21   -1    0    0  502  501  0.00000000000E+00  0.00000000000E+00  0.13220340923E+04  0.13220340923E+04  0.00000000000E+00 0.  1.
         21   -1    0    0  501  502 -0.00000000000E+00 -0.00000000000E+00 -0.16657033138E+03  0.16657033138E+03  0.00000000000E+00 0.  1.
         25    1    1    2    0    0 -0.17956105829E+03  0.11533895615E+03 -0.54802686269E+02  0.25332505380E+03  0.12500000000E+03 0.  0.
         25    1    1    2    0    0  0.17956105829E+03 -0.11533895615E+03  0.12102664472E+04  0.12352793699E+04  0.12500000000E+03 0.  0.
</event>
<event>
 4    0  0.2250660E-002  0.2199433E+03  0.7546771E-02  0.1133925E+00
         21   -1    0    0  502  501  0.00000000000E+00  0.00000000000E+00  0.55523365589E+02  0.55523365589E+02  0.00000000000E+00 0.  1.
         21   -1    0    0  501  502 -0.00000000000E+00 -0.00000000000E+00 -0.87125597934E+03  0.87125597934E+03  0.00000000000E+00 0.  1.
         25    1    1    2    0    0 -0.21664630610E+02 -0.76099499351E+02 -0.75077071019E+03  0.76520725905E+03  0.12500000000E+03 0.  0.
         25    1    1    2    0    0  0.21664630610E+02  0.76099499351E+02 -0.64961903559E+02  0.16157208588E+03  0.12500000000E+03 0.  0.
</event>
<event>
 4    0  0.2250660E-002  0.1430095E+03  0.7546771E-02  0.1209336E+00
         21   -1    0    0  502  501  0.00000000000E+00  0.00000000000E+00  0.12514395892E+02  0.12514395892E+02  0.00000000000E+00 0.  1.
         21   -1    0    0  501  502 -0.00000000000E+00 -0.00000000000E+00 -0.16342553129E+04  0.16342553129E+04  0.00000000000E+00 0.  1.
         25    1    1    2    0    0 -0.51927551203E+02 -0.16280172792E+02 -0.56221323919E+03  0.57850690654E+03  0.12500000000E+03 0.  0.
         25    1    1    2    0    0  0.51927551203E+02  0.16280172792E+02 -0.10595276778E+04  0.10682628023E+04  0.12500000000E+03 0.  0.
</event>
<event>
 4    0  0.2250660E-002  0.2205874E+03  0.7546771E-02  0.1133446E+00
         21   -1    0    0  502  501  0.00000000000E+00  0.00000000000E+00  0.41187068452E+02  0.41187068452E+02  0.00000000000E+00 0. -1.
         21   -1    0    0  501  502 -0.00000000000E+00 -0.00000000000E+00 -0.11814097383E+04  0.11814097383E+04  0.00000000000E+00 0.  1.
         25    1    1    2    0    0  0.43963587663E+02  0.16591394505E+03 -0.73577362763E+03  0.76579897187E+03  0.12500000000E+03 0.  0.
         25    1    1    2    0    0 -0.43963587663E+02 -0.16591394505E+03 -0.40444904223E+03  0.45679783489E+03  0.12500000000E+03 0.  0.
</event>
<event>
 4    0  0.2250660E-002  0.3101415E+03  0.7546771E-02  0.1080278E+00
         21   -1    0    0  502  501  0.00000000000E+00  0.00000000000E+00  0.33702243686E+03  0.33702243686E+03  0.00000000000E+00 0.  1.
         21   -1    0    0  501  502 -0.00000000000E+00 -0.00000000000E+00 -0.28540459650E+03  0.28540459650E+03  0.00000000000E+00 0. -1.
         25    1    1    2    0    0  0.24705890449E+03  0.15065948170E+02 -0.11358729176E+03  0.29965339633E+03  0.12500000000E+03 0.  0.
         25    1    1    2    0    0 -0.24705890449E+03 -0.15065948170E+02  0.16520513212E+03  0.32277363703E+03  0.12500000000E+03 0.  0.
</event>
<event>
 4    0  0.2250660E-002  0.2964868E+03  0.7546771E-02  0.1087010E+00
         21   -1    0    0  502  501  0.00000000000E+00  0.00000000000E+00  0.11723640920E+04  0.11723640920E+04  0.00000000000E+00 0. -1.
         21   -1    0    0  501  502 -0.00000000000E+00 -0.00000000000E+00 -0.74980456373E+02  0.74980456373E+02  0.00000000000E+00 0. -1.
         25    1    1    2    0    0  0.11829272104E+03  0.78542702881E+02  0.68469902365E+02  0.20118462058E+03  0.12500000000E+03 0.  0.
         25    1    1    2    0    0 -0.11829272104E+03 -0.78542702881E+02  0.10289137333E+04  0.10461599278E+04  0.12500000000E+03 0.  0.
</event>
<event>
 4    0  0.2250660E-002  0.1976274E+03  0.7546771E-02  0.1151756E+00
         21   -1    0    0  502  501  0.00000000000E+00  0.00000000000E+00  0.16116975891E+03  0.16116975891E+03  0.00000000000E+00 0. -1.
         21   -1    0    0  501  502 -0.00000000000E+00 -0.00000000000E+00 -0.24233194840E+03  0.24233194840E+03  0.00000000000E+00 0. -1.
         25    1    1    2    0    0 -0.97663009242E+02 -0.10810305832E+03  0.73805142458E+01  0.19210363500E+03  0.12500000000E+03 0.  0.
         25    1    1    2    0    0  0.97663009242E+02  0.10810305832E+03 -0.88542703737E+02  0.21139807231E+03  0.12500000000E+03 0.  0.
</event>
<event>
 4    0  0.2250660E-002  0.2545721E+03  0.7546771E-02  0.1110449E+00
         21   -1    0    0  502  501  0.00000000000E+00  0.00000000000E+00  0.24480441401E+03  0.24480441401E+03  0.00000000000E+00 0. -1.
         21   -1    0    0  501  502 -0.00000000000E+00 -0.00000000000E+00 -0.26472945055E+03  0.26472945055E+03  0.00000000000E+00 0. -1.
         25    1    1    2    0    0  0.10948717001E+03 -0.15001537145E+03  0.11133209616E+03  0.25002377428E+03  0.12500000000E+03 0.  0.
         25    1    1    2    0    0 -0.10948717001E+03  0.15001537145E+03 -0.13125713271E+03  0.25951009028E+03  0.12500000000E+03 0.  0.
</event>
<event>
 4    0  0.2250660E-002  0.2617655E+03  0.7546771E-02  0.1106087E+00
         21   -1    0    0  502  501  0.00000000000E+00  0.00000000000E+00  0.15075388724E+04  0.15075388724E+04  0.00000000000E+00 0. -1.
         21   -1    0    0  501  502 -0.00000000000E+00 -0.00000000000E+00 -0.45452344314E+02  0.45452344314E+02  0.00000000000E+00 0. -1.
         25    1    1    2    0    0  0.21314017845E+03 -0.29672112204E+02  0.97179566626E+03  0.10031555148E+04  0.12500000000E+03 0.  0.
         25    1    1    2    0    0 -0.21314017845E+03  0.29672112204E+02  0.49029086186E+03  0.54983570195E+03  0.12500000000E+03 0.  0.
</event>
<event>
 4    0  0.2250660E-002  0.2495505E+03  0.7546771E-02  0.1113589E+00
         21   -1    0    0  502  501  0.00000000000E+00  0.00000000000E+00  0.48903719877E+03  0.48903719877E+03  0.00000000000E+00 0. -1.
         21   -1    0    0  501  502 -0.00000000000E+00 -0.00000000000E+00 -0.12734295995E+03  0.12734295995E+03  0.00000000000E+00 0. -1.
         25    1    1    2    0    0 -0.80840947687E+02 -0.15867626133E+03  0.29911285365E+02  0.21962035362E+03  0.12500000000E+03 0.  0.
         25    1    1    2    0    0  0.80840947687E+02  0.15867626133E+03  0.33178295346E+03  0.39675980509E+03  0.12500000000E+03 0.  0.
</event>
<event>
 4    0  0.2250660E-002  0.1725247E+03  0.7546771E-02  0.1175240E+00
         21   -1    0    0  502  501  0.00000000000E+00  0.00000000000E+00  0.31358550080E+03  0.31358550080E+03  0.00000000000E+00 0. -1.
         21   -1    0    0  501  502 -0.00000000000E+00 -0.00000000000E+00 -0.94917618594E+02  0.94917618594E+02  0.00000000000E+00 0. -1.
         25    1    1    2    0    0 -0.54203563668E+02 -0.97851516868E+02  0.61582460894E+02  0.17869064093E+03  0.12500000000E+03 0.  0.
         25    1    1    2    0    0  0.54203563668E+02  0.97851516868E+02  0.15708542131E+03  0.22981247846E+03  0.12500000000E+03 0.  0.
</event>
<event>
 4    0  0.2250660E-002  0.2008560E+03  0.7546771E-02  0.1149019E+00
         21   -1    0    0  502  501  0.00000000000E+00  0.00000000000E+00  0.18799938399E+03  0.18799938399E+03  0.00000000000E+00 0.  1.
         21   -1    0    0  501  502 -0.00000000000E+00 -0.00000000000E+00 -0.21459186697E+03  0.21459186697E+03  0.00000000000E+00 0.  1.
         25    1    1    2    0    0 -0.52176155199E+02  0.12922283659E+03  0.59645238509E+02  0.19647759960E+03  0.12500000000E+03 0.  0.
         25    1    1    2    0    0  0.52176155199E+02 -0.12922283659E+03 -0.86237721484E+02  0.20611365135E+03  0.12500000000E+03 0.  0.
</event>
<event>
 4    0  0.2250660E-002  0.2722547E+03  0.7546771E-02  0.1099996E+00
         21   -1    0    0  502  501  0.00000000000E+00  0.00000000000E+00  0.80177051369E+03  0.80177051369E+03  0.00000000000E+00 0. -1.
         21   -1    0    0  501  502 -0.00000000000E+00 -0.00000000000E+00 -0.92448659887E+02  0.92448659887E+02  0.00000000000E+00 0. -1.
         25    1    1    2    0    0  0.14748771011E+03 -0.10358061630E+02  0.40318714213E+02  0.19776378028E+03  0.12500000000E+03 0.  0.
         25    1    1    2    0    0 -0.14748771011E+03  0.10358061630E+02  0.66900313959E+03  0.69645539330E+03  0.12500000000E+03 0.  0.
</event>
<event>
 4    0  0.2250660E-002  0.1769626E+03  0.7546771E-02  0.1170775E+00
         21   -1    0    0  502  501  0.00000000000E+00  0.00000000000E+00  0.86028781272E+02  0.86028781272E+02  0.00000000000E+00 0.  1.
         21   -1    0    0  501  502 -0.00000000000E+00 -0.00000000000E+00 -0.36401487414E+03  0.36401487414E+03  0.00000000000E+00 0.  1.
         25    1    1    2    0    0 -0.59469109404E+02 -0.10919922909E+03 -0.15826530275E+03  0.23692604893E+03  0.12500000000E+03 0.  0.
         25    1    1    2    0    0  0.59469109404E+02  0.10919922909E+03 -0.11972079011E+03  0.21311760648E+03  0.12500000000E+03 0.  0.
</event>
<event>
 4    0  0.2250660E-002  0.2691878E+03  0.7546771E-02  0.1101745E+00
         21   -1    0    0  502  501  0.00000000000E+00  0.00000000000E+00  0.19280189422E+03  0.19280189422E+03  0.00000000000E+00 0. -1.
         21   -1    0    0  501  502 -0.00000000000E+00 -0.00000000000E+00 -0.37583692840E+03  0.37583692840E+03  0.00000000000E+00 0. -1.
         25    1    1    2    0    0  0.11685803951E+03  0.11508555704E+03  0.91230328416E+02  0.22549603025E+03  0.12500000000E+03 0.  0.
         25    1    1    2    0    0 -0.11685803951E+03 -0.11508555704E+03 -0.27426536259E+03  0.34314279237E+03  0.12500000000E+03 0.  0.
</event>
<event>
 4    0  0.2250660E-002  0.2643511E+03  0.7546771E-02  0.1104557E+00
         21   -1    0    0  502  501  0.00000000000E+00  0.00000000000E+00  0.26086609552E+03  0.26086609552E+03  0.00000000000E+00 0.  1.
         21   -1    0    0  501  502 -0.00000000000E+00 -0.00000000000E+00 -0.26788267189E+03  0.26788267189E+03  0.00000000000E+00 0.  1.
         25    1    1    2    0    0  0.26381306321E+02  0.58319036288E+02 -0.22749100590E+03  0.26734666836E+03  0.12500000000E+03 0.  0.
         25    1    1    2    0    0 -0.26381306321E+02 -0.58319036288E+02  0.22047442952E+03  0.26140209905E+03  0.12500000000E+03 0.  0.
</event>
<event>
 4    0  0.2250660E-002  0.2352842E+03  0.7546771E-02  0.1122975E+00
         21   -1    0    0  502  501  0.00000000000E+00  0.00000000000E+00  0.52726777441E+03  0.52726777441E+03  0.00000000000E+00 0.  1.
         21   -1    0    0  501  502 -0.00000000000E+00 -0.00000000000E+00 -0.10499153892E+03  0.10499153892E+03  0.00000000000E+00 0.  1.
         25    1    1    2    0    0 -0.88570873693E+02 -0.17831627167E+03  0.22403693702E+03  0.32474457895E+03  0.12500000000E+03 0.  0.
         25    1    1    2    0    0  0.88570873693E+02  0.17831627167E+03  0.19823929847E+03  0.30751473439E+03  0.12500000000E+03 0.  0.
</event>
<event>
 4    0  0.2250660E-002  0.2268982E+03  0.7546771E-02  0.1128842E+00
         21   -1    0    0  502  501  0.00000000000E+00  0.00000000000E+00  0.17883330335E+03  0.17883330335E+03  0.00000000000E+00 0.  1.
         21   -1    0    0  501  502 -0.00000000000E+00 -0.00000000000E+00 -0.28788148583E+03  0.28788148583E+03  0.00000000000E+00 0.  1.
         25    1    1    2    0    0  0.85114867575E+02  0.16383376438E+03 -0.97814552895E+02  0.24347223618E+03  0.12500000000E+03 0.  0.
         25    1    1    2    0    0 -0.85114867575E+02 -0.16383376438E+03 -0.11233629579E+02  0.22324255300E+03  0.12500000000E+03 0.  0.
</event>
<event>
 4    0  0.2250660E-002  0.1625913E+03  0.7546771E-02  0.1185802E+00
         21   -1    0    0  502  501  0.00000000000E+00  0.00000000000E+00  0.56576728597E+02  0.56576728597E+02  0.00000000000E+00 0.  1.
         21   -1    0    0  501  502 -0.00000000000E+00 -0.00000000000E+00 -0.46725783755E+03  0.46725783755E+03  0.00000000000E+00 0.  1.
         25    1    1    2    0    0 -0.96320232445E+01 -0.10338906084E+03 -0.19668867639E+03  0.25513429639E+03  0.12500000000E+03 0.  0.
         25    1    1    2    0    0  0.96320232445E+01  0.10338906084E+03 -0.21399243256E+03  0.26870026976E+03  0.12500000000E+03 0.  0.
</event>
<event>
 4    0  0.2250660E-002  0.2148090E+03  0.7546771E-02  0.1137813E+00
         21   -1    0    0  502  501  0.00000000000E+00  0.00000000000E+00  0.89218256883E+02  0.89218256883E+02  0.00000000000E+00 0.  1.
         21   -1    0    0  501  502 -0.00000000000E+00 -0.00000000000E+00 -0.51719152815E+03  0.51719152815E+03  0.00000000000E+00 0.  1.
         25    1    1    2    0    0  0.51669578673E+02  0.35323370232E+02  0.16225414899E+02  0.14073290281E+03  0.12500000000E+03 0.  0.
         25    1    1    2    0    0 -0.51669578673E+02 -0.35323370232E+02 -0.44419868617E+03  0.46567688222E+03  0.12500000000E+03 0.  0.
</event>
<event>
 4    0  0.2250660E-002  0.1834538E+03  0.7546771E-02  0.1164502E+00
         21   -1    0    0  502  501  0.00000000000E+00  0.00000000000E+00  0.23509261464E+02  0.23509261464E+02  0.00000000000E+00 0.  1.
         21   -1    0    0  501  502 -0.00000000000E+00 -0.00000000000E+00 -0.14315760687E+04  0.14315760687E+04  0.00000000000E+00 0.  1.
         25    1    1    2    0    0  0.38594137403E+02 -0.12857347580E+03 -0.71635295915E+03  0.73946413584E+03  0.12500000000E+03 0.  0.
         25    1    1    2    0    0 -0.38594137403E+02  0.12857347580E+03 -0.69171384806E+03  0.71562119429E+03  0.12500000000E+03 0.  0.
</event>
<event>
 4    0  0.2250660E-002  0.2499272E+03  0.7546771E-02  0.1113351E+00
         21   -1    0    0  502  501  0.00000000000E+00  0.00000000000E+00  0.63492158446E+02  0.63492158446E+02  0.00000000000E+00 0. -1.
         21   -1    0    0  501  502 -0.00000000000E+00 -0.00000000000E+00 -0.98380060841E+03  0.98380060841E+03  0.00000000000E+00 0. -1.
         25    1    1    2    0    0 -0.13714085129E+02 -0.18421196325E+03 -0.22388436338E+03  0.31602425809E+03  0.12500000000E+03 0.  0.
         25    1    1    2    0    0  0.13714085129E+02  0.18421196325E+03 -0.69642408659E+03  0.73126850877E+03  0.12500000000E+03 0.  0.
</event>
<event>
 4    0  0.2250660E-002  0.2763085E+03  0.7546771E-02  0.1097722E+00
         21   -1    0    0  502  501  0.00000000000E+00  0.00000000000E+00  0.20962683993E+03  0.20962683993E+03  0.00000000000E+00 0.  1.
         21   -1    0    0  501  502 -0.00000000000E+00 -0.00000000000E+00 -0.36420126756E+03  0.36420126756E+03  0.00000000000E+00 0.  1.
         25    1    1    2    0    0  0.21041249402E+03  0.89164833121E+02  0.18433333396E+02  0.26112941788E+03  0.12500000000E+03 0.  0.
         25    1    1    2    0    0 -0.21041249402E+03 -0.89164833121E+02 -0.17300776103E+03  0.31269868960E+03  0.12500000000E+03 0.  0.
</event>
<event>
 4    0  0.2250660E-002  0.2795373E+03  0.7546771E-02  0.1095942E+00
         21   -1    0    0  502  501  0.00000000000E+00  0.00000000000E+00  0.27035109177E+02  0.27035109177E+02  0.00000000000E+00 0. -1.
         21   -1    0    0  501  502 -0.00000000000E+00 -0.00000000000E+00 -0.28903572711E+04  0.28903572711E+04  0.00000000000E+00 0. -1.
         25    1    1    2    0    0 -0.13394892816E+03 -0.16930144302E+03 -0.77344052031E+03  0.81267492420E+03  0.12500000000E+03 0.  0.
         25    1    1    2    0    0  0.13394892816E+03  0.16930144302E+03 -0.20898816416E+04  0.21047174561E+04  0.12500000000E+03 0.  0.
</event>
<event>
 4    0  0.2250660E-002  0.2117873E+03  0.7546771E-02  0.1140158E+00
         21   -1    0    0  502  501  0.00000000000E+00  0.00000000000E+00  0.47063335580E+02  0.47063335580E+02  0.00000000000E+00 0. -1.
         21   -1    0    0  501  502 -0.00000000000E+00 -0.00000000000E+00 -0.95305277717E+03  0.95305277717E+03  0.00000000000E+00 0. -1.
         25    1    1    2    0    0 -0.55202488071E+02 -0.10217281022E+03 -0.15674774052E+03  0.23169258079E+03  0.12500000000E+03 0.  0.
         25    1    1    2    0    0  0.55202488071E+02  0.10217281022E+03 -0.74924170107E+03  0.76842353196E+03  0.12500000000E+03 0.  0.
</event>
<event>
 4    0  0.2250660E-002  0.3502029E+03  0.7546771E-02  0.1062532E+00
         21   -1    0    0  502  501  0.00000000000E+00  0.00000000000E+00  0.12034820917E+04  0.12034820917E+04  0.00000000000E+00 0. -1.
         21   -1    0    0  501  502 -0.00000000000E+00 -0.00000000000E+00 -0.10190604975E+03  0.10190604975E+03  0.00000000000E+00 0. -1.
         25    1    1    2    0    0  0.32683151262E+03  0.42171546987E+01  0.52574947680E+03  0.63156482992E+03  0.12500000000E+03 0.  0.
         25    1    1    2    0    0 -0.32683151262E+03 -0.42171546987E+01  0.57582656514E+03  0.67382331153E+03  0.12500000000E+03 0.  0.
</event>
<event>
 4    0  0.2250660E-002  0.3397529E+03  0.7546771E-02  0.1066901E+00
         21   -1    0    0  502  501  0.00000000000E+00  0.00000000000E+00  0.62591967001E+03  0.62591967001E+03  0.00000000000E+00 0. -1.
         21   -1    0    0  501  502 -0.00000000000E+00 -0.00000000000E+00 -0.18441987135E+03  0.18441987135E+03  0.00000000000E+00 0. -1.
         25    1    1    2    0    0  0.14598880423E+02  0.14707459734E+03 -0.11223001679E+03  0.22375129309E+03  0.12500000000E+03 0.  0.
         25    1    1    2    0    0 -0.14598880423E+02 -0.14707459734E+03  0.55372981544E+03  0.58658824827E+03  0.12500000000E+03 0.  0.
</event>
<event>
 4    0  0.2250660E-002  0.2683463E+03  0.7546771E-02  0.1102230E+00
         21   -1    0    0  502  501  0.00000000000E+00  0.00000000000E+00  0.27329315859E+03  0.27329315859E+03  0.00000000000E+00 0.  1.
         21   -1    0    0  501  502 -0.00000000000E+00 -0.00000000000E+00 -0.26348900880E+03  0.26348900880E+03  0.00000000000E+00 0.  1.
         25    1    1    2    0    0  0.18648287437E+03  0.72726775547E+02  0.13267195864E+03  0.27072475861E+03  0.12500000000E+03 0.  0.
         25    1    1    2    0    0 -0.18648287437E+03 -0.72726775547E+02 -0.12286780885E+03  0.26605740878E+03  0.12500000000E+03 0.  0.
</event>
<event>
 4    0  0.2250660E-002  0.1926671E+03  0.7546771E-02  0.1156078E+00
         21   -1    0    0  502  501  0.00000000000E+00  0.00000000000E+00  0.61254999544E+03  0.61254999544E+03  0.00000000000E+00 0. -1.
         21   -1    0    0  501  502 -0.00000000000E+00 -0.00000000000E+00 -0.60600143370E+02  0.60600143370E+02  0.00000000000E+00 0. -1.
         25    1    1    2    0    0  0.13260925787E+03 -0.47537560017E+02  0.20500195484E+03  0.27838073995E+03  0.12500000000E+03 0.  0.
         25    1    1    2    0    0 -0.13260925787E+03  0.47537560017E+02  0.34694789723E+03  0.39476939886E+03  0.12500000000E+03 0.  0.
</event>
<event>
 4    0  0.2250660E-002  0.1968732E+03  0.7546771E-02  0.1152404E+00
         21   -1    0    0  502  501  0.00000000000E+00  0.00000000000E+00  0.43406494443E+02  0.43406494443E+02  0.00000000000E+00 0.  1.
         21   -1    0    0  501  502 -0.00000000000E+00 -0.00000000000E+00 -0.89293227578E+03  0.89293227578E+03  0.00000000000E+00 0.  1.
         25    1    1    2    0    0  0.84428041905E+02 -0.58349395158E+02 -0.69170943599E+03  0.71036588461E+03  0.12500000000E+03 0.  0.
         25    1    1    2    0    0 -0.84428041905E+02  0.58349395158E+02 -0.15781634535E+03  0.22597288562E+03  0.12500000000E+03 0.  0.
</event>
<event>
 4    0  0.2250660E-002  0.3393908E+03  0.7546771E-02  0.1067056E+00
         21   -1    0    0  502  501  0.00000000000E+00  0.00000000000E+00  0.96045023896E+02  0.96045023896E+02  0.00000000000E+00 0.  1.
         21   -1    0    0  501  502 -0.00000000000E+00 -0.00000000000E+00 -0.11992925665E+04  0.11992925665E+04  0.00000000000E+00 0.  1.
         25    1    1    2    0    0 -0.12199028803E+03  0.58661120387E+02 -0.10955417949E+04  0.11109273522E+04  0.12500000000E+03 0.  0.
         25    1    1    2    0    0  0.12199028803E+03 -0.58661120387E+02 -0.77057477119E+01  0.18441023824E+03  0.12500000000E+03 0.  0.
</event>
<event>
 4    0  0.2250660E-002  0.1986738E+03  0.7546771E-02  0.1150863E+00
         21   -1    0    0  502  501  0.00000000000E+00  0.00000000000E+00  0.13082087508E+03  0.13082087508E+03  0.00000000000E+00 0. -1.
         21   -1    0    0  501  502 -0.00000000000E+00 -0.00000000000E+00 -0.30171993177E+03  0.30171993177E+03  0.00000000000E+00 0. -1.
         25    1    1    2    0    0 -0.52723230065E+02 -0.13623693883E+03 -0.30955477497E+02  0.19473952880E+03  0.12500000000E+03 0.  0.
         25    1    1    2    0    0  0.52723230065E+02  0.13623693883E+03 -0.13994357919E+03  0.23780127806E+03  0.12500000000E+03 0.  0.
</event>
<event>
 4    0  0.2250660E-002  0.2165503E+03  0.7546771E-02  0.1136481E+00
         21   -1    0    0  502  501  0.00000000000E+00  0.00000000000E+00  0.13844897395E+03  0.13844897395E+03  0.00000000000E+00 0. -1.
         21   -1    0    0  501  502 -0.00000000000E+00 -0.00000000000E+00 -0.33870974949E+03  0.33870974949E+03  0.00000000000E+00 0. -1.
         25    1    1    2    0    0  0.13346052387E+03 -0.43776239452E+02  0.18226863523E+02  0.18890550316E+03  0.12500000000E+03 0.  0.
         25    1    1    2    0    0 -0.13346052387E+03  0.43776239452E+02 -0.21848763906E+03  0.28825322027E+03  0.12500000000E+03 0.  0.
</event>
<event>
 4    0  0.2250660E-002  0.1797027E+03  0.7546771E-02  0.1168091E+00
         21   -1    0    0  502  501  0.00000000000E+00  0.00000000000E+00  0.57646919121E+02  0.57646919121E+02  0.00000000000E+00 0.  1.
         21   -1    0    0  501  502 -0.00000000000E+00 -0.00000000000E+00 -0.56018720935E+03  0.56018720935E+03  0.00000000000E+00 0.  1.
         25    1    1    2    0    0 -0.50806432155E+02 -0.98612447581E+01 -0.45459421817E+03  0.47429889404E+03  0.12500000000E+03 0.  0.
         25    1    1    2    0    0  0.50806432155E+02  0.98612447581E+01 -0.47946072060E+02  0.14353523443E+03  0.12500000000E+03 0.  0.
</event>
<event>
 4    0  0.2250660E-002  0.2310978E+03  0.7546771E-02  0.1125869E+00
         21   -1    0    0  502  501  0.00000000000E+00  0.00000000000E+00  0.23391551192E+04  0.23391551192E+04  0.00000000000E+00 0.  1.
         21   -1    0    0  501  502 -0.00000000000E+00 -0.00000000000E+00 -0.22831407405E+02  0.22831407405E+02  0.00000000000E+00 0.  1.
         25    1    1    2    0    0 -0.29063190007E+02 -0.17818965196E+03  0.79018101146E+03  0.82012636341E+03  0.12500000000E+03 0.  0.
         25    1    1    2    0    0  0.29063190007E+02  0.17818965196E+03  0.15261427004E+04  0.15418601632E+04  0.12500000000E+03 0.  0.
</event>
<event>
 4    0  0.2250660E-002  0.2096342E+03  0.7546771E-02  0.1141856E+00
         21   -1    0    0  502  501  0.00000000000E+00  0.00000000000E+00  0.37870987993E+03  0.37870987993E+03  0.00000000000E+00 0.  1.
         21   -1    0    0  501  502 -0.00000000000E+00 -0.00000000000E+00 -0.11604263722E+03  0.11604263722E+03  0.00000000000E+00 0.  1.
         25    1    1    2    0    0  0.19359064728E+02  0.14750647692E+03  0.22416411822E+03  0.29666055690E+03  0.12500000000E+03 0.  0.
         25    1    1    2    0    0 -0.19359064728E+02 -0.14750647692E+03  0.38503124485E+02  0.19809196025E+03  0.12500000000E+03 0.  0.
</event>
<event>
 4    0  0.2250660E-002  0.2765841E+03  0.7546771E-02  0.1097569E+00
         21   -1    0    0  502  501  0.00000000000E+00  0.00000000000E+00  0.10799336129E+04  0.10799336129E+04  0.00000000000E+00 0.  1.
         21   -1    0    0  501  502 -0.00000000000E+00 -0.00000000000E+00 -0.70836518409E+02  0.70836518409E+02  0.00000000000E+00 0.  1.
         25    1    1    2    0    0 -0.42716455638E+02 -0.22042667265E+03  0.29177353704E+03  0.38880510608E+03  0.12500000000E+03 0.  0.
         25    1    1    2    0    0  0.42716455638E+02  0.22042667265E+03  0.71732355746E+03  0.76196502524E+03  0.12500000000E+03 0.  0.
</event>
<event>
 4    0  0.2250660E-002  0.1579598E+03  0.7546771E-02  0.1191020E+00
         21   -1    0    0  502  501  0.00000000000E+00  0.00000000000E+00  0.57529452955E+02  0.57529452955E+02  0.00000000000E+00 0. -1.
         21   -1    0    0  501  502 -0.00000000000E+00 -0.00000000000E+00 -0.43371343469E+03  0.43371343469E+03  0.00000000000E+00 0. -1.
         25    1    1    2    0    0  0.76815616567E+02 -0.33873133210E+02 -0.11387178130E+03  0.18878509125E+03  0.12500000000E+03 0.  0.
         25    1    1    2    0    0 -0.76815616567E+02  0.33873133210E+02 -0.26231220043E+03  0.30245779639E+03  0.12500000000E+03 0.  0.
</event>
<event>
 4    0  0.2250660E-002  0.1876218E+03  0.7546771E-02  0.1160624E+00
         21   -1    0    0  502  501  0.00000000000E+00  0.00000000000E+00  0.43617635664E+03  0.43617635664E+03  0.00000000000E+00 0. -1.
         21   -1    0    0  501  502 -0.00000000000E+00 -0.00000000000E+00 -0.80705724332E+02  0.80705724332E+02  0.00000000000E+00 0. -1.
         25    1    1    2    0    0  0.64049231043E+02 -0.49948917221E+02  0.33466716377E+03  0.36636635876E+03  0.12500000000E+03 0.  0.
         25    1    1    2    0    0 -0.64049231043E+02  0.49948917221E+02  0.20803468539E+02  0.15051572221E+03  0.12500000000E+03 0.  0.
</event>
<event>
 4    0  0.2250660E-002  0.2662105E+03  0.7546771E-02  0.1103468E+00
         21   -1    0    0  502  501  0.00000000000E+00  0.00000000000E+00  0.17425087355E+03  0.17425087355E+03  0.00000000000E+00 0. -1.
         21   -1    0    0  501  502 -0.00000000000E+00 -0.00000000000E+00 -0.40670124209E+03  0.40670124209E+03  0.00000000000E+00 0. -1.
         25    1    1    2    0    0  0.14090924761E+03 -0.11960169076E+03  0.42210132661E+02  0.22708297116E+03  0.12500000000E+03 0.  0.
         25    1    1    2    0    0 -0.14090924761E+03  0.11960169076E+03 -0.27466050120E+03  0.35386914448E+03  0.12500000000E+03 0.  0.
</event>
<event>
 4    0  0.2250660E-002  0.2756204E+03  0.7546771E-02  0.1098105E+00
         21   -1    0    0  502  501  0.00000000000E+00  0.00000000000E+00  0.33397483862E+03  0.33397483862E+03  0.00000000000E+00 0.  1.
         21   -1    0    0  501  502 -0.00000000000E+00 -0.00000000000E+00 -0.22746212421E+03  0.22746212421E+03  0.00000000000E+00 0.  1.
         25    1    1    2    0    0 -0.38863532040E+01 -0.51576143012E+02 -0.19132373054E+03  0.23431810032E+03  0.12500000000E+03 0.  0.
         25    1    1    2    0    0  0.38863532040E+01  0.51576143012E+02  0.29783644496E+03  0.32711886251E+03  0.12500000000E+03 0.  0.
</event>
<event>
 4    0  0.2250660E-002  0.4915046E+03  0.7546771E-02  0.1016020E+00
         21   -1    0    0  502  501  0.00000000000E+00  0.00000000000E+00  0.84547196989E+03  0.84547196989E+03  0.00000000000E+00 0.  1.
         21   -1    0    0  501  502 -0.00000000000E+00 -0.00000000000E+00 -0.28573008043E+03  0.28573008043E+03  0.00000000000E+00 0.  1.
         25    1    1    2    0    0  0.23839712713E+02  0.10755886877E+03 -0.25223879525E+03  0.30230225270E+03  0.12500000000E+03 0.  0.
         25    1    1    2    0    0 -0.23839712713E+02 -0.10755886877E+03  0.81198068472E+03  0.82889979763E+03  0.12500000000E+03 0.  0.
</event>
<event>
 4    0  0.2250660E-002  0.3151036E+03  0.7546771E-02  0.1077925E+00
         21   -1    0    0  502  501  0.00000000000E+00  0.00000000000E+00  0.78264446225E+02  0.78264446225E+02  0.00000000000E+00 0. -1.
         21   -1    0    0  501  502 -0.00000000000E+00 -0.00000000000E+00 -0.12686513906E+04  0.12686513906E+04  0.00000000000E+00 0. -1.
         25    1    1    2    0    0 -0.18614983338E+03 -0.14752035030E+03 -0.24237562733E+03  0.36164203150E+03  0.12500000000E+03 0.  0.
         25    1    1    2    0    0  0.18614983338E+03  0.14752035030E+03 -0.94801131701E+03  0.98527380529E+03  0.12500000000E+03 0.  0.
</event>
<event>
 4    0  0.2250660E-002  0.2464727E+03  0.7546771E-02  0.1115555E+00
         21   -1    0    0  502  501  0.00000000000E+00  0.00000000000E+00  0.24614720004E+03  0.24614720004E+03  0.00000000000E+00 0. -1.
         21   -1    0    0  501  502 -0.00000000000E+00 -0.00000000000E+00 -0.24679854040E+03  0.24679854040E+03  0.00000000000E+00 0. -1.
         25    1    1    2    0    0 -0.18221249425E+03 -0.99830638835E+02  0.43903546382E+02  0.24641442915E+03  0.12500000000E+03 0.  0.
         25    1    1    2    0    0  0.18221249425E+03  0.99830638835E+02 -0.44554886737E+02  0.24653131128E+03  0.12500000000E+03 0.  0.
</event>
<event>
 4    0  0.2250660E-002  0.4951977E+03  0.7546771E-02  0.1015040E+00
         21   -1    0    0  502  501  0.00000000000E+00  0.00000000000E+00  0.17580084086E+03  0.17580084086E+03  0.00000000000E+00 0. -1.
         21   -1    0    0  501  502 -0.00000000000E+00 -0.00000000000E+00 -0.13948783000E+04  0.13948783000E+04  0.00000000000E+00 0. -1.
         25    1    1    2    0    0 -0.28158347291E+02 -0.38530500741E+03 -0.16001492089E+03  0.43644314196E+03  0.12500000000E+03 0.  0.
         25    1    1    2    0    0  0.28158347291E+02  0.38530500741E+03 -0.10590625382E+04  0.11342359989E+04  0.12500000000E+03 0.  0.
</event>
<event>
 4    0  0.2250660E-002  0.1418271E+03  0.7546771E-02  0.1210891E+00
         21   -1    0    0  502  501  0.00000000000E+00  0.00000000000E+00  0.38608367066E+02  0.38608367066E+02  0.00000000000E+00 0.  1.
         21   -1    0    0  501  502 -0.00000000000E+00 -0.00000000000E+00 -0.52099916745E+03  0.52099916745E+03  0.00000000000E+00 0.  1.
         25    1    1    2    0    0  0.31671228084E+02 -0.59021200399E+02 -0.23758001227E+03  0.27668724404E+03  0.12500000000E+03 0.  0.
         25    1    1    2    0    0 -0.31671228084E+02  0.59021200399E+02 -0.24481078811E+03  0.28292029047E+03  0.12500000000E+03 0.  0.
</event>
<event>
 4    0  0.2250660E-002  0.2452753E+03  0.7546771E-02  0.1116328E+00
         21   -1    0    0  502  501  0.00000000000E+00  0.00000000000E+00  0.15096859257E+03  0.15096859257E+03  0.00000000000E+00 0.  1.
         21   -1    0    0  501  502 -0.00000000000E+00 -0.00000000000E+00 -0.39849319862E+03  0.39849319862E+03  0.00000000000E+00 0.  1.
         25    1    1    2    0    0  0.42923215644E+02 -0.20386671818E+03 -0.16142998887E+03  0.29169964438E+03  0.12500000000E+03 0.  0.
         25    1    1    2    0    0 -0.42923215644E+02  0.20386671818E+03 -0.86094617175E+02  0.25776214681E+03  0.12500000000E+03 0.  0.
</event>
<event>
 4    0  0.2250660E-002  0.1598824E+03  0.7546771E-02  0.1188830E+00
         21   -1    0    0  502  501  0.00000000000E+00  0.00000000000E+00  0.90411460319E+02  0.90411460319E+02  0.00000000000E+00 0.  1.
         21   -1    0    0  501  502 -0.00000000000E+00 -0.00000000000E+00 -0.28273398049E+03  0.28273398049E+03  0.00000000000E+00 0.  1.
         25    1    1    2    0    0  0.33483274169E+02 -0.69211190759E+02 -0.22117537179E+02  0.14840991889E+03  0.12500000000E+03 0.  0.
         25    1    1    2    0    0 -0.33483274169E+02  0.69211190759E+02 -0.17020498299E+03  0.22473552192E+03  0.12500000000E+03 0.  0.
</event>
<event>
 4    0  0.2250660E-002  0.2466026E+03  0.7546771E-02  0.1115471E+00
         21   -1    0    0  502  501  0.00000000000E+00  0.00000000000E+00  0.15758243467E+04  0.15758243467E+04  0.00000000000E+00 0. -1.
         21   -1    0    0  501  502 -0.00000000000E+00 -0.00000000000E+00 -0.38591119759E+02  0.38591119759E+02  0.00000000000E+00 0. -1.
         25    1    1    2    0    0 -0.15793306235E+03 -0.41942138386E+02  0.12136649776E+04  0.12309791522E+04  0.12500000000E+03 0.  0.
         25    1    1    2    0    0  0.15793306235E+03  0.41942138386E+02  0.32356824934E+03  0.38343631431E+03  0.12500000000E+03 0.  0.
</event>
<event>
 4    0  0.2250660E-002  0.2081945E+03  0.7546771E-02  0.1143004E+00
         21   -1    0    0  502  501  0.00000000000E+00  0.00000000000E+00  0.22777516887E+02  0.22777516887E+02  0.00000000000E+00 0.  1.
         21   -1    0    0  501  502 -0.00000000000E+00 -0.00000000000E+00 -0.19029699697E+04  0.19029699697E+04  0.00000000000E+00 0.  1.
         25    1    1    2    0    0  0.13918219805E+03 -0.78886601260E+02 -0.72689238046E+03  0.75471339785E+03  0.12500000000E+03 0.  0.
         25    1    1    2    0    0 -0.13918219805E+03  0.78886601260E+02 -0.11533000723E+04  0.11710340887E+04  0.12500000000E+03 0.  0.
</event>
<event>
 4    0  0.2250660E-002  0.2181132E+03  0.7546771E-02  0.1135298E+00
         21   -1    0    0  502  501  0.00000000000E+00  0.00000000000E+00  0.72553817011E+03  0.72553817011E+03  0.00000000000E+00 0. -1.
         21   -1    0    0  501  502 -0.00000000000E+00 -0.00000000000E+00 -0.65569772047E+02  0.65569772047E+02  0.00000000000E+00 0. -1.
         25    1    1    2    0    0 -0.15462983502E+02 -0.34088400075E+02  0.13020274379E+02  0.13113218683E+03  0.12500000000E+03 0.  0.
         25    1    1    2    0    0  0.15462983502E+02  0.34088400075E+02  0.64694812368E+03  0.65997575532E+03  0.12500000000E+03 0.  0.
</event>
<event>
 4    0  0.2250660E-002  0.2335196E+03  0.7546771E-02  0.1124187E+00
         21   -1    0    0  502  501  0.00000000000E+00  0.00000000000E+00  0.15481662818E+03  0.15481662818E+03  0.00000000000E+00 0. -1.
         21   -1    0    0  501  502 -0.00000000000E+00 -0.00000000000E+00 -0.35223232274E+03  0.35223232274E+03  0.00000000000E+00 0. -1.
         25    1    1    2    0    0  0.35177373623E+02 -0.16727180367E+03  0.81579127828E+01  0.21191709572E+03  0.12500000000E+03 0.  0.
         25    1    1    2    0    0 -0.35177373623E+02  0.16727180367E+03 -0.20557360734E+03  0.29513185520E+03  0.12500000000E+03 0.  0.
</event>
<event>
 4    0  0.2250660E-002  0.2363951E+03  0.7546771E-02  0.1122218E+00
         21   -1    0    0  502  501  0.00000000000E+00  0.00000000000E+00  0.68408611678E+03  0.68408611678E+03  0.00000000000E+00 0.  1.
         21   -1    0    0  501  502 -0.00000000000E+00 -0.00000000000E+00 -0.81689510522E+02  0.81689510522E+02  0.00000000000E+00 0.  1.
         25    1    1    2    0    0  0.14880493664E+03  0.20046870522E+02  0.51676294336E+03  0.55246151523E+03  0.12500000000E+03 0.  0.
         25    1    1    2    0    0 -0.14880493664E+03 -0.20046870522E+02  0.85633662904E+02  0.21331411207E+03  0.12500000000E+03 0.  0.
</event>
<event>
 4    0  0.2250660E-002  0.2437446E+03  0.7546771E-02  0.1117323E+00
         21   -1    0    0  502  501  0.00000000000E+00  0.00000000000E+00  0.17778391358E+03  0.17778391358E+03  0.00000000000E+00 0.  1.
         21   -1    0    0  501  502 -0.00000000000E+00 -0.00000000000E+00 -0.33417776011E+03  0.33417776011E+03  0.00000000000E+00 0.  1.
         25    1    1    2    0    0  0.23173995939E+02 -0.94549024811E+02  0.11633103900E+03  0.19655651303E+03  0.12500000000E+03 0.  0.
         25    1    1    2    0    0 -0.23173995939E+02  0.94549024811E+02 -0.27272488554E+03  0.31540516066E+03  0.12500000000E+03 0.  0.
</event>
<event>
 4    0  0.2250660E-002  0.2234834E+03  0.7546771E-02  0.1131312E+00
         21   -1    0    0  502  501  0.00000000000E+00  0.00000000000E+00  0.22725739526E+03  0.22725739526E+03  0.00000000000E+00 0. -1.
         21   -1    0    0  501  502 -0.00000000000E+00 -0.00000000000E+00 -0.21977202178E+03  0.21977202178E+03  0.00000000000E+00 0. -1.
         25    1    1    2    0    0  0.37061666914E+02 -0.13076679536E+03  0.12964240717E+03  0.22562286157E+03  0.12500000000E+03 0.  0.
         25    1    1    2    0    0 -0.37061666914E+02  0.13076679536E+03 -0.12215703369E+03  0.22140655547E+03  0.12500000000E+03 0.  0.
</event>
<event>
 4    0  0.2250660E-002  0.2333819E+03  0.7546771E-02  0.1124282E+00
         21   -1    0    0  502  501  0.00000000000E+00  0.00000000000E+00  0.10805659303E+04  0.10805659303E+04  0.00000000000E+00 0. -1.
         21   -1    0    0  501  502 -0.00000000000E+00 -0.00000000000E+00 -0.50406087397E+02  0.50406087397E+02  0.00000000000E+00 0. -1.
         25    1    1    2    0    0 -0.34452468088E+02 -0.18614964090E+02  0.98309438724E+03  0.99178277040E+03  0.12500000000E+03 0.  0.
         25    1    1    2    0    0  0.34452468088E+02  0.18614964090E+02  0.47065455662E+02  0.13918924729E+03  0.12500000000E+03 0.  0.
</event>
<event>
 4    0  0.2250660E-002  0.2922568E+03  0.7546771E-02  0.1089177E+00
         21   -1    0    0  502  501  0.00000000000E+00  0.00000000000E+00  0.57857910187E+03  0.57857910187E+03  0.00000000000E+00 0.  1.
         21   -1    0    0  501  502 -0.00000000000E+00 -0.00000000000E+00 -0.14762724384E+03  0.14762724384E+03  0.00000000000E+00 0.  1.
         25    1    1    2    0    0 -0.36476053972E+02 -0.25076581758E+03  0.12270980207E+03  0.30805306898E+03  0.12500000000E+03 0.  0.
         25    1    1    2    0    0  0.36476053972E+02  0.25076581758E+03  0.30824205595E+03  0.41815327673E+03  0.12500000000E+03 0.  0.
</event>
<event>
 4    0  0.2250660E-002  0.3018935E+03  0.7546771E-02  0.1084298E+00
         21   -1    0    0  502  501  0.00000000000E+00  0.00000000000E+00  0.28360771271E+03  0.28360771271E+03  0.00000000000E+00 0. -1.
         21   -1    0    0  501  502 -0.00000000000E+00 -0.00000000000E+00 -0.32135831266E+03  0.32135831266E+03  0.00000000000E+00 0. -1.
         25    1    1    2    0    0 -0.81914181666E+02  0.25415984341E+03 -0.83867489224E+02  0.30653860264E+03  0.12500000000E+03 0.  0.
         25    1    1    2    0    0  0.81914181666E+02 -0.25415984341E+03  0.46116889278E+02  0.29842742273E+03  0.12500000000E+03 0.  0.
</event>
<event>
 4    0  0.2250660E-002  0.4418249E+03  0.7546771E-02  0.1030188E+00
         21   -1    0    0  502  501  0.00000000000E+00  0.00000000000E+00  0.42202128498E+03  0.42202128498E+03  0.00000000000E+00 0.  1.
         21   -1    0    0  501  502 -0.00000000000E+00 -0.00000000000E+00 -0.46255775018E+03  0.46255775018E+03  0.00000000000E+00 0.  1.
         25    1    1    2    0    0  0.31166501370E+02  0.11599482033E+03 -0.42709206194E+03  0.46093250972E+03  0.12500000000E+03 0.  0.
         25    1    1    2    0    0 -0.31166501370E+02 -0.11599482033E+03  0.38655559673E+03  0.42364652544E+03  0.12500000000E+03 0.  0.
</event>
<event>
 4    0  0.2250660E-002  0.1895238E+03  0.7546771E-02  0.1158892E+00
         21   -1    0    0  502  501  0.00000000000E+00  0.00000000000E+00  0.92876432964E+02  0.92876432964E+02  0.00000000000E+00 0.  1.
         21   -1    0    0  501  502 -0.00000000000E+00 -0.00000000000E+00 -0.38674268174E+03  0.38674268174E+03  0.00000000000E+00 0.  1.
         25    1    1    2    0    0 -0.13306176983E+03 -0.43936051285E+02 -0.11446400401E+03  0.21991548242E+03  0.12500000000E+03 0.  0.
         25    1    1    2    0    0  0.13306176983E+03  0.43936051285E+02 -0.17940224477E+03  0.25970363228E+03  0.12500000000E+03 0.  0.
</event>
<event>
 4    0  0.2250660E-002  0.1484232E+03  0.7546771E-02  0.1202424E+00
         21   -1    0    0  502  501  0.00000000000E+00  0.00000000000E+00  0.22523072539E+03  0.22523072539E+03  0.00000000000E+00 0. -1.
         21   -1    0    0  501  502 -0.00000000000E+00 -0.00000000000E+00 -0.97808403395E+02  0.97808403395E+02  0.00000000000E+00 0. -1.
         25    1    1    2    0    0  0.12310670802E+02 -0.16779878455E+02 -0.20381705740E+02  0.12834925347E+03  0.12500000000E+03 0.  0.
         25    1    1    2    0    0 -0.12310670802E+02  0.16779878455E+02  0.14780402773E+03  0.19468987531E+03  0.12500000000E+03 0.  0.
</event>
<event>
 4    0  0.2250660E-002  0.3231897E+03  0.7546771E-02  0.1074191E+00
         21   -1    0    0  502  501  0.00000000000E+00  0.00000000000E+00  0.37459220359E+03  0.37459220359E+03  0.00000000000E+00 0.  1.
         21   -1    0    0  501  502 -0.00000000000E+00 -0.00000000000E+00 -0.27884074881E+03  0.27884074881E+03  0.00000000000E+00 0.  1.
         25    1    1    2    0    0 -0.15291703636E+03 -0.55981527984E+02  0.30021741674E+03  0.36369361941E+03  0.12500000000E+03 0.  0.
         25    1    1    2    0    0  0.15291703636E+03  0.55981527984E+02 -0.20446596195E+03  0.28973933299E+03  0.12500000000E+03 0.  0.
</event>
<event>
 4    0  0.2250660E-002  0.3491493E+03  0.7546771E-02  0.1062965E+00
         21   -1    0    0  502  501  0.00000000000E+00  0.00000000000E+00  0.79290094444E+02  0.79290094444E+02  0.00000000000E+00 0. -1.
         21   -1    0    0  501  502 -0.00000000000E+00 -0.00000000000E+00 -0.15374582688E+04  0.15374582688E+04  0.00000000000E+00 0. -1.
         25    1    1    2    0    0 -0.51390074546E+02 -0.87655189097E+02 -0.14462786739E+04  0.14552221048E+04  0.12500000000E+03 0.  0.
         25    1    1    2    0    0  0.51390074546E+02  0.87655189097E+02 -0.11889500508E+02  0.16152625842E+03  0.12500000000E+03 0.  0.
</event>
<event>
 4    0  0.2250660E-002  0.3899393E+03  0.7546771E-02  0.1047320E+00
         21   -1    0    0  502  501  0.00000000000E+00  0.00000000000E+00  0.56922697380E+03  0.56922697380E+03  0.00000000000E+00 0.  1.
         21   -1    0    0  501  502 -0.00000000000E+00 -0.00000000000E+00 -0.26712129145E+03  0.26712129145E+03  0.00000000000E+00 0.  1.
         25    1    1    2    0    0  0.33260437350E+03 -0.14038535940E+03  0.67336784577E+02  0.38793422247E+03  0.12500000000E+03 0.  0.
         25    1    1    2    0    0 -0.33260437350E+03  0.14038535940E+03  0.23476889776E+03  0.44841404278E+03  0.12500000000E+03 0.  0.
</event>
<event>
 4    0  0.2250660E-002  0.1735669E+03  0.7546771E-02  0.1174178E+00
         21   -1    0    0  502  501  0.00000000000E+00  0.00000000000E+00  0.36760874936E+03  0.36760874936E+03  0.00000000000E+00 0.  1.
         21   -1    0    0  501  502 -0.00000000000E+00 -0.00000000000E+00 -0.81949774951E+02  0.81949774951E+02  0.00000000000E+00 0.  1.
         25    1    1    2    0    0  0.34564416195E+02  0.40013555101E+02  0.28293945753E+03  0.31380809436E+03  0.12500000000E+03 0.  0.
         25    1    1    2    0    0 -0.34564416195E+02 -0.40013555101E+02  0.27195168753E+01  0.13575042995E+03  0.12500000000E+03 0.  0.
</event>
<event>
 4    0  0.2250660E-002  0.3169776E+03  0.7546771E-02  0.1077049E+00
         21   -1    0    0  502  501  0.00000000000E+00  0.00000000000E+00  0.11237688891E+03  0.11237688891E+03  0.00000000000E+00 0. -1.
         21   -1    0    0  501  502 -0.00000000000E+00 -0.00000000000E+00 -0.89408779978E+03  0.89408779978E+03  0.00000000000E+00 0. -1.
         25    1    1    2    0    0  0.18585577469E+03  0.85633614483E+02 -0.71996802475E+03  0.75885073735E+03  0.12500000000E+03 0.  0.
         25    1    1    2    0    0 -0.18585577469E+03 -0.85633614483E+02 -0.61742886117E+02  0.24761395135E+03  0.12500000000E+03 0.  0.
</event>
<event>
 4    0  0.2250660E-002  0.2270306E+03  0.7546771E-02  0.1128747E+00
         21   -1    0    0  502  501  0.00000000000E+00  0.00000000000E+00  0.43090243983E+03  0.43090243983E+03  0.00000000000E+00 0.  1.
         21   -1    0    0  501  502 -0.00000000000E+00 -0.00000000000E+00 -0.11961620794E+03  0.11961620794E+03  0.00000000000E+00 0.  1.
         25    1    1    2    0    0  0.13320741221E+03 -0.91027471976E+02  0.27620365998E+03  0.34342928982E+03  0.12500000000E+03 0.  0.
         25    1    1    2    0    0 -0.13320741221E+03  0.91027471976E+02  0.35082571907E+02  0.20708935794E+03  0.12500000000E+03 0.  0.
</event>
<event>
 4    0  0.2250660E-002  0.2014504E+03  0.7546771E-02  0.1148521E+00
         21   -1    0    0  502  501  0.00000000000E+00  0.00000000000E+00  0.21987539215E+03  0.21987539215E+03  0.00000000000E+00 0.  1.
         21   -1    0    0  501  502 -0.00000000000E+00 -0.00000000000E+00 -0.18456939673E+03  0.18456939673E+03  0.00000000000E+00 0.  1.
         25    1    1    2    0    0 -0.17877298505E+02  0.65769383773E+02  0.16071953357E+03  0.21471138329E+03  0.12500000000E+03 0.  0.
         25    1    1    2    0    0  0.17877298505E+02 -0.65769383773E+02 -0.12541353816E+03  0.18973340559E+03  0.12500000000E+03 0.  0.
</event>
<event>
 4    0  0.2250660E-002  0.2007561E+03  0.7546771E-02  0.1149103E+00
         21   -1    0    0  502  501  0.00000000000E+00  0.00000000000E+00  0.33552623919E+03  0.33552623919E+03  0.00000000000E+00 0.  1.
         21   -1    0    0  501  502 -0.00000000000E+00 -0.00000000000E+00 -0.12011882713E+03  0.12011882713E+03  0.00000000000E+00 0.  1.
         25    1    1    2    0    0 -0.12826868627E+03  0.36191998791E+01  0.48656049219E+01  0.17920554846E+03  0.12500000000E+03 0.  0.
         25    1    1    2    0    0  0.12826868627E+03 -0.36191998791E+01  0.21054180714E+03  0.27643951787E+03  0.12500000000E+03 0.  0.
</event>
<event>
 4    0  0.2250660E-002  0.1593453E+03  0.7546771E-02  0.1189438E+00
         21   -1    0    0  502  501  0.00000000000E+00  0.00000000000E+00  0.11928050883E+03  0.11928050883E+03  0.00000000000E+00 0.  1.
         21   -1    0    0  501  502 -0.00000000000E+00 -0.00000000000E+00 -0.21286732962E+03  0.21286732962E+03  0.00000000000E+00 0.  1.
         25    1    1    2    0    0 -0.61783790380E+02 -0.39489459450E+02  0.22255733359E+02  0.14661845664E+03  0.12500000000E+03 0.  0.
         25    1    1    2    0    0  0.61783790380E+02  0.39489459450E+02 -0.11584255415E+03  0.18552938181E+03  0.12500000000E+03 0.  0.
</event>
<event>
 4    0  0.2250660E-002  0.2451146E+03  0.7546771E-02  0.1116432E+00
         21   -1    0    0  502  501  0.00000000000E+00  0.00000000000E+00  0.10094887110E+03  0.10094887110E+03  0.00000000000E+00 0. -1.
         21   -1    0    0  501  502 -0.00000000000E+00 -0.00000000000E+00 -0.59516437510E+03  0.59516437510E+03  0.00000000000E+00 0. -1.
         25    1    1    2    0    0  0.57064995541E+02 -0.18742921928E+03 -0.13647678967E+03  0.26951259724E+03  0.12500000000E+03 0.  0.
         25    1    1    2    0    0 -0.57064995541E+02  0.18742921928E+03 -0.35773871433E+03  0.42660064895E+03  0.12500000000E+03 0.  0.
</event>
<event>
 4    0  0.2250660E-002  0.2942803E+03  0.7546771E-02  0.1088135E+00
         21   -1    0    0  502  501  0.00000000000E+00  0.00000000000E+00  0.52002264647E+02  0.52002264647E+02  0.00000000000E+00 0. -1.
         21   -1    0    0  501  502 -0.00000000000E+00 -0.00000000000E+00 -0.16653295465E+04  0.16653295465E+04  0.00000000000E+00 0. -1.
         25    1    1    2    0    0  0.20288752768E+03  0.16354357530E+03 -0.64509645081E+03  0.70688349871E+03  0.12500000000E+03 0.  0.
         25    1    1    2    0    0 -0.20288752768E+03 -0.16354357530E+03 -0.96823083105E+03  0.10104483124E+04  0.12500000000E+03 0.  0.
</event>
<event>
 4    0  0.2250660E-002  0.2065315E+03  0.7546771E-02  0.1144342E+00
         21   -1    0    0  502  501  0.00000000000E+00  0.00000000000E+00  0.31382198090E+03  0.31382198090E+03  0.00000000000E+00 0. -1.
         21   -1    0    0  501  502 -0.00000000000E+00 -0.00000000000E+00 -0.13592189503E+03  0.13592189503E+03  0.00000000000E+00 0. -1.
         25    1    1    2    0    0 -0.16010472022E+03  0.32258066155E+02  0.10949853829E+03  0.23300007330E+03  0.12500000000E+03 0.  0.
         25    1    1    2    0    0  0.16010472022E+03 -0.32258066155E+02  0.68401547581E+02  0.21674380263E+03  0.12500000000E+03 0.  0.
</event>
<event>
 4    0  0.2250660E-002  0.1862209E+03  0.7546771E-02  0.1161915E+00
         21   -1    0    0  502  501  0.00000000000E+00  0.00000000000E+00  0.49671446313E+02  0.49671446313E+02  0.00000000000E+00 0. -1.
         21   -1    0    0  501  502 -0.00000000000E+00 -0.00000000000E+00 -0.69815204481E+03  0.69815204481E+03  0.00000000000E+00 0. -1.
         25    1    1    2    0    0  0.27943157894E+02 -0.57925122765E+02 -0.56947540186E+03  0.58656915470E+03  0.12500000000E+03 0.  0.
         25    1    1    2    0    0 -0.27943157894E+02  0.57925122765E+02 -0.79005196640E+02  0.16125433643E+03  0.12500000000E+03 0.  0.
</event>
<event>
 4    0  0.2250660E-002  0.2466901E+03  0.7546771E-02  0.1115415E+00
         21   -1    0    0  502  501  0.00000000000E+00  0.00000000000E+00  0.99827553599E+02  0.99827553599E+02  0.00000000000E+00 0. -1.
         21   -1    0    0  501  502 -0.00000000000E+00 -0.00000000000E+00 -0.60961109187E+03  0.60961109187E+03  0.00000000000E+00 0. -1.
         25    1    1    2    0    0  0.56403253774E+02 -0.41552086603E+02  0.33850294730E+02  0.14723703811E+03  0.12500000000E+03 0.  0.
         25    1    1    2    0    0 -0.56403253774E+02  0.41552086603E+02 -0.54363383300E+03  0.56220160736E+03  0.12500000000E+03 0.  0.
</event>
<event>
 4    0  0.2250660E-002  0.1934116E+03  0.7546771E-02  0.1155420E+00
         21   -1    0    0  502  501  0.00000000000E+00  0.00000000000E+00  0.14359045085E+03  0.14359045085E+03  0.00000000000E+00 0.  1.
         21   -1    0    0  501  502 -0.00000000000E+00 -0.00000000000E+00 -0.26051902349E+03  0.26051902349E+03  0.00000000000E+00 0.  1.
         25    1    1    2    0    0 -0.71976267028E+02  0.69651399895E+02 -0.17171125911E+03  0.23482260757E+03  0.12500000000E+03 0.  0.
         25    1    1    2    0    0  0.71976267028E+02 -0.69651399895E+02  0.54782686465E+02  0.16928686676E+03  0.12500000000E+03 0.  0.
</event>
<event>
 4    0  0.2250660E-002  0.2298670E+03  0.7546771E-02  0.1126733E+00
         21   -1    0    0  502  501  0.00000000000E+00  0.00000000000E+00  0.57091905530E+02  0.57091905530E+02  0.00000000000E+00 0.  1.
         21   -1    0    0  501  502 -0.00000000000E+00 -0.00000000000E+00 -0.92550485439E+03  0.92550485439E+03  0.00000000000E+00 0.  1.
         25    1    1    2    0    0 -0.14329702104E+03 -0.51538484121E+02 -0.68731001738E+03  0.71498972830E+03  0.12500000000E+03 0.  0.
         25    1    1    2    0    0  0.14329702104E+03  0.51538484121E+02 -0.18110293149E+03  0.26760703163E+03  0.12500000000E+03 0.  0.
</event>
<event>
 4    0  0.2250660E-002  0.3062377E+03  0.7546771E-02  0.1082163E+00
         21   -1    0    0  502  501  0.00000000000E+00  0.00000000000E+00  0.36544580832E+02  0.36544580832E+02  0.00000000000E+00 0.  1.
         21   -1    0    0  501  502 -0.00000000000E+00 -0.00000000000E+00 -0.25662230648E+04  0.25662230648E+04  0.00000000000E+00 0.  1.
         25    1    1    2    0    0 -0.15097887003E+03 -0.22281447854E+03 -0.94356274210E+03  0.98912919243E+03  0.12500000000E+03 0.  0.
         25    1    1    2    0    0  0.15097887003E+03  0.22281447854E+03 -0.15861157418E+04  0.16136384532E+04  0.12500000000E+03 0.  0.
</event>
<event>
 4    0  0.2250660E-002  0.2590077E+03  0.7546771E-02  0.1107741E+00
         21   -1    0    0  502  501  0.00000000000E+00  0.00000000000E+00  0.86908681938E+02  0.86908681938E+02  0.00000000000E+00 0.  1.
         21   -1    0    0  501  502 -0.00000000000E+00 -0.00000000000E+00 -0.77190184860E+03  0.77190184860E+03  0.00000000000E+00 0.  1.
         25    1    1    2    0    0 -0.20080769572E+03  0.99047517027E+02 -0.28212969076E+03  0.38125621792E+03  0.12500000000E+03 0.  0.
         25    1    1    2    0    0  0.20080769572E+03 -0.99047517027E+02 -0.40286347590E+03  0.47755431262E+03  0.12500000000E+03 0.  0.
</event>
<event>
 4    0  0.2250660E-002  0.2528266E+03  0.7546771E-02  0.1111531E+00
         21   -1    0    0  502  501  0.00000000000E+00  0.00000000000E+00  0.88873534629E+02  0.88873534629E+02  0.00000000000E+00 0. -1.
         21   -1    0    0  501  502 -0.00000000000E+00 -0.00000000000E+00 -0.71923887836E+03  0.71923887836E+03  0.00000000000E+00 0. -1.
         25    1    1    2    0    0 -0.46111033189E+02 -0.19294106470E+03 -0.46632304561E+03  0.52195274182E+03  0.12500000000E+03 0.  0.
         25    1    1    2    0    0  0.46111033189E+02  0.19294106470E+03 -0.16404229812E+03  0.28615967117E+03  0.12500000000E+03 0.  0.
</event>
<event>
 4    0  0.2250660E-002  0.2080517E+03  0.7546771E-02  0.1143118E+00
         21   -1    0    0  502  501  0.00000000000E+00  0.00000000000E+00  0.49848673985E+02  0.49848673985E+02  0.00000000000E+00 0. -1.
         21   -1    0    0  501  502 -0.00000000000E+00 -0.00000000000E+00 -0.86833819015E+03  0.86833819015E+03  0.00000000000E+00 0. -1.
         25    1    1    2    0    0 -0.15992732331E+03  0.28908681036E+01 -0.50977133295E+03  0.54870476375E+03  0.12500000000E+03 0.  0.
         25    1    1    2    0    0  0.15992732331E+03 -0.28908681036E+01 -0.30871818321E+03  0.36948210038E+03  0.12500000000E+03 0.  0.
</event>
<event>
 4    0  0.2250660E-002  0.2338185E+03  0.7546771E-02  0.1123981E+00
         21   -1    0    0  502  501  0.00000000000E+00  0.00000000000E+00  0.11347987175E+03  0.11347987175E+03  0.00000000000E+00 0.  1.
         21   -1    0    0  501  502 -0.00000000000E+00 -0.00000000000E+00 -0.48176922793E+03  0.48176922793E+03  0.00000000000E+00 0.  1.
         25    1    1    2    0    0  0.26346138991E+02 -0.19211239281E+03 -0.13576125062E+03  0.26768901300E+03  0.12500000000E+03 0.  0.
         25    1    1    2    0    0 -0.26346138991E+02  0.19211239281E+03 -0.23252810557E+03  0.32756008669E+03  0.12500000000E+03 0.  0.
</event>
<event>
 4    0  0.2250660E-002  0.3479056E+03  0.7546771E-02  0.1063478E+00
         21   -1    0    0  502  501  0.00000000000E+00  0.00000000000E+00  0.39969099951E+03  0.39969099951E+03  0.00000000000E+00 0. -1.
         21   -1    0    0  501  502 -0.00000000000E+00 -0.00000000000E+00 -0.30282975413E+03  0.30282975413E+03  0.00000000000E+00 0. -1.
         25    1    1    2    0    0 -0.22980913464E+03 -0.22829039469E+03  0.70656168635E+02  0.35432476182E+03  0.12500000000E+03 0.  0.
         25    1    1    2    0    0  0.22980913464E+03  0.22829039469E+03  0.26205076738E+02  0.34819599182E+03  0.12500000000E+03 0.  0.
</event>
<event>
 4    0  0.2250660E-002  0.1961842E+03  0.7546771E-02  0.1152999E+00
         21   -1    0    0  502  501  0.00000000000E+00  0.00000000000E+00  0.41997216477E+02  0.41997216477E+02  0.00000000000E+00 0. -1.
         21   -1    0    0  501  502 -0.00000000000E+00 -0.00000000000E+00 -0.91644751431E+03  0.91644751431E+03  0.00000000000E+00 0. -1.
         25    1    1    2    0    0 -0.37176880469E+02 -0.72859833974E+02 -0.74786883430E+03  0.76264242549E+03  0.12500000000E+03 0.  0.
         25    1    1    2    0    0  0.37176880469E+02  0.72859833974E+02 -0.12658146354E+03  0.19580230530E+03  0.12500000000E+03 0.  0.
</event>
<event>
 4    0  0.2250660E-002  0.2564253E+03  0.7546771E-02  0.1109310E+00
         21   -1    0    0  502  501  0.00000000000E+00  0.00000000000E+00  0.74149671318E+02  0.74149671318E+02  0.00000000000E+00 0. -1.
         21   -1    0    0  501  502 -0.00000000000E+00 -0.00000000000E+00 -0.88677305527E+03  0.88677305527E+03  0.00000000000E+00 0. -1.
         25    1    1    2    0    0 -0.13639655178E+03  0.10915488068E+03 -0.66869594762E+03  0.70235181901E+03  0.12500000000E+03 0.  0.
         25    1    1    2    0    0  0.13639655178E+03 -0.10915488068E+03 -0.14392743633E+03  0.25857090757E+03  0.12500000000E+03 0.  0.
</event>
<event>
 4    0  0.2250660E-002  0.2564092E+03  0.7546771E-02  0.1109320E+00
         21   -1    0    0  502  501  0.00000000000E+00  0.00000000000E+00  0.58039570408E+02  0.58039570408E+02  0.00000000000E+00 0.  1.
         21   -1    0    0  501  502 -0.00000000000E+00 -0.00000000000E+00 -0.11327732177E+04  0.11327732177E+04  0.00000000000E+00 0.  1.
         25    1    1    2    0    0 -0.21142307239E+03 -0.71921137002E+02 -0.57395771858E+03  0.62843044818E+03  0.12500000000E+03 0.  0.
         25    1    1    2    0    0  0.21142307239E+03  0.71921137002E+02 -0.50077592876E+03  0.56238233997E+03  0.12500000000E+03 0.  0.
</event>
<event>
 4    0  0.2250660E-002  0.2044606E+03  0.7546771E-02  0.1146029E+00
         21   -1    0    0  502  501  0.00000000000E+00  0.00000000000E+00  0.92028094860E+02  0.92028094860E+02  0.00000000000E+00 0.  1.
         21   -1    0    0  501  502 -0.00000000000E+00 -0.00000000000E+00 -0.45425409180E+03  0.45425409180E+03  0.00000000000E+00 0.  1.
         25    1    1    2    0    0 -0.13270206828E+03  0.40479138006E+02 -0.29232897498E+03  0.34688561393E+03  0.12500000000E+03 0.  0.
         25    1    1    2    0    0  0.13270206828E+03 -0.40479138006E+02 -0.69897021961E+02  0.19939657273E+03  0.12500000000E+03 0.  0.
</event>
<event>
 4    0  0.2250660E-002  0.2304178E+03  0.7546771E-02  0.1126346E+00
         21   -1    0    0  502  501  0.00000000000E+00  0.00000000000E+00  0.35890000803E+02  0.35890000803E+02  0.00000000000E+00 0. -1.
         21   -1    0    0  501  502 -0.00000000000E+00 -0.00000000000E+00 -0.14793072940E+04  0.14793072940E+04  0.00000000000E+00 0. -1.
         25    1    1    2    0    0 -0.15130823050E+03 -0.77537197053E+01 -0.32561083665E+03  0.38026532544E+03  0.12500000000E+03 0.  0.
         25    1    1    2    0    0  0.15130823050E+03  0.77537197053E+01 -0.11178064565E+04  0.11349319693E+04  0.12500000000E+03 0.  0.
</event>
<event>
 4    0  0.2250660E-002  0.2633028E+03  0.7546771E-02  0.1105175E+00
         21   -1    0    0  502  501  0.00000000000E+00  0.00000000000E+00  0.61904109892E+02  0.61904109892E+02  0.00000000000E+00 0.  1.
         21   -1    0    0  501  502 -0.00000000000E+00 -0.00000000000E+00 -0.11199317663E+04  0.11199317663E+04  0.00000000000E+00 0.  1.
         25    1    1    2    0    0 -0.16032989511E+02 -0.10228970312E+03 -0.63727046777E+02  0.17437424296E+03  0.12500000000E+03 0.  0.
         25    1    1    2    0    0  0.16032989511E+02  0.10228970312E+03 -0.99430060959E+03  0.10074616332E+04  0.12500000000E+03 0.  0.
</event>
<event>
 4    0  0.2250660E-002  0.1638854E+03  0.7546771E-02  0.1184379E+00
         21   -1    0    0  502  501  0.00000000000E+00  0.00000000000E+00  0.18780506202E+03  0.18780506202E+03  0.00000000000E+00 0.  1.
         21   -1    0    0  501  502 -0.00000000000E+00 -0.00000000000E+00 -0.14301218827E+03  0.14301218827E+03  0.00000000000E+00 0.  1.
         25    1    1    2    0    0 -0.27781879131E+02 -0.96465633135E+02  0.56711887174E+02  0.17005495974E+03  0.12500000000E+03 0.  0.
         25    1    1    2    0    0  0.27781879131E+02  0.96465633135E+02 -0.11919013420E+02  0.16076229056E+03  0.12500000000E+03 0.  0.
</event>
<event>
 4    0  0.2250660E-002  0.3602417E+03  0.7546771E-02  0.1058488E+00
         21   -1    0    0  502  501  0.00000000000E+00  0.00000000000E+00  0.18807906323E+04  0.18807906323E+04  0.00000000000E+00 0. -1.
         21   -1    0    0  501  502 -0.00000000000E+00 -0.00000000000E+00 -0.68999746234E+02  0.68999746234E+02  0.00000000000E+00 0. -1.
         25    1    1    2    0    0  0.31781983439E+03  0.55111652655E+02  0.11778991583E+04  0.12276474121E+04  0.12500000000E+03 0.  0.
         25    1    1    2    0    0 -0.31781983439E+03 -0.55111652655E+02  0.63389172776E+03  0.72214296639E+03  0.12500000000E+03 0.  0.
</event>
<event>
 4    0  0.2250660E-002  0.1945776E+03  0.7546771E-02  0.1154396E+00
         21   -1    0    0  502  501  0.00000000000E+00  0.00000000000E+00  0.10863986710E+03  0.10863986710E+03  0.00000000000E+00 0.  1.
         21   -1    0    0  501  502 -0.00000000000E+00 -0.00000000000E+00 -0.34849480243E+03  0.34849480243E+03  0.00000000000E+00 0.  1.
         25    1    1    2    0    0  0.51732545914E+02  0.12945093649E+03 -0.18210401675E+03  0.26119087691E+03  0.12500000000E+03 0.  0.
         25    1    1    2    0    0 -0.51732545914E+02 -0.12945093649E+03 -0.57750918580E+02  0.19594379261E+03  0.12500000000E+03 0.  0.
</event>
<event>
 4    0  0.2250660E-002  0.2185136E+03  0.7546771E-02  0.1134996E+00
         21   -1    0    0  502  501  0.00000000000E+00  0.00000000000E+00  0.96084749665E+02  0.96084749665E+02  0.00000000000E+00 0. -1.
         21   -1    0    0  501  502 -0.00000000000E+00 -0.00000000000E+00 -0.49693809176E+03  0.49693809176E+03  0.00000000000E+00 0. -1.
         25    1    1    2    0    0 -0.73620025142E+02  0.15575481331E+03 -0.26750576499E+03  0.34185348364E+03  0.12500000000E+03 0.  0.
         25    1    1    2    0    0  0.73620025142E+02 -0.15575481331E+03 -0.13334757710E+03  0.25116935778E+03  0.12500000000E+03 0.  0.
</event>
<event>
 4    0  0.2250660E-002  0.2012397E+03  0.7546771E-02  0.1148697E+00
         21   -1    0    0  502  501  0.00000000000E+00  0.00000000000E+00  0.10555826386E+03  0.10555826386E+03  0.00000000000E+00 0. -1.
         21   -1    0    0  501  502 -0.00000000000E+00 -0.00000000000E+00 -0.38364983209E+03  0.38364983209E+03  0.00000000000E+00 0. -1.
         25    1    1    2    0    0 -0.13563372976E+03 -0.14146988796E+01 -0.41247099423E+02  0.18901014055E+03  0.12500000000E+03 0.  0.
         25    1    1    2    0    0  0.13563372976E+03  0.14146988796E+01 -0.23684446881E+03  0.30019795540E+03  0.12500000000E+03 0.  0.
</event>
<event>
 4    0  0.2250660E-002  0.1676763E+03  0.7546771E-02  0.1180293E+00
         21   -1    0    0  502  501  0.00000000000E+00  0.00000000000E+00  0.17778679122E+03  0.17778679122E+03  0.00000000000E+00 0.  1.
         21   -1    0    0  501  502 -0.00000000000E+00 -0.00000000000E+00 -0.15814070473E+03  0.15814070473E+03  0.00000000000E+00 0.  1.
         25    1    1    2    0    0 -0.37838974572E+01  0.11121030964E+03 -0.60045016623E+00  0.16735414961E+03  0.12500000000E+03 0.  0.
         25    1    1    2    0    0  0.37838974572E+01 -0.11121030964E+03  0.20246536659E+02  0.16857334634E+03  0.12500000000E+03 0.  0.
</event>
<event>
 4    0  0.2250660E-002  0.2605880E+03  0.7546771E-02  0.1106790E+00
         21   -1    0    0  502  501  0.00000000000E+00  0.00000000000E+00  0.64232319884E+02  0.64232319884E+02  0.00000000000E+00 0. -1.
         21   -1    0    0  501  502 -0.00000000000E+00 -0.00000000000E+00 -0.10571951864E+04  0.10571951864E+04  0.00000000000E+00 0. -1.
         25    1    1    2    0    0  0.12382818703E+03 -0.10792557540E+02 -0.83534018347E+02  0.19507134957E+03  0.12500000000E+03 0.  0.
         25    1    1    2    0    0 -0.12382818703E+03  0.10792557540E+02 -0.90942884815E+03  0.92635615670E+03  0.12500000000E+03 0.  0.
</event>
<event>
 4    0  0.2250660E-002  0.2490032E+03  0.7546771E-02  0.1113936E+00
         21   -1    0    0  502  501  0.00000000000E+00  0.00000000000E+00  0.10816539011E+03  0.10816539011E+03  0.00000000000E+00 0.  1.
         21   -1    0    0  501  502 -0.00000000000E+00 -0.00000000000E+00 -0.57322026186E+03  0.57322026186E+03  0.00000000000E+00 0.  1.
         25    1    1    2    0    0  0.11988489782E+03  0.70780814732E+01 -0.47711151734E+03  0.50762475111E+03  0.12500000000E+03 0.  0.
         25    1    1    2    0    0 -0.11988489782E+03 -0.70780814732E+01  0.12056645598E+02  0.17376090086E+03  0.12500000000E+03 0.  0.
</event>
<event>
 4    0  0.2250660E-002  0.2809379E+03  0.7546771E-02  0.1095178E+00
         21   -1    0    0  502  501  0.00000000000E+00  0.00000000000E+00  0.21164290877E+03  0.21164290877E+03  0.00000000000E+00 0. -1.
         21   -1    0    0  501  502 -0.00000000000E+00 -0.00000000000E+00 -0.37292108381E+03  0.37292108381E+03  0.00000000000E+00 0. -1.
         25    1    1    2    0    0  0.11261714141E+03 -0.11953947223E+03 -0.27893658952E+03  0.34699124907E+03  0.12500000000E+03 0.  0.
         25    1    1    2    0    0 -0.11261714141E+03  0.11953947223E+03  0.11765841448E+03  0.23757274351E+03  0.12500000000E+03 0.  0.
</event>
<event>
 4    0  0.2250660E-002  0.1630065E+03  0.7546771E-02  0.1185344E+00
         21   -1    0    0  502  501  0.00000000000E+00  0.00000000000E+00  0.61001831633E+03  0.61001831633E+03  0.00000000000E+00 0.  1.
         21   -1    0    0  501  502 -0.00000000000E+00 -0.00000000000E+00 -0.43557903955E+02  0.43557903955E+02  0.00000000000E+00 0.  1.
         25    1    1    2    0    0  0.59541890741E+02  0.30041248576E+02  0.12162150545E+03  0.18672038977E+03  0.12500000000E+03 0.  0.
         25    1    1    2    0    0 -0.59541890741E+02 -0.30041248576E+02  0.44483890693E+03  0.46685583052E+03  0.12500000000E+03 0.  0.
</event>
<event>
 4    0  0.2250660E-002  0.3198784E+03  0.7546771E-02  0.1075705E+00
         21   -1    0    0  502  501  0.00000000000E+00  0.00000000000E+00  0.19835845408E+03  0.19835845408E+03  0.00000000000E+00 0. -1.
         21   -1    0    0  501  502 -0.00000000000E+00 -0.00000000000E+00 -0.51584480556E+03  0.51584480556E+03  0.00000000000E+00 0. -1.
         25    1    1    2    0    0 -0.25912719026E+02  0.26984505810E+03 -0.30436949979E+02  0.30006538007E+03  0.12500000000E+03 0.  0.
         25    1    1    2    0    0  0.25912719026E+02 -0.26984505810E+03 -0.28704940150E+03  0.41413787957E+03  0.12500000000E+03 0.  0.
</event>
<event>
 4    0  0.2250660E-002  0.1727351E+03  0.7546771E-02  0.1175025E+00
         21   -1    0    0  502  501  0.00000000000E+00  0.00000000000E+00  0.77432719840E+02  0.77432719840E+02  0.00000000000E+00 0.  1.
         21   -1    0    0  501  502 -0.00000000000E+00 -0.00000000000E+00 -0.38533323515E+03  0.38533323515E+03  0.00000000000E+00 0.  1.
         25    1    1    2    0    0  0.38825218757E+02  0.18593294554E+01 -0.30491627636E+03  0.33182795287E+03  0.12500000000E+03 0.  0.
         25    1    1    2    0    0 -0.38825218757E+02 -0.18593294554E+01 -0.29842389536E+01  0.13093800212E+03  0.12500000000E+03 0.  0.
</event>
<event>
 4    0  0.2250660E-002  0.2322188E+03  0.7546771E-02  0.1125088E+00
         21   -1    0    0  502  501  0.00000000000E+00  0.00000000000E+00  0.12870783848E+03  0.12870783848E+03  0.00000000000E+00 0.  1.
         21   -1    0    0  501  502 -0.00000000000E+00 -0.00000000000E+00 -0.41897651718E+03  0.41897651718E+03  0.00000000000E+00 0.  1.
         25    1    1    2    0    0 -0.11140280593E+03  0.15326458150E+03 -0.87364171989E+02  0.24322441419E+03  0.12500000000E+03 0.  0.
         25    1    1    2    0    0  0.11140280593E+03 -0.15326458150E+03 -0.20290450671E+03  0.30445994147E+03  0.12500000000E+03 0.  0.
</event>
<event>
 4    0  0.2250660E-002  0.2937731E+03  0.7546771E-02  0.1088395E+00
         21   -1    0    0  502  501  0.00000000000E+00  0.00000000000E+00  0.15358459673E+03  0.15358459673E+03  0.00000000000E+00 0.  1.
         21   -1    0    0  501  502 -0.00000000000E+00 -0.00000000000E+00 -0.56192235033E+03  0.56192235033E+03  0.00000000000E+00 0.  1.
         25    1    1    2    0    0  0.90843440142E+02 -0.24651418859E+03 -0.15461458287E+03  0.32947298073E+03  0.12500000000E+03 0.  0.
         25    1    1    2    0    0 -0.90843440142E+02  0.24651418859E+03 -0.25372317073E+03  0.38603396633E+03  0.12500000000E+03 0.  0.
</event>
<event>
 4    0  0.2250660E-002  0.2040692E+03  0.7546771E-02  0.1146351E+00
         21   -1    0    0  502  501  0.00000000000E+00  0.00000000000E+00  0.23912891639E+03  0.23912891639E+03  0.00000000000E+00 0.  1.
         21   -1    0    0  501  502 -0.00000000000E+00 -0.00000000000E+00 -0.17414975038E+03  0.17414975038E+03  0.00000000000E+00 0.  1.
         25    1    1    2    0    0  0.24859707452E+02  0.15467044413E+03  0.71422352626E+02  0.21276067258E+03  0.12500000000E+03 0.  0.
         25    1    1    2    0    0 -0.24859707452E+02 -0.15467044413E+03 -0.64431866164E+01  0.20051799419E+03  0.12500000000E+03 0.  0.
</event>
<event>
 4    0  0.2250660E-002  0.1818652E+03  0.7546771E-02  0.1166010E+00
         21   -1    0    0  502  501  0.00000000000E+00  0.00000000000E+00  0.40005520646E+02  0.40005520646E+02  0.00000000000E+00 0.  1.
         21   -1    0    0  501  502 -0.00000000000E+00 -0.00000000000E+00 -0.82675966958E+03  0.82675966958E+03  0.00000000000E+00 0.  1.
         25    1    1    2    0    0  0.93731732901E+02  0.11892793077E+02 -0.17338100885E+03  0.23369435276E+03  0.12500000000E+03 0.  0.
         25    1    1    2    0    0 -0.93731732901E+02 -0.11892793077E+02 -0.61337314008E+03  0.63307083747E+03  0.12500000000E+03 0.  0.
</event>
<event>
 4    0  0.2250660E-002  0.3783480E+03  0.7546771E-02  0.1051546E+00
         21   -1    0    0  502  501  0.00000000000E+00  0.00000000000E+00  0.16778845478E+04  0.16778845478E+04  0.00000000000E+00 0.  1.
         21   -1    0    0  501  502 -0.00000000000E+00 -0.00000000000E+00 -0.85314099932E+02  0.85314099932E+02  0.00000000000E+00 0. -1.
         25    1    1    2    0    0 -0.23240964040E+03  0.24822672211E+03  0.10503810069E+04  0.11111057583E+04  0.12500000000E+03 0.  0.
         25    1    1    2    0    0  0.23240964040E+03 -0.24822672211E+03  0.54218944098E+03  0.65209288942E+03  0.12500000000E+03 0.  0.
</event>
<event>
 4    0  0.2250660E-002  0.1968212E+03  0.7546771E-02  0.1152449E+00
         21   -1    0    0  502  501  0.00000000000E+00  0.00000000000E+00  0.84176328239E+02  0.84176328239E+02  0.00000000000E+00 0.  1.
         21   -1    0    0  501  502 -0.00000000000E+00 -0.00000000000E+00 -0.46020776003E+03  0.46020776003E+03  0.00000000000E+00 0.  1.
         25    1    1    2    0    0  0.77986841483E+02  0.89419336970E+02 -0.56557541728E+02  0.18138776363E+03  0.12500000000E+03 0.  0.
         25    1    1    2    0    0 -0.77986841483E+02 -0.89419336970E+02 -0.31947389007E+03  0.36299632464E+03  0.12500000000E+03 0.  0.
</event>
<event>
 4    0  0.2250660E-002  0.2370818E+03  0.7546771E-02  0.1121752E+00
         21   -1    0    0  502  501  0.00000000000E+00  0.00000000000E+00  0.96732302742E+03  0.96732302742E+03  0.00000000000E+00 0. -1.
         21   -1    0    0  501  502 -0.00000000000E+00 -0.00000000000E+00 -0.58106539901E+02  0.58106539901E+02  0.00000000000E+00 0. -1.
         25    1    1    2    0    0  0.61201902249E+02 -0.17125429813E+03  0.64200890826E+03  0.67887712124E+03  0.12500000000E+03 0.  0.
         25    1    1    2    0    0 -0.61201902249E+02  0.17125429813E+03  0.26720757926E+03  0.34655244608E+03  0.12500000000E+03 0.  0.
</event>
<event>
 4    0  0.2250660E-002  0.1862586E+03  0.7546771E-02  0.1161880E+00
         21   -1    0    0  502  501  0.00000000000E+00  0.00000000000E+00  0.61572516982E+03  0.61572516982E+03  0.00000000000E+00 0.  1.
         21   -1    0    0  501  502 -0.00000000000E+00 -0.00000000000E+00 -0.56343728868E+02  0.56343728868E+02  0.00000000000E+00 0.  1.
         25    1    1    2    0    0  0.47868292686E+02 -0.78149842128E+02  0.46603619282E+03  0.49113491455E+03  0.12500000000E+03 0.  0.
         25    1    1    2    0    0 -0.47868292686E+02  0.78149842128E+02  0.93345248137E+02  0.18093398415E+03  0.12500000000E+03 0.  0.
</event>
<event>
 4    0  0.2250660E-002  0.2705198E+03  0.7546771E-02  0.1100982E+00
         21   -1    0    0  502  501  0.00000000000E+00  0.00000000000E+00  0.23246115256E+04  0.23246115256E+04  0.00000000000E+00 0. -1.
         21   -1    0    0  501  502 -0.00000000000E+00 -0.00000000000E+00 -0.31480947074E+02  0.31480947074E+02  0.00000000000E+00 0. -1.
         25    1    1    2    0    0  0.20803989036E+03 -0.95426554430E+02  0.14596578721E+04  0.14827720414E+04  0.12500000000E+03 0.  0.
         25    1    1    2    0    0 -0.20803989036E+03  0.95426554430E+02  0.83347270646E+03  0.87332043128E+03  0.12500000000E+03 0.  0.
</event>
<event>
 4    0  0.2250660E-002  0.2775466E+03  0.7546771E-02  0.1097037E+00
         21   -1    0    0  502  501  0.00000000000E+00  0.00000000000E+00  0.12605348344E+03  0.12605348344E+03  0.00000000000E+00 0. -1.
         21   -1    0    0  501  502 -0.00000000000E+00 -0.00000000000E+00 -0.61110674336E+03  0.61110674336E+03  0.00000000000E+00 0. -1.
         25    1    1    2    0    0 -0.23345277245E+03 -0.41350015630E+02 -0.14679024702E+03  0.30558533567E+03  0.12500000000E+03 0.  0.
         25    1    1    2    0    0  0.23345277245E+03  0.41350015630E+02 -0.33826301290E+03  0.43157489113E+03  0.12500000000E+03 0.  0.
</event>
<event>
 4    0  0.2250660E-002  0.1672513E+03  0.7546771E-02  0.1180745E+00
         21   -1    0    0  502  501  0.00000000000E+00  0.00000000000E+00  0.51965046881E+02  0.51965046881E+02  0.00000000000E+00 0. -1.
         21   -1    0    0  501  502 -0.00000000000E+00 -0.00000000000E+00 -0.53830439093E+03  0.53830439093E+03  0.00000000000E+00 0. -1.
         25    1    1    2    0    0 -0.11822245472E+02 -0.99745225469E+02 -0.32704263845E+03  0.36423997976E+03  0.12500000000E+03 0.  0.
         25    1    1    2    0    0  0.11822245472E+02  0.99745225469E+02 -0.15929670560E+03  0.22602945805E+03  0.12500000000E+03 0.  0.
</event>
<event>
 4    0  0.2250660E-002  0.2548452E+03  0.7546771E-02  0.1110280E+00
         21   -1    0    0  502  501  0.00000000000E+00  0.00000000000E+00  0.46523438827E+02  0.46523438827E+02  0.00000000000E+00 0. -1.
         21   -1    0    0  501  502 -0.00000000000E+00 -0.00000000000E+00 -0.13959866460E+04  0.13959866460E+04  0.00000000000E+00 0. -1.
         25    1    1    2    0    0  0.32232554648E+02  0.19270964986E+03 -0.97351422673E+03  0.10007651555E+04  0.12500000000E+03 0.  0.
         25    1    1    2    0    0 -0.32232554648E+02 -0.19270964986E+03 -0.37594898043E+03  0.44174492936E+03  0.12500000000E+03 0.  0.
</event>
<event>
 4    0  0.2250660E-002  0.1816359E+03  0.7546771E-02  0.1166229E+00
         21   -1    0    0  502  501  0.00000000000E+00  0.00000000000E+00  0.12926756073E+04  0.12926756073E+04  0.00000000000E+00 0.  1.
         21   -1    0    0  501  502 -0.00000000000E+00 -0.00000000000E+00 -0.25521943306E+02  0.25521943306E+02  0.00000000000E+00 0.  1.
         25    1    1    2    0    0  0.10328740344E+03  0.47076127703E+02  0.87651276864E+03  0.89262762847E+03  0.12500000000E+03 0.  0.
         25    1    1    2    0    0 -0.10328740344E+03 -0.47076127703E+02  0.39064089536E+03  0.42556992215E+03  0.12500000000E+03 0.  0.
</event>
<event>
 4    0  0.2250660E-002  0.3344400E+03  0.7546771E-02  0.1069189E+00
         21   -1    0    0  502  501  0.00000000000E+00  0.00000000000E+00  0.95047861837E+02  0.95047861837E+02  0.00000000000E+00 0. -1.
         21   -1    0    0  501  502 -0.00000000000E+00 -0.00000000000E+00 -0.11767768801E+04  0.11767768801E+04  0.00000000000E+00 0. -1.
         25    1    1    2    0    0 -0.68188031359E+02 -0.10742623066E+03 -0.29424620526E+01  0.17839187408E+03  0.12500000000E+03 0.  0.
         25    1    1    2    0    0  0.68188031359E+02  0.10742623066E+03 -0.10787865562E+04  0.10934328679E+04  0.12500000000E+03 0.  0.
</event>
<event>
 4    0  0.2250660E-002  0.2259995E+03  0.7546771E-02  0.1129488E+00
         21   -1    0    0  502  501  0.00000000000E+00  0.00000000000E+00  0.18481222353E+03  0.18481222353E+03  0.00000000000E+00 0.  1.
         21   -1    0    0  501  502 -0.00000000000E+00 -0.00000000000E+00 -0.27636584208E+03  0.27636584208E+03  0.00000000000E+00 0.  1.
         25    1    1    2    0    0  0.59911039867E+02 -0.15620235596E+03 -0.13391554256E+03  0.24808643906E+03  0.12500000000E+03 0.  0.
         25    1    1    2    0    0 -0.59911039867E+02  0.15620235596E+03  0.42361924010E+02  0.21309162656E+03  0.12500000000E+03 0.  0.
</event>
<event>
 4    0  0.2250660E-002  0.1511592E+03  0.7546771E-02  0.1199056E+00
         21   -1    0    0  502  501  0.00000000000E+00  0.00000000000E+00  0.19075396022E+03  0.19075396022E+03  0.00000000000E+00 0.  1.
         21   -1    0    0  501  502 -0.00000000000E+00 -0.00000000000E+00 -0.11978313530E+03  0.11978313530E+03  0.00000000000E+00 0.  1.
         25    1    1    2    0    0 -0.61213560169E+02 -0.18295478775E+02 -0.22094568201E+02  0.14210909343E+03  0.12500000000E+03 0.  0.
         25    1    1    2    0    0  0.61213560169E+02  0.18295478775E+02  0.93065393118E+02  0.16842800209E+03  0.12500000000E+03 0.  0.
</event>
<event>
 4    0  0.2250660E-002  0.1549383E+03  0.7546771E-02  0.1194533E+00
         21   -1    0    0  502  501  0.00000000000E+00  0.00000000000E+00  0.78005269081E+03  0.78005269081E+03  0.00000000000E+00 0. -1.
         21   -1    0    0  501  502 -0.00000000000E+00 -0.00000000000E+00 -0.30774675655E+02  0.30774675655E+02  0.00000000000E+00 0. -1.
         25    1    1    2    0    0 -0.85468014694E+02 -0.32005213141E+02  0.39346287788E+03  0.42280864641E+03  0.12500000000E+03 0.  0.
         25    1    1    2    0    0  0.85468014694E+02  0.32005213141E+02  0.35581513728E+03  0.38801872006E+03  0.12500000000E+03 0.  0.
</event>
<event>
 4    0  0.2250660E-002  0.2175224E+03  0.7546771E-02  0.1135744E+00
         21   -1    0    0  502  501  0.00000000000E+00  0.00000000000E+00  0.28413109144E+03  0.28413109144E+03  0.00000000000E+00 0.  1.
         21   -1    0    0  501  502 -0.00000000000E+00 -0.00000000000E+00 -0.16652868027E+03  0.16652868027E+03  0.00000000000E+00 0.  1.
         25    1    1    2    0    0  0.15438669605E+03 -0.40741219560E+02 -0.22737963829E+02  0.20405174316E+03  0.12500000000E+03 0.  0.
         25    1    1    2    0    0 -0.15438669605E+03  0.40741219560E+02  0.14034037500E+03  0.24660802855E+03  0.12500000000E+03 0.  0.
</event>
<event>
 4    0  0.2250660E-002  0.2251562E+03  0.7546771E-02  0.1130096E+00
         21   -1    0    0  502  501  0.00000000000E+00  0.00000000000E+00  0.80423219089E+02  0.80423219089E+02  0.00000000000E+00 0.  1.
         21   -1    0    0  501  502 -0.00000000000E+00 -0.00000000000E+00 -0.63035671529E+03  0.63035671529E+03  0.00000000000E+00 0.  1.
         25    1    1    2    0    0  0.55685512406E+01  0.18374281145E+03 -0.33139120910E+03  0.39904581566E+03  0.12500000000E+03 0.  0.
         25    1    1    2    0    0 -0.55685512406E+01 -0.18374281145E+03 -0.21854228710E+03  0.31173411872E+03  0.12500000000E+03 0.  0.
</event>
<event>
 4    0  0.2250660E-002  0.2009220E+03  0.7546771E-02  0.1148963E+00
         21   -1    0    0  502  501  0.00000000000E+00  0.00000000000E+00  0.10788978403E+03  0.10788978403E+03  0.00000000000E+00 0. -1.
         21   -1    0    0  501  502 -0.00000000000E+00 -0.00000000000E+00 -0.37417505450E+03  0.37417505450E+03  0.00000000000E+00 0. -1.
         25    1    1    2    0    0  0.15420379060E+03 -0.78255619109E+00 -0.17041324734E+03  0.26162013741E+03  0.12500000000E+03 0.  0.
         25    1    1    2    0    0 -0.15420379060E+03  0.78255619109E+00 -0.95872023128E+02  0.22044470112E+03  0.12500000000E+03 0.  0.
</event>
<event>
 4    0  0.2250660E-002  0.3255857E+03  0.7546771E-02  0.1073107E+00
         21   -1    0    0  502  501  0.00000000000E+00  0.00000000000E+00  0.52392352162E+03  0.52392352162E+03  0.00000000000E+00 0.  1.
         21   -1    0    0  501  502 -0.00000000000E+00 -0.00000000000E+00 -0.20233119148E+03  0.20233119148E+03  0.00000000000E+00 0.  1.
         25    1    1    2    0    0 -0.28077462251E+03  0.10605425388E+03  0.14150503479E+03  0.35458506494E+03  0.12500000000E+03 0.  0.
         25    1    1    2    0    0  0.28077462251E+03 -0.10605425388E+03  0.18008729535E+03  0.37166964815E+03  0.12500000000E+03 0.  0.
</event>
<event>
 4    0  0.2250660E-002  0.2054805E+03  0.7546771E-02  0.1145196E+00
         21   -1    0    0  502  501  0.00000000000E+00  0.00000000000E+00  0.27252826131E+03  0.27252826131E+03  0.00000000000E+00 0. -1.
         21   -1    0    0  501  502 -0.00000000000E+00 -0.00000000000E+00 -0.15492794840E+03  0.15492794840E+03  0.00000000000E+00 0. -1.
         25    1    1    2    0    0  0.18817682981E+02 -0.59685853646E+02 -0.97845937102E+02  0.17063215912E+03  0.12500000000E+03 0.  0.
         25    1    1    2    0    0 -0.18817682981E+02  0.59685853646E+02  0.21544625001E+03  0.25682405059E+03  0.12500000000E+03 0.  0.
</event>
<event>
 4    0  0.2250660E-002  0.2615169E+03  0.7546771E-02  0.1106235E+00
         21   -1    0    0  502  501  0.00000000000E+00  0.00000000000E+00  0.14614036088E+03  0.14614036088E+03  0.00000000000E+00 0. -1.
         21   -1    0    0  501  502 -0.00000000000E+00 -0.00000000000E+00 -0.46798218937E+03  0.46798218937E+03  0.00000000000E+00 0. -1.
         25    1    1    2    0    0 -0.16473532630E+03 -0.80318918862E+02 -0.32352004991E+03  0.39227423972E+03  0.12500000000E+03 0.  0.
         25    1    1    2    0    0  0.16473532630E+03  0.80318918862E+02  0.16782214195E+01  0.22184831053E+03  0.12500000000E+03 0.  0.
</event>
<event>
 4    0  0.2250660E-002  0.2658687E+03  0.7546771E-02  0.1103668E+00
         21   -1    0    0  502  501  0.00000000000E+00  0.00000000000E+00  0.57580982313E+03  0.57580982313E+03  0.00000000000E+00 0. -1.
         21   -1    0    0  501  502 -0.00000000000E+00 -0.00000000000E+00 -0.12275954684E+03  0.12275954684E+03  0.00000000000E+00 0.  1.
         25    1    1    2    0    0 -0.12496175362E+03  0.17610943613E+03  0.10589480123E+03  0.27105106952E+03  0.12500000000E+03 0.  0.
         25    1    1    2    0    0  0.12496175362E+03 -0.17610943613E+03  0.34715547506E+03  0.42751830046E+03  0.12500000000E+03 0.  0.
</event>
<event>
 4    0  0.2250660E-002  0.2401327E+03  0.7546771E-02  0.1119704E+00
         21   -1    0    0  502  501  0.00000000000E+00  0.00000000000E+00  0.12485889603E+03  0.12485889603E+03  0.00000000000E+00 0. -1.
         21   -1    0    0  501  502 -0.00000000000E+00 -0.00000000000E+00 -0.46183103075E+03  0.46183103075E+03  0.00000000000E+00 0. -1.
         25    1    1    2    0    0  0.10735359220E+03 -0.14158489568E+03 -0.29346926911E+03  0.36513050866E+03  0.12500000000E+03 0.  0.
         25    1    1    2    0    0 -0.10735359220E+03  0.14158489568E+03 -0.43502865602E+02  0.22155941812E+03  0.12500000000E+03 0.  0.
</event>
<event>
 4    0  0.2250660E-002  0.2577530E+03  0.7546771E-02  0.1108501E+00
         21   -1    0    0  502  501  0.00000000000E+00  0.00000000000E+00  0.46915837694E+03  0.46915837694E+03  0.00000000000E+00 0.  1.
         21   -1    0    0  501  502 -0.00000000000E+00 -0.00000000000E+00 -0.14160803311E+03  0.14160803311E+03  0.00000000000E+00 0.  1.
         25    1    1    2    0    0  0.20176502269E+03  0.12778497439E+00  0.44690761081E+02  0.24151895337E+03  0.12500000000E+03 0.  0.
         25    1    1    2    0    0 -0.20176502269E+03 -0.12778497439E+00  0.28285958274E+03  0.36924745668E+03  0.12500000000E+03 0.  0.
</event>
<event>
 4    0  0.2250660E-002  0.1602440E+03  0.7546771E-02  0.1188422E+00
         21   -1    0    0  502  501  0.00000000000E+00  0.00000000000E+00  0.13113243413E+02  0.13113243413E+02  0.00000000000E+00 0.  1.
         21   -1    0    0  501  502 -0.00000000000E+00 -0.00000000000E+00 -0.19581824868E+04  0.19581824868E+04  0.00000000000E+00 0.  1.
         25    1    1    2    0    0  0.83831370143E+02  0.38718360345E+02 -0.12128391876E+04  0.12227553742E+04  0.12500000000E+03 0.  0.
         25    1    1    2    0    0 -0.83831370143E+02 -0.38718360345E+02 -0.73223005577E+03  0.74854035604E+03  0.12500000000E+03 0.  0.
</event>
<event>
 4    0  0.2250660E-002  0.1881357E+03  0.7546771E-02  0.1160154E+00
         21   -1    0    0  502  501  0.00000000000E+00  0.00000000000E+00  0.11327395153E+04  0.11327395153E+04  0.00000000000E+00 0.  1.
         21   -1    0    0  501  502 -0.00000000000E+00 -0.00000000000E+00 -0.31247284139E+02  0.31247284139E+02  0.00000000000E+00 0.  1.
         25    1    1    2    0    0  0.58441365621E+01 -0.12732508606E+03  0.36710188315E+03  0.40820904459E+03  0.12500000000E+03 0.  0.
         25    1    1    2    0    0 -0.58441365621E+01  0.12732508606E+03  0.73439034801E+03  0.75577775485E+03  0.12500000000E+03 0.  0.
</event>
<event>
 4    0  0.2250660E-002  0.3072629E+03  0.7546771E-02  0.1081665E+00
         21   -1    0    0  502  501  0.00000000000E+00  0.00000000000E+00  0.17930763760E+03  0.17930763760E+03  0.00000000000E+00 0. -1.
         21   -1    0    0  501  502 -0.00000000000E+00 -0.00000000000E+00 -0.52652805790E+03  0.52652805790E+03  0.00000000000E+00 0. -1.
         25    1    1    2    0    0  0.12237079285E+03  0.77011108439E+02  0.10272002480E+03  0.21698323728E+03  0.12500000000E+03 0.  0.
         25    1    1    2    0    0 -0.12237079285E+03 -0.77011108439E+02 -0.44994044510E+03  0.48885245822E+03  0.12500000000E+03 0.  0.
</event>
<event>
 4    0  0.2250660E-002  0.2622822E+03  0.7546771E-02  0.1105780E+00
         21   -1    0    0  502  501  0.00000000000E+00  0.00000000000E+00  0.35986315030E+02  0.35986315030E+02  0.00000000000E+00 0.  1.
         21   -1    0    0  501  502 -0.00000000000E+00 -0.00000000000E+00 -0.19116138673E+04  0.19116138673E+04  0.00000000000E+00 0.  1.
         25    1    1    2    0    0  0.26326640320E+02 -0.77769362358E+02 -0.13783105205E+03  0.20338034473E+03  0.12500000000E+03 0.  0.
         25    1    1    2    0    0 -0.26326640320E+02  0.77769362358E+02 -0.17377965003E+04  0.17442198376E+04  0.12500000000E+03 0.  0.
</event>
<event>
 4    0  0.2250660E-002  0.2468608E+03  0.7546771E-02  0.1115305E+00
         21   -1    0    0  502  501  0.00000000000E+00  0.00000000000E+00  0.82922637507E+03  0.82922637507E+03  0.00000000000E+00 0.  1.
         21   -1    0    0  501  502 -0.00000000000E+00 -0.00000000000E+00 -0.73490488744E+02  0.73490488744E+02  0.00000000000E+00 0.  1.
         25    1    1    2    0    0 -0.69659089111E+02 -0.88512765506E+02  0.70813633841E+03  0.72785230104E+03  0.12500000000E+03 0.  0.
         25    1    1    2    0    0  0.69659089111E+02  0.88512765506E+02  0.47599547921E+02  0.17486456278E+03  0.12500000000E+03 0.  0.
</event>
<event>
 4    0  0.2250660E-002  0.2008379E+03  0.7546771E-02  0.1149034E+00
         21   -1    0    0  502  501  0.00000000000E+00  0.00000000000E+00  0.85866317382E+03  0.85866317382E+03  0.00000000000E+00 0.  1.
         21   -1    0    0  501  502 -0.00000000000E+00 -0.00000000000E+00 -0.46975182466E+02  0.46975182466E+02  0.00000000000E+00 0.  1.
         25    1    1    2    0    0 -0.61703988676E+02 -0.39001407499E+02  0.71973767076E+03  0.73414971683E+03  0.12500000000E+03 0.  0.
         25    1    1    2    0    0  0.61703988676E+02  0.39001407499E+02  0.91950320589E+02  0.17148863945E+03  0.12500000000E+03 0.  0.
</event>
<event>
 4    0  0.2250660E-002  0.2494581E+03  0.7546771E-02  0.1113648E+00
         21   -1    0    0  502  501  0.00000000000E+00  0.00000000000E+00  0.34410108374E+03  0.34410108374E+03  0.00000000000E+00 0. -1.
         21   -1    0    0  501  502 -0.00000000000E+00 -0.00000000000E+00 -0.18084612367E+03  0.18084612367E+03  0.00000000000E+00 0. -1.
         25    1    1    2    0    0  0.18669936179E+03  0.10732305432E+03  0.97565673969E+02  0.26743027207E+03  0.12500000000E+03 0.  0.
         25    1    1    2    0    0 -0.18669936179E+03 -0.10732305432E+03  0.65689286108E+02  0.25751693535E+03  0.12500000000E+03 0.  0.
</event>
<event>
 4    0  0.2250660E-002  0.2403309E+03  0.7546771E-02  0.1119573E+00
         21   -1    0    0  502  501  0.00000000000E+00  0.00000000000E+00  0.40843368602E+03  0.40843368602E+03  0.00000000000E+00 0. -1.
         21   -1    0    0  501  502 -0.00000000000E+00 -0.00000000000E+00 -0.14141568722E+03  0.14141568722E+03  0.00000000000E+00 0. -1.
         25    1    1    2    0    0 -0.15025431191E+03  0.47438296409E+02 -0.16984355909E+02  0.20184206340E+03  0.12500000000E+03 0.  0.
         25    1    1    2    0    0  0.15025431191E+03 -0.47438296409E+02  0.28400235471E+03  0.34800730983E+03  0.12500000000E+03 0.  0.
</event>
<event>
 4    0  0.2250660E-002  0.3087034E+03  0.7546771E-02  0.1080969E+00
         21   -1    0    0  502  501  0.00000000000E+00  0.00000000000E+00  0.15905208881E+03  0.15905208881E+03  0.00000000000E+00 0.  1.
         21   -1    0    0  501  502 -0.00000000000E+00 -0.00000000000E+00 -0.59916096813E+03  0.59916096813E+03  0.00000000000E+00 0.  1.
         25    1    1    2    0    0  0.76306453059E+02  0.14422173087E+03  0.62800271704E+02  0.21492197784E+03  0.12500000000E+03 0.  0.
         25    1    1    2    0    0 -0.76306453059E+02 -0.14422173087E+03 -0.50290915103E+03  0.54329107910E+03  0.12500000000E+03 0.  0.
</event>
<event>
 4    0  0.2250660E-002  0.1565601E+03  0.7546771E-02  0.1192636E+00
         21   -1    0    0  502  501  0.00000000000E+00  0.00000000000E+00  0.24220854595E+03  0.24220854595E+03  0.00000000000E+00 0.  1.
         21   -1    0    0  501  502 -0.00000000000E+00 -0.00000000000E+00 -0.10119815856E+03  0.10119815856E+03  0.00000000000E+00 0.  1.
         25    1    1    2    0    0  0.74956243938E+02 -0.82499370506E+00  0.78195198815E+01  0.14596322828E+03  0.12500000000E+03 0.  0.
         25    1    1    2    0    0 -0.74956243938E+02  0.82499370506E+00  0.13319086750E+03  0.19744347623E+03  0.12500000000E+03 0.  0.
</event>
<event>
 4    0  0.2250660E-002  0.1800279E+03  0.7546771E-02  0.1167776E+00
         21   -1    0    0  502  501  0.00000000000E+00  0.00000000000E+00  0.60568203108E+02  0.60568203108E+02  0.00000000000E+00 0.  1.
         21   -1    0    0  501  502 -0.00000000000E+00 -0.00000000000E+00 -0.53509978001E+03  0.53509978001E+03  0.00000000000E+00 0.  1.
         25    1    1    2    0    0  0.63026139578E+02 -0.11174920566E+03 -0.20744782901E+03  0.27407988069E+03  0.12500000000E+03 0.  0.
         25    1    1    2    0    0 -0.63026139578E+02  0.11174920566E+03 -0.26708374789E+03  0.32158810243E+03  0.12500000000E+03 0.  0.
</event>
<event>
 4    0  0.2250660E-002  0.2820568E+03  0.7546771E-02  0.1094571E+00
         21   -1    0    0  502  501  0.00000000000E+00  0.00000000000E+00  0.41560162152E+03  0.41560162152E+03  0.00000000000E+00 0. -1.
         21   -1    0    0  501  502 -0.00000000000E+00 -0.00000000000E+00 -0.19142384403E+03  0.19142384403E+03  0.00000000000E+00 0. -1.
         25    1    1    2    0    0 -0.16151595265E+02  0.17284111128E+03  0.30991053314E+03  0.37656933270E+03  0.12500000000E+03 0.  0.
         25    1    1    2    0    0  0.16151595265E+02 -0.17284111128E+03 -0.85732755645E+02  0.23045613285E+03  0.12500000000E+03 0.  0.
</event>
<event>
 4    0  0.2250660E-002  0.1824359E+03  0.7546771E-02  0.1165466E+00
         21   -1    0    0  502  501  0.00000000000E+00  0.00000000000E+00  0.16882837113E+03  0.16882837113E+03  0.00000000000E+00 0. -1.
         21   -1    0    0  501  502 -0.00000000000E+00 -0.00000000000E+00 -0.19714017404E+03  0.19714017404E+03  0.00000000000E+00 0. -1.
         25    1    1    2    0    0  0.10363171744E+03 -0.57429635457E+02 -0.74504512404E+02  0.18765291966E+03  0.12500000000E+03 0.  0.
         25    1    1    2    0    0 -0.10363171744E+03  0.57429635457E+02  0.46192709493E+02  0.17831562550E+03  0.12500000000E+03 0.  0.
</event>
<event>
 4    0  0.2250660E-002  0.2208344E+03  0.7546771E-02  0.1133262E+00
         21   -1    0    0  502  501  0.00000000000E+00  0.00000000000E+00  0.83774567700E+03  0.83774567700E+03  0.00000000000E+00 0.  1.
         21   -1    0    0  501  502 -0.00000000000E+00 -0.00000000000E+00 -0.58213192755E+02  0.58213192755E+02  0.00000000000E+00 0.  1.
         25    1    1    2    0    0  0.25295627622E+02  0.16682560733E+03  0.52842647166E+03  0.56862130455E+03  0.12500000000E+03 0.  0.
         25    1    1    2    0    0 -0.25295627622E+02 -0.16682560733E+03  0.25110601258E+03  0.32733756520E+03  0.12500000000E+03 0.  0.
</event>
<event>
 4    0  0.2250660E-002  0.2076036E+03  0.7546771E-02  0.1143478E+00
         21   -1    0    0  502  501  0.00000000000E+00  0.00000000000E+00  0.10751134980E+03  0.10751134980E+03  0.00000000000E+00 0.  1.
         21   -1    0    0  501  502 -0.00000000000E+00 -0.00000000000E+00 -0.40088082895E+03  0.40088082895E+03  0.00000000000E+00 0.  1.
         25    1    1    2    0    0 -0.32312013024E+02  0.77891982410E+02  0.28040269454E+02  0.15337041377E+03  0.12500000000E+03 0.  0.
         25    1    1    2    0    0  0.32312013024E+02 -0.77891982410E+02 -0.32140974861E+03  0.35502176498E+03  0.12500000000E+03 0.  0.
</event>
<event>
 4    0  0.2250660E-002  0.1922241E+03  0.7546771E-02  0.1156471E+00
         21   -1    0    0  502  501  0.00000000000E+00  0.00000000000E+00  0.87793244899E+02  0.87793244899E+02  0.00000000000E+00 0. -1.
         21   -1    0    0  501  502 -0.00000000000E+00 -0.00000000000E+00 -0.42087629713E+03  0.42087629713E+03  0.00000000000E+00 0. -1.
         25    1    1    2    0    0  0.37660291197E+02  0.38450595174E+02  0.13072885494E+02  0.13672105228E+03  0.12500000000E+03 0.  0.
         25    1    1    2    0    0 -0.37660291197E+02 -0.38450595174E+02 -0.34615593773E+03  0.37194848975E+03  0.12500000000E+03 0.  0.
</event>
<event>
 4    0  0.2250660E-002  0.3256918E+03  0.7546771E-02  0.1073059E+00
         21   -1    0    0  502  501  0.00000000000E+00  0.00000000000E+00  0.29347478996E+03  0.29347478996E+03  0.00000000000E+00 0.  1.
         21   -1    0    0  501  502 -0.00000000000E+00 -0.00000000000E+00 -0.36144553531E+03  0.36144553531E+03  0.00000000000E+00 0.  1.
         25    1    1    2    0    0  0.14614352043E+03  0.25003872197E+03 -0.11549874888E+03  0.33592000839E+03  0.12500000000E+03 0.  0.
         25    1    1    2    0    0 -0.14614352043E+03 -0.25003872197E+03  0.47528003533E+02  0.31900031688E+03  0.12500000000E+03 0.  0.
</event>
<event>
 4    0  0.2250660E-002  0.3647597E+03  0.7546771E-02  0.1056715E+00
         21   -1    0    0  502  501  0.00000000000E+00  0.00000000000E+00  0.11066487940E+03  0.11066487940E+03  0.00000000000E+00 0.  1.
         21   -1    0    0  501  502 -0.00000000000E+00 -0.00000000000E+00 -0.12022751921E+04  0.12022751921E+04  0.00000000000E+00 0.  1.
         25    1    1    2    0    0 -0.23214834713E+03  0.19085991682E+03 -0.24950835403E+03  0.41012166689E+03  0.12500000000E+03 0.  0.
         25    1    1    2    0    0  0.23214834713E+03 -0.19085991682E+03 -0.84210195869E+03  0.90281840463E+03  0.12500000000E+03 0.  0.
</event>
<event>
 4    0  0.2250660E-002  0.2525876E+03  0.7546771E-02  0.1111680E+00
         21   -1    0    0  502  501  0.00000000000E+00  0.00000000000E+00  0.24739744945E+03  0.24739744945E+03  0.00000000000E+00 0. -1.
         21   -1    0    0  501  502 -0.00000000000E+00 -0.00000000000E+00 -0.25788668798E+03  0.25788668798E+03  0.00000000000E+00 0. -1.
         25    1    1    2    0    0 -0.15185966369E+03 -0.15456894588E+03 -0.40217744012E+02  0.25336807893E+03  0.12500000000E+03 0.  0.
         25    1    1    2    0    0  0.15185966369E+03  0.15456894588E+03  0.29728505481E+02  0.25191605849E+03  0.12500000000E+03 0.  0.
</event>
<event>
 4    0  0.2250660E-002  0.2640018E+03  0.7546771E-02  0.1104762E+00
         21   -1    0    0  502  501  0.00000000000E+00  0.00000000000E+00  0.89917376537E+03  0.89917376537E+03  0.00000000000E+00 0. -1.
         21   -1    0    0  501  502 -0.00000000000E+00 -0.00000000000E+00 -0.77512232855E+02  0.77512232855E+02  0.00000000000E+00 0. -1.
         25    1    1    2    0    0 -0.23037592517E+03  0.17592646264E+02  0.45939908762E+03  0.52920231463E+03  0.12500000000E+03 0.  0.
         25    1    1    2    0    0  0.23037592517E+03 -0.17592646264E+02  0.36226244489E+03  0.44748368359E+03  0.12500000000E+03 0.  0.
</event>
<event>
 4    0  0.2250660E-002  0.4345012E+03  0.7546771E-02  0.1032447E+00
         21   -1    0    0  502  501  0.00000000000E+00  0.00000000000E+00  0.59481416123E+03  0.59481416123E+03  0.00000000000E+00 0. -1.
         21   -1    0    0  501  502 -0.00000000000E+00 -0.00000000000E+00 -0.31739535902E+03  0.31739535902E+03  0.00000000000E+00 0. -1.
         25    1    1    2    0    0 -0.11439285767E+03  0.32474722029E+03 -0.10661944011E+03  0.38149598685E+03  0.12500000000E+03 0.  0.
         25    1    1    2    0    0  0.11439285767E+03 -0.32474722029E+03  0.38403824232E+03  0.53071353340E+03  0.12500000000E+03 0.  0.
</event>
<event>
 4    0  0.2250660E-002  0.1724026E+03  0.7546771E-02  0.1175365E+00
         21   -1    0    0  502  501  0.00000000000E+00  0.00000000000E+00  0.22835821305E+03  0.22835821305E+03  0.00000000000E+00 0. -1.
         21   -1    0    0  501  502 -0.00000000000E+00 -0.00000000000E+00 -0.13015806121E+03  0.13015806121E+03  0.00000000000E+00 0. -1.
         25    1    1    2    0    0 -0.53894895840E+01 -0.91705532140E+02  0.12731574856E+03  0.20068196495E+03  0.12500000000E+03 0.  0.
         25    1    1    2    0    0  0.53894895840E+01  0.91705532140E+02 -0.29115596731E+02  0.15783430931E+03  0.12500000000E+03 0.  0.
</event>
<event>
 4    0  0.2250660E-002  0.2744441E+03  0.7546771E-02  0.1098763E+00
         21   -1    0    0  502  501  0.00000000000E+00  0.00000000000E+00  0.98318870754E+02  0.98318870754E+02  0.00000000000E+00 0.  1.
         21   -1    0    0  501  502 -0.00000000000E+00 -0.00000000000E+00 -0.76607433065E+03  0.76607433065E+03  0.00000000000E+00 0.  1.
         25    1    1    2    0    0  0.22390939426E+03  0.54876676772E+02 -0.20644771774E+03  0.33375518970E+03  0.12500000000E+03 0.  0.
         25    1    1    2    0    0 -0.22390939426E+03 -0.54876676772E+02 -0.46130774215E+03  0.53063801170E+03  0.12500000000E+03 0.  0.
</event>
<event>
 4    0  0.2250660E-002  0.3372486E+03  0.7546771E-02  0.1067974E+00
         21   -1    0    0  502  501  0.00000000000E+00  0.00000000000E+00  0.11608343173E+03  0.11608343173E+03  0.00000000000E+00 0. -1.
         21   -1    0    0  501  502 -0.00000000000E+00 -0.00000000000E+00 -0.97978347120E+03  0.97978347120E+03  0.00000000000E+00 0. -1.
         25    1    1    2    0    0  0.20393014900E+03  0.23772896065E+03 -0.43674127686E+03  0.55178846247E+03  0.12500000000E+03 0.  0.
         25    1    1    2    0    0 -0.20393014900E+03 -0.23772896065E+03 -0.42695876261E+03  0.54407844046E+03  0.12500000000E+03 0.  0.
</event>
<event>
 4    0  0.2250660E-002  0.2826675E+03  0.7546771E-02  0.1094241E+00
         21   -1    0    0  502  501  0.00000000000E+00  0.00000000000E+00  0.60140126231E+03  0.60140126231E+03  0.00000000000E+00 0. -1.
         21   -1    0    0  501  502 -0.00000000000E+00 -0.00000000000E+00 -0.13285787772E+03  0.13285787772E+03  0.00000000000E+00 0. -1.
         25    1    1    2    0    0  0.25216601133E+03 -0.23525721700E+02  0.21919557805E+03  0.35750924224E+03  0.12500000000E+03 0.  0.
         25    1    1    2    0    0 -0.25216601133E+03  0.23525721700E+02  0.24934780655E+03  0.37674989779E+03  0.12500000000E+03 0.  0.
</event>
<event>
 4    0  0.2250660E-002  0.2461553E+03  0.7546771E-02  0.1115759E+00
         21   -1    0    0  502  501  0.00000000000E+00  0.00000000000E+00  0.85105886681E+03  0.85105886681E+03  0.00000000000E+00 0.  1.
         21   -1    0    0  501  502 -0.00000000000E+00 -0.00000000000E+00 -0.71196514314E+02  0.71196514314E+02  0.00000000000E+00 0.  1.
         25    1    1    2    0    0 -0.16872469716E+02  0.21040418182E+03  0.35186888388E+03  0.42894208397E+03  0.12500000000E+03 0.  0.
         25    1    1    2    0    0  0.16872469716E+02 -0.21040418182E+03  0.42799346862E+03  0.49331329715E+03  0.12500000000E+03 0.  0.
</event>
<event>
 4    0  0.2250660E-002  0.1754190E+03  0.7546771E-02  0.1172312E+00
         21   -1    0    0  502  501  0.00000000000E+00  0.00000000000E+00  0.48803878101E+02  0.48803878101E+02  0.00000000000E+00 0.  1.
         21   -1    0    0  501  502 -0.00000000000E+00 -0.00000000000E+00 -0.63051982835E+03  0.63051982835E+03  0.00000000000E+00 0.  1.
         25    1    1    2    0    0  0.41764519840E+02 -0.97982129261E+02 -0.41025089639E+03  0.44189995560E+03  0.12500000000E+03 0.  0.
         25    1    1    2    0    0 -0.41764519840E+02  0.97982129261E+02 -0.17146505385E+03  0.23742375084E+03  0.12500000000E+03 0.  0.
</event>
<event>
 4    0  0.2250660E-002  0.2542343E+03  0.7546771E-02  0.1110658E+00
         21   -1    0    0  502  501  0.00000000000E+00  0.00000000000E+00  0.73123948949E+03  0.73123948949E+03  0.00000000000E+00 0.  1.
         21   -1    0    0  501  502 -0.00000000000E+00 -0.00000000000E+00 -0.88391095574E+02  0.88391095574E+02  0.00000000000E+00 0.  1.
         25    1    1    2    0    0  0.32718608141E+02 -0.18849019946E+03  0.14184442376E+03  0.26896821961E+03  0.12500000000E+03 0.  0.
         25    1    1    2    0    0 -0.32718608141E+02  0.18849019946E+03  0.50100397016E+03  0.55066236545E+03  0.12500000000E+03 0.  0.
</event>
<event>
 4    0  0.2250660E-002  0.2075812E+03  0.7546771E-02  0.1143496E+00
         21   -1    0    0  502  501  0.00000000000E+00  0.00000000000E+00  0.67118285580E+03  0.67118285580E+03  0.00000000000E+00 0. -1.
         21   -1    0    0  501  502 -0.00000000000E+00 -0.00000000000E+00 -0.64200027860E+02  0.64200027860E+02  0.00000000000E+00 0. -1.
         25    1    1    2    0    0  0.20066669335E+02 -0.58862642294E+02  0.57559123996E+03  0.59228182261E+03  0.12500000000E+03 0.  0.
         25    1    1    2    0    0 -0.20066669335E+02  0.58862642294E+02  0.31391587973E+02  0.14310106104E+03  0.12500000000E+03 0.  0.
</event>
<event>
 4    0  0.2250660E-002  0.2417489E+03  0.7546771E-02  0.1118633E+00
         21   -1    0    0  502  501  0.00000000000E+00  0.00000000000E+00  0.20090972630E+04  0.20090972630E+04  0.00000000000E+00 0.  1.
         21   -1    0    0  501  502 -0.00000000000E+00 -0.00000000000E+00 -0.29088941483E+02  0.29088941483E+02  0.00000000000E+00 0.  1.
         25    1    1    2    0    0 -0.15494580669E+03 -0.61945285651E+02  0.15058152271E+04  0.15201808839E+04  0.12500000000E+03 0.  0.
         25    1    1    2    0    0  0.15494580669E+03  0.61945285651E+02  0.47419309443E+03  0.51800532066E+03  0.12500000000E+03 0.  0.
</event>
<event>
 4    0  0.2250660E-002  0.3128157E+03  0.7546771E-02  0.1079004E+00
         21   -1    0    0  502  501  0.00000000000E+00  0.00000000000E+00  0.38540223386E+03  0.38540223386E+03  0.00000000000E+00 0. -1.
         21   -1    0    0  501  502 -0.00000000000E+00 -0.00000000000E+00 -0.25390005073E+03  0.25390005073E+03  0.00000000000E+00 0. -1.
         25    1    1    2    0    0 -0.27358185077E+03  0.62850387598E+02  0.12560966538E+03  0.33196383587E+03  0.12500000000E+03 0.  0.
         25    1    1    2    0    0  0.27358185077E+03 -0.62850387598E+02  0.58925177556E+01  0.30733844871E+03  0.12500000000E+03 0.  0.
</event>
<event>
 4    0  0.2250660E-002  0.1766764E+03  0.7546771E-02  0.1171059E+00
         21   -1    0    0  502  501  0.00000000000E+00  0.00000000000E+00  0.30887694647E+02  0.30887694647E+02  0.00000000000E+00 0.  1.
         21   -1    0    0  501  502 -0.00000000000E+00 -0.00000000000E+00 -0.10105815016E+04  0.10105815016E+04  0.00000000000E+00 0.  1.
         25    1    1    2    0    0  0.63092591288E+02  0.27813718733E+02 -0.18304533304E+03  0.23213115253E+03  0.12500000000E+03 0.  0.
         25    1    1    2    0    0 -0.63092591288E+02 -0.27813718733E+02 -0.79664847387E+03  0.80933804368E+03  0.12500000000E+03 0.  0.
</event>
<event>
 4    0  0.2250660E-002  0.2099849E+03  0.7546771E-02  0.1141578E+00
         21   -1    0    0  502  501  0.00000000000E+00  0.00000000000E+00  0.67188689130E+02  0.67188689130E+02  0.00000000000E+00 0. -1.
         21   -1    0    0  501  502 -0.00000000000E+00 -0.00000000000E+00 -0.65626578410E+03  0.65626578410E+03  0.00000000000E+00 0. -1.
         25    1    1    2    0    0  0.95876839730E+02  0.81506986877E+02 -0.48815597197E+03  0.51938137267E+03  0.12500000000E+03 0.  0.
         25    1    1    2    0    0 -0.95876839730E+02 -0.81506986877E+02 -0.10092112301E+03  0.20407310057E+03  0.12500000000E+03 0.  0.
</event>
<event>
 4    0  0.2250660E-002  0.2059097E+03  0.7546771E-02  0.1144847E+00
         21   -1    0    0  502  501  0.00000000000E+00  0.00000000000E+00  0.28191185024E+03  0.28191185024E+03  0.00000000000E+00 0. -1.
         21   -1    0    0  501  502 -0.00000000000E+00 -0.00000000000E+00 -0.15039733521E+03  0.15039733521E+03  0.00000000000E+00 0. -1.
         25    1    1    2    0    0 -0.68627439015E+02  0.13821124243E+03  0.12288664820E+03  0.23353415430E+03  0.12500000000E+03 0.  0.
         25    1    1    2    0    0  0.68627439015E+02 -0.13821124243E+03  0.86278668262E+01  0.19877503114E+03  0.12500000000E+03 0.  0.
</event>
<event>
 4    0  0.2250660E-002  0.2113886E+03  0.7546771E-02  0.1140471E+00
         21   -1    0    0  502  501  0.00000000000E+00  0.00000000000E+00  0.90055693179E+02  0.90055693179E+02  0.00000000000E+00 0. -1.
         21   -1    0    0  501  502 -0.00000000000E+00 -0.00000000000E+00 -0.49619439192E+03  0.49619439192E+03  0.00000000000E+00 0. -1.
         25    1    1    2    0    0 -0.24893596595E+01 -0.15434590408E+03 -0.30336340234E+03  0.36260613466E+03  0.12500000000E+03 0.  0.
         25    1    1    2    0    0  0.24893596595E+01  0.15434590408E+03 -0.10277529640E+03  0.22364395044E+03  0.12500000000E+03 0.  0.
</event>
<event>
 4    0  0.2250660E-002  0.2311333E+03  0.7546771E-02  0.1125845E+00
         21   -1    0    0  502  501  0.00000000000E+00  0.00000000000E+00  0.13220058661E+04  0.13220058661E+04  0.00000000000E+00 0.  1.
         21   -1    0    0  501  502 -0.00000000000E+00 -0.00000000000E+00 -0.40410249687E+02  0.40410249687E+02  0.00000000000E+00 0.  1.
         25    1    1    2    0    0 -0.16004021603E+02  0.14008142611E+03  0.10353186871E+04  0.10523253862E+04  0.12500000000E+03 0.  0.
         25    1    1    2    0    0  0.16004021603E+02 -0.14008142611E+03  0.24627692935E+03  0.31009072960E+03  0.12500000000E+03 0.  0.
</event>
<event>
 4    0  0.2250660E-002  0.2341889E+03  0.7546771E-02  0.1123726E+00
         21   -1    0    0  502  501  0.00000000000E+00  0.00000000000E+00  0.11622295303E+03  0.11622295303E+03  0.00000000000E+00 0.  1.
         21   -1    0    0  501  502 -0.00000000000E+00 -0.00000000000E+00 -0.47188979390E+03  0.47188979390E+03  0.00000000000E+00 0.  1.
         25    1    1    2    0    0  0.65658429739E+02  0.16927412607E+03 -0.27713734679E+03  0.35411137816E+03  0.12500000000E+03 0.  0.
         25    1    1    2    0    0 -0.65658429739E+02 -0.16927412607E+03 -0.78529494075E+02  0.23400136878E+03  0.12500000000E+03 0.  0.
</event>
<event>
 4    0  0.2250660E-002  0.2187169E+03  0.7546771E-02  0.1134843E+00
         21   -1    0    0  502  501  0.00000000000E+00  0.00000000000E+00  0.15336383756E+03  0.15336383756E+03  0.00000000000E+00 0. -1.
         21   -1    0    0  501  502 -0.00000000000E+00 -0.00000000000E+00 -0.31191902557E+03  0.31191902557E+03  0.00000000000E+00 0. -1.
         25    1    1    2    0    0  0.15255569082E+03  0.93026456514E+02 -0.97232374576E+02  0.23875991095E+03  0.12500000000E+03 0.  0.
         25    1    1    2    0    0 -0.15255569082E+03 -0.93026456514E+02 -0.61322813438E+02  0.22652295217E+03  0.12500000000E+03 0.  0.
</event>
<event>
 4    0  0.2250660E-002  0.1949595E+03  0.7546771E-02  0.1154063E+00
         21   -1    0    0  502  501  0.00000000000E+00  0.00000000000E+00  0.12030524894E+04  0.12030524894E+04  0.00000000000E+00 0. -1.
         21   -1    0    0  501  502 -0.00000000000E+00 -0.00000000000E+00 -0.31593967493E+02  0.31593967493E+02  0.00000000000E+00 0. -1.
         25    1    1    2    0    0 -0.25950164889E+02  0.10336535945E+03  0.91822415009E+03  0.93280137136E+03  0.12500000000E+03 0.  0.
         25    1    1    2    0    0  0.25950164889E+02 -0.10336535945E+03  0.25323437180E+03  0.30184508553E+03  0.12500000000E+03 0.  0.
</event>
<event>
 4    0  0.2250660E-002  0.2165127E+03  0.7546771E-02  0.1136510E+00
         21   -1    0    0  502  501  0.00000000000E+00  0.00000000000E+00  0.89168141272E+02  0.89168141272E+02  0.00000000000E+00 0.  1.
         21   -1    0    0  501  502 -0.00000000000E+00 -0.00000000000E+00 -0.52572291018E+03  0.52572291018E+03  0.00000000000E+00 0.  1.
         25    1    1    2    0    0 -0.13172223850E+03 -0.11295278908E+03 -0.26629849554E+03  0.34153911841E+03  0.12500000000E+03 0.  0.
         25    1    1    2    0    0  0.13172223850E+03  0.11295278908E+03 -0.17025627337E+03  0.27335193304E+03  0.12500000000E+03 0.  0.
</event>
<event>
 4    0  0.2250660E-002  0.1659501E+03  0.7546771E-02  0.1182138E+00
         21   -1    0    0  502  501  0.00000000000E+00  0.00000000000E+00  0.18442429262E+03  0.18442429262E+03  0.00000000000E+00 0. -1.
         21   -1    0    0  501  502 -0.00000000000E+00 -0.00000000000E+00 -0.14932650837E+03  0.14932650837E+03  0.00000000000E+00 0. -1.
         25    1    1    2    0    0  0.16293017607E+01  0.75401532760E+02  0.96896339402E+02  0.17521970881E+03  0.12500000000E+03 0.  0.
         25    1    1    2    0    0 -0.16293017607E+01 -0.75401532760E+02 -0.61798555152E+02  0.15853109217E+03  0.12500000000E+03 0.  0.
</event>
<event>
 4    0  0.2250660E-002  0.2900163E+03  0.7546771E-02  0.1090341E+00
         21   -1    0    0  502  501  0.00000000000E+00  0.00000000000E+00  0.12831763107E+03  0.12831763107E+03  0.00000000000E+00 0. -1.
         21   -1    0    0  501  502 -0.00000000000E+00 -0.00000000000E+00 -0.65547854448E+03  0.65547854448E+03  0.00000000000E+00 0. -1.
         25    1    1    2    0    0 -0.21674127559E+03 -0.14658981336E+03 -0.26948612189E+03  0.39587008452E+03  0.12500000000E+03 0.  0.
         25    1    1    2    0    0  0.21674127559E+03  0.14658981336E+03 -0.25767479152E+03  0.38792609104E+03  0.12500000000E+03 0.  0.
</event>
<event>
 4    0  0.2250660E-002  0.2239616E+03  0.7546771E-02  0.1130964E+00
         21   -1    0    0  502  501  0.00000000000E+00  0.00000000000E+00  0.43854474407E+03  0.43854474407E+03  0.00000000000E+00 0. -1.
         21   -1    0    0  501  502 -0.00000000000E+00 -0.00000000000E+00 -0.11437557534E+03  0.11437557534E+03  0.00000000000E+00 0. -1.
         25    1    1    2    0    0  0.13054929989E+03 -0.10923504874E+03  0.70053713171E+02  0.22250379391E+03  0.12500000000E+03 0.  0.
         25    1    1    2    0    0 -0.13054929989E+03  0.10923504874E+03  0.25411545556E+03  0.33041652551E+03  0.12500000000E+03 0.  0.
</event>
<event>
 4    0  0.2250660E-002  0.2304180E+03  0.7546771E-02  0.1126346E+00
         21   -1    0    0  502  501  0.00000000000E+00  0.00000000000E+00  0.13309301472E+04  0.13309301472E+04  0.00000000000E+00 0.  1.
         21   -1    0    0  501  502 -0.00000000000E+00 -0.00000000000E+00 -0.39891241799E+02  0.39891241799E+02  0.00000000000E+00 0.  1.
         25    1    1    2    0    0 -0.18641344666E+03 -0.29067627036E+02  0.51679771107E+03  0.56418062197E+03  0.12500000000E+03 0.  0.
         25    1    1    2    0    0  0.18641344666E+03  0.29067627036E+02  0.77424119434E+03  0.80664076704E+03  0.12500000000E+03 0.  0.
</event>
<event>
 4    0  0.2250660E-002  0.2394753E+03  0.7546771E-02  0.1120143E+00
         21   -1    0    0  502  501  0.00000000000E+00  0.00000000000E+00  0.23640328135E+03  0.23640328135E+03  0.00000000000E+00 0.  1.
         21   -1    0    0  501  502 -0.00000000000E+00 -0.00000000000E+00 -0.24258717172E+03  0.24258717172E+03  0.00000000000E+00 0.  1.
         25    1    1    2    0    0  0.10629780374E+03  0.50967633648E+02 -0.16991855995E+03  0.24164900118E+03  0.12500000000E+03 0.  0.
         25    1    1    2    0    0 -0.10629780374E+03 -0.50967633648E+02  0.16373466957E+03  0.23734145188E+03  0.12500000000E+03 0.  0.
</event>
<event>
 4    0  0.2250660E-002  0.1638651E+03  0.7546771E-02  0.1184401E+00
         21   -1    0    0  502  501  0.00000000000E+00  0.00000000000E+00  0.55394844246E+02  0.55394844246E+02  0.00000000000E+00 0. -1.
         21   -1    0    0  501  502 -0.00000000000E+00 -0.00000000000E+00 -0.48473399112E+03  0.48473399112E+03  0.00000000000E+00 0. -1.
         25    1    1    2    0    0 -0.65537653237E+02 -0.60257273228E+02 -0.30935433729E+03  0.34532771242E+03  0.12500000000E+03 0.  0.
         25    1    1    2    0    0  0.65537653237E+02  0.60257273228E+02 -0.11998480959E+03  0.19480112294E+03  0.12500000000E+03 0.  0.
</event>
<event>
 4    0  0.2250660E-002  0.2202037E+03  0.7546771E-02  0.1133731E+00
         21   -1    0    0  502  501  0.00000000000E+00  0.00000000000E+00  0.45982148876E+03  0.45982148876E+03  0.00000000000E+00 0.  1.
         21   -1    0    0  501  502 -0.00000000000E+00 -0.00000000000E+00 -0.10545328549E+03  0.10545328549E+03  0.00000000000E+00 0.  1.
         25    1    1    2    0    0  0.42071209352E+02 -0.13659542236E+03  0.32032116354E+03  0.37236936485E+03  0.12500000000E+03 0.  0.
         25    1    1    2    0    0 -0.42071209352E+02  0.13659542236E+03  0.34047039735E+02  0.19290540941E+03  0.12500000000E+03 0.  0.
</event>
<event>
 4    0  0.2250660E-002  0.2202890E+03  0.7546771E-02  0.1133668E+00
         21   -1    0    0  502  501  0.00000000000E+00  0.00000000000E+00  0.38223307791E+03  0.38223307791E+03  0.00000000000E+00 0.  1.
         21   -1    0    0  501  502 -0.00000000000E+00 -0.00000000000E+00 -0.12695723077E+03  0.12695723077E+03  0.00000000000E+00 0.  1.
         25    1    1    2    0    0 -0.21856710170E+02 -0.18006411414E+03  0.12624523109E+03  0.25389694633E+03  0.12500000000E+03 0.  0.
         25    1    1    2    0    0  0.21856710170E+02  0.18006411414E+03  0.12903061605E+03  0.25529336235E+03  0.12500000000E+03 0.  0.
</event>
<event>
 4    0  0.2250660E-002  0.2835778E+03  0.7546771E-02  0.1093751E+00
         21   -1    0    0  502  501  0.00000000000E+00  0.00000000000E+00  0.70174212696E+03  0.70174212696E+03  0.00000000000E+00 0. -1.
         21   -1    0    0  501  502 -0.00000000000E+00 -0.00000000000E+00 -0.11459529025E+03  0.11459529025E+03  0.00000000000E+00 0. -1.
         25    1    1    2    0    0 -0.13666010581E+02  0.57087255142E+02 -0.62926436585E+02  0.15175786954E+03  0.12500000000E+03 0.  0.
         25    1    1    2    0    0  0.13666010581E+02 -0.57087255142E+02  0.65007327329E+03  0.66457954768E+03  0.12500000000E+03 0.  0.
</event>
<event>
 4    0  0.2250660E-002  0.2652713E+03  0.7546771E-02  0.1104017E+00
         21   -1    0    0  502  501  0.00000000000E+00  0.00000000000E+00  0.26756770823E+03  0.26756770823E+03  0.00000000000E+00 0. -1.
         21   -1    0    0  501  502 -0.00000000000E+00 -0.00000000000E+00 -0.26299458622E+03  0.26299458622E+03  0.00000000000E+00 0. -1.
         25    1    1    2    0    0 -0.19952225540E+03  0.11782997419E+03 -0.30131081867E+02  0.26500172700E+03  0.12500000000E+03 0.  0.
         25    1    1    2    0    0  0.19952225540E+03 -0.11782997419E+03  0.34704203886E+02  0.26556056745E+03  0.12500000000E+03 0.  0.
</event>
<event>
 4    0  0.2250660E-002  0.1766039E+03  0.7546771E-02  0.1171131E+00
         21   -1    0    0  502  501  0.00000000000E+00  0.00000000000E+00  0.30024320506E+03  0.30024320506E+03  0.00000000000E+00 0.  1.
         21   -1    0    0  501  502 -0.00000000000E+00 -0.00000000000E+00 -0.10387887670E+03  0.10387887670E+03  0.00000000000E+00 0.  1.
         25    1    1    2    0    0 -0.38843763462E+02 -0.65248605930E+02  0.21143383643E+03  0.25709042324E+03  0.12500000000E+03 0.  0.
         25    1    1    2    0    0  0.38843763462E+02  0.65248605930E+02 -0.15069508064E+02  0.14703165853E+03  0.12500000000E+03 0.  0.
</event>
<event>
 4    0  0.2250660E-002  0.3040469E+03  0.7546771E-02  0.1083235E+00
         21   -1    0    0  502  501  0.00000000000E+00  0.00000000000E+00  0.95936743185E+02  0.95936743185E+02  0.00000000000E+00 0. -1.
         21   -1    0    0  501  502 -0.00000000000E+00 -0.00000000000E+00 -0.96359851278E+03  0.96359851278E+03  0.00000000000E+00 0. -1.
         25    1    1    2    0    0  0.17064248144E+03  0.13850490437E+03 -0.13959402418E+03  0.28881474442E+03  0.12500000000E+03 0.  0.
         25    1    1    2    0    0 -0.17064248144E+03 -0.13850490437E+03 -0.72806774542E+03  0.77072051155E+03  0.12500000000E+03 0.  0.
</event>
<event>
 4    0  0.2250660E-002  0.2436480E+03  0.7546771E-02  0.1117386E+00
         21   -1    0    0  502  501  0.00000000000E+00  0.00000000000E+00  0.11972443915E+04  0.11972443915E+04  0.00000000000E+00 0. -1.
         21   -1    0    0  501  502 -0.00000000000E+00 -0.00000000000E+00 -0.49584157777E+02  0.49584157777E+02  0.00000000000E+00 0. -1.
         25    1    1    2    0    0 -0.13105615757E+03  0.14820444932E+03  0.40031020120E+03  0.46369551693E+03  0.12500000000E+03 0.  0.
         25    1    1    2    0    0  0.13105615757E+03 -0.14820444932E+03  0.74735003249E+03  0.78313303232E+03  0.12500000000E+03 0.  0.
</event>
<event>
 4    0  0.2250660E-002  0.2867275E+03  0.7546771E-02  0.1092070E+00
         21   -1    0    0  502  501  0.00000000000E+00  0.00000000000E+00  0.56849593044E+02  0.56849593044E+02  0.00000000000E+00 0.  1.
         21   -1    0    0  501  502 -0.00000000000E+00 -0.00000000000E+00 -0.14461429903E+04  0.14461429903E+04  0.00000000000E+00 0.  1.
         25    1    1    2    0    0  0.20200650314E+03  0.15978414059E+03 -0.73609088971E+03  0.78980529044E+03  0.12500000000E+03 0.  0.
         25    1    1    2    0    0 -0.20200650314E+03 -0.15978414059E+03 -0.65320250756E+03  0.71318729292E+03  0.12500000000E+03 0.  0.
</event>
<event>
 4    0  0.2250660E-002  0.1825546E+03  0.7546771E-02  0.1165353E+00
         21   -1    0    0  502  501  0.00000000000E+00  0.00000000000E+00  0.34030973194E+03  0.34030973194E+03  0.00000000000E+00 0. -1.
         21   -1    0    0  501  502 -0.00000000000E+00 -0.00000000000E+00 -0.97928942154E+02  0.97928942154E+02  0.00000000000E+00 0. -1.
         25    1    1    2    0    0 -0.60618013409E+02  0.83170742097E+02  0.22239495250E+03  0.27509349463E+03  0.12500000000E+03 0.  0.
         25    1    1    2    0    0  0.60618013409E+02 -0.83170742097E+02  0.19985837288E+02  0.16314517946E+03  0.12500000000E+03 0.  0.
</event>
<event>
 4    0  0.2250660E-002  0.2254587E+03  0.7546771E-02  0.1129878E+00
         21   -1    0    0  502  501  0.00000000000E+00  0.00000000000E+00  0.11843012428E+03  0.11843012428E+03  0.00000000000E+00 0. -1.
         21   -1    0    0  501  502 -0.00000000000E+00 -0.00000000000E+00 -0.42921208142E+03  0.42921208142E+03  0.00000000000E+00 0. -1.
         25    1    1    2    0    0  0.18750238933E+03 -0.66890381621E+01 -0.15274376956E+03  0.27231883589E+03  0.12500000000E+03 0.  0.
         25    1    1    2    0    0 -0.18750238933E+03  0.66890381621E+01 -0.15803818757E+03  0.27532336982E+03  0.12500000000E+03 0.  0.
</event>
<event>
 4    0  0.2250660E-002  0.3185433E+03  0.7546771E-02  0.1076322E+00
         21   -1    0    0  502  501  0.00000000000E+00  0.00000000000E+00  0.38499535291E+03  0.38499535291E+03  0.00000000000E+00 0.  1.
         21   -1    0    0  501  502 -0.00000000000E+00 -0.00000000000E+00 -0.26356114126E+03  0.26356114126E+03  0.00000000000E+00 0. -1.
         25    1    1    2    0    0 -0.73623125245E+02  0.26693995866E+03 -0.36753809358E+02  0.30602801931E+03  0.12500000000E+03 0.  0.
         25    1    1    2    0    0  0.73623125245E+02 -0.26693995866E+03  0.15818802102E+03  0.34252847486E+03  0.12500000000E+03 0.  0.
</event>
<event>
 4    0  0.2250660E-002  0.2470112E+03  0.7546771E-02  0.1115208E+00
         21   -1    0    0  502  501  0.00000000000E+00  0.00000000000E+00  0.63698628552E+03  0.63698628552E+03  0.00000000000E+00 0.  1.
         21   -1    0    0  501  502 -0.00000000000E+00 -0.00000000000E+00 -0.95786274270E+02  0.95786274270E+02  0.00000000000E+00 0.  1.
         25    1    1    2    0    0  0.13170671103E+03  0.63194722787E+02  0.40575634517E+02  0.19649837871E+03  0.12500000000E+03 0.  0.
         25    1    1    2    0    0 -0.13170671103E+03 -0.63194722787E+02  0.50062437674E+03  0.53627418109E+03  0.12500000000E+03 0.  0.
</event>
<event>
 4    0  0.2250660E-002  0.4695814E+03  0.7546771E-02  0.1022038E+00
         21   -1    0    0  502  501  0.00000000000E+00  0.00000000000E+00  0.26439814805E+03  0.26439814805E+03  0.00000000000E+00 0.  1.
         21   -1    0    0  501  502 -0.00000000000E+00 -0.00000000000E+00 -0.83399500068E+03  0.83399500068E+03  0.00000000000E+00 0.  1.
         25    1    1    2    0    0 -0.21164181098E+03 -0.37718009519E+03 -0.12865365814E+03  0.46822413876E+03  0.12500000000E+03 0.  0.
         25    1    1    2    0    0  0.21164181098E+03  0.37718009519E+03 -0.44094319449E+03  0.63016900997E+03  0.12500000000E+03 0.  0.
</event>
<event>
 4    0  0.2250660E-002  0.4552499E+03  0.7546771E-02  0.1026168E+00
         21   -1    0    0  502  501  0.00000000000E+00  0.00000000000E+00  0.25019861019E+03  0.25019861019E+03  0.00000000000E+00 0. -1.
         21   -1    0    0  501  502 -0.00000000000E+00 -0.00000000000E+00 -0.82835168589E+03  0.82835168589E+03  0.00000000000E+00 0. -1.
         25    1    1    2    0    0 -0.21891801479E+03 -0.24502614266E+03  0.53558108049E+02  0.35560705663E+03  0.12500000000E+03 0.  0.
         25    1    1    2    0    0  0.21891801479E+03  0.24502614266E+03 -0.63171118375E+03  0.72294323945E+03  0.12500000000E+03 0.  0.
</event>
<event>
 4    0  0.2250660E-002  0.2487614E+03  0.7546771E-02  0.1114090E+00
         21   -1    0    0  502  501  0.00000000000E+00  0.00000000000E+00  0.77837952684E+03  0.77837952684E+03  0.00000000000E+00 0.  1.
         21   -1    0    0  501  502 -0.00000000000E+00 -0.00000000000E+00 -0.79501337287E+02  0.79501337287E+02  0.00000000000E+00 0.  1.
         25    1    1    2    0    0  0.53667013312E+02  0.11273279942E+03  0.47472090788E+02  0.18294106097E+03  0.12500000000E+03 0.  0.
         25    1    1    2    0    0 -0.53667013312E+02 -0.11273279942E+03  0.65140609876E+03  0.67493980316E+03  0.12500000000E+03 0.  0.
</event>
<event>
 4    0  0.2250660E-002  0.1681432E+03  0.7546771E-02  0.1179798E+00
         21   -1    0    0  502  501  0.00000000000E+00  0.00000000000E+00  0.16609507829E+04  0.16609507829E+04  0.00000000000E+00 0.  1.
         21   -1    0    0  501  502 -0.00000000000E+00 -0.00000000000E+00 -0.17021662908E+02  0.17021662908E+02  0.00000000000E+00 0.  1.
         25    1    1    2    0    0  0.40440030571E+02  0.60357429748E+02  0.39364121539E+03  0.41935286079E+03  0.12500000000E+03 0.  0.
         25    1    1    2    0    0 -0.40440030571E+02 -0.60357429748E+02  0.12502879046E+04  0.12586195850E+04  0.12500000000E+03 0.  0.
</event>
<event>
 4    0  0.2250660E-002  0.1664742E+03  0.7546771E-02  0.1181575E+00
         21   -1    0    0  502  501  0.00000000000E+00  0.00000000000E+00  0.88898278336E+02  0.88898278336E+02  0.00000000000E+00 0. -1.
         21   -1    0    0  501  502 -0.00000000000E+00 -0.00000000000E+00 -0.31174585499E+03  0.31174585499E+03  0.00000000000E+00 0. -1.
         25    1    1    2    0    0  0.71774763167E+02 -0.81696859789E+02 -0.91921203058E+02  0.18947427556E+03  0.12500000000E+03 0.  0.
         25    1    1    2    0    0 -0.71774763167E+02  0.81696859789E+02 -0.13092637360E+03  0.21116985777E+03  0.12500000000E+03 0.  0.
</event>
<event>
 4    0  0.2250660E-002  0.1949527E+03  0.7546771E-02  0.1154069E+00
         21   -1    0    0  502  501  0.00000000000E+00  0.00000000000E+00  0.68194478808E+03  0.68194478808E+03  0.00000000000E+00 0.  1.
         21   -1    0    0  501  502 -0.00000000000E+00 -0.00000000000E+00 -0.55732594386E+02  0.55732594386E+02  0.00000000000E+00 0.  1.
         25    1    1    2    0    0 -0.13425758140E+03 -0.12500524981E+02  0.19049161876E+03  0.26475161587E+03  0.12500000000E+03 0.  0.
         25    1    1    2    0    0  0.13425758140E+03  0.12500524981E+02  0.43572057493E+03  0.47292576660E+03  0.12500000000E+03 0.  0.
</event>
<event>
 4    0  0.2250660E-002  0.2719216E+03  0.7546771E-02  0.1100185E+00
         21   -1    0    0  502  501  0.00000000000E+00  0.00000000000E+00  0.40000176679E+02  0.40000176679E+02  0.00000000000E+00 0.  1.
         21   -1    0    0  501  502 -0.00000000000E+00 -0.00000000000E+00 -0.18485257616E+04  0.18485257616E+04  0.00000000000E+00 0.  1.
         25    1    1    2    0    0 -0.21668416751E+03 -0.34858792304E+02 -0.12540992044E+04  0.12792798671E+04  0.12500000000E+03 0.  0.
         25    1    1    2    0    0  0.21668416751E+03  0.34858792304E+02 -0.55442638055E+03  0.60924607122E+03  0.12500000000E+03 0.  0.
</event>
<event>
 4    0  0.2250660E-002  0.2276620E+03  0.7546771E-02  0.1128296E+00
         21   -1    0    0  502  501  0.00000000000E+00  0.00000000000E+00  0.11117529767E+03  0.11117529767E+03  0.00000000000E+00 0. -1.
         21   -1    0    0  501  502 -0.00000000000E+00 -0.00000000000E+00 -0.46620074148E+03  0.46620074148E+03  0.00000000000E+00 0. -1.
         25    1    1    2    0    0 -0.52652933455E+02 -0.14138396741E+03 -0.32453740270E+03  0.37909271082E+03  0.12500000000E+03 0.  0.
         25    1    1    2    0    0  0.52652933455E+02  0.14138396741E+03 -0.30488041113E+02  0.19828332833E+03  0.12500000000E+03 0.  0.
</event>
<event>
 4    0  0.2250660E-002  0.1789508E+03  0.7546771E-02  0.1168822E+00
         21   -1    0    0  502  501  0.00000000000E+00  0.00000000000E+00  0.20736681505E+04  0.20736681505E+04  0.00000000000E+00 0.  1.
         21   -1    0    0  501  502 -0.00000000000E+00 -0.00000000000E+00 -0.15442877936E+02  0.15442877936E+02  0.00000000000E+00 0.  1.
         25    1    1    2    0    0 -0.98314015499E+02 -0.79513443944E+02  0.11473585002E+04  0.11610532122E+04  0.12500000000E+03 0.  0.
         25    1    1    2    0    0  0.98314015499E+02  0.79513443944E+02  0.91086677229E+03  0.92805781624E+03  0.12500000000E+03 0.  0.
</event>
<event>
 4    0  0.2250660E-002  0.3264058E+03  0.7546771E-02  0.1072738E+00
         21   -1    0    0  502  501  0.00000000000E+00  0.00000000000E+00  0.18188978049E+04  0.18188978049E+04  0.00000000000E+00 0. -1.
         21   -1    0    0  501  502 -0.00000000000E+00 -0.00000000000E+00 -0.58574353700E+02  0.58574353700E+02  0.00000000000E+00 0.  1.
         25    1    1    2    0    0 -0.87648372446E+02 -0.26287939666E+03  0.53831992549E+03  0.61822419603E+03  0.12500000000E+03 0.  0.
         25    1    1    2    0    0  0.87648372446E+02  0.26287939666E+03  0.12220035257E+04  0.12592479626E+04  0.12500000000E+03 0.  0.
</event>
<event>
 4    0  0.2250660E-002  0.1620074E+03  0.7546771E-02  0.1186449E+00
         21   -1    0    0  502  501  0.00000000000E+00  0.00000000000E+00  0.64647948331E+02  0.64647948331E+02  0.00000000000E+00 0.  1.
         21   -1    0    0  501  502 -0.00000000000E+00 -0.00000000000E+00 -0.40598961313E+03  0.40598961313E+03  0.00000000000E+00 0.  1.
         25    1    1    2    0    0 -0.45364677218E+02  0.69057782045E+02 -0.81196803756E+02  0.17042550320E+03  0.12500000000E+03 0.  0.
         25    1    1    2    0    0  0.45364677218E+02 -0.69057782045E+02 -0.26014486105E+03  0.30021205827E+03  0.12500000000E+03 0.  0.
</event>
<event>
 4    0  0.2250660E-002  0.1811932E+03  0.7546771E-02  0.1166653E+00
         21   -1    0    0  502  501  0.00000000000E+00  0.00000000000E+00  0.37537019589E+02  0.37537019589E+02  0.00000000000E+00 0.  1.
         21   -1    0    0  501  502 -0.00000000000E+00 -0.00000000000E+00 -0.87462957428E+03  0.87462957428E+03  0.00000000000E+00 0.  1.
         25    1    1    2    0    0  0.12028159158E+03  0.41202844303E+02 -0.33734648530E+03  0.38156649066E+03  0.12500000000E+03 0.  0.
         25    1    1    2    0    0 -0.12028159158E+03 -0.41202844303E+02 -0.49974606939E+03  0.53060010320E+03  0.12500000000E+03 0.  0.
</event>
<event>
 4    0  0.2250660E-002  0.1743027E+03  0.7546771E-02  0.1173434E+00
         21   -1    0    0  502  501  0.00000000000E+00  0.00000000000E+00  0.27167188828E+03  0.27167188828E+03  0.00000000000E+00 0. -1.
         21   -1    0    0  501  502 -0.00000000000E+00 -0.00000000000E+00 -0.11183131618E+03  0.11183131618E+03  0.00000000000E+00 0. -1.
         25    1    1    2    0    0 -0.10322406041E+03 -0.32182799839E+02  0.19010850955E+02  0.16636511566E+03  0.12500000000E+03 0.  0.
         25    1    1    2    0    0  0.10322406041E+03  0.32182799839E+02  0.14082972115E+03  0.21713808881E+03  0.12500000000E+03 0.  0.
</event>
<event>
 4    0  0.2250660E-002  0.4616764E+03  0.7546771E-02  0.1024296E+00
         21   -1    0    0  502  501  0.00000000000E+00  0.00000000000E+00  0.50767230042E+03  0.50767230042E+03  0.00000000000E+00 0. -1.
         21   -1    0    0  501  502 -0.00000000000E+00 -0.00000000000E+00 -0.41984771991E+03  0.41984771991E+03  0.00000000000E+00 0. -1.
         25    1    1    2    0    0  0.36780661486E+03  0.82556397265E+02  0.28039525849E+03  0.48615199851E+03  0.12500000000E+03 0.  0.
         25    1    1    2    0    0 -0.36780661486E+03 -0.82556397265E+02 -0.19257067798E+03  0.44136802182E+03  0.12500000000E+03 0.  0.
</event>
<event>
 4    0  0.2250660E-002  0.2398342E+03  0.7546771E-02  0.1119903E+00
         21   -1    0    0  502  501  0.00000000000E+00  0.00000000000E+00  0.61382904598E+03  0.61382904598E+03  0.00000000000E+00 0. -1.
         21   -1    0    0  501  502 -0.00000000000E+00 -0.00000000000E+00 -0.93707562402E+02  0.93707562402E+02  0.00000000000E+00 0. -1.
         25    1    1    2    0    0 -0.97792537215E+02  0.10245940557E+03  0.42101311699E+02  0.19354283911E+03  0.12500000000E+03 0.  0.
         25    1    1    2    0    0  0.97792537215E+02 -0.10245940557E+03  0.47802017188E+03  0.51399376927E+03  0.12500000000E+03 0.  0.
</event>
<event>
 4    0  0.2250660E-002  0.3554454E+03  0.7546771E-02  0.1060402E+00
         21   -1    0    0  502  501  0.00000000000E+00  0.00000000000E+00  0.58040664117E+02  0.58040664117E+02  0.00000000000E+00 0.  1.
         21   -1    0    0  501  502 -0.00000000000E+00 -0.00000000000E+00 -0.21767743559E+04  0.21767743559E+04  0.00000000000E+00 0.  1.
         25    1    1    2    0    0  0.21804696452E+03 -0.14304356816E+03 -0.17090565144E+04  0.17333508330E+04  0.12500000000E+03 0.  0.
         25    1    1    2    0    0 -0.21804696452E+03  0.14304356816E+03 -0.40967717746E+03  0.50146418702E+03  0.12500000000E+03 0.  0.
</event>
<event>
 4    0  0.2250660E-002  0.1748822E+03  0.7546771E-02  0.1172850E+00
         21   -1    0    0  502  501  0.00000000000E+00  0.00000000000E+00  0.64417534948E+03  0.64417534948E+03  0.00000000000E+00 0.  1.
         21   -1    0    0  501  502 -0.00000000000E+00 -0.00000000000E+00 -0.47477440502E+02  0.47477440502E+02  0.00000000000E+00 0.  1.
         25    1    1    2    0    0 -0.54036534227E+02  0.65894705718E+02  0.12486241809E+03  0.19615729078E+03  0.12500000000E+03 0.  0.
         25    1    1    2    0    0  0.54036534227E+02 -0.65894705718E+02  0.47183549088E+03  0.49549549920E+03  0.12500000000E+03 0.  0.
</event>
<event>
 4    0  0.2250660E-002  0.2319633E+03  0.7546771E-02  0.1125265E+00
         21   -1    0    0  502  501  0.00000000000E+00  0.00000000000E+00  0.19092938296E+03  0.19092938296E+03  0.00000000000E+00 0.  1.
         21   -1    0    0  501  502 -0.00000000000E+00 -0.00000000000E+00 -0.28181614029E+03  0.28181614029E+03  0.00000000000E+00 0.  1.
         25    1    1    2    0    0  0.87456394632E+02 -0.17311740134E+03 -0.21249126136E+02  0.23172134337E+03  0.12500000000E+03 0.  0.
         25    1    1    2    0    0 -0.87456394632E+02  0.17311740134E+03 -0.69637631191E+02  0.24102417988E+03  0.12500000000E+03 0.  0.
</event>
<event>
 4    0  0.2250660E-002  0.4395378E+03  0.7546771E-02  0.1030889E+00
         21   -1    0    0  502  501  0.00000000000E+00  0.00000000000E+00  0.10841172749E+04  0.10841172749E+04  0.00000000000E+00 0. -1.
         21   -1    0    0  501  502 -0.00000000000E+00 -0.00000000000E+00 -0.17820345805E+03  0.17820345805E+03  0.00000000000E+00 0. -1.
         25    1    1    2    0    0 -0.35547454551E+03 -0.12117064228E+03  0.17852632186E+03  0.43421322487E+03  0.12500000000E+03 0.  0.
         25    1    1    2    0    0  0.35547454551E+03  0.12117064228E+03  0.72738749497E+03  0.82810750805E+03  0.12500000000E+03 0.  0.
</event>
<event>
 4    0  0.2250660E-002  0.4884976E+03  0.7546771E-02  0.1016826E+00
         21   -1    0    0  502  501  0.00000000000E+00  0.00000000000E+00  0.79471514456E+02  0.79471514456E+02  0.00000000000E+00 0.  1.
         21   -1    0    0  501  502 -0.00000000000E+00 -0.00000000000E+00 -0.30027102861E+04  0.30027102861E+04  0.00000000000E+00 0.  1.
         25    1    1    2    0    0 -0.43115981747E+03  0.13766144400E+03 -0.10365404603E+04  0.11379325935E+04  0.12500000000E+03 0.  0.
         25    1    1    2    0    0  0.43115981747E+03 -0.13766144400E+03 -0.18866983113E+04  0.19442492071E+04  0.12500000000E+03 0.  0.
</event>
<event>
 4    0  0.2250660E-002  0.1816278E+03  0.7546771E-02  0.1166237E+00
         21   -1    0    0  502  501  0.00000000000E+00  0.00000000000E+00  0.39188050982E+02  0.39188050982E+02  0.00000000000E+00 0. -1.
         21   -1    0    0  501  502 -0.00000000000E+00 -0.00000000000E+00 -0.84180421083E+03  0.84180421083E+03  0.00000000000E+00 0. -1.
         25    1    1    2    0    0  0.96345963742E+02  0.86936500077E+02 -0.34583532870E+03  0.38995842644E+03  0.12500000000E+03 0.  0.
         25    1    1    2    0    0 -0.96345963742E+02 -0.86936500077E+02 -0.45678083114E+03  0.49103383536E+03  0.12500000000E+03 0.  0.
</event>
<event>
 4    0  0.2250660E-002  0.2150466E+03  0.7546771E-02  0.1137631E+00
         21   -1    0    0  502  501  0.00000000000E+00  0.00000000000E+00  0.87100744049E+02  0.87100744049E+02  0.00000000000E+00 0.  1.
         21   -1    0    0  501  502 -0.00000000000E+00 -0.00000000000E+00 -0.53093732444E+03  0.53093732444E+03  0.00000000000E+00 0.  1.
         25    1    1    2    0    0 -0.49858896535E+02 -0.13895580400E+03 -0.35691405360E+03  0.40596461260E+03  0.12500000000E+03 0.  0.
         25    1    1    2    0    0  0.49858896535E+02  0.13895580400E+03 -0.86922526794E+02  0.21207345589E+03  0.12500000000E+03 0.  0.
</event>
<event>
 4    0  0.2250660E-002  0.2173161E+03  0.7546771E-02  0.1135900E+00
         21   -1    0    0  502  501  0.00000000000E+00  0.00000000000E+00  0.20912340682E+03  0.20912340682E+03  0.00000000000E+00 0. -1.
         21   -1    0    0  501  502 -0.00000000000E+00 -0.00000000000E+00 -0.22582984741E+03  0.22582984741E+03  0.00000000000E+00 0. -1.
         25    1    1    2    0    0 -0.11878886852E+03 -0.80678830038E+02  0.96516523159E+02  0.21344860773E+03  0.12500000000E+03 0.  0.
         25    1    1    2    0    0  0.11878886852E+03  0.80678830038E+02 -0.11322296375E+03  0.22150464650E+03  0.12500000000E+03 0.  0.
</event>
<event>
 4    0  0.2250660E-002  0.2059437E+03  0.7546771E-02  0.1144819E+00
         21   -1    0    0  502  501  0.00000000000E+00  0.00000000000E+00  0.29058309351E+02  0.29058309351E+02  0.00000000000E+00 0.  1.
         21   -1    0    0  501  502 -0.00000000000E+00 -0.00000000000E+00 -0.14595756354E+04  0.14595756354E+04  0.00000000000E+00 0.  1.
         25    1    1    2    0    0  0.12748548707E+03 -0.31868421461E+02 -0.36262802366E+03  0.40545311596E+03  0.12500000000E+03 0.  0.
         25    1    1    2    0    0 -0.12748548707E+03  0.31868421461E+02 -0.10678893024E+04  0.10831808288E+04  0.12500000000E+03 0.  0.
</event>
<event>
 4    0  0.2250660E-002  0.1684087E+03  0.7546771E-02  0.1179518E+00
         21   -1    0    0  502  501  0.00000000000E+00  0.00000000000E+00  0.39195973059E+02  0.39195973059E+02  0.00000000000E+00 0.  1.
         21   -1    0    0  501  502 -0.00000000000E+00 -0.00000000000E+00 -0.72358157237E+03  0.72358157237E+03  0.00000000000E+00 0.  1.
         25    1    1    2    0    0  0.23037493874E+02  0.10514448717E+03 -0.41900440295E+03  0.45030631685E+03  0.12500000000E+03 0.  0.
         25    1    1    2    0    0 -0.23037493874E+02 -0.10514448717E+03 -0.26538119637E+03  0.31247122858E+03  0.12500000000E+03 0.  0.
</event>
<event>
 4    0  0.2250660E-002  0.2598947E+03  0.7546771E-02  0.1107206E+00
         21   -1    0    0  502  501  0.00000000000E+00  0.00000000000E+00  0.89021188398E+03  0.89021188398E+03  0.00000000000E+00 0.  1.
         21   -1    0    0  501  502 -0.00000000000E+00 -0.00000000000E+00 -0.75875500266E+02  0.75875500266E+02  0.00000000000E+00 0.  1.
         25    1    1    2    0    0 -0.22720626176E+03  0.13409010013E+02  0.42733950318E+03  0.50004653574E+03  0.12500000000E+03 0.  0.
         25    1    1    2    0    0  0.22720626176E+03 -0.13409010013E+02  0.38699688053E+03  0.46604084850E+03  0.12500000000E+03 0.  0.
</event>
<event>
 4    0  0.2250660E-002  0.2667840E+03  0.7546771E-02  0.1103134E+00
         21   -1    0    0  502  501  0.00000000000E+00  0.00000000000E+00  0.25742262484E+02  0.25742262484E+02  0.00000000000E+00 0.  1.
         21   -1    0    0  501  502 -0.00000000000E+00 -0.00000000000E+00 -0.27648581108E+04  0.27648581108E+04  0.00000000000E+00 0.  1.
         25    1    1    2    0    0 -0.12308269391E+03  0.18822357636E+03 -0.10008009935E+04  0.10333465502E+04  0.12500000000E+03 0.  0.
         25    1    1    2    0    0  0.12308269391E+03 -0.18822357636E+03 -0.17383148548E+04  0.17572538230E+04  0.12500000000E+03 0.  0.
</event>
<event>
 4    0  0.2250660E-002  0.2076122E+03  0.7546771E-02  0.1143471E+00
         21   -1    0    0  502  501  0.00000000000E+00  0.00000000000E+00  0.19735105702E+03  0.19735105702E+03  0.00000000000E+00 0.  1.
         21   -1    0    0  501  502 -0.00000000000E+00 -0.00000000000E+00 -0.21840683340E+03  0.21840683340E+03  0.00000000000E+00 0.  1.
         25    1    1    2    0    0 -0.81577404852E+02 -0.65077765778E+02 -0.13948712790E+03  0.21440999844E+03  0.12500000000E+03 0.  0.
         25    1    1    2    0    0  0.81577404852E+02  0.65077765778E+02  0.11843135152E+03  0.20134789198E+03  0.12500000000E+03 0.  0.
</event>
<event>
 4    0  0.2250660E-002  0.2660819E+03  0.7546771E-02  0.1103543E+00
         21   -1    0    0  502  501  0.00000000000E+00  0.00000000000E+00  0.38918793600E+03  0.38918793600E+03  0.00000000000E+00 0.  1.
         21   -1    0    0  501  502 -0.00000000000E+00 -0.00000000000E+00 -0.18191621282E+03  0.18191621282E+03  0.00000000000E+00 0. -1.
         25    1    1    2    0    0  0.17287609615E+03 -0.63820390474E+02 -0.52677330209E+02  0.22882108290E+03  0.12500000000E+03 0.  0.
         25    1    1    2    0    0 -0.17287609615E+03  0.63820390474E+02  0.25994905339E+03  0.34228306592E+03  0.12500000000E+03 0.  0.
</event>
<event>
 4    0  0.2250660E-002  0.2216399E+03  0.7546771E-02  0.1132666E+00
         21   -1    0    0  502  501  0.00000000000E+00  0.00000000000E+00  0.92548991753E+03  0.92548991753E+03  0.00000000000E+00 0. -1.
         21   -1    0    0  501  502 -0.00000000000E+00 -0.00000000000E+00 -0.53079180400E+02  0.53079180400E+02  0.00000000000E+00 0. -1.
         25    1    1    2    0    0 -0.17986919131E+03 -0.28195742791E+02  0.47758296261E+03  0.52617336693E+03  0.12500000000E+03 0.  0.
         25    1    1    2    0    0  0.17986919131E+03  0.28195742791E+02  0.39482777453E+03  0.45239573101E+03  0.12500000000E+03 0.  0.
</event>
<event>
 4    0  0.2250660E-002  0.1915813E+03  0.7546771E-02  0.1157043E+00
         21   -1    0    0  502  501  0.00000000000E+00  0.00000000000E+00  0.60162479009E+02  0.60162479009E+02  0.00000000000E+00 0.  1.
         21   -1    0    0  501  502 -0.00000000000E+00 -0.00000000000E+00 -0.61007094378E+03  0.61007094378E+03  0.00000000000E+00 0.  1.
         25    1    1    2    0    0 -0.12703718913E+03  0.64363183636E+02 -0.22556211803E+03  0.29459181238E+03  0.12500000000E+03 0.  0.
         25    1    1    2    0    0  0.12703718913E+03 -0.64363183636E+02 -0.32434634673E+03  0.37564161041E+03  0.12500000000E+03 0.  0.
</event>
<event>
 4    0  0.2250660E-002  0.1890905E+03  0.7546771E-02  0.1159284E+00
         21   -1    0    0  502  501  0.00000000000E+00  0.00000000000E+00  0.23396035022E+02  0.23396035022E+02  0.00000000000E+00 0.  1.
         21   -1    0    0  501  502 -0.00000000000E+00 -0.00000000000E+00 -0.15282590185E+04  0.15282590185E+04  0.00000000000E+00 0.  1.
         25    1    1    2    0    0  0.44443636704E+02  0.84265719167E+02 -0.32105122522E+03  0.35745606372E+03  0.12500000000E+03 0.  0.
         25    1    1    2    0    0 -0.44443636704E+02 -0.84265719167E+02 -0.11838117583E+04  0.11941989898E+04  0.12500000000E+03 0.  0.
</event>
<event>
 4    0  0.2250660E-002  0.2151291E+03  0.7546771E-02  0.1137567E+00
         21   -1    0    0  502  501  0.00000000000E+00  0.00000000000E+00  0.56756479531E+03  0.56756479531E+03  0.00000000000E+00 0.  1.
         21   -1    0    0  501  502 -0.00000000000E+00 -0.00000000000E+00 -0.81542303241E+02  0.81542303241E+02  0.00000000000E+00 0.  1.
         25    1    1    2    0    0  0.14091046110E+03  0.84895611488E+02  0.33343584938E+03  0.39225946585E+03  0.12500000000E+03 0.  0.
         25    1    1    2    0    0 -0.14091046110E+03 -0.84895611488E+02  0.15258664269E+03  0.25684763270E+03  0.12500000000E+03 0.  0.
</event>
<event>
 4    0  0.2250660E-002  0.1943932E+03  0.7546771E-02  0.1154558E+00
         21   -1    0    0  502  501  0.00000000000E+00  0.00000000000E+00  0.16278665951E+04  0.16278665951E+04  0.00000000000E+00 0.  1.
         21   -1    0    0  501  502 -0.00000000000E+00 -0.00000000000E+00 -0.23213646903E+02  0.23213646903E+02  0.00000000000E+00 0.  1.
         25    1    1    2    0    0  0.29192327173E+02 -0.11758053862E+03  0.43488174681E+03  0.46842769852E+03  0.12500000000E+03 0.  0.
         25    1    1    2    0    0 -0.29192327173E+02  0.11758053862E+03  0.11697712014E+04  0.11826525435E+04  0.12500000000E+03 0.  0.
</event>
<event>
 4    0  0.2250660E-002  0.1907341E+03  0.7546771E-02  0.1157801E+00
         21   -1    0    0  502  501  0.00000000000E+00  0.00000000000E+00  0.34565395117E+02  0.34565395117E+02  0.00000000000E+00 0.  1.
         21   -1    0    0  501  502 -0.00000000000E+00 -0.00000000000E+00 -0.10524829782E+04  0.10524829782E+04  0.00000000000E+00 0.  1.
         25    1    1    2    0    0  0.64931149461E+02  0.47705913105E+02 -0.16863709003E+03  0.22484522777E+03  0.12500000000E+03 0.  0.
         25    1    1    2    0    0 -0.64931149461E+02 -0.47705913105E+02 -0.84928049306E+03  0.86220314555E+03  0.12500000000E+03 0.  0.
</event>
<event>
 4    0  0.2250660E-002  0.1728421E+03  0.7546771E-02  0.1174916E+00
         21   -1    0    0  502  501  0.00000000000E+00  0.00000000000E+00  0.14022466718E+03  0.14022466718E+03  0.00000000000E+00 0.  1.
         21   -1    0    0  501  502 -0.00000000000E+00 -0.00000000000E+00 -0.21304669836E+03  0.21304669836E+03  0.00000000000E+00 0.  1.
         25    1    1    2    0    0  0.46253744954E+02 -0.71863451938E+02 -0.12158067137E+03  0.19419223542E+03  0.12500000000E+03 0.  0.
         25    1    1    2    0    0 -0.46253744954E+02  0.71863451938E+02  0.48758640191E+02  0.15907913012E+03  0.12500000000E+03 0.  0.
</event>
<event>
 4    0  0.2250660E-002  0.2094156E+03  0.7546771E-02  0.1142030E+00
         21   -1    0    0  502  501  0.00000000000E+00  0.00000000000E+00  0.12961386134E+03  0.12961386134E+03  0.00000000000E+00 0.  1.
         21   -1    0    0  501  502 -0.00000000000E+00 -0.00000000000E+00 -0.33835039782E+03  0.33835039782E+03  0.00000000000E+00 0.  1.
         25    1    1    2    0    0 -0.10844720679E+03 -0.13384570775E+02  0.38236354321E+02  0.17037300897E+03  0.12500000000E+03 0.  0.
         25    1    1    2    0    0  0.10844720679E+03  0.13384570775E+02 -0.24697289081E+03  0.29759125019E+03  0.12500000000E+03 0.  0.
</event>
<event>
 4    0  0.2250660E-002  0.1764969E+03  0.7546771E-02  0.1171237E+00
         21   -1    0    0  502  501  0.00000000000E+00  0.00000000000E+00  0.92679921029E+02  0.92679921029E+02  0.00000000000E+00 0.  1.
         21   -1    0    0  501  502 -0.00000000000E+00 -0.00000000000E+00 -0.33611535137E+03  0.33611535137E+03  0.00000000000E+00 0.  1.
         25    1    1    2    0    0 -0.20015933336E+02 -0.86744753335E+02 -0.22762216243E+03  0.27452165424E+03  0.12500000000E+03 0.  0.
         25    1    1    2    0    0  0.20015933336E+02  0.86744753335E+02 -0.15813267915E+02  0.15427361816E+03  0.12500000000E+03 0.  0.
</event>
<event>
 4    0  0.2250660E-002  0.2209853E+03  0.7546771E-02  0.1133151E+00
         21   -1    0    0  502  501  0.00000000000E+00  0.00000000000E+00  0.96856891169E+02  0.96856891169E+02  0.00000000000E+00 0. -1.
         21   -1    0    0  501  502 -0.00000000000E+00 -0.00000000000E+00 -0.50419232474E+03  0.50419232474E+03  0.00000000000E+00 0. -1.
         25    1    1    2    0    0  0.14834939888E+03 -0.65776191289E+02 -0.90904562932E+02  0.22410419686E+03  0.12500000000E+03 0.  0.
         25    1    1    2    0    0 -0.14834939888E+03  0.65776191289E+02 -0.31643087064E+03  0.37694501905E+03  0.12500000000E+03 0.  0.
</event>
<event>
 4    0  0.2250660E-002  0.1884955E+03  0.7546771E-02  0.1159825E+00
         21   -1    0    0  502  501  0.00000000000E+00  0.00000000000E+00  0.12795709594E+04  0.12795709594E+04  0.00000000000E+00 0.  1.
         21   -1    0    0  501  502 -0.00000000000E+00 -0.00000000000E+00 -0.27767545435E+02  0.27767545435E+02  0.00000000000E+00 0.  1.
         25    1    1    2    0    0 -0.39459455608E+02 -0.13431582843E+03  0.68673750701E+03  0.71192077785E+03  0.12500000000E+03 0.  0.
         25    1    1    2    0    0  0.39459455608E+02  0.13431582843E+03  0.56506590697E+03  0.59541772699E+03  0.12500000000E+03 0.  0.
</event>
<event>
 4    0  0.2250660E-002  0.2734223E+03  0.7546771E-02  0.1099337E+00
         21   -1    0    0  502  501  0.00000000000E+00  0.00000000000E+00  0.99993099175E+03  0.99993099175E+03  0.00000000000E+00 0. -1.
         21   -1    0    0  501  502 -0.00000000000E+00 -0.00000000000E+00 -0.74764914133E+02  0.74764914133E+02  0.00000000000E+00 0. -1.
         25    1    1    2    0    0  0.23805984037E+03 -0.41987043253E+02  0.41061089728E+03  0.49260705269E+03  0.12500000000E+03 0.  0.
         25    1    1    2    0    0 -0.23805984037E+03  0.41987043253E+02  0.51455518034E+03  0.58208885319E+03  0.12500000000E+03 0.  0.
</event>
<event>
 4    0  0.2250660E-002  0.2410547E+03  0.7546771E-02  0.1119092E+00
         21   -1    0    0  502  501  0.00000000000E+00  0.00000000000E+00  0.19577443972E+03  0.19577443972E+03  0.00000000000E+00 0.  1.
         21   -1    0    0  501  502 -0.00000000000E+00 -0.00000000000E+00 -0.29680784727E+03  0.29680784727E+03  0.00000000000E+00 0.  1.
         25    1    1    2    0    0  0.18910211684E+03 -0.40994062486E+02  0.22034729742E+02  0.23141014037E+03  0.12500000000E+03 0.  0.
         25    1    1    2    0    0 -0.18910211684E+03  0.40994062486E+02 -0.12306813730E+03  0.26117214662E+03  0.12500000000E+03 0.  0.
</event>
<event>
 4    0  0.2250660E-002  0.3275259E+03  0.7546771E-02  0.1072237E+00
         21   -1    0    0  502  501  0.00000000000E+00  0.00000000000E+00  0.16037933075E+03  0.16037933075E+03  0.00000000000E+00 0. -1.
         21   -1    0    0  501  502 -0.00000000000E+00 -0.00000000000E+00 -0.66887200066E+03  0.66887200066E+03  0.00000000000E+00 0. -1.
         25    1    1    2    0    0 -0.39965703481E+02 -0.19264786450E+03  0.37022061514E+02  0.23602137655E+03  0.12500000000E+03 0.  0.
         25    1    1    2    0    0  0.39965703481E+02  0.19264786450E+03 -0.54551473142E+03  0.59322995486E+03  0.12500000000E+03 0.  0.
</event>
<event>
 4    0  0.2250660E-002  0.2145275E+03  0.7546771E-02  0.1138030E+00
         21   -1    0    0  502  501  0.00000000000E+00  0.00000000000E+00  0.66504610691E+03  0.66504610691E+03  0.00000000000E+00 0. -1.
         21   -1    0    0  501  502 -0.00000000000E+00 -0.00000000000E+00 -0.69201263499E+02  0.69201263499E+02  0.00000000000E+00 0. -1.
         25    1    1    2    0    0 -0.16829873511E+03 -0.35743012181E+02  0.24967055763E+03  0.32796709363E+03  0.12500000000E+03 0.  0.
         25    1    1    2    0    0  0.16829873511E+03  0.35743012181E+02  0.34617428578E+03  0.40628027677E+03  0.12500000000E+03 0.  0.
</event>
<event>
 4    0  0.2250660E-002  0.2158077E+03  0.7546771E-02  0.1137048E+00
         21   -1    0    0  502  501  0.00000000000E+00  0.00000000000E+00  0.16634429548E+03  0.16634429548E+03  0.00000000000E+00 0.  1.
         21   -1    0    0  501  502 -0.00000000000E+00 -0.00000000000E+00 -0.27997939618E+03  0.27997939618E+03  0.00000000000E+00 0.  1.
         25    1    1    2    0    0 -0.61983163230E+02  0.78940199738E+01 -0.22687136851E+03  0.26645796278E+03  0.12500000000E+03 0.  0.
         25    1    1    2    0    0  0.61983163230E+02 -0.78940199738E+01  0.11323626781E+03  0.17986572888E+03  0.12500000000E+03 0.  0.
</event>
<event>
 4    0  0.2250660E-002  0.1907390E+03  0.7546771E-02  0.1157796E+00
         21   -1    0    0  502  501  0.00000000000E+00  0.00000000000E+00  0.26496046669E+03  0.26496046669E+03  0.00000000000E+00 0. -1.
         21   -1    0    0  501  502 -0.00000000000E+00 -0.00000000000E+00 -0.13730869552E+03  0.13730869552E+03  0.00000000000E+00 0. -1.
         25    1    1    2    0    0  0.10470069033E+03  0.98844464001E+02  0.68982540940E+02  0.20277093868E+03  0.12500000000E+03 0.  0.
         25    1    1    2    0    0 -0.10470069033E+03 -0.98844464001E+02  0.58669230230E+02  0.19949822354E+03  0.12500000000E+03 0.  0.
</event>
<event>
 4    0  0.2250660E-002  0.1978992E+03  0.7546771E-02  0.1151524E+00
         21   -1    0    0  502  501  0.00000000000E+00  0.00000000000E+00  0.13057262914E+03  0.13057262914E+03  0.00000000000E+00 0. -1.
         21   -1    0    0  501  502 -0.00000000000E+00 -0.00000000000E+00 -0.29994095624E+03  0.29994095624E+03  0.00000000000E+00 0. -1.
         25    1    1    2    0    0  0.14069173369E+03  0.60035825611E+02 -0.71785976718E+02  0.21018251768E+03  0.12500000000E+03 0.  0.
         25    1    1    2    0    0 -0.14069173369E+03 -0.60035825611E+02 -0.97582350389E+02  0.22033106770E+03  0.12500000000E+03 0.  0.
</event>
<event>
 4    0  0.2250660E-002  0.2309884E+03  0.7546771E-02  0.1125946E+00
         21   -1    0    0  502  501  0.00000000000E+00  0.00000000000E+00  0.41056497821E+03  0.41056497821E+03  0.00000000000E+00 0. -1.
         21   -1    0    0  501  502 -0.00000000000E+00 -0.00000000000E+00 -0.12995665453E+03  0.12995665453E+03  0.00000000000E+00 0. -1.
         25    1    1    2    0    0 -0.12355617661E+03  0.14456554728E+03  0.94013317193E+02  0.24622922257E+03  0.12500000000E+03 0.  0.
         25    1    1    2    0    0  0.12355617661E+03 -0.14456554728E+03  0.18659500649E+03  0.29429241017E+03  0.12500000000E+03 0.  0.
</event>
<event>
 4    0  0.2250660E-002  0.2963324E+03  0.7546771E-02  0.1087089E+00
         21   -1    0    0  502  501  0.00000000000E+00  0.00000000000E+00  0.57618710149E+03  0.57618710149E+03  0.00000000000E+00 0.  1.
         21   -1    0    0  501  502 -0.00000000000E+00 -0.00000000000E+00 -0.15240340816E+03  0.15240340816E+03  0.00000000000E+00 0.  1.
         25    1    1    2    0    0  0.24020649633E+03 -0.95630434216E+02  0.12202720924E+03  0.31202560892E+03  0.12500000000E+03 0.  0.
         25    1    1    2    0    0 -0.24020649633E+03  0.95630434216E+02  0.30175648410E+03  0.41656490073E+03  0.12500000000E+03 0.  0.
</event>
<event>
 4    0  0.2250660E-002  0.2388652E+03  0.7546771E-02  0.1120551E+00
         21   -1    0    0  502  501  0.00000000000E+00  0.00000000000E+00  0.21960953738E+03  0.21960953738E+03  0.00000000000E+00 0. -1.
         21   -1    0    0  501  502 -0.00000000000E+00 -0.00000000000E+00 -0.25980919610E+03  0.25980919610E+03  0.00000000000E+00 0. -1.
         25    1    1    2    0    0 -0.88798721734E+02 -0.16020437331E+03 -0.10918813368E+03  0.24717949500E+03  0.12500000000E+03 0.  0.
         25    1    1    2    0    0  0.88798721734E+02  0.16020437331E+03  0.68988474961E+02  0.23223923848E+03  0.12500000000E+03 0.  0.
</event>
<event>
 4    0  0.2250660E-002  0.1903984E+03  0.7546771E-02  0.1158103E+00
         21   -1    0    0  502  501  0.00000000000E+00  0.00000000000E+00  0.41130396215E+03  0.41130396215E+03  0.00000000000E+00 0.  1.
         21   -1    0    0  501  502 -0.00000000000E+00 -0.00000000000E+00 -0.88138079173E+02  0.88138079173E+02  0.00000000000E+00 0.  1.
         25    1    1    2    0    0 -0.54331786258E+02  0.12968492676E+03  0.19996557291E+03  0.27455664912E+03  0.12500000000E+03 0.  0.
         25    1    1    2    0    0  0.54331786258E+02 -0.12968492676E+03  0.12320031006E+03  0.22488539220E+03  0.12500000000E+03 0.  0.
</event>
<event>
 4    0  0.2250660E-002  0.2646623E+03  0.7546771E-02  0.1104374E+00
         21   -1    0    0  502  501  0.00000000000E+00  0.00000000000E+00  0.48150924966E+03  0.48150924966E+03  0.00000000000E+00 0. -1.
         21   -1    0    0  501  502 -0.00000000000E+00 -0.00000000000E+00 -0.14547207224E+03  0.14547207224E+03  0.00000000000E+00 0. -1.
         25    1    1    2    0    0 -0.99939673257E+02 -0.10736393542E+03 -0.46849199850E+02  0.19833002911E+03  0.12500000000E+03 0.  0.
         25    1    1    2    0    0  0.99939673257E+02  0.10736393542E+03  0.38288637727E+03  0.42865129280E+03  0.12500000000E+03 0.  0.
</event>
<event>
 4    0  0.2250660E-002  0.2921676E+03  0.7546771E-02  0.1089223E+00
         21   -1    0    0  502  501  0.00000000000E+00  0.00000000000E+00  0.22218783570E+03  0.22218783570E+03  0.00000000000E+00 0. -1.
         21   -1    0    0  501  502 -0.00000000000E+00 -0.00000000000E+00 -0.38418804918E+03  0.38418804918E+03  0.00000000000E+00 0. -1.
         25    1    1    2    0    0  0.17338446197E+03  0.19865327001E+03 -0.96095901014E+02  0.30722095555E+03  0.12500000000E+03 0.  0.
         25    1    1    2    0    0 -0.17338446197E+03 -0.19865327001E+03 -0.65904312469E+02  0.29915492933E+03  0.12500000000E+03 0.  0.
</event>
<event>
 4    0  0.2250660E-002  0.2498828E+03  0.7546771E-02  0.1113379E+00
         21   -1    0    0  502  501  0.00000000000E+00  0.00000000000E+00  0.83417613895E+03  0.83417613895E+03  0.00000000000E+00 0. -1.
         21   -1    0    0  501  502 -0.00000000000E+00 -0.00000000000E+00 -0.74854003380E+02  0.74854003380E+02  0.00000000000E+00 0. -1.
         25    1    1    2    0    0 -0.15672798427E+03 -0.14891174460E+03  0.36359122328E+03  0.44109176640E+03  0.12500000000E+03 0.  0.
         25    1    1    2    0    0  0.15672798427E+03  0.14891174460E+03  0.39573091228E+03  0.46793837593E+03  0.12500000000E+03 0.  0.
</event>
<event>
 4    0  0.2250660E-002  0.1948742E+03  0.7546771E-02  0.1154137E+00
         21   -1    0    0  502  501  0.00000000000E+00  0.00000000000E+00  0.23356101943E+03  0.23356101943E+03  0.00000000000E+00 0. -1.
         21   -1    0    0  501  502 -0.00000000000E+00 -0.00000000000E+00 -0.16259544230E+03  0.16259544230E+03  0.00000000000E+00 0. -1.
         25    1    1    2    0    0 -0.88929467372E+02 -0.11595737159E+03  0.33980749409E+01  0.19233072845E+03  0.12500000000E+03 0.  0.
         25    1    1    2    0    0  0.88929467372E+02  0.11595737159E+03  0.67567502190E+02  0.20382573327E+03  0.12500000000E+03 0.  0.
</event>
<event>
 4    0  0.2250660E-002  0.2744985E+03  0.7546771E-02  0.1098732E+00
         21   -1    0    0  502  501  0.00000000000E+00  0.00000000000E+00  0.40164149253E+03  0.40164149253E+03  0.00000000000E+00 0.  1.
         21   -1    0    0  501  502 -0.00000000000E+00 -0.00000000000E+00 -0.18760370052E+03  0.18760370052E+03  0.00000000000E+00 0.  1.
         25    1    1    2    0    0  0.20707610323E+03  0.12817171012E+03  0.85129365953E+02  0.28667142995E+03  0.12500000000E+03 0.  0.
         25    1    1    2    0    0 -0.20707610323E+03 -0.12817171012E+03  0.12890842605E+03  0.30257376309E+03  0.12500000000E+03 0.  0.
</event>
<event>
 4    0  0.2250660E-002  0.1611989E+03  0.7546771E-02  0.1187350E+00
         21   -1    0    0  502  501  0.00000000000E+00  0.00000000000E+00  0.83819571774E+03  0.83819571774E+03  0.00000000000E+00 0.  1.
         21   -1    0    0  501  502 -0.00000000000E+00 -0.00000000000E+00 -0.31001230133E+02  0.31001230133E+02  0.00000000000E+00 0.  1.
         25    1    1    2    0    0 -0.58640031920E+01  0.91632997239E+02  0.52201150736E+03  0.54456588815E+03  0.12500000000E+03 0.  0.
         25    1    1    2    0    0  0.58640031920E+01 -0.91632997239E+02  0.28518298025E+03  0.32463105973E+03  0.12500000000E+03 0.  0.
</event>
<event>
 4    0  0.2250660E-002  0.3327632E+03  0.7546771E-02  0.1069921E+00
         21   -1    0    0  502  501  0.00000000000E+00  0.00000000000E+00  0.94237675060E+03  0.94237675060E+03  0.00000000000E+00 0.  1.
         21   -1    0    0  501  502 -0.00000000000E+00 -0.00000000000E+00 -0.11750220984E+03  0.11750220984E+03  0.00000000000E+00 0.  1.
         25    1    1    2    0    0 -0.27907349850E+03 -0.28746835234E+02  0.20850507715E+03  0.37122468304E+03  0.12500000000E+03 0.  0.
         25    1    1    2    0    0  0.27907349850E+03  0.28746835234E+02  0.61636946361E+03  0.68865427740E+03  0.12500000000E+03 0.  0.
</event>
<event>
 4    0  0.2250660E-002  0.2007048E+03  0.7546771E-02  0.1149146E+00
         21   -1    0    0  502  501  0.00000000000E+00  0.00000000000E+00  0.22352609029E+03  0.22352609029E+03  0.00000000000E+00 0.  1.
         21   -1    0    0  501  502 -0.00000000000E+00 -0.00000000000E+00 -0.18021351107E+03  0.18021351107E+03  0.00000000000E+00 0.  1.
         25    1    1    2    0    0 -0.52274211601E+02  0.12885405768E+03  0.95028056416E+02  0.20974101384E+03  0.12500000000E+03 0.  0.
         25    1    1    2    0    0  0.52274211601E+02 -0.12885405768E+03 -0.51715477190E+02  0.19399858752E+03  0.12500000000E+03 0.  0.
</event>
<event>
 4    0  0.2250660E-002  0.2004063E+03  0.7546771E-02  0.1149397E+00
         21   -1    0    0  502  501  0.00000000000E+00  0.00000000000E+00  0.13851202077E+04  0.13851202077E+04  0.00000000000E+00 0.  1.
         21   -1    0    0  501  502 -0.00000000000E+00 -0.00000000000E+00 -0.28995815509E+02  0.28995815509E+02  0.00000000000E+00 0.  1.
         25    1    1    2    0    0 -0.39094393511E+02 -0.41848502391E+02  0.11924670636E+04  0.12003675964E+04  0.12500000000E+03 0.  0.
         25    1    1    2    0    0  0.39094393511E+02  0.41848502391E+02  0.16365732861E+03  0.21374842681E+03  0.12500000000E+03 0.  0.
</event>
<event>
 4    0  0.2250660E-002  0.1817234E+03  0.7546771E-02  0.1166145E+00
         21   -1    0    0  502  501  0.00000000000E+00  0.00000000000E+00  0.15545334037E+04  0.15545334037E+04  0.00000000000E+00 0. -1.
         21   -1    0    0  501  502 -0.00000000000E+00 -0.00000000000E+00 -0.21243287579E+02  0.21243287579E+02  0.00000000000E+00 0. -1.
         25    1    1    2    0    0  0.51696759062E+02 -0.92320971701E+02  0.11081080106E+04  0.11201446692E+04  0.12500000000E+03 0.  0.
         25    1    1    2    0    0 -0.51696759062E+02  0.92320971701E+02  0.42518210547E+03  0.45563202205E+03  0.12500000000E+03 0.  0.
</event>
<event>
 4    0  0.2250660E-002  0.1711704E+03  0.7546771E-02  0.1176633E+00
         21   -1    0    0  502  501  0.00000000000E+00  0.00000000000E+00  0.19875624023E+02  0.19875624023E+02  0.00000000000E+00 0.  1.
         21   -1    0    0  501  502 -0.00000000000E+00 -0.00000000000E+00 -0.14741324818E+04  0.14741324818E+04  0.00000000000E+00 0.  1.
         25    1    1    2    0    0 -0.15940927304E+02  0.98555348063E+02 -0.99283821510E+03  0.10056440678E+04  0.12500000000E+03 0.  0.
         25    1    1    2    0    0  0.15940927304E+02 -0.98555348063E+02 -0.46141864263E+03  0.48836403795E+03  0.12500000000E+03 0.  0.
</event>
<event>
 4    0  0.2250660E-002  0.2211026E+03  0.7546771E-02  0.1133064E+00
         21   -1    0    0  502  501  0.00000000000E+00  0.00000000000E+00  0.18392171534E+02  0.18392171534E+02  0.00000000000E+00 0.  1.
         21   -1    0    0  501  502 -0.00000000000E+00 -0.00000000000E+00 -0.26579970557E+04  0.26579970557E+04  0.00000000000E+00 0.  1.
         25    1    1    2    0    0  0.93480995703E+02  0.11920335477E+03 -0.19344445019E+04  0.19443890216E+04  0.12500000000E+03 0.  0.
         25    1    1    2    0    0 -0.93480995703E+02 -0.11920335477E+03 -0.70516038225E+03  0.73200020563E+03  0.12500000000E+03 0.  0.
</event>
<event>
 4    0  0.2250660E-002  0.4120775E+03  0.7546771E-02  0.1039676E+00
         21   -1    0    0  502  501  0.00000000000E+00  0.00000000000E+00  0.30273630775E+03  0.30273630775E+03  0.00000000000E+00 0. -1.
         21   -1    0    0  501  502 -0.00000000000E+00 -0.00000000000E+00 -0.56091022391E+03  0.56091022391E+03  0.00000000000E+00 0. -1.
         25    1    1    2    0    0  0.31828976540E+03 -0.22467233202E+03 -0.18039061406E+03  0.44715970880E+03  0.12500000000E+03 0.  0.
         25    1    1    2    0    0 -0.31828976540E+03  0.22467233202E+03 -0.77783302098E+02  0.41648682286E+03  0.12500000000E+03 0.  0.
</event>
<event>
 4    0  0.2250660E-002  0.2905143E+03  0.7546771E-02  0.1090081E+00
         21   -1    0    0  502  501  0.00000000000E+00  0.00000000000E+00  0.28410024226E+03  0.28410024226E+03  0.00000000000E+00 0.  1.
         21   -1    0    0  501  502 -0.00000000000E+00 -0.00000000000E+00 -0.29707318700E+03  0.29707318700E+03  0.00000000000E+00 0.  1.
         25    1    1    2    0    0 -0.10572375525E+03 -0.16842930646E+03  0.16451701073E+03  0.28676957740E+03  0.12500000000E+03 0.  0.
         25    1    1    2    0    0  0.10572375525E+03  0.16842930646E+03 -0.17748995547E+03  0.29440385187E+03  0.12500000000E+03 0.  0.
</event>
<event>
 4    0  0.2250660E-002  0.2013924E+03  0.7546771E-02  0.1148570E+00
         21   -1    0    0  502  501  0.00000000000E+00  0.00000000000E+00  0.57356566186E+02  0.57356566186E+02  0.00000000000E+00 0. -1.
         21   -1    0    0  501  502 -0.00000000000E+00 -0.00000000000E+00 -0.70713604962E+03  0.70713604962E+03  0.00000000000E+00 0. -1.
         25    1    1    2    0    0  0.46554128936E+02  0.15038446096E+03 -0.30155704331E+03  0.36241471188E+03  0.12500000000E+03 0.  0.
         25    1    1    2    0    0 -0.46554128936E+02 -0.15038446096E+03 -0.34822244012E+03  0.40207790392E+03  0.12500000000E+03 0.  0.
</event>
<event>
 4    0  0.2250660E-002  0.1998510E+03  0.7546771E-02  0.1149865E+00
         21   -1    0    0  502  501  0.00000000000E+00  0.00000000000E+00  0.28324508308E+03  0.28324508308E+03  0.00000000000E+00 0. -1.
         21   -1    0    0  501  502 -0.00000000000E+00 -0.00000000000E+00 -0.14101009707E+03  0.14101009707E+03  0.00000000000E+00 0. -1.
         25    1    1    2    0    0 -0.13466843746E+03  0.14864657112E+02 -0.10818144868E+02  0.18465800372E+03  0.12500000000E+03 0.  0.
         25    1    1    2    0    0  0.13466843746E+03 -0.14864657112E+02  0.15305313089E+03  0.23959717643E+03  0.12500000000E+03 0.  0.
</event>
<event>
 4    0  0.2250660E-002  0.2565030E+03  0.7546771E-02  0.1109263E+00
         21   -1    0    0  502  501  0.00000000000E+00  0.00000000000E+00  0.66844812740E+02  0.66844812740E+02  0.00000000000E+00 0. -1.
         21   -1    0    0  501  502 -0.00000000000E+00 -0.00000000000E+00 -0.98427657487E+03  0.98427657487E+03  0.00000000000E+00 0. -1.
         25    1    1    2    0    0  0.19536676142E+03 -0.75307097589E+02 -0.62172561327E+03  0.66783760647E+03  0.12500000000E+03 0.  0.
         25    1    1    2    0    0 -0.19536676142E+03  0.75307097589E+02 -0.29570614885E+03  0.38328378114E+03  0.12500000000E+03 0.  0.
</event>
<event>
 4    0  0.2250660E-002  0.2896713E+03  0.7546771E-02  0.1090521E+00
         21   -1    0    0  502  501  0.00000000000E+00  0.00000000000E+00  0.34347475076E+03  0.34347475076E+03  0.00000000000E+00 0. -1.
         21   -1    0    0  501  502 -0.00000000000E+00 -0.00000000000E+00 -0.24429584277E+03  0.24429584277E+03  0.00000000000E+00 0. -1.
         25    1    1    2    0    0  0.76277287441E+02 -0.18241752932E+03 -0.12374704107E+03  0.26463693952E+03  0.12500000000E+03 0.  0.
         25    1    1    2    0    0 -0.76277287441E+02  0.18241752932E+03  0.22292594907E+03  0.32313365401E+03  0.12500000000E+03 0.  0.
</event>
<event>
 4    0  0.2250660E-002  0.1779673E+03  0.7546771E-02  0.1169785E+00
         21   -1    0    0  502  501  0.00000000000E+00  0.00000000000E+00  0.36017228134E+02  0.36017228134E+02  0.00000000000E+00 0. -1.
         21   -1    0    0  501  502 -0.00000000000E+00 -0.00000000000E+00 -0.87936663327E+03  0.87936663327E+03  0.00000000000E+00 0. -1.
         25    1    1    2    0    0 -0.78902957558E+02 -0.95418224823E+02 -0.49054042182E+03  0.52113838832E+03  0.12500000000E+03 0.  0.
         25    1    1    2    0    0  0.78902957558E+02  0.95418224823E+02 -0.35280898331E+03  0.39424547308E+03  0.12500000000E+03 0.  0.
</event>
<event>
 4    0  0.2250660E-002  0.1989247E+03  0.7546771E-02  0.1150649E+00
         21   -1    0    0  502  501  0.00000000000E+00  0.00000000000E+00  0.32088633447E+03  0.32088633447E+03  0.00000000000E+00 0. -1.
         21   -1    0    0  501  502 -0.00000000000E+00 -0.00000000000E+00 -0.12331795046E+03  0.12331795046E+03  0.00000000000E+00 0. -1.
         25    1    1    2    0    0  0.51463241102E+02 -0.12855854822E+02 -0.63522879694E+02  0.14991295619E+03  0.12500000000E+03 0.  0.
         25    1    1    2    0    0 -0.51463241102E+02  0.12855854822E+02  0.26109126370E+03  0.29429132874E+03  0.12500000000E+03 0.  0.
</event>
<event>
 4    0  0.2250660E-002  0.2343046E+03  0.7546771E-02  0.1123646E+00
         21   -1    0    0  502  501  0.00000000000E+00  0.00000000000E+00  0.15631782834E+03  0.15631782834E+03  0.00000000000E+00 0. -1.
         21   -1    0    0  501  502 -0.00000000000E+00 -0.00000000000E+00 -0.35119874387E+03  0.35119874387E+03  0.00000000000E+00 0. -1.
         25    1    1    2    0    0  0.73498208134E+02  0.17459454083E+03 -0.16048330995E+03  0.27796606458E+03  0.12500000000E+03 0.  0.
         25    1    1    2    0    0 -0.73498208134E+02 -0.17459454083E+03 -0.34397605582E+02  0.22955050763E+03  0.12500000000E+03 0.  0.
</event>
<event>
 4    0  0.2250660E-002  0.3419316E+03  0.7546771E-02  0.1065976E+00
         21   -1    0    0  502  501  0.00000000000E+00  0.00000000000E+00  0.21438845983E+03  0.21438845983E+03  0.00000000000E+00 0. -1.
         21   -1    0    0  501  502 -0.00000000000E+00 -0.00000000000E+00 -0.54535226566E+03  0.54535226566E+03  0.00000000000E+00 0. -1.
         25    1    1    2    0    0  0.16778972991E+03  0.22902358961E+03 -0.32527030917E+03  0.44947855576E+03  0.12500000000E+03 0.  0.
         25    1    1    2    0    0 -0.16778972991E+03 -0.22902358961E+03 -0.56934966649E+01  0.31026216973E+03  0.12500000000E+03 0.  0.
</event>
<event>
 4    0  0.2250660E-002  0.1896982E+03  0.7546771E-02  0.1158734E+00
         21   -1    0    0  502  501  0.00000000000E+00  0.00000000000E+00  0.16944991589E+04  0.16944991589E+04  0.00000000000E+00 0.  1.
         21   -1    0    0  501  502 -0.00000000000E+00 -0.00000000000E+00 -0.21236594781E+02  0.21236594781E+02  0.00000000000E+00 0.  1.
         25    1    1    2    0    0 -0.83757117615E+02 -0.28261821872E+02  0.33008752525E+03  0.36386365530E+03  0.12500000000E+03 0.  0.
         25    1    1    2    0    0  0.83757117615E+02  0.28261821872E+02  0.13431750389E+04  0.13518720984E+04  0.12500000000E+03 0.  0.
</event>
<event>
 4    0  0.2250660E-002  0.1711841E+03  0.7546771E-02  0.1176619E+00
         21   -1    0    0  502  501  0.00000000000E+00  0.00000000000E+00  0.13812078956E+03  0.13812078956E+03  0.00000000000E+00 0.  1.
         21   -1    0    0  501  502 -0.00000000000E+00 -0.00000000000E+00 -0.21216217836E+03  0.21216217836E+03  0.00000000000E+00 0.  1.
         25    1    1    2    0    0 -0.88436769337E+02 -0.20228449253E+02 -0.11254281337E+03  0.19110504225E+03  0.12500000000E+03 0.  0.
         25    1    1    2    0    0  0.88436769337E+02  0.20228449253E+02  0.38501424571E+02  0.15917792568E+03  0.12500000000E+03 0.  0.
</event>
<event>
 4    0  0.2250660E-002  0.2867682E+03  0.7546771E-02  0.1092049E+00
         21   -1    0    0  502  501  0.00000000000E+00  0.00000000000E+00  0.45906492054E+03  0.45906492054E+03  0.00000000000E+00 0. -1.
         21   -1    0    0  501  502 -0.00000000000E+00 -0.00000000000E+00 -0.17913805967E+03  0.17913805967E+03  0.00000000000E+00 0. -1.
         25    1    1    2    0    0  0.18776437612E+03 -0.17635086325E+03  0.12216250803E+03  0.31129369778E+03  0.12500000000E+03 0.  0.
         25    1    1    2    0    0 -0.18776437612E+03  0.17635086325E+03  0.15776435284E+03  0.32690928243E+03  0.12500000000E+03 0.  0.
</event>
<event>
 4    0  0.2250660E-002  0.2077160E+03  0.7546771E-02  0.1143388E+00
         21   -1    0    0  502  501  0.00000000000E+00  0.00000000000E+00  0.11669655286E+04  0.11669655286E+04  0.00000000000E+00 0. -1.
         21   -1    0    0  501  502 -0.00000000000E+00 -0.00000000000E+00 -0.36972755141E+02  0.36972755141E+02  0.00000000000E+00 0. -1.
         25    1    1    2    0    0 -0.55417544056E+02 -0.84272212979E+02  0.94670263887E+03  0.96023111619E+03  0.12500000000E+03 0.  0.
         25    1    1    2    0    0  0.55417544056E+02  0.84272212979E+02  0.18329013455E+03  0.24370716750E+03  0.12500000000E+03 0.  0.
</event>
<event>
 4    0  0.2250660E-002  0.1866080E+03  0.7546771E-02  0.1161557E+00
         21   -1    0    0  502  501  0.00000000000E+00  0.00000000000E+00  0.17368841336E+02  0.17368841336E+02  0.00000000000E+00 0. -1.
         21   -1    0    0  501  502 -0.00000000000E+00 -0.00000000000E+00 -0.20048851580E+04  0.20048851580E+04  0.00000000000E+00 0. -1.
         25    1    1    2    0    0  0.92167838892E+02  0.87581648171E+02 -0.12921216055E+04  0.13043652475E+04  0.12500000000E+03 0.  0.
         25    1    1    2    0    0 -0.92167838892E+02 -0.87581648171E+02 -0.69539471115E+03  0.71788875177E+03  0.12500000000E+03 0.  0.
</event>
<event>
 4    0  0.2250660E-002  0.3559871E+03  0.7546771E-02  0.1060184E+00
         21   -1    0    0  502  501  0.00000000000E+00  0.00000000000E+00  0.36450427046E+02  0.36450427046E+02  0.00000000000E+00 0.  1.
         21   -1    0    0  501  502 -0.00000000000E+00 -0.00000000000E+00 -0.34766896023E+04  0.34766896023E+04  0.00000000000E+00 0.  1.
         25    1    1    2    0    0 -0.11175730312E+03 -0.19290953899E+03 -0.49745190382E+03  0.55927379847E+03  0.12500000000E+03 0.  0.
         25    1    1    2    0    0  0.11175730312E+03  0.19290953899E+03 -0.29427872714E+04  0.29538662309E+04  0.12500000000E+03 0.  0.
</event>
<event>
 4    0  0.2250660E-002  0.2295876E+03  0.7546771E-02  0.1126930E+00
         21   -1    0    0  502  501  0.00000000000E+00  0.00000000000E+00  0.15783902022E+03  0.15783902022E+03  0.00000000000E+00 0.  1.
         21   -1    0    0  501  502 -0.00000000000E+00 -0.00000000000E+00 -0.33395086952E+03  0.33395086952E+03  0.00000000000E+00 0. -1.
         25    1    1    2    0    0 -0.11182290095E+03 -0.13470107856E+03 -0.17398378186E+03  0.27666604073E+03  0.12500000000E+03 0.  0.
         25    1    1    2    0    0  0.11182290095E+03  0.13470107856E+03 -0.21280674422E+01  0.21512384901E+03  0.12500000000E+03 0.  0.
</event>
<event>
 4    0  0.2250660E-002  0.1511448E+03  0.7546771E-02  0.1199073E+00
         21   -1    0    0  502  501  0.00000000000E+00  0.00000000000E+00  0.27074721595E+04  0.27074721595E+04  0.00000000000E+00 0.  1.
         21   -1    0    0  501  502 -0.00000000000E+00 -0.00000000000E+00 -0.84376712596E+01  0.84376712596E+01  0.00000000000E+00 0.  1.
         25    1    1    2    0    0 -0.55609470658E+02 -0.49049733379E+02  0.97674648509E+03  0.98750037251E+03  0.12500000000E+03 0.  0.
         25    1    1    2    0    0  0.55609470658E+02  0.49049733379E+02  0.17222880031E+04  0.17284094582E+04  0.12500000000E+03 0.  0.
</event>
<event>
 4    0  0.2250660E-002  0.1771715E+03  0.7546771E-02  0.1170569E+00
         21   -1    0    0  502  501  0.00000000000E+00  0.00000000000E+00  0.12579096294E+03  0.12579096294E+03  0.00000000000E+00 0.  1.
         21   -1    0    0  501  502 -0.00000000000E+00 -0.00000000000E+00 -0.24953891845E+03  0.24953891845E+03  0.00000000000E+00 0.  1.
         25    1    1    2    0    0 -0.33522388439E+02 -0.28811015079E+02 -0.18635424684E+03  0.22870664711E+03  0.12500000000E+03 0.  0.
         25    1    1    2    0    0  0.33522388439E+02  0.28811015079E+02  0.62606291327E+02  0.14662323428E+03  0.12500000000E+03 0.  0.
</event>
<event>
 4    0  0.2250660E-002  0.2368262E+03  0.7546771E-02  0.1121925E+00
         21   -1    0    0  502  501  0.00000000000E+00  0.00000000000E+00  0.18311039243E+03  0.18311039243E+03  0.00000000000E+00 0.  1.
         21   -1    0    0  501  502 -0.00000000000E+00 -0.00000000000E+00 -0.30629966271E+03  0.30629966271E+03  0.00000000000E+00 0.  1.
         25    1    1    2    0    0 -0.65404147474E+02  0.18511224898E+03 -0.16349699530E+02  0.23331643728E+03  0.12500000000E+03 0.  0.
         25    1    1    2    0    0  0.65404147474E+02 -0.18511224898E+03 -0.10683957076E+03  0.25609361786E+03  0.12500000000E+03 0.  0.
</event>
<event>
 4    0  0.2250660E-002  0.2520289E+03  0.7546771E-02  0.1112029E+00
         21   -1    0    0  502  501  0.00000000000E+00  0.00000000000E+00  0.43973491339E+03  0.43973491339E+03  0.00000000000E+00 0. -1.
         21   -1    0    0  501  502 -0.00000000000E+00 -0.00000000000E+00 -0.14444743169E+03  0.14444743169E+03  0.00000000000E+00 0. -1.
         25    1    1    2    0    0  0.16978759592E+03 -0.11074050942E+03  0.52057443333E+02  0.24377503064E+03  0.12500000000E+03 0.  0.
         25    1    1    2    0    0 -0.16978759592E+03  0.11074050942E+03  0.24323003837E+03  0.34040731444E+03  0.12500000000E+03 0.  0.
</event>
<event>
 4    0  0.2250660E-002  0.2551876E+03  0.7546771E-02  0.1110070E+00
         21   -1    0    0  502  501  0.00000000000E+00  0.00000000000E+00  0.50607932381E+03  0.50607932381E+03  0.00000000000E+00 0. -1.
         21   -1    0    0  501  502 -0.00000000000E+00 -0.00000000000E+00 -0.12867690190E+03  0.12867690190E+03  0.00000000000E+00 0. -1.
         25    1    1    2    0    0 -0.11611952364E+03  0.12477358114E+02  0.42420617288E+03  0.45740059614E+03  0.12500000000E+03 0.  0.
         25    1    1    2    0    0  0.11611952364E+03 -0.12477358114E+02 -0.46803750969E+02  0.17735562957E+03  0.12500000000E+03 0.  0.
</event>
<event>
 4    0  0.2250660E-002  0.2185864E+03  0.7546771E-02  0.1134941E+00
         21   -1    0    0  502  501  0.00000000000E+00  0.00000000000E+00  0.69868670357E+03  0.69868670357E+03  0.00000000000E+00 0. -1.
         21   -1    0    0  501  502 -0.00000000000E+00 -0.00000000000E+00 -0.68385450886E+02  0.68385450886E+02  0.00000000000E+00 0. -1.
         25    1    1    2    0    0  0.11682108857E+03 -0.35328968859E+02  0.84635314745E+02  0.19412222767E+03  0.12500000000E+03 0.  0.
         25    1    1    2    0    0 -0.11682108857E+03  0.35328968859E+02  0.54566593794E+03  0.57294992678E+03  0.12500000000E+03 0.  0.
</event>
<event>
 4    0  0.2250660E-002  0.1776942E+03  0.7546771E-02  0.1170053E+00
         21   -1    0    0  502  501  0.00000000000E+00  0.00000000000E+00  0.57187040870E+03  0.57187040870E+03  0.00000000000E+00 0.  1.
         21   -1    0    0  501  502 -0.00000000000E+00 -0.00000000000E+00 -0.55213987914E+02  0.55213987914E+02  0.00000000000E+00 0.  1.
         25    1    1    2    0    0 -0.86435996943E+02 -0.91930327280E+02  0.26764492360E+03  0.32121826189E+03  0.12500000000E+03 0.  0.
         25    1    1    2    0    0  0.86435996943E+02  0.91930327280E+02  0.24901149718E+03  0.30586613472E+03  0.12500000000E+03 0.  0.
</event>
<event>
 4    0  0.2250660E-002  0.2288708E+03  0.7546771E-02  0.1127437E+00
         21   -1    0    0  502  501  0.00000000000E+00  0.00000000000E+00  0.39182930383E+03  0.39182930383E+03  0.00000000000E+00 0.  1.
         21   -1    0    0  501  502 -0.00000000000E+00 -0.00000000000E+00 -0.13368539812E+03  0.13368539812E+03  0.00000000000E+00 0.  1.
         25    1    1    2    0    0 -0.11630152943E+03 -0.86247204941E+02  0.27334531976E+03  0.33362747180E+03  0.12500000000E+03 0.  0.
         25    1    1    2    0    0  0.11630152943E+03  0.86247204941E+02 -0.15201414048E+02  0.19188723015E+03  0.12500000000E+03 0.  0.
</event>
<event>
 4    0  0.2250660E-002  0.2108407E+03  0.7546771E-02  0.1140902E+00
         21   -1    0    0  502  501  0.00000000000E+00  0.00000000000E+00  0.61427679673E+03  0.61427679673E+03  0.00000000000E+00 0. -1.
         21   -1    0    0  501  502 -0.00000000000E+00 -0.00000000000E+00 -0.72367729938E+02  0.72367729938E+02  0.00000000000E+00 0. -1.
         25    1    1    2    0    0 -0.61651913715E+02 -0.97737652059E+02  0.47352014311E+03  0.50318975846E+03  0.12500000000E+03 0.  0.
         25    1    1    2    0    0  0.61651913715E+02  0.97737652059E+02  0.68388923689E+02  0.18345476821E+03  0.12500000000E+03 0.  0.
</event>
<event>
 4    0  0.2250660E-002  0.1762043E+03  0.7546771E-02  0.1171528E+00
         21   -1    0    0  502  501  0.00000000000E+00  0.00000000000E+00  0.77781855053E+02  0.77781855053E+02  0.00000000000E+00 0. -1.
         21   -1    0    0  501  502 -0.00000000000E+00 -0.00000000000E+00 -0.39916699580E+03  0.39916699580E+03  0.00000000000E+00 0. -1.
         25    1    1    2    0    0  0.66806690290E+02 -0.93400455879E+02 -0.22469224937E+03  0.28159969097E+03  0.12500000000E+03 0.  0.
         25    1    1    2    0    0 -0.66806690290E+02  0.93400455879E+02 -0.96692891380E+02  0.19534915989E+03  0.12500000000E+03 0.  0.
</event>
<event>
 4    0  0.2250660E-002  0.1776324E+03  0.7546771E-02  0.1170114E+00
         21   -1    0    0  502  501  0.00000000000E+00  0.00000000000E+00  0.37229472195E+02  0.37229472195E+02  0.00000000000E+00 0.  1.
         21   -1    0    0  501  502 -0.00000000000E+00 -0.00000000000E+00 -0.84753452809E+03  0.84753452809E+03  0.00000000000E+00 0.  1.
         25    1    1    2    0    0 -0.78578612620E+02  0.23880898939E+02 -0.16649436729E+03  0.22380855666E+03  0.12500000000E+03 0.  0.
         25    1    1    2    0    0  0.78578612620E+02 -0.23880898939E+02 -0.64381068860E+03  0.66095544362E+03  0.12500000000E+03 0.  0.
</event>
<event>
 4    0  0.2250660E-002  0.2442788E+03  0.7546771E-02  0.1116975E+00
         21   -1    0    0  502  501  0.00000000000E+00  0.00000000000E+00  0.41503572454E+03  0.41503572454E+03  0.00000000000E+00 0.  1.
         21   -1    0    0  501  502 -0.00000000000E+00 -0.00000000000E+00 -0.14377587379E+03  0.14377587379E+03  0.00000000000E+00 0.  1.
         25    1    1    2    0    0 -0.11049911841E+03  0.15750838704E+03  0.39740435870E+02  0.23285886154E+03  0.12500000000E+03 0.  0.
         25    1    1    2    0    0  0.11049911841E+03 -0.15750838704E+03  0.23151941488E+03  0.32595273679E+03  0.12500000000E+03 0.  0.
</event>
<event>
 4    0  0.2250660E-002  0.1534754E+03  0.7546771E-02  0.1196266E+00
         21   -1    0    0  502  501  0.00000000000E+00  0.00000000000E+00  0.14319479435E+02  0.14319479435E+02  0.00000000000E+00 0.  1.
         21   -1    0    0  501  502 -0.00000000000E+00 -0.00000000000E+00 -0.16449412859E+04  0.16449412859E+04  0.00000000000E+00 0.  1.
         25    1    1    2    0    0 -0.79228577645E+02 -0.80518930212E+01 -0.10307033085E+04  0.10413050997E+04  0.12500000000E+03 0.  0.
         25    1    1    2    0    0  0.79228577645E+02  0.80518930212E+01 -0.59991849794E+03  0.61795566562E+03  0.12500000000E+03 0.  0.
</event>
<event>
 4    0  0.2250660E-002  0.4196963E+03  0.7546771E-02  0.1037165E+00
         21   -1    0    0  502  501  0.00000000000E+00  0.00000000000E+00  0.85448989318E+03  0.85448989318E+03  0.00000000000E+00 0.  1.
         21   -1    0    0  501  502 -0.00000000000E+00 -0.00000000000E+00 -0.20614049171E+03  0.20614049171E+03  0.00000000000E+00 0.  1.
         25    1    1    2    0    0  0.86488592290E+02 -0.36910531517E+03  0.16039278254E+03  0.43019746044E+03  0.12500000000E+03 0.  0.
         25    1    1    2    0    0 -0.86488592290E+02  0.36910531517E+03  0.48795661892E+03  0.63043292445E+03  0.12500000000E+03 0.  0.
</event>
<event>
 4    0  0.2250660E-002  0.2162270E+03  0.7546771E-02  0.1136728E+00
         21   -1    0    0  502  501  0.00000000000E+00  0.00000000000E+00  0.56323128843E+02  0.56323128843E+02  0.00000000000E+00 0.  1.
         21   -1    0    0  501  502 -0.00000000000E+00 -0.00000000000E+00 -0.83010488123E+03  0.83010488123E+03  0.00000000000E+00 0.  1.
         25    1    1    2    0    0 -0.65394056548E+02 -0.12144093357E+03 -0.16137205412E+03  0.24635385694E+03  0.12500000000E+03 0.  0.
         25    1    1    2    0    0  0.65394056548E+02  0.12144093357E+03 -0.61240969826E+03  0.64007415313E+03  0.12500000000E+03 0.  0.
</event>
<event>
 4    0  0.2250660E-002  0.2519620E+03  0.7546771E-02  0.1112071E+00
         21   -1    0    0  502  501  0.00000000000E+00  0.00000000000E+00  0.54636450667E+03  0.54636450667E+03  0.00000000000E+00 0.  1.
         21   -1    0    0  501  502 -0.00000000000E+00 -0.00000000000E+00 -0.11619507384E+03  0.11619507384E+03  0.00000000000E+00 0.  1.
         25    1    1    2    0    0  0.11248135876E+03  0.40793950553E+02 -0.25720050537E+02  0.17493634119E+03  0.12500000000E+03 0.  0.
         25    1    1    2    0    0 -0.11248135876E+03 -0.40793950553E+02  0.45588948337E+03  0.48762323932E+03  0.12500000000E+03 0.  0.
</event>
<event>
 4    0  0.2250660E-002  0.1949989E+03  0.7546771E-02  0.1154028E+00
         21   -1    0    0  502  501  0.00000000000E+00  0.00000000000E+00  0.21861524989E+02  0.21861524989E+02  0.00000000000E+00 0.  1.
         21   -1    0    0  501  502 -0.00000000000E+00 -0.00000000000E+00 -0.17393373928E+04  0.17393373928E+04  0.00000000000E+00 0.  1.
         25    1    1    2    0    0  0.13465587672E+03 -0.53078410713E+01 -0.56471061130E+03  0.59387157941E+03  0.12500000000E+03 0.  0.
         25    1    1    2    0    0 -0.13465587672E+03  0.53078410713E+01 -0.11527652565E+04  0.11673273383E+04  0.12500000000E+03 0.  0.
</event>
<event>
 4    0  0.2250660E-002  0.2338372E+03  0.7546771E-02  0.1123968E+00
         21   -1    0    0  502  501  0.00000000000E+00  0.00000000000E+00  0.10014468282E+04  0.10014468282E+04  0.00000000000E+00 0. -1.
         21   -1    0    0  501  502 -0.00000000000E+00 -0.00000000000E+00 -0.54600861188E+02  0.54600861188E+02  0.00000000000E+00 0.  1.
         25    1    1    2    0    0  0.20312316763E+02 -0.18170766973E+03  0.64277303997E+03  0.67986208040E+03  0.12500000000E+03 0.  0.
         25    1    1    2    0    0 -0.20312316763E+02  0.18170766973E+03  0.30407292704E+03  0.37618560899E+03  0.12500000000E+03 0.  0.
</event>
<event>
 4    0  0.2250660E-002  0.2012959E+03  0.7546771E-02  0.1148650E+00
         21   -1    0    0  502  501  0.00000000000E+00  0.00000000000E+00  0.13413838973E+03  0.13413838973E+03  0.00000000000E+00 0. -1.
         21   -1    0    0  501  502 -0.00000000000E+00 -0.00000000000E+00 -0.30207625274E+03  0.30207625274E+03  0.00000000000E+00 0. -1.
         25    1    1    2    0    0  0.10020332067E+03 -0.13199940556E+02  0.47311377932E+02  0.16756583896E+03  0.12500000000E+03 0.  0.
         25    1    1    2    0    0 -0.10020332067E+03  0.13199940556E+02 -0.21524924094E+03  0.26864880351E+03  0.12500000000E+03 0.  0.
</event>
<event>
 4    0  0.2250660E-002  0.2978063E+03  0.7546771E-02  0.1086342E+00
         21   -1    0    0  502  501  0.00000000000E+00  0.00000000000E+00  0.11344701862E+03  0.11344701862E+03  0.00000000000E+00 0.  1.
         21   -1    0    0  501  502 -0.00000000000E+00 -0.00000000000E+00 -0.78176236607E+03  0.78176236607E+03  0.00000000000E+00 0.  1.
         25    1    1    2    0    0  0.43005137585E+02 -0.13448274867E+03  0.12279687647E+02  0.18897312581E+03  0.12500000000E+03 0.  0.
         25    1    1    2    0    0 -0.43005137585E+02  0.13448274867E+03 -0.68059503510E+03  0.70623625888E+03  0.12500000000E+03 0.  0.
</event>
<event>
 4    0  0.2250660E-002  0.2170888E+03  0.7546771E-02  0.1136072E+00
         21   -1    0    0  502  501  0.00000000000E+00  0.00000000000E+00  0.14940787035E+03  0.14940787035E+03  0.00000000000E+00 0.  1.
         21   -1    0    0  501  502 -0.00000000000E+00 -0.00000000000E+00 -0.31542875384E+03  0.31542875384E+03  0.00000000000E+00 0.  1.
         25    1    1    2    0    0  0.46071122711E+01 -0.16155162025E+03 -0.44651024284E+01  0.20436508662E+03  0.12500000000E+03 0.  0.
         25    1    1    2    0    0 -0.46071122711E+01  0.16155162025E+03 -0.16155578106E+03  0.26047153757E+03  0.12500000000E+03 0.  0.
</event>
<event>
 4    0  0.2250660E-002  0.2317704E+03  0.7546771E-02  0.1125400E+00
         21   -1    0    0  502  501  0.00000000000E+00  0.00000000000E+00  0.25061488253E+03  0.25061488253E+03  0.00000000000E+00 0.  1.
         21   -1    0    0  501  502 -0.00000000000E+00 -0.00000000000E+00 -0.21434291616E+03  0.21434291616E+03  0.00000000000E+00 0.  1.
         25    1    1    2    0    0 -0.72900048863E+02 -0.16197797775E+03  0.99261161540E+02  0.23880758068E+03  0.12500000000E+03 0.  0.
         25    1    1    2    0    0  0.72900048863E+02  0.16197797775E+03 -0.62989195174E+02  0.22615021802E+03  0.12500000000E+03 0.  0.
</event>
<event>
 4    0  0.2250660E-002  0.1562381E+03  0.7546771E-02  0.1193011E+00
         21   -1    0    0  502  501  0.00000000000E+00  0.00000000000E+00  0.51593305238E+02  0.51593305238E+02  0.00000000000E+00 0.  1.
         21   -1    0    0  501  502 -0.00000000000E+00 -0.00000000000E+00 -0.47313005601E+03  0.47313005601E+03  0.00000000000E+00 0.  1.
         25    1    1    2    0    0 -0.98719184191E+01 -0.87254832062E+02 -0.26581278462E+03  0.30658163180E+03  0.12500000000E+03 0.  0.
         25    1    1    2    0    0  0.98719184191E+01  0.87254832062E+02 -0.15572396616E+03  0.21814172945E+03  0.12500000000E+03 0.  0.
</event>
<event>
 4    0  0.2250660E-002  0.2242853E+03  0.7546771E-02  0.1130728E+00
         21   -1    0    0  502  501  0.00000000000E+00  0.00000000000E+00  0.51283357323E+02  0.51283357323E+02  0.00000000000E+00 0.  1.
         21   -1    0    0  501  502 -0.00000000000E+00 -0.00000000000E+00 -0.98090134816E+03  0.98090134816E+03  0.00000000000E+00 0.  1.
         25    1    1    2    0    0 -0.93660977398E+02 -0.95302741258E+02 -0.16634622102E+03  0.24728739641E+03  0.12500000000E+03 0.  0.
         25    1    1    2    0    0  0.93660977398E+02  0.95302741258E+02 -0.76327176982E+03  0.78489730907E+03  0.12500000000E+03 0.  0.
</event>
<event>
 4    0  0.2250660E-002  0.3377431E+03  0.7546771E-02  0.1067761E+00
         21   -1    0    0  502  501  0.00000000000E+00  0.00000000000E+00  0.32122916786E+02  0.32122916786E+02  0.00000000000E+00 0.  1.
         21   -1    0    0  501  502 -0.00000000000E+00 -0.00000000000E+00 -0.35510599346E+04  0.35510599346E+04  0.00000000000E+00 0.  1.
         25    1    1    2    0    0  0.23152746317E+03  0.17794580246E+03 -0.11505771686E+04  0.11936173992E+04  0.12500000000E+03 0.  0.
         25    1    1    2    0    0 -0.23152746317E+03 -0.17794580246E+03 -0.23683598492E+04  0.23895654521E+04  0.12500000000E+03 0.  0.
</event>
<event>
 4    0  0.2250660E-002  0.1930997E+03  0.7546771E-02  0.1155695E+00
         21   -1    0    0  502  501  0.00000000000E+00  0.00000000000E+00  0.17701026764E+03  0.17701026764E+03  0.00000000000E+00 0. -1.
         21   -1    0    0  501  502 -0.00000000000E+00 -0.00000000000E+00 -0.21065158491E+03  0.21065158491E+03  0.00000000000E+00 0. -1.
         25    1    1    2    0    0 -0.44411032701E+02  0.87189174676E+02 -0.12718335948E+03  0.20340820764E+03  0.12500000000E+03 0.  0.
         25    1    1    2    0    0  0.44411032701E+02 -0.87189174676E+02  0.93542042205E+02  0.18425364492E+03  0.12500000000E+03 0.  0.
</event>
<event>
 4    0  0.2250660E-002  0.1818990E+03  0.7546771E-02  0.1165978E+00
         21   -1    0    0  502  501  0.00000000000E+00  0.00000000000E+00  0.30675134175E+03  0.30675134175E+03  0.00000000000E+00 0. -1.
         21   -1    0    0  501  502 -0.00000000000E+00 -0.00000000000E+00 -0.10786336366E+03  0.10786336366E+03  0.00000000000E+00 0. -1.
         25    1    1    2    0    0 -0.55918468304E+02  0.54963607522E+02 -0.21783037803E+02  0.14915553622E+03  0.12500000000E+03 0.  0.
         25    1    1    2    0    0  0.55918468304E+02 -0.54963607522E+02  0.22067101590E+03  0.26545916919E+03  0.12500000000E+03 0.  0.
</event>
<event>
 4    0  0.2250660E-002  0.2662811E+03  0.7546771E-02  0.1103427E+00
         21   -1    0    0  502  501  0.00000000000E+00  0.00000000000E+00  0.72725380989E+02  0.72725380989E+02  0.00000000000E+00 0. -1.
         21   -1    0    0  501  502 -0.00000000000E+00 -0.00000000000E+00 -0.97497763083E+03  0.97497763083E+03  0.00000000000E+00 0. -1.
         25    1    1    2    0    0  0.45011118536E+02 -0.22667095865E+03 -0.36594244713E+03  0.45049372792E+03  0.12500000000E+03 0.  0.
         25    1    1    2    0    0 -0.45011118536E+02  0.22667095865E+03 -0.53630980272E+03  0.59720928390E+03  0.12500000000E+03 0.  0.
</event>
<event>
 4    0  0.2250660E-002  0.3713209E+03  0.7546771E-02  0.1054189E+00
         21   -1    0    0  502  501  0.00000000000E+00  0.00000000000E+00  0.45869944966E+03  0.45869944966E+03  0.00000000000E+00 0.  1.
         21   -1    0    0  501  502 -0.00000000000E+00 -0.00000000000E+00 -0.30058721221E+03  0.30058721221E+03  0.00000000000E+00 0.  1.
         25    1    1    2    0    0  0.74501744859E+02  0.31570888808E+03  0.21248622874E+03  0.40742853288E+03  0.12500000000E+03 0.  0.
         25    1    1    2    0    0 -0.74501744859E+02 -0.31570888808E+03 -0.54373991303E+02  0.35185812898E+03  0.12500000000E+03 0.  0.
</event>
<event>
 4    0  0.2250660E-002  0.1615802E+03  0.7546771E-02  0.1186924E+00
         21   -1    0    0  502  501  0.00000000000E+00  0.00000000000E+00  0.18156757313E+02  0.18156757313E+02  0.00000000000E+00 0. -1.
         21   -1    0    0  501  502 -0.00000000000E+00 -0.00000000000E+00 -0.14379305433E+04  0.14379305433E+04  0.00000000000E+00 0. -1.
         25    1    1    2    0    0  0.63661473776E+02  0.23919985876E+02 -0.36501986509E+03  0.39177729756E+03  0.12500000000E+03 0.  0.
         25    1    1    2    0    0 -0.63661473776E+02 -0.23919985876E+02 -0.10547539209E+04  0.10643100031E+04  0.12500000000E+03 0.  0.
</event>
<event>
 4    0  0.2250660E-002  0.1550536E+03  0.7546771E-02  0.1194397E+00
         21   -1    0    0  502  501  0.00000000000E+00  0.00000000000E+00  0.31592975676E+03  0.31592975676E+03  0.00000000000E+00 0.  1.
         21   -1    0    0  501  502 -0.00000000000E+00 -0.00000000000E+00 -0.76097974499E+02  0.76097974499E+02  0.00000000000E+00 0.  1.
         25    1    1    2    0    0 -0.61229741366E+02 -0.10460722911E+02  0.34567130643E+02  0.14379984170E+03  0.12500000000E+03 0.  0.
         25    1    1    2    0    0  0.61229741366E+02  0.10460722911E+02  0.20526465162E+03  0.24822788956E+03  0.12500000000E+03 0.  0.
</event>
<event>
 4    0  0.2250660E-002  0.2434703E+03  0.7546771E-02  0.1117502E+00
         21   -1    0    0  502  501  0.00000000000E+00  0.00000000000E+00  0.79622260203E+03  0.79622260203E+03  0.00000000000E+00 0. -1.
         21   -1    0    0  501  502 -0.00000000000E+00 -0.00000000000E+00 -0.74448747989E+02  0.74448747989E+02  0.00000000000E+00 0. -1.
         25    1    1    2    0    0 -0.20761714736E+03  0.21376836392E+01  0.40256509887E+03  0.46988627177E+03  0.12500000000E+03 0.  0.
         25    1    1    2    0    0  0.20761714736E+03 -0.21376836392E+01  0.31920875517E+03  0.40078507824E+03  0.12500000000E+03 0.  0.
</event>
<event>
 4    0  0.2250660E-002  0.2269618E+03  0.7546771E-02  0.1128797E+00
         21   -1    0    0  502  501  0.00000000000E+00  0.00000000000E+00  0.29047749581E+02  0.29047749581E+02  0.00000000000E+00 0.  1.
         21   -1    0    0  501  502 -0.00000000000E+00 -0.00000000000E+00 -0.17733436232E+04  0.17733436232E+04  0.00000000000E+00 0.  1.
         25    1    1    2    0    0 -0.17855509035E+03  0.45974347720E+02 -0.10448197398E+04  0.10683018532E+04  0.12500000000E+03 0.  0.
         25    1    1    2    0    0  0.17855509035E+03 -0.45974347720E+02 -0.69947613386E+03  0.73408951959E+03  0.12500000000E+03 0.  0.
</event>
<event>
 4    0  0.2250660E-002  0.2287222E+03  0.7546771E-02  0.1127542E+00
         21   -1    0    0  502  501  0.00000000000E+00  0.00000000000E+00  0.43817061275E+03  0.43817061275E+03  0.00000000000E+00 0. -1.
         21   -1    0    0  501  502 -0.00000000000E+00 -0.00000000000E+00 -0.11939150571E+03  0.11939150571E+03  0.00000000000E+00 0. -1.
         25    1    1    2    0    0 -0.12115251311E+03  0.17049507021E+02  0.33902298102E+03  0.38148420515E+03  0.12500000000E+03 0.  0.
         25    1    1    2    0    0  0.12115251311E+03 -0.17049507021E+02 -0.20243873982E+02  0.17607791331E+03  0.12500000000E+03 0.  0.
</event>
<event>
 4    0  0.2250660E-002  0.2858505E+03  0.7546771E-02  0.1092536E+00
         21   -1    0    0  502  501  0.00000000000E+00  0.00000000000E+00  0.53581169671E+02  0.53581169671E+02  0.00000000000E+00 0.  1.
         21   -1    0    0  501  502 -0.00000000000E+00 -0.00000000000E+00 -0.15249851668E+04  0.15249851668E+04  0.00000000000E+00 0.  1.
         25    1    1    2    0    0  0.47255765566E+01 -0.25692230753E+03 -0.71539547776E+03  0.77035517314E+03  0.12500000000E+03 0.  0.
         25    1    1    2    0    0 -0.47255765566E+01  0.25692230753E+03 -0.75600851936E+03  0.80821116333E+03  0.12500000000E+03 0.  0.
</event>
<event>
 4    0  0.2250660E-002  0.1935427E+03  0.7546771E-02  0.1155304E+00
         21   -1    0    0  502  501  0.00000000000E+00  0.00000000000E+00  0.35627123600E+03  0.35627123600E+03  0.00000000000E+00 0.  1.
         21   -1    0    0  501  502 -0.00000000000E+00 -0.00000000000E+00 -0.10514115870E+03  0.10514115870E+03  0.00000000000E+00 0.  1.
         25    1    1    2    0    0  0.31835179160E+02 -0.10678074206E+03  0.24124700177E+03  0.29366770570E+03  0.12500000000E+03 0.  0.
         25    1    1    2    0    0 -0.31835179160E+02  0.10678074206E+03  0.98830755280E+01  0.16774468900E+03  0.12500000000E+03 0.  0.
</event>
<event>
 4    0  0.2250660E-002  0.2079697E+03  0.7546771E-02  0.1143184E+00
         21   -1    0    0  502  501  0.00000000000E+00  0.00000000000E+00  0.18959759352E+03  0.18959759352E+03  0.00000000000E+00 0.  1.
         21   -1    0    0  501  502 -0.00000000000E+00 -0.00000000000E+00 -0.22812196890E+03  0.22812196890E+03  0.00000000000E+00 0.  1.
         25    1    1    2    0    0 -0.11455060390E+03 -0.11346011145E+02  0.10115013028E+03  0.19775470078E+03  0.12500000000E+03 0.  0.
         25    1    1    2    0    0  0.11455060390E+03  0.11346011145E+02 -0.13967450567E+03  0.21996486164E+03  0.12500000000E+03 0.  0.
</event>
<event>
 4    0  0.2250660E-002  0.1874778E+03  0.7546771E-02  0.1160756E+00
         21   -1    0    0  502  501  0.00000000000E+00  0.00000000000E+00  0.46626946473E+02  0.46626946473E+02  0.00000000000E+00 0. -1.
         21   -1    0    0  501  502 -0.00000000000E+00 -0.00000000000E+00 -0.75381142351E+03  0.75381142351E+03  0.00000000000E+00 0. -1.
         25    1    1    2    0    0  0.12444652711E+03 -0.41708660918E+02 -0.25129370553E+03  0.30983879186E+03  0.12500000000E+03 0.  0.
         25    1    1    2    0    0 -0.12444652711E+03  0.41708660918E+02 -0.45589077151E+03  0.49059957812E+03  0.12500000000E+03 0.  0.
</event>
<event>
 4    0  0.2250660E-002  0.1746580E+03  0.7546771E-02  0.1173076E+00
         21   -1    0    0  502  501  0.00000000000E+00  0.00000000000E+00  0.28467568879E+03  0.28467568879E+03  0.00000000000E+00 0. -1.
         21   -1    0    0  501  502 -0.00000000000E+00 -0.00000000000E+00 -0.10715852462E+03  0.10715852462E+03  0.00000000000E+00 0. -1.
         25    1    1    2    0    0  0.17974974943E+02  0.53553512566E+02  0.21003572486E+03  0.25086068674E+03  0.12500000000E+03 0.  0.
         25    1    1    2    0    0 -0.17974974943E+02 -0.53553512566E+02 -0.32518560696E+02  0.14097352667E+03  0.12500000000E+03 0.  0.
</event>
<event>
 4    0  0.2250660E-002  0.2065131E+03  0.7546771E-02  0.1144357E+00
         21   -1    0    0  502  501  0.00000000000E+00  0.00000000000E+00  0.32076715304E+03  0.32076715304E+03  0.00000000000E+00 0. -1.
         21   -1    0    0  501  502 -0.00000000000E+00 -0.00000000000E+00 -0.13295519078E+03  0.13295519078E+03  0.00000000000E+00 0. -1.
         25    1    1    2    0    0 -0.15486960497E+03  0.36330906131E+02  0.48371496080E+02  0.20801281431E+03  0.12500000000E+03 0.  0.
         25    1    1    2    0    0  0.15486960497E+03 -0.36330906131E+02  0.13944046617E+03  0.24570952951E+03  0.12500000000E+03 0.  0.
</event>
<event>
 4    0  0.2250660E-002  0.2765326E+03  0.7546771E-02  0.1097598E+00
         21   -1    0    0  502  501  0.00000000000E+00  0.00000000000E+00  0.17906952879E+04  0.17906952879E+04  0.00000000000E+00 0.  1.
         21   -1    0    0  501  502 -0.00000000000E+00 -0.00000000000E+00 -0.42704230820E+02  0.42704230820E+02  0.00000000000E+00 0.  1.
         25    1    1    2    0    0  0.86558157602E+02  0.37750777237E+02  0.16294023519E+04  0.16369161433E+04  0.12500000000E+03 0.  0.
         25    1    1    2    0    0 -0.86558157602E+02 -0.37750777237E+02  0.11858870525E+03  0.19648337548E+03  0.12500000000E+03 0.  0.
</event>
<event>
 4    0  0.2250660E-002  0.2046156E+03  0.7546771E-02  0.1145902E+00
         21   -1    0    0  502  501  0.00000000000E+00  0.00000000000E+00  0.59288508651E+02  0.59288508651E+02  0.00000000000E+00 0. -1.
         21   -1    0    0  501  502 -0.00000000000E+00 -0.00000000000E+00 -0.70616604708E+03  0.70616604708E+03  0.00000000000E+00 0. -1.
         25    1    1    2    0    0  0.46202707752E+02  0.15130579599E+03 -0.38862129770E+03  0.43781234237E+03  0.12500000000E+03 0.  0.
         25    1    1    2    0    0 -0.46202707752E+02 -0.15130579599E+03 -0.25825624073E+03  0.32764221337E+03  0.12500000000E+03 0.  0.
</event>
<event>
 4    0  0.2250660E-002  0.1926038E+03  0.7546771E-02  0.1156134E+00
         21   -1    0    0  502  501  0.00000000000E+00  0.00000000000E+00  0.11550788386E+04  0.11550788386E+04  0.00000000000E+00 0.  1.
         21   -1    0    0  501  502 -0.00000000000E+00 -0.00000000000E+00 -0.32115752519E+02  0.32115752519E+02  0.00000000000E+00 0.  1.
         25    1    1    2    0    0  0.34707586930E+02 -0.71251499197E+02  0.18163904472E+03  0.23430564504E+03  0.12500000000E+03 0.  0.
         25    1    1    2    0    0 -0.34707586930E+02  0.71251499197E+02  0.94132404136E+03  0.95288894609E+03  0.12500000000E+03 0.  0.
</event>
<event>
 4    0  0.2250660E-002  0.1768091E+03  0.7546771E-02  0.1170927E+00
         21   -1    0    0  502  501  0.00000000000E+00  0.00000000000E+00  0.21432764676E+03  0.21432764676E+03  0.00000000000E+00 0.  1.
         21   -1    0    0  501  502 -0.00000000000E+00 -0.00000000000E+00 -0.14585826392E+03  0.14585826392E+03  0.00000000000E+00 0.  1.
         25    1    1    2    0    0 -0.10002346655E+03  0.60723137668E+02 -0.10680389868E+02  0.17155484265E+03  0.12500000000E+03 0.  0.
         25    1    1    2    0    0  0.10002346655E+03 -0.60723137668E+02  0.79149772707E+02  0.18863106804E+03  0.12500000000E+03 0.  0.
</event>
<event>
 4    0  0.2250660E-002  0.2350742E+03  0.7546771E-02  0.1123118E+00
         21   -1    0    0  502  501  0.00000000000E+00  0.00000000000E+00  0.33971397091E+03  0.33971397091E+03  0.00000000000E+00 0.  1.
         21   -1    0    0  501  502 -0.00000000000E+00 -0.00000000000E+00 -0.16266589053E+03  0.16266589053E+03  0.00000000000E+00 0.  1.
         25    1    1    2    0    0  0.60641053890E+02  0.18902061996E+03  0.72362915634E+02  0.24549444748E+03  0.12500000000E+03 0.  0.
         25    1    1    2    0    0 -0.60641053890E+02 -0.18902061996E+03  0.10468516475E+03  0.25688541396E+03  0.12500000000E+03 0.  0.
</event>
<event>
 4    0  0.2250660E-002  0.2233107E+03  0.7546771E-02  0.1131439E+00
         21   -1    0    0  502  501  0.00000000000E+00  0.00000000000E+00  0.24495802868E+03  0.24495802868E+03  0.00000000000E+00 0.  1.
         21   -1    0    0  501  502 -0.00000000000E+00 -0.00000000000E+00 -0.20357630179E+03  0.20357630179E+03  0.00000000000E+00 0.  1.
         25    1    1    2    0    0 -0.23173690565E+02  0.18360575342E+02  0.20414381749E+03  0.24119251415E+03  0.12500000000E+03 0.  0.
         25    1    1    2    0    0  0.23173690565E+02 -0.18360575342E+02 -0.16276209060E+03  0.20734181633E+03  0.12500000000E+03 0.  0.
</event>
<event>
 4    0  0.2250660E-002  0.3021206E+03  0.7546771E-02  0.1084185E+00
         21   -1    0    0  502  501  0.00000000000E+00  0.00000000000E+00  0.52672601106E+03  0.52672601106E+03  0.00000000000E+00 0.  1.
         21   -1    0    0  501  502 -0.00000000000E+00 -0.00000000000E+00 -0.17329096434E+03  0.17329096434E+03  0.00000000000E+00 0.  1.
         25    1    1    2    0    0  0.14363772911E+03  0.23350964987E+03  0.15098657384E+03  0.33701706082E+03  0.12500000000E+03 0.  0.
         25    1    1    2    0    0 -0.14363772911E+03 -0.23350964987E+03  0.20244847288E+03  0.36299991457E+03  0.12500000000E+03 0.  0.
</event>
<event>
 4    0  0.2250660E-002  0.2571183E+03  0.7546771E-02  0.1108887E+00
         21   -1    0    0  502  501  0.00000000000E+00  0.00000000000E+00  0.58716495097E+03  0.58716495097E+03  0.00000000000E+00 0.  1.
         21   -1    0    0  501  502 -0.00000000000E+00 -0.00000000000E+00 -0.11259157387E+03  0.11259157387E+03  0.00000000000E+00 0.  1.
         25    1    1    2    0    0 -0.39299367620E+02 -0.63550098939E+01 -0.63624531486E+02  0.14580091719E+03  0.12500000000E+03 0.  0.
         25    1    1    2    0    0  0.39299367620E+02  0.63550098939E+01  0.53819790858E+03  0.55395560765E+03  0.12500000000E+03 0.  0.
</event>
<event>
 4    0  0.2250660E-002  0.1507452E+03  0.7546771E-02  0.1199560E+00
         21   -1    0    0  502  501  0.00000000000E+00  0.00000000000E+00  0.70029322045E+02  0.70029322045E+02  0.00000000000E+00 0.  1.
         21   -1    0    0  501  502 -0.00000000000E+00 -0.00000000000E+00 -0.32449428003E+03  0.32449428003E+03  0.00000000000E+00 0.  1.
         25    1    1    2    0    0 -0.39391310396E+02  0.74095984113E+02 -0.13713143815E+03  0.20364656031E+03  0.12500000000E+03 0.  0.
         25    1    1    2    0    0  0.39391310396E+02 -0.74095984113E+02 -0.11733351983E+03  0.19087704176E+03  0.12500000000E+03 0.  0.
</event>
<event>
 4    0  0.2250660E-002  0.2183852E+03  0.7546771E-02  0.1135093E+00
         21   -1    0    0  502  501  0.00000000000E+00  0.00000000000E+00  0.64207108096E+02  0.64207108096E+02  0.00000000000E+00 0. -1.
         21   -1    0    0  501  502 -0.00000000000E+00 -0.00000000000E+00 -0.74278530277E+03  0.74278530277E+03  0.00000000000E+00 0. -1.
         25    1    1    2    0    0 -0.61684373740E+02 -0.15516555771E+03 -0.21975146376E+03  0.30298022722E+03  0.12500000000E+03 0.  0.
         25    1    1    2    0    0  0.61684373740E+02  0.15516555771E+03 -0.45882673091E+03  0.50401218364E+03  0.12500000000E+03 0.  0.
</event>
<event>
 4    0  0.2250660E-002  0.2062497E+03  0.7546771E-02  0.1144571E+00
         21   -1    0    0  502  501  0.00000000000E+00  0.00000000000E+00  0.60080134770E+02  0.60080134770E+02  0.00000000000E+00 0. -1.
         21   -1    0    0  501  502 -0.00000000000E+00 -0.00000000000E+00 -0.70803660318E+03  0.70803660318E+03  0.00000000000E+00 0. -1.
         25    1    1    2    0    0 -0.22160938545E+02  0.10779150769E+02 -0.62599885598E+03  0.63883242323E+03  0.12500000000E+03 0.  0.
         25    1    1    2    0    0  0.22160938545E+02 -0.10779150769E+02 -0.21957612435E+02  0.12928431472E+03  0.12500000000E+03 0.  0.
</event>
<event>
 4    0  0.2250660E-002  0.2070700E+03  0.7546771E-02  0.1143907E+00
         21   -1    0    0  502  501  0.00000000000E+00  0.00000000000E+00  0.41540732898E+03  0.41540732898E+03  0.00000000000E+00 0.  1.
         21   -1    0    0  501  502 -0.00000000000E+00 -0.00000000000E+00 -0.10321910281E+03  0.10321910281E+03  0.00000000000E+00 0.  1.
         25    1    1    2    0    0  0.10304430415E+03  0.10403250199E+03  0.60622691423E+02  0.20184400116E+03  0.12500000000E+03 0.  0.
         25    1    1    2    0    0 -0.10304430415E+03 -0.10403250199E+03  0.25156553475E+03  0.31678243064E+03  0.12500000000E+03 0.  0.
</event>
<event>
 4    0  0.2250660E-002  0.2037492E+03  0.7546771E-02  0.1146614E+00
         21   -1    0    0  502  501  0.00000000000E+00  0.00000000000E+00  0.24136204014E+03  0.24136204014E+03  0.00000000000E+00 0. -1.
         21   -1    0    0  501  502 -0.00000000000E+00 -0.00000000000E+00 -0.17199770231E+03  0.17199770231E+03  0.00000000000E+00 0. -1.
         25    1    1    2    0    0  0.92012006286E+02  0.11048150842E+03  0.10794529732E+03  0.21897388022E+03  0.12500000000E+03 0.  0.
         25    1    1    2    0    0 -0.92012006286E+02 -0.11048150842E+03 -0.38580959490E+02  0.19438586224E+03  0.12500000000E+03 0.  0.
</event>
<event>
 4    0  0.2250660E-002  0.2116260E+03  0.7546771E-02  0.1140285E+00
         21   -1    0    0  502  501  0.00000000000E+00  0.00000000000E+00  0.18173346330E+04  0.18173346330E+04  0.00000000000E+00 0.  1.
         21   -1    0    0  501  502 -0.00000000000E+00 -0.00000000000E+00 -0.24643548613E+02  0.24643548613E+02  0.00000000000E+00 0.  1.
         25    1    1    2    0    0  0.16636918764E+03  0.89075722917E+01  0.10593278254E+04  0.10796103431E+04  0.12500000000E+03 0.  0.
         25    1    1    2    0    0 -0.16636918764E+03 -0.89075722917E+01  0.73336325899E+03  0.76236783844E+03  0.12500000000E+03 0.  0.
</event>
<event>
 4    0  0.2250660E-002  0.2770979E+03  0.7546771E-02  0.1097285E+00
         21   -1    0    0  502  501  0.00000000000E+00  0.00000000000E+00  0.72629181718E+03  0.72629181718E+03  0.00000000000E+00 0. -1.
         21   -1    0    0  501  502 -0.00000000000E+00 -0.00000000000E+00 -0.10571958576E+03  0.10571958576E+03  0.00000000000E+00 0. -1.
         25    1    1    2    0    0  0.20259368551E+03  0.13076720901E+03  0.39270714139E+03  0.47748106063E+03  0.12500000000E+03 0.  0.
         25    1    1    2    0    0 -0.20259368551E+03 -0.13076720901E+03  0.22786509004E+03  0.35453034231E+03  0.12500000000E+03 0.  0.
</event>
<event>
 4    0  0.2250660E-002  0.1991075E+03  0.7546771E-02  0.1150494E+00
         21   -1    0    0  502  501  0.00000000000E+00  0.00000000000E+00  0.14050996537E+04  0.14050996537E+04  0.00000000000E+00 0. -1.
         21   -1    0    0  501  502 -0.00000000000E+00 -0.00000000000E+00 -0.28214229629E+02  0.28214229629E+02  0.00000000000E+00 0. -1.
         25    1    1    2    0    0  0.11900431479E+03  0.22987613493E+02  0.34080571013E+03  0.38270613971E+03  0.12500000000E+03 0.  0.
         25    1    1    2    0    0 -0.11900431479E+03 -0.22987613493E+02  0.10360797139E+04  0.10506077436E+04  0.12500000000E+03 0.  0.
</event>
<event>
 4    0  0.2250660E-002  0.2278061E+03  0.7546771E-02  0.1128194E+00
         21   -1    0    0  502  501  0.00000000000E+00  0.00000000000E+00  0.57483799892E+02  0.57483799892E+02  0.00000000000E+00 0.  1.
         21   -1    0    0  501  502 -0.00000000000E+00 -0.00000000000E+00 -0.90278667434E+03  0.90278667434E+03  0.00000000000E+00 0.  1.
         25    1    1    2    0    0 -0.18326406983E+03 -0.51293269525E+02 -0.43812361088E+03  0.49375501740E+03  0.12500000000E+03 0.  0.
         25    1    1    2    0    0  0.18326406983E+03  0.51293269525E+02 -0.40717926356E+03  0.46651545684E+03  0.12500000000E+03 0.  0.
</event>
<event>
 4    0  0.2250660E-002  0.2160763E+03  0.7546771E-02  0.1136843E+00
         21   -1    0    0  502  501  0.00000000000E+00  0.00000000000E+00  0.12718718560E+03  0.12718718560E+03  0.00000000000E+00 0. -1.
         21   -1    0    0  501  502 -0.00000000000E+00 -0.00000000000E+00 -0.36708877874E+03  0.36708877874E+03  0.00000000000E+00 0. -1.
         25    1    1    2    0    0 -0.11819260548E+03  0.11343953134E+03 -0.19430327261E+03  0.28322567152E+03  0.12500000000E+03 0.  0.
         25    1    1    2    0    0  0.11819260548E+03 -0.11343953134E+03 -0.45598320539E+02  0.21105029282E+03  0.12500000000E+03 0.  0.
</event>
<event>
 4    0  0.2250660E-002  0.2331874E+03  0.7546771E-02  0.1124416E+00
         21   -1    0    0  502  501  0.00000000000E+00  0.00000000000E+00  0.32049839172E+03  0.32049839172E+03  0.00000000000E+00 0. -1.
         21   -1    0    0  501  502 -0.00000000000E+00 -0.00000000000E+00 -0.16966190719E+03  0.16966190719E+03  0.00000000000E+00 0. -1.
         25    1    1    2    0    0 -0.15940568343E+02 -0.21357355187E+02  0.28040685753E+03  0.30816106842E+03  0.12500000000E+03 0.  0.
         25    1    1    2    0    0  0.15940568343E+02  0.21357355187E+02 -0.12957037300E+03  0.18199923049E+03  0.12500000000E+03 0.  0.
</event>
<event>
 4    0  0.2250660E-002  0.4354816E+03  0.7546771E-02  0.1032142E+00
         21   -1    0    0  502  501  0.00000000000E+00  0.00000000000E+00  0.63625854627E+02  0.63625854627E+02  0.00000000000E+00 0.  1.
         21   -1    0    0  501  502 -0.00000000000E+00 -0.00000000000E+00 -0.29806156544E+04  0.29806156544E+04  0.00000000000E+00 0.  1.
         25    1    1    2    0    0 -0.28873296254E+03 -0.28943166778E+03 -0.11685399913E+04  0.12442861911E+04  0.12500000000E+03 0.  0.
         25    1    1    2    0    0  0.28873296254E+03  0.28943166778E+03 -0.17484498084E+04  0.17999553180E+04  0.12500000000E+03 0.  0.
</event>
<event>
 4    0  0.2250660E-002  0.2717070E+03  0.7546771E-02  0.1100307E+00
         21   -1    0    0  502  501  0.00000000000E+00  0.00000000000E+00  0.40130256409E+03  0.40130256409E+03  0.00000000000E+00 0.  1.
         21   -1    0    0  501  502 -0.00000000000E+00 -0.00000000000E+00 -0.18396262842E+03  0.18396262842E+03  0.00000000000E+00 0.  1.
         25    1    1    2    0    0 -0.11591853850E+03 -0.21098487423E+03  0.91710829724E+02  0.28633477087E+03  0.12500000000E+03 0.  0.
         25    1    1    2    0    0  0.11591853850E+03  0.21098487423E+03  0.12562910595E+03  0.29893042164E+03  0.12500000000E+03 0.  0.
</event>
<event>
 4    0  0.2250660E-002  0.1458817E+03  0.7546771E-02  0.1205627E+00
         21   -1    0    0  502  501  0.00000000000E+00  0.00000000000E+00  0.65581462388E+03  0.65581462388E+03  0.00000000000E+00 0. -1.
         21   -1    0    0  501  502 -0.00000000000E+00 -0.00000000000E+00 -0.32450438761E+02  0.32450438761E+02  0.00000000000E+00 0. -1.
         25    1    1    2    0    0 -0.61979262400E+02  0.36515068572E+01  0.21155137764E+03  0.25344377651E+03  0.12500000000E+03 0.  0.
         25    1    1    2    0    0  0.61979262400E+02 -0.36515068572E+01  0.41181280747E+03  0.43482128613E+03  0.12500000000E+03 0.  0.
</event>
<event>
 4    0  0.2250660E-002  0.2482545E+03  0.7546771E-02  0.1114413E+00
         21   -1    0    0  502  501  0.00000000000E+00  0.00000000000E+00  0.57244063063E+02  0.57244063063E+02  0.00000000000E+00 0.  1.
         21   -1    0    0  501  502 -0.00000000000E+00 -0.00000000000E+00 -0.10766231785E+04  0.10766231785E+04  0.00000000000E+00 0.  1.
         25    1    1    2    0    0  0.53590811811E+02  0.15626725599E+03 -0.82209367648E+03  0.84779386841E+03  0.12500000000E+03 0.  0.
         25    1    1    2    0    0 -0.53590811811E+02 -0.15626725599E+03 -0.19728543897E+03  0.28607337317E+03  0.12500000000E+03 0.  0.
</event>
<event>
 4    0  0.2250660E-002  0.2185513E+03  0.7546771E-02  0.1134968E+00
         21   -1    0    0  502  501  0.00000000000E+00  0.00000000000E+00  0.44095164022E+03  0.44095164022E+03  0.00000000000E+00 0. -1.
         21   -1    0    0  501  502 -0.00000000000E+00 -0.00000000000E+00 -0.10832182899E+03  0.10832182899E+03  0.00000000000E+00 0. -1.
         25    1    1    2    0    0  0.41190310470E+02 -0.16429567905E+03  0.92505244528E+02  0.22993897472E+03  0.12500000000E+03 0.  0.
         25    1    1    2    0    0 -0.41190310470E+02  0.16429567905E+03  0.24012456670E+03  0.31933449448E+03  0.12500000000E+03 0.  0.
</event>
<event>
 4    0  0.2250660E-002  0.2726043E+03  0.7546771E-02  0.1099798E+00
         21   -1    0    0  502  501  0.00000000000E+00  0.00000000000E+00  0.47290304677E+03  0.47290304677E+03  0.00000000000E+00 0. -1.
         21   -1    0    0  501  502 -0.00000000000E+00 -0.00000000000E+00 -0.15714233280E+03  0.15714233280E+03  0.00000000000E+00 0. -1.
         25    1    1    2    0    0  0.10448610256E+03 -0.12399749243E+03 -0.50113550897E+02  0.21078209540E+03  0.12500000000E+03 0.  0.
         25    1    1    2    0    0 -0.10448610256E+03  0.12399749243E+03  0.36587426487E+03  0.41926328417E+03  0.12500000000E+03 0.  0.
</event>
<event>
 4    0  0.2250660E-002  0.1755543E+03  0.7546771E-02  0.1172176E+00
         21   -1    0    0  502  501  0.00000000000E+00  0.00000000000E+00  0.39199872735E+02  0.39199872735E+02  0.00000000000E+00 0. -1.
         21   -1    0    0  501  502 -0.00000000000E+00 -0.00000000000E+00 -0.78620971534E+03  0.78620971534E+03  0.00000000000E+00 0. -1.
         25    1    1    2    0    0 -0.88598444753E+02 -0.71992886229E+01 -0.57426406326E+03  0.59439526287E+03  0.12500000000E+03 0.  0.
         25    1    1    2    0    0  0.88598444753E+02  0.71992886229E+01 -0.17274577935E+03  0.23101432521E+03  0.12500000000E+03 0.  0.
</event>
<event>
 4    0  0.2250660E-002  0.2990843E+03  0.7546771E-02  0.1085699E+00
         21   -1    0    0  502  501  0.00000000000E+00  0.00000000000E+00  0.17962141369E+03  0.17962141369E+03  0.00000000000E+00 0. -1.
         21   -1    0    0  501  502 -0.00000000000E+00 -0.00000000000E+00 -0.49799960750E+03  0.49799960750E+03  0.00000000000E+00 0. -1.
         25    1    1    2    0    0  0.76508208302E+02 -0.22003844082E+03 -0.31760654906E+03  0.41324247287E+03  0.12500000000E+03 0.  0.
         25    1    1    2    0    0 -0.76508208302E+02  0.22003844082E+03 -0.77164475222E+00  0.26437854832E+03  0.12500000000E+03 0.  0.
</event>
<event>
 4    0  0.2250660E-002  0.3827130E+03  0.7546771E-02  0.1049936E+00
         21   -1    0    0  502  501  0.00000000000E+00  0.00000000000E+00  0.12376305931E+04  0.12376305931E+04  0.00000000000E+00 0.  1.
         21   -1    0    0  501  502 -0.00000000000E+00 -0.00000000000E+00 -0.11834647476E+03  0.11834647476E+03  0.00000000000E+00 0.  1.
         25    1    1    2    0    0  0.50085370849E+02  0.85763459148E+02  0.11758205030E+04  0.11866097803E+04  0.12500000000E+03 0.  0.
         25    1    1    2    0    0 -0.50085370849E+02 -0.85763459148E+02 -0.56536384710E+02  0.16936728756E+03  0.12500000000E+03 0.  0.
</event>
<event>
 4    0  0.2250660E-002  0.1994394E+03  0.7546771E-02  0.1150213E+00
         21   -1    0    0  502  501  0.00000000000E+00  0.00000000000E+00  0.31961758195E+03  0.31961758195E+03  0.00000000000E+00 0. -1.
         21   -1    0    0  501  502 -0.00000000000E+00 -0.00000000000E+00 -0.12444896574E+03  0.12444896574E+03  0.00000000000E+00 0. -1.
         25    1    1    2    0    0  0.78311493503E+02 -0.12898605874E+03  0.13895582377E+03  0.24021618248E+03  0.12500000000E+03 0.  0.
         25    1    1    2    0    0 -0.78311493503E+02  0.12898605874E+03  0.56212792438E+02  0.20385036521E+03  0.12500000000E+03 0.  0.
</event>
<event>
 4    0  0.2250660E-002  0.2813974E+03  0.7546771E-02  0.1094928E+00
         21   -1    0    0  502  501  0.00000000000E+00  0.00000000000E+00  0.53603202825E+03  0.53603202825E+03  0.00000000000E+00 0. -1.
         21   -1    0    0  501  502 -0.00000000000E+00 -0.00000000000E+00 -0.14772341602E+03  0.14772341602E+03  0.00000000000E+00 0. -1.
         25    1    1    2    0    0 -0.38931994743E+02 -0.19666286006E+03  0.37987354752E+03  0.44734873739E+03  0.12500000000E+03 0.  0.
         25    1    1    2    0    0  0.38931994743E+02  0.19666286006E+03  0.84350647030E+01  0.23640670688E+03  0.12500000000E+03 0.  0.
</event>
<event>
 4    0  0.2250660E-002  0.1883844E+03  0.7546771E-02  0.1159927E+00
         21   -1    0    0  502  501  0.00000000000E+00  0.00000000000E+00  0.62595778249E+03  0.62595778249E+03  0.00000000000E+00 0.  1.
         21   -1    0    0  501  502 -0.00000000000E+00 -0.00000000000E+00 -0.56694986272E+02  0.56694986272E+02  0.00000000000E+00 0.  1.
         25    1    1    2    0    0 -0.59276381408E+02  0.98579052839E+02  0.13707700530E+03  0.21828106751E+03  0.12500000000E+03 0.  0.
         25    1    1    2    0    0  0.59276381408E+02 -0.98579052839E+02  0.43218579091E+03  0.46437170125E+03  0.12500000000E+03 0.  0.
</event>
<event>
 4    0  0.2250660E-002  0.2180741E+03  0.7546771E-02  0.1135327E+00
         21   -1    0    0  502  501  0.00000000000E+00  0.00000000000E+00  0.34529148137E+03  0.34529148137E+03  0.00000000000E+00 0. -1.
         21   -1    0    0  501  502 -0.00000000000E+00 -0.00000000000E+00 -0.13772798448E+03  0.13772798448E+03  0.00000000000E+00 0. -1.
         25    1    1    2    0    0 -0.14661312533E+03 -0.39125439917E+02  0.20828981085E+03  0.28641901800E+03  0.12500000000E+03 0.  0.
         25    1    1    2    0    0  0.14661312533E+03  0.39125439917E+02 -0.72631396032E+00  0.19660044786E+03  0.12500000000E+03 0.  0.
</event>
<event>
 4    0  0.2250660E-002  0.2035067E+03  0.7546771E-02  0.1146814E+00
         21   -1    0    0  502  501  0.00000000000E+00  0.00000000000E+00  0.86208270793E+02  0.86208270793E+02  0.00000000000E+00 0.  1.
         21   -1    0    0  501  502 -0.00000000000E+00 -0.00000000000E+00 -0.48040615083E+03  0.48040615083E+03  0.00000000000E+00 0.  1.
         25    1    1    2    0    0  0.89305487551E+02  0.60535576663E+02 -0.36269745884E+03  0.39851533571E+03  0.12500000000E+03 0.  0.
         25    1    1    2    0    0 -0.89305487551E+02 -0.60535576663E+02 -0.31500421197E+02  0.16809908591E+03  0.12500000000E+03 0.  0.
</event>
<event>
 4    0  0.2250660E-002  0.2597615E+03  0.7546771E-02  0.1107287E+00
         21   -1    0    0  502  501  0.00000000000E+00  0.00000000000E+00  0.13317458334E+04  0.13317458334E+04  0.00000000000E+00 0.  1.
         21   -1    0    0  501  502 -0.00000000000E+00 -0.00000000000E+00 -0.50667350420E+02  0.50667350420E+02  0.00000000000E+00 0.  1.
         25    1    1    2    0    0 -0.19652109367E+03 -0.10889679884E+03  0.73910066163E+03  0.78254318799E+03  0.12500000000E+03 0.  0.
         25    1    1    2    0    0  0.19652109367E+03  0.10889679884E+03  0.54197782134E+03  0.59986999581E+03  0.12500000000E+03 0.  0.
</event>
<event>
 4    0  0.2250660E-002  0.3217730E+03  0.7546771E-02  0.1074836E+00
         21   -1    0    0  502  501  0.00000000000E+00  0.00000000000E+00  0.14938404755E+03  0.14938404755E+03  0.00000000000E+00 0.  1.
         21   -1    0    0  501  502 -0.00000000000E+00 -0.00000000000E+00 -0.69309844102E+03  0.69309844102E+03  0.00000000000E+00 0.  1.
         25    1    1    2    0    0 -0.22201985604E+03 -0.12423974960E+03 -0.72523667430E+02  0.29259701672E+03  0.12500000000E+03 0.  0.
         25    1    1    2    0    0  0.22201985604E+03  0.12423974960E+03 -0.47119072604E+03  0.54988547186E+03  0.12500000000E+03 0.  0.
</event>
<event>
 4    0  0.2250660E-002  0.2162238E+03  0.7546771E-02  0.1136730E+00
         21   -1    0    0  502  501  0.00000000000E+00  0.00000000000E+00  0.33248519607E+03  0.33248519607E+03  0.00000000000E+00 0. -1.
         21   -1    0    0  501  502 -0.00000000000E+00 -0.00000000000E+00 -0.14061594395E+03  0.14061594395E+03  0.00000000000E+00 0. -1.
         25    1    1    2    0    0 -0.31748918275E+02  0.76033775825E+02  0.26660898241E+03  0.30576866808E+03  0.12500000000E+03 0.  0.
         25    1    1    2    0    0  0.31748918275E+02 -0.76033775825E+02 -0.74739730294E+02  0.16733247193E+03  0.12500000000E+03 0.  0.
</event>
<event>
 4    0  0.2250660E-002  0.2086097E+03  0.7546771E-02  0.1142672E+00
         21   -1    0    0  502  501  0.00000000000E+00  0.00000000000E+00  0.21183494824E+03  0.21183494824E+03  0.00000000000E+00 0. -1.
         21   -1    0    0  501  502 -0.00000000000E+00 -0.00000000000E+00 -0.20543347473E+03  0.20543347473E+03  0.00000000000E+00 0. -1.
         25    1    1    2    0    0  0.88566432042E+02  0.84411934205E+02  0.11689613840E+03  0.21037845587E+03  0.12500000000E+03 0.  0.
         25    1    1    2    0    0 -0.88566432042E+02 -0.84411934205E+02 -0.11049466489E+03  0.20688996711E+03  0.12500000000E+03 0.  0.
</event>
<event>
 4    0  0.2250660E-002  0.2388489E+03  0.7546771E-02  0.1120562E+00
         21   -1    0    0  502  501  0.00000000000E+00  0.00000000000E+00  0.23314843416E+02  0.23314843416E+02  0.00000000000E+00 0. -1.
         21   -1    0    0  501  502 -0.00000000000E+00 -0.00000000000E+00 -0.24468878183E+04  0.24468878183E+04  0.00000000000E+00 0. -1.
         25    1    1    2    0    0  0.40952917559E+02  0.10866039003E+03 -0.34743719556E+03  0.38706824550E+03  0.12500000000E+03 0.  0.
         25    1    1    2    0    0 -0.40952917559E+02 -0.10866039003E+03 -0.20761357793E+04  0.20831344162E+04  0.12500000000E+03 0.  0.
</event>
<event>
 4    0  0.2250660E-002  0.2168251E+03  0.7546771E-02  0.1136272E+00
         21   -1    0    0  502  501  0.00000000000E+00  0.00000000000E+00  0.10098848769E+03  0.10098848769E+03  0.00000000000E+00 0.  1.
         21   -1    0    0  501  502 -0.00000000000E+00 -0.00000000000E+00 -0.46552960872E+03  0.46552960872E+03  0.00000000000E+00 0.  1.
         25    1    1    2    0    0  0.13556883527E+03 -0.56361521569E+02 -0.52729213083E+02  0.19990222640E+03  0.12500000000E+03 0.  0.
         25    1    1    2    0    0 -0.13556883527E+03  0.56361521569E+02 -0.31181190794E+03  0.36661587001E+03  0.12500000000E+03 0.  0.
</event>
<event>
 4    0  0.2250660E-002  0.2453357E+03  0.7546771E-02  0.1116289E+00
         21   -1    0    0  502  501  0.00000000000E+00  0.00000000000E+00  0.58773341307E+02  0.58773341307E+02  0.00000000000E+00 0.  1.
         21   -1    0    0  501  502 -0.00000000000E+00 -0.00000000000E+00 -0.10240971532E+04  0.10240971532E+04  0.00000000000E+00 0.  1.
         25    1    1    2    0    0 -0.16943169238E+03  0.12290934894E+03 -0.42219059912E+03  0.48752816168E+03  0.12500000000E+03 0.  0.
         25    1    1    2    0    0  0.16943169238E+03 -0.12290934894E+03 -0.54313321275E+03  0.59534233281E+03  0.12500000000E+03 0.  0.
</event>
<event>
 4    0  0.2250660E-002  0.1846731E+03  0.7546771E-02  0.1163355E+00
         21   -1    0    0  502  501  0.00000000000E+00  0.00000000000E+00  0.98834622359E+03  0.98834622359E+03  0.00000000000E+00 0.  1.
         21   -1    0    0  501  502 -0.00000000000E+00 -0.00000000000E+00 -0.34506295844E+02  0.34506295844E+02  0.00000000000E+00 0.  1.
         25    1    1    2    0    0 -0.88654361147E+01 -0.92084349517E+02  0.20107949471E+03  0.25419694447E+03  0.12500000000E+03 0.  0.
         25    1    1    2    0    0  0.88654361147E+01  0.92084349517E+02  0.75276043303E+03  0.76865557496E+03  0.12500000000E+03 0.  0.
</event>
<event>
 4    0  0.2250660E-002  0.2383675E+03  0.7546771E-02  0.1120885E+00
         21   -1    0    0  502  501  0.00000000000E+00  0.00000000000E+00  0.26053094349E+03  0.26053094349E+03  0.00000000000E+00 0. -1.
         21   -1    0    0  501  502 -0.00000000000E+00 -0.00000000000E+00 -0.21808947309E+03  0.21808947309E+03  0.00000000000E+00 0. -1.
         25    1    1    2    0    0  0.18073180013E+03  0.87706941281E+02 -0.78344396380E+01  0.23673375250E+03  0.12500000000E+03 0.  0.
         25    1    1    2    0    0 -0.18073180013E+03 -0.87706941281E+02  0.50275910035E+02  0.24188666408E+03  0.12500000000E+03 0.  0.
</event>
<event>
 4    0  0.2250660E-002  0.1799320E+03  0.7546771E-02  0.1167869E+00
         21   -1    0    0  502  501  0.00000000000E+00  0.00000000000E+00  0.13736968494E+03  0.13736968494E+03  0.00000000000E+00 0. -1.
         21   -1    0    0  501  502 -0.00000000000E+00 -0.00000000000E+00 -0.23568166409E+03  0.23568166409E+03  0.00000000000E+00 0. -1.
         25    1    1    2    0    0  0.42657885287E+02  0.12089393748E+03 -0.30743442236E+02  0.18167332919E+03  0.12500000000E+03 0.  0.
         25    1    1    2    0    0 -0.42657885287E+02 -0.12089393748E+03 -0.67568536916E+02  0.19137801984E+03  0.12500000000E+03 0.  0.
</event>
<event>
 4    0  0.2250660E-002  0.2004124E+03  0.7546771E-02  0.1149392E+00
         21   -1    0    0  502  501  0.00000000000E+00  0.00000000000E+00  0.94257857905E+02  0.94257857905E+02  0.00000000000E+00 0.  1.
         21   -1    0    0  501  502 -0.00000000000E+00 -0.00000000000E+00 -0.42611985507E+03  0.42611985507E+03  0.00000000000E+00 0.  1.
         25    1    1    2    0    0  0.80689245108E+01 -0.13380629715E+03 -0.27117003218E+03  0.32730325243E+03  0.12500000000E+03 0.  0.
         25    1    1    2    0    0 -0.80689245108E+01  0.13380629715E+03 -0.60691964983E+02  0.19307446054E+03  0.12500000000E+03 0.  0.
</event>
<event>
 4    0  0.2250660E-002  0.1938658E+03  0.7546771E-02  0.1155020E+00
         21   -1    0    0  502  501  0.00000000000E+00  0.00000000000E+00  0.31551868866E+03  0.31551868866E+03  0.00000000000E+00 0.  1.
         21   -1    0    0  501  502 -0.00000000000E+00 -0.00000000000E+00 -0.11911796386E+03  0.11911796386E+03  0.00000000000E+00 0.  1.
         25    1    1    2    0    0  0.13363349799E+03 -0.47850750968E+02  0.50491959551E+02  0.19576016993E+03  0.12500000000E+03 0.  0.
         25    1    1    2    0    0 -0.13363349799E+03  0.47850750968E+02  0.14590876525E+03  0.23887648258E+03  0.12500000000E+03 0.  0.
</event>
<event>
 4    0  0.2250660E-002  0.2472777E+03  0.7546771E-02  0.1115037E+00
         21   -1    0    0  502  501  0.00000000000E+00  0.00000000000E+00  0.18902204278E+03  0.18902204278E+03  0.00000000000E+00 0. -1.
         21   -1    0    0  501  502 -0.00000000000E+00 -0.00000000000E+00 -0.32348750050E+03  0.32348750050E+03  0.00000000000E+00 0. -1.
         25    1    1    2    0    0  0.84779995132E+01 -0.15095751820E+03 -0.22323417356E+03  0.29718436201E+03  0.12500000000E+03 0.  0.
         25    1    1    2    0    0 -0.84779995132E+01  0.15095751820E+03  0.88768715842E+02  0.21532518127E+03  0.12500000000E+03 0.  0.
</event>
<event>
 4    0  0.2250660E-002  0.2482617E+03  0.7546771E-02  0.1114408E+00
         21   -1    0    0  502  501  0.00000000000E+00  0.00000000000E+00  0.84086266266E+02  0.84086266266E+02  0.00000000000E+00 0.  1.
         21   -1    0    0  501  502 -0.00000000000E+00 -0.00000000000E+00 -0.73298388819E+03  0.73298388819E+03  0.00000000000E+00 0.  1.
         25    1    1    2    0    0 -0.15170485447E+01  0.37266888194E+02  0.23146144410E+02  0.13248345705E+03  0.12500000000E+03 0.  0.
         25    1    1    2    0    0  0.15170485447E+01 -0.37266888194E+02 -0.67204376633E+03  0.68458669740E+03  0.12500000000E+03 0.  0.
</event>
<event>
 4    0  0.2250660E-002  0.4680275E+03  0.7546771E-02  0.1022478E+00
         21   -1    0    0  502  501  0.00000000000E+00  0.00000000000E+00  0.56305319627E+03  0.56305319627E+03  0.00000000000E+00 0. -1.
         21   -1    0    0  501  502 -0.00000000000E+00 -0.00000000000E+00 -0.38903912220E+03  0.38903912220E+03  0.00000000000E+00 0.  1.
         25    1    1    2    0    0 -0.11711503964E+03  0.43553534875E+03  0.91292138699E+02  0.47682934799E+03  0.12500000000E+03 0.  0.
         25    1    1    2    0    0  0.11711503964E+03 -0.43553534875E+03  0.82721935371E+02  0.47526297048E+03  0.12500000000E+03 0.  0.
</event>
<event>
 4    0  0.2250660E-002  0.1911007E+03  0.7546771E-02  0.1157472E+00
         21   -1    0    0  502  501  0.00000000000E+00  0.00000000000E+00  0.75955570328E+02  0.75955570328E+02  0.00000000000E+00 0.  1.
         21   -1    0    0  501  502 -0.00000000000E+00 -0.00000000000E+00 -0.48080058738E+03  0.48080058738E+03  0.00000000000E+00 0.  1.
         25    1    1    2    0    0  0.62950539498E+02 -0.56951303634E+02 -0.37285283246E+03  0.40230642063E+03  0.12500000000E+03 0.  0.
         25    1    1    2    0    0 -0.62950539498E+02  0.56951303634E+02 -0.31992184596E+02  0.15444973708E+03  0.12500000000E+03 0.  0.
</event>
<event>
 4    0  0.2250660E-002  0.1589895E+03  0.7546771E-02  0.1189842E+00
         21   -1    0    0  502  501  0.00000000000E+00  0.00000000000E+00  0.26116673417E+03  0.26116673417E+03  0.00000000000E+00 0.  1.
         21   -1    0    0  501  502 -0.00000000000E+00 -0.00000000000E+00 -0.96787410433E+02  0.96787410433E+02  0.00000000000E+00 0.  1.
         25    1    1    2    0    0 -0.47756908159E+01 -0.16552123163E+02  0.19107544234E+03  0.22897948526E+03  0.12500000000E+03 0.  0.
         25    1    1    2    0    0  0.47756908159E+01  0.16552123163E+02 -0.26696118604E+02  0.12897465934E+03  0.12500000000E+03 0.  0.
</event>
<event>
 4    0  0.2250660E-002  0.1788600E+03  0.7546771E-02  0.1168911E+00
         21   -1    0    0  502  501  0.00000000000E+00  0.00000000000E+00  0.68462715873E+02  0.68462715873E+02  0.00000000000E+00 0.  1.
         21   -1    0    0  501  502 -0.00000000000E+00 -0.00000000000E+00 -0.46727497239E+03  0.46727497239E+03  0.00000000000E+00 0.  1.
         25    1    1    2    0    0 -0.10177926801E+03  0.77040530077E+02 -0.18672902576E+03  0.25843179319E+03  0.12500000000E+03 0.  0.
         25    1    1    2    0    0  0.10177926801E+03 -0.77040530077E+02 -0.21208323075E+03  0.27730589507E+03  0.12500000000E+03 0.  0.
</event>
<event>
 4    0  0.2250660E-002  0.2671159E+03  0.7546771E-02  0.1102942E+00
         21   -1    0    0  502  501  0.00000000000E+00  0.00000000000E+00  0.60769830977E+03  0.60769830977E+03  0.00000000000E+00 0. -1.
         21   -1    0    0  501  502 -0.00000000000E+00 -0.00000000000E+00 -0.11741171289E+03  0.11741171289E+03  0.00000000000E+00 0. -1.
         25    1    1    2    0    0 -0.14506209517E+03 -0.79652193199E+02  0.16656047226E+02  0.20806226771E+03  0.12500000000E+03 0.  0.
         25    1    1    2    0    0  0.14506209517E+03  0.79652193199E+02  0.47363054966E+03  0.51704775495E+03  0.12500000000E+03 0.  0.
</event>
<event>
 4    0  0.2250660E-002  0.2354334E+03  0.7546771E-02  0.1122873E+00
         21   -1    0    0  502  501  0.00000000000E+00  0.00000000000E+00  0.40077623530E+03  0.40077623530E+03  0.00000000000E+00 0.  1.
         21   -1    0    0  501  502 -0.00000000000E+00 -0.00000000000E+00 -0.13830385998E+03  0.13830385998E+03  0.00000000000E+00 0.  1.
         25    1    1    2    0    0 -0.15593405087E+02  0.19347318067E+03  0.78412320743E+02  0.24382066764E+03  0.12500000000E+03 0.  0.
         25    1    1    2    0    0  0.15593405087E+02 -0.19347318067E+03  0.18406005457E+03  0.29525942764E+03  0.12500000000E+03 0.  0.
</event>
<event>
 4    0  0.2250660E-002  0.2727436E+03  0.7546771E-02  0.1099720E+00
         21   -1    0    0  502  501  0.00000000000E+00  0.00000000000E+00  0.11551456521E+03  0.11551456521E+03  0.00000000000E+00 0. -1.
         21   -1    0    0  501  502 -0.00000000000E+00 -0.00000000000E+00 -0.64397988171E+03  0.64397988171E+03  0.00000000000E+00 0. -1.
         25    1    1    2    0    0 -0.59235117581E+02 -0.21209696480E+03 -0.40533302644E+03  0.47792654661E+03  0.12500000000E+03 0.  0.
         25    1    1    2    0    0  0.59235117581E+02  0.21209696480E+03 -0.12313229006E+03  0.28156790031E+03  0.12500000000E+03 0.  0.
</event>
<event>
 4    0  0.2250660E-002  0.2447698E+03  0.7546771E-02  0.1116656E+00
         21   -1    0    0  502  501  0.00000000000E+00  0.00000000000E+00  0.15633077483E+03  0.15633077483E+03  0.00000000000E+00 0.  1.
         21   -1    0    0  501  502 -0.00000000000E+00 -0.00000000000E+00 -0.38324024808E+03  0.38324024808E+03  0.00000000000E+00 0.  1.
         25    1    1    2    0    0  0.44255584668E+02  0.19567805850E+03 -0.18350120188E+03  0.29924262805E+03  0.12500000000E+03 0.  0.
         25    1    1    2    0    0 -0.44255584668E+02 -0.19567805850E+03 -0.43408271375E+02  0.24032839486E+03  0.12500000000E+03 0.  0.
</event>
<event>
 4    0  0.2250660E-002  0.2544252E+03  0.7546771E-02  0.1110540E+00
         21   -1    0    0  502  501  0.00000000000E+00  0.00000000000E+00  0.72336325989E+03  0.72336325989E+03  0.00000000000E+00 0. -1.
         21   -1    0    0  501  502 -0.00000000000E+00 -0.00000000000E+00 -0.89487811314E+02  0.89487811314E+02  0.00000000000E+00 0. -1.
         25    1    1    2    0    0 -0.15168108552E+03 -0.10025993284E+03  0.51930073408E+03  0.56423174162E+03  0.12500000000E+03 0.  0.
         25    1    1    2    0    0  0.15168108552E+03  0.10025993284E+03  0.11457471449E+03  0.24861932958E+03  0.12500000000E+03 0.  0.
</event>
<event>
 4    0  0.2250660E-002  0.1925220E+03  0.7546771E-02  0.1156206E+00
         21   -1    0    0  502  501  0.00000000000E+00  0.00000000000E+00  0.25369236760E+04  0.25369236760E+04  0.00000000000E+00 0. -1.
         21   -1    0    0  501  502 -0.00000000000E+00 -0.00000000000E+00 -0.14610106690E+02  0.14610106690E+02  0.00000000000E+00 0. -1.
         25    1    1    2    0    0 -0.12317553351E+03 -0.46195564251E+02  0.83511810557E+03  0.85460721531E+03  0.12500000000E+03 0.  0.
         25    1    1    2    0    0  0.12317553351E+03  0.46195564251E+02  0.16871954637E+04  0.16969265674E+04  0.12500000000E+03 0.  0.
</event>
<event>
 4    0  0.2250660E-002  0.2220055E+03  0.7546771E-02  0.1132397E+00
         21   -1    0    0  502  501  0.00000000000E+00  0.00000000000E+00  0.39944041373E+03  0.39944041373E+03  0.00000000000E+00 0.  1.
         21   -1    0    0  501  502 -0.00000000000E+00 -0.00000000000E+00 -0.12338876315E+03  0.12338876315E+03  0.00000000000E+00 0.  1.
         25    1    1    2    0    0  0.50786737508E+02  0.78787080776E+02  0.32374018207E+03  0.35947100341E+03  0.12500000000E+03 0.  0.
         25    1    1    2    0    0 -0.50786737508E+02 -0.78787080776E+02 -0.47688531489E+02  0.16335817347E+03  0.12500000000E+03 0.  0.
</event>
<event>
 4    0  0.2250660E-002  0.5940458E+03  0.7546771E-02  0.9917837E-01
         21   -1    0    0  502  501  0.00000000000E+00  0.00000000000E+00  0.19835118824E+04  0.19835118824E+04  0.00000000000E+00 0. -1.
         21   -1    0    0  501  502 -0.00000000000E+00 -0.00000000000E+00 -0.17791191141E+03  0.17791191141E+03  0.00000000000E+00 0. -1.
         25    1    1    2    0    0  0.37746064870E+03  0.36603647596E+03  0.13514046239E+04  0.14554651149E+04  0.12500000000E+03 0.  0.
         25    1    1    2    0    0 -0.37746064870E+03 -0.36603647596E+03  0.45419534704E+03  0.70595867890E+03  0.12500000000E+03 0.  0.
</event>
<event>
 4    0  0.2250660E-002  0.2559270E+03  0.7546771E-02  0.1109615E+00
         21   -1    0    0  502  501  0.00000000000E+00  0.00000000000E+00  0.68380626741E+02  0.68380626741E+02  0.00000000000E+00 0. -1.
         21   -1    0    0  501  502 -0.00000000000E+00 -0.00000000000E+00 -0.95785353342E+03  0.95785353342E+03  0.00000000000E+00 0. -1.
         25    1    1    2    0    0 -0.53984879963E+02  0.85871317930E+02 -0.84363987221E+03  0.85886057337E+03  0.12500000000E+03 0.  0.
         25    1    1    2    0    0  0.53984879963E+02 -0.85871317930E+02 -0.45833034473E+02  0.16737358680E+03  0.12500000000E+03 0.  0.
</event>
<event>
 4    0  0.2250660E-002  0.2285065E+03  0.7546771E-02  0.1127695E+00
         21   -1    0    0  502  501  0.00000000000E+00  0.00000000000E+00  0.71507987871E+03  0.71507987871E+03  0.00000000000E+00 0.  1.
         21   -1    0    0  501  502 -0.00000000000E+00 -0.00000000000E+00 -0.73020133894E+02  0.73020133894E+02  0.00000000000E+00 0.  1.
         25    1    1    2    0    0  0.64422244687E+01  0.15978752928E+03  0.14003013220E+03  0.24659074332E+03  0.12500000000E+03 0.  0.
         25    1    1    2    0    0 -0.64422244687E+01 -0.15978752928E+03  0.50202961261E+03  0.54150926928E+03  0.12500000000E+03 0.  0.
</event>
<event>
 4    0  0.2250660E-002  0.3332496E+03  0.7546771E-02  0.1069708E+00
         21   -1    0    0  502  501  0.00000000000E+00  0.00000000000E+00  0.39050499431E+03  0.39050499431E+03  0.00000000000E+00 0.  1.
         21   -1    0    0  501  502 -0.00000000000E+00 -0.00000000000E+00 -0.28438894629E+03  0.28438894629E+03  0.00000000000E+00 0.  1.
         25    1    1    2    0    0  0.11374078633E+03 -0.76871147500E+02 -0.22716600245E+03  0.29338631949E+03  0.12500000000E+03 0.  0.
         25    1    1    2    0    0 -0.11374078633E+03  0.76871147500E+02  0.33328205048E+03  0.38150762111E+03  0.12500000000E+03 0.  0.
</event>
<event>
 4    0  0.2250660E-002  0.2081409E+03  0.7546771E-02  0.1143047E+00
         21   -1    0    0  502  501  0.00000000000E+00  0.00000000000E+00  0.18994051754E+04  0.18994051754E+04  0.00000000000E+00 0. -1.
         21   -1    0    0  501  502 -0.00000000000E+00 -0.00000000000E+00 -0.22808532015E+02  0.22808532015E+02  0.00000000000E+00 0. -1.
         25    1    1    2    0    0 -0.11609659312E+02 -0.16584070970E+03  0.97398194052E+03  0.99594364581E+03  0.12500000000E+03 0.  0.
         25    1    1    2    0    0  0.11609659312E+02  0.16584070970E+03  0.90261470283E+03  0.92627006157E+03  0.12500000000E+03 0.  0.
</event>
<event>
 4    0  0.2250660E-002  0.2363593E+03  0.7546771E-02  0.1122242E+00
         21   -1    0    0  502  501  0.00000000000E+00  0.00000000000E+00  0.16602472135E+03  0.16602472135E+03  0.00000000000E+00 0. -1.
         21   -1    0    0  501  502 -0.00000000000E+00 -0.00000000000E+00 -0.33649044323E+03  0.33649044323E+03  0.00000000000E+00 0. -1.
         25    1    1    2    0    0 -0.12587626647E+03 -0.44995677509E+02  0.73765230196E+02  0.19732145003E+03  0.12500000000E+03 0.  0.
         25    1    1    2    0    0  0.12587626647E+03  0.44995677509E+02 -0.24423095207E+03  0.30519371455E+03  0.12500000000E+03 0.  0.
</event>
<event>
 4    0  0.2250660E-002  0.2084419E+03  0.7546771E-02  0.1142806E+00
         21   -1    0    0  502  501  0.00000000000E+00  0.00000000000E+00  0.30709698731E+02  0.30709698731E+02  0.00000000000E+00 0.  1.
         21   -1    0    0  501  502 -0.00000000000E+00 -0.00000000000E+00 -0.14147987603E+04  0.14147987603E+04  0.00000000000E+00 0.  1.
         25    1    1    2    0    0  0.70012015693E+02 -0.14807504767E+03 -0.80142706265E+03  0.82748911704E+03  0.12500000000E+03 0.  0.
         25    1    1    2    0    0 -0.70012015693E+02  0.14807504767E+03 -0.58266199897E+03  0.61801934203E+03  0.12500000000E+03 0.  0.
</event>
<event>
 4    0  0.2250660E-002  0.1779133E+03  0.7546771E-02  0.1169838E+00
         21   -1    0    0  502  501  0.00000000000E+00  0.00000000000E+00  0.32152559227E+03  0.32152559227E+03  0.00000000000E+00 0. -1.
         21   -1    0    0  501  502 -0.00000000000E+00 -0.00000000000E+00 -0.98446719891E+02  0.98446719891E+02  0.00000000000E+00 0. -1.
         25    1    1    2    0    0 -0.86993260034E+02 -0.43245235027E+02  0.15725138800E+02  0.15909197853E+03  0.12500000000E+03 0.  0.
         25    1    1    2    0    0  0.86993260034E+02  0.43245235027E+02  0.20735373358E+03  0.26088033363E+03  0.12500000000E+03 0.  0.
</event>
<event>
 4    0  0.2250660E-002  0.2984901E+03  0.7546771E-02  0.1085998E+00
         21   -1    0    0  502  501  0.00000000000E+00  0.00000000000E+00  0.16276973864E+03  0.16276973864E+03  0.00000000000E+00 0. -1.
         21   -1    0    0  501  502 -0.00000000000E+00 -0.00000000000E+00 -0.54737660128E+03  0.54737660128E+03  0.00000000000E+00 0. -1.
         25    1    1    2    0    0 -0.19215884617E+03  0.17526701439E+03 -0.10149207780E+03  0.30589081443E+03  0.12500000000E+03 0.  0.
         25    1    1    2    0    0  0.19215884617E+03 -0.17526701439E+03 -0.28311478484E+03  0.40425552549E+03  0.12500000000E+03 0.  0.
</event>
<event>
 4    0  0.2250660E-002  0.2026732E+03  0.7546771E-02  0.1147503E+00
         21   -1    0    0  502  501  0.00000000000E+00  0.00000000000E+00  0.39478066292E+03  0.39478066292E+03  0.00000000000E+00 0. -1.
         21   -1    0    0  501  502 -0.00000000000E+00 -0.00000000000E+00 -0.10404876006E+03  0.10404876006E+03  0.00000000000E+00 0. -1.
         25    1    1    2    0    0 -0.17334492361E+02  0.14590729838E+03  0.22184326162E+03  0.29398785191E+03  0.12500000000E+03 0.  0.
         25    1    1    2    0    0  0.17334492361E+02 -0.14590729838E+03  0.68888641235E+02  0.20484157106E+03  0.12500000000E+03 0.  0.
</event>
<event>
 4    0  0.2250660E-002  0.2916154E+03  0.7546771E-02  0.1089509E+00
         21   -1    0    0  502  501  0.00000000000E+00  0.00000000000E+00  0.62362696168E+02  0.62362696168E+02  0.00000000000E+00 0. -1.
         21   -1    0    0  501  502 -0.00000000000E+00 -0.00000000000E+00 -0.13636280839E+04  0.13636280839E+04  0.00000000000E+00 0. -1.
         25    1    1    2    0    0 -0.16836053253E+03 -0.20109611933E+03 -0.71198214163E+03  0.76897886065E+03  0.12500000000E+03 0.  0.
         25    1    1    2    0    0  0.16836053253E+03  0.20109611933E+03 -0.58928324609E+03  0.65701191941E+03  0.12500000000E+03 0.  0.
</event>
<event>
 4    0  0.2250660E-002  0.3126313E+03  0.7546771E-02  0.1079091E+00
         21   -1    0    0  502  501  0.00000000000E+00  0.00000000000E+00  0.13998849299E+03  0.13998849299E+03  0.00000000000E+00 0.  1.
         21   -1    0    0  501  502 -0.00000000000E+00 -0.00000000000E+00 -0.69818832963E+03  0.69818832963E+03  0.00000000000E+00 0.  1.
         25    1    1    2    0    0 -0.20920564162E+03 -0.56546267488E+02 -0.27778930582E+02  0.25171640756E+03  0.12500000000E+03 0.  0.
         25    1    1    2    0    0  0.20920564162E+03  0.56546267488E+02 -0.53042090606E+03  0.58646041506E+03  0.12500000000E+03 0.  0.
</event>
<event>
 4    0  0.2250660E-002  0.2154589E+03  0.7546771E-02  0.1137315E+00
         21   -1    0    0  502  501  0.00000000000E+00  0.00000000000E+00  0.62169570377E+02  0.62169570377E+02  0.00000000000E+00 0. -1.
         21   -1    0    0  501  502 -0.00000000000E+00 -0.00000000000E+00 -0.74670865491E+03  0.74670865491E+03  0.00000000000E+00 0. -1.
         25    1    1    2    0    0  0.16285733040E+03  0.65381120977E+02 -0.34338831676E+03  0.40538591136E+03  0.12500000000E+03 0.  0.
         25    1    1    2    0    0 -0.16285733040E+03 -0.65381120977E+02 -0.34115076778E+03  0.40349231393E+03  0.12500000000E+03 0.  0.
</event>
<event>
 4    0  0.2250660E-002  0.1871164E+03  0.7546771E-02  0.1161088E+00
         21   -1    0    0  502  501  0.00000000000E+00  0.00000000000E+00  0.32577812765E+02  0.32577812765E+02  0.00000000000E+00 0. -1.
         21   -1    0    0  501  502 -0.00000000000E+00 -0.00000000000E+00 -0.10747355043E+04  0.10747355043E+04  0.00000000000E+00 0. -1.
         25    1    1    2    0    0  0.68654305622E+02 -0.22388615258E+02 -0.87333423223E+03  0.88518492133E+03  0.12500000000E+03 0.  0.
         25    1    1    2    0    0 -0.68654305622E+02  0.22388615258E+02 -0.16882345927E+03  0.22212839569E+03  0.12500000000E+03 0.  0.
</event>
<event>
 4    0  0.2250660E-002  0.2590170E+03  0.7546771E-02  0.1107735E+00
         21   -1    0    0  502  501  0.00000000000E+00  0.00000000000E+00  0.57046669394E+02  0.57046669394E+02  0.00000000000E+00 0. -1.
         21   -1    0    0  501  502 -0.00000000000E+00 -0.00000000000E+00 -0.11760516469E+04  0.11760516469E+04  0.00000000000E+00 0. -1.
         25    1    1    2    0    0  0.13900388628E+03  0.53567125328E+02 -0.96676580856E+03  0.98613013640E+03  0.12500000000E+03 0.  0.
         25    1    1    2    0    0 -0.13900388628E+03 -0.53567125328E+02 -0.15223916893E+03  0.24696817988E+03  0.12500000000E+03 0.  0.
</event>
<event>
 4    0  0.2250660E-002  0.1940301E+03  0.7546771E-02  0.1154876E+00
         21   -1    0    0  502  501  0.00000000000E+00  0.00000000000E+00  0.48450706559E+03  0.48450706559E+03  0.00000000000E+00 0. -1.
         21   -1    0    0  501  502 -0.00000000000E+00 -0.00000000000E+00 -0.77703041918E+02  0.77703041918E+02  0.00000000000E+00 0. -1.
         25    1    1    2    0    0 -0.66879547205E+02  0.40729151267E+02  0.38603293501E+03  0.41325314821E+03  0.12500000000E+03 0.  0.
         25    1    1    2    0    0  0.66879547205E+02 -0.40729151267E+02  0.20771088661E+02  0.14895695929E+03  0.12500000000E+03 0.  0.
</event>
<event>
 4    0  0.2250660E-002  0.1814470E+03  0.7546771E-02  0.1166410E+00
         21   -1    0    0  502  501  0.00000000000E+00  0.00000000000E+00  0.47919604461E+02  0.47919604461E+02  0.00000000000E+00 0.  1.
         21   -1    0    0  501  502 -0.00000000000E+00 -0.00000000000E+00 -0.68704710655E+03  0.68704710655E+03  0.00000000000E+00 0.  1.
         25    1    1    2    0    0  0.12541062410E+03  0.16988287297E+02 -0.39206807241E+03  0.43053315777E+03  0.12500000000E+03 0.  0.
         25    1    1    2    0    0 -0.12541062410E+03 -0.16988287297E+02 -0.24705942969E+03  0.30443355324E+03  0.12500000000E+03 0.  0.
</event>
<event>
 4    0  0.2250660E-002  0.3847859E+03  0.7546771E-02  0.1049179E+00
         21   -1    0    0  502  501  0.00000000000E+00  0.00000000000E+00  0.13684015340E+03  0.13684015340E+03  0.00000000000E+00 0.  1.
         21   -1    0    0  501  502 -0.00000000000E+00 -0.00000000000E+00 -0.10819936026E+04  0.10819936026E+04  0.00000000000E+00 0.  1.
         25    1    1    2    0    0 -0.10713291703E+03 -0.34338421673E+03 -0.55997204384E+03  0.67718821024E+03  0.12500000000E+03 0.  0.
         25    1    1    2    0    0  0.10713291703E+03  0.34338421673E+03 -0.38518140534E+03  0.54164554575E+03  0.12500000000E+03 0.  0.
</event>
<event>
 4    0  0.2250660E-002  0.2359657E+03  0.7546771E-02  0.1122510E+00
         21   -1    0    0  502  501  0.00000000000E+00  0.00000000000E+00  0.18892855053E+03  0.18892855053E+03  0.00000000000E+00 0.  1.
         21   -1    0    0  501  502 -0.00000000000E+00 -0.00000000000E+00 -0.29471371525E+03  0.29471371525E+03  0.00000000000E+00 0.  1.
         25    1    1    2    0    0 -0.24765831773E+02 -0.12625925563E+01 -0.25641542206E+03  0.28633688067E+03  0.12500000000E+03 0.  0.
         25    1    1    2    0    0  0.24765831773E+02  0.12625925563E+01  0.15063025734E+03  0.19730538510E+03  0.12500000000E+03 0.  0.
</event>
<event>
 4    0  0.2250660E-002  0.4370686E+03  0.7546771E-02  0.1031650E+00
         21   -1    0    0  502  501  0.00000000000E+00  0.00000000000E+00  0.18193907388E+03  0.18193907388E+03  0.00000000000E+00 0. -1.
         21   -1    0    0  501  502 -0.00000000000E+00 -0.00000000000E+00 -0.10499613293E+04  0.10499613293E+04  0.00000000000E+00 0. -1.
         25    1    1    2    0    0 -0.35715810200E+03 -0.67793415368E+02 -0.14094231223E+03  0.40944791167E+03  0.12500000000E+03 0.  0.
         25    1    1    2    0    0  0.35715810200E+03  0.67793415368E+02 -0.72707994317E+03  0.82245249148E+03  0.12500000000E+03 0.  0.
</event>
<event>
 4    0  0.2250660E-002  0.2123883E+03  0.7546771E-02  0.1139689E+00
         21   -1    0    0  502  501  0.00000000000E+00  0.00000000000E+00  0.57979308385E+03  0.57979308385E+03  0.00000000000E+00 0. -1.
         21   -1    0    0  501  502 -0.00000000000E+00 -0.00000000000E+00 -0.77801555808E+02  0.77801555808E+02  0.00000000000E+00 0. -1.
         25    1    1    2    0    0 -0.73144345661E+02 -0.46876083212E+02  0.21708616306E+02  0.15376516674E+03  0.12500000000E+03 0.  0.
         25    1    1    2    0    0  0.73144345661E+02  0.46876083212E+02  0.48028291174E+03  0.50382947292E+03  0.12500000000E+03 0.  0.
</event>
<event>
 4    0  0.2250660E-002  0.2052375E+03  0.7546771E-02  0.1145394E+00
         21   -1    0    0  502  501  0.00000000000E+00  0.00000000000E+00  0.73585125909E+03  0.73585125909E+03  0.00000000000E+00 0.  1.
         21   -1    0    0  501  502 -0.00000000000E+00 -0.00000000000E+00 -0.57243116363E+02  0.57243116363E+02  0.00000000000E+00 0.  1.
         25    1    1    2    0    0  0.14926823965E+03  0.47807378082E+02  0.25440277081E+03  0.32390171745E+03  0.12500000000E+03 0.  0.
         25    1    1    2    0    0 -0.14926823965E+03 -0.47807378082E+02  0.42420537192E+03  0.46919265801E+03  0.12500000000E+03 0.  0.
</event>
<event>
 4    0  0.2250660E-002  0.1778510E+03  0.7546771E-02  0.1169899E+00
         21   -1    0    0  502  501  0.00000000000E+00  0.00000000000E+00  0.68601855492E+03  0.68601855492E+03  0.00000000000E+00 0.  1.
         21   -1    0    0  501  502 -0.00000000000E+00 -0.00000000000E+00 -0.46108058729E+02  0.46108058729E+02  0.00000000000E+00 0.  1.
         25    1    1    2    0    0  0.72107096105E+02 -0.30012238545E+02  0.11510099831E+03  0.18701178461E+03  0.12500000000E+03 0.  0.
         25    1    1    2    0    0 -0.72107096105E+02  0.30012238545E+02  0.52480949788E+03  0.54511482904E+03  0.12500000000E+03 0.  0.
</event>
<event>
 4    0  0.2250660E-002  0.1633415E+03  0.7546771E-02  0.1184975E+00
         21   -1    0    0  502  501  0.00000000000E+00  0.00000000000E+00  0.35643936122E+02  0.35643936122E+02  0.00000000000E+00 0.  1.
         21   -1    0    0  501  502 -0.00000000000E+00 -0.00000000000E+00 -0.74852666427E+03  0.74852666427E+03  0.00000000000E+00 0.  1.
         25    1    1    2    0    0 -0.33942654144E+02  0.29550723365E+02 -0.58454388003E+03  0.59945132972E+03  0.12500000000E+03 0.  0.
         25    1    1    2    0    0  0.33942654144E+02 -0.29550723365E+02 -0.12833884812E+03  0.18471927067E+03  0.12500000000E+03 0.  0.
</event>
<event>
 4    0  0.2250660E-002  0.1993757E+03  0.7546771E-02  0.1150267E+00
         21   -1    0    0  502  501  0.00000000000E+00  0.00000000000E+00  0.17083635661E+03  0.17083635661E+03  0.00000000000E+00 0.  1.
         21   -1    0    0  501  502 -0.00000000000E+00 -0.00000000000E+00 -0.23268279200E+03  0.23268279200E+03  0.00000000000E+00 0.  1.
         25    1    1    2    0    0 -0.38985655357E+02 -0.85235325936E+02  0.94415428740E+02  0.18254921335E+03  0.12500000000E+03 0.  0.
         25    1    1    2    0    0  0.38985655357E+02  0.85235325936E+02 -0.15626186413E+03  0.22096993527E+03  0.12500000000E+03 0.  0.
</event>
<event>
 4    0  0.2250660E-002  0.2212985E+03  0.7546771E-02  0.1132919E+00
         21   -1    0    0  502  501  0.00000000000E+00  0.00000000000E+00  0.13852228116E+03  0.13852228116E+03  0.00000000000E+00 0. -1.
         21   -1    0    0  501  502 -0.00000000000E+00 -0.00000000000E+00 -0.35353900150E+03  0.35353900150E+03  0.00000000000E+00 0. -1.
         25    1    1    2    0    0  0.10382711746E+03  0.74034579698E+02  0.37817060160E+02  0.18252758518E+03  0.12500000000E+03 0.  0.
         25    1    1    2    0    0 -0.10382711746E+03 -0.74034579698E+02 -0.25283378051E+03  0.30953369748E+03  0.12500000000E+03 0.  0.
</event>
<event>
 4    0  0.2250660E-002  0.2558301E+03  0.7546771E-02  0.1109675E+00
         21   -1    0    0  502  501  0.00000000000E+00  0.00000000000E+00  0.24193761398E+02  0.24193761398E+02  0.00000000000E+00 0.  1.
         21   -1    0    0  501  502 -0.00000000000E+00 -0.00000000000E+00 -0.27052025396E+04  0.27052025396E+04  0.00000000000E+00 0.  1.
         25    1    1    2    0    0  0.56741083577E+01 -0.22307685268E+03 -0.13690057613E+04  0.13926942422E+04  0.12500000000E+03 0.  0.
         25    1    1    2    0    0 -0.56741083577E+01  0.22307685268E+03 -0.13120030169E+04  0.13367020588E+04  0.12500000000E+03 0.  0.
</event>
<event>
 4    0  0.2250660E-002  0.1770322E+03  0.7546771E-02  0.1170707E+00
         21   -1    0    0  502  501  0.00000000000E+00  0.00000000000E+00  0.14679354013E+03  0.14679354013E+03  0.00000000000E+00 0.  1.
         21   -1    0    0  501  502 -0.00000000000E+00 -0.00000000000E+00 -0.21349993698E+03  0.21349993698E+03  0.00000000000E+00 0.  1.
         25    1    1    2    0    0 -0.79943712851E+02  0.93480539533E+01  0.64447102626E+02  0.16203953954E+03  0.12500000000E+03 0.  0.
         25    1    1    2    0    0  0.79943712851E+02 -0.93480539533E+01 -0.13115349947E+03  0.19825393757E+03  0.12500000000E+03 0.  0.
</event>
<event>
 4    0  0.2250660E-002  0.2163142E+03  0.7546771E-02  0.1136661E+00
         21   -1    0    0  502  501  0.00000000000E+00  0.00000000000E+00  0.24097004743E+03  0.24097004743E+03  0.00000000000E+00 0.  1.
         21   -1    0    0  501  502 -0.00000000000E+00 -0.00000000000E+00 -0.19418105256E+03  0.19418105256E+03  0.00000000000E+00 0.  1.
         25    1    1    2    0    0 -0.74651704034E+02 -0.12151553729E+03 -0.81269555123E+02  0.20632169859E+03  0.12500000000E+03 0.  0.
         25    1    1    2    0    0  0.74651704034E+02  0.12151553729E+03  0.12805854999E+03  0.22882940140E+03  0.12500000000E+03 0.  0.
</event>
<event>
 4    0  0.2250660E-002  0.2251238E+03  0.7546771E-02  0.1130120E+00
         21   -1    0    0  502  501  0.00000000000E+00  0.00000000000E+00  0.63678423096E+03  0.63678423096E+03  0.00000000000E+00 0. -1.
         21   -1    0    0  501  502 -0.00000000000E+00 -0.00000000000E+00 -0.79588525765E+02  0.79588525765E+02  0.00000000000E+00 0. -1.
         25    1    1    2    0    0 -0.50741047018E+02  0.74745466486E+02  0.53952353964E+03  0.56113473288E+03  0.12500000000E+03 0.  0.
         25    1    1    2    0    0  0.50741047018E+02 -0.74745466486E+02  0.17672165553E+02  0.15523802385E+03  0.12500000000E+03 0.  0.
</event>
<event>
 4    0  0.2250660E-002  0.2212739E+03  0.7546771E-02  0.1132937E+00
         21   -1    0    0  502  501  0.00000000000E+00  0.00000000000E+00  0.11738017522E+03  0.11738017522E+03  0.00000000000E+00 0. -1.
         21   -1    0    0  501  502 -0.00000000000E+00 -0.00000000000E+00 -0.41712454240E+03  0.41712454240E+03  0.00000000000E+00 0. -1.
         25    1    1    2    0    0 -0.30778963496E+02  0.40401265532E+02 -0.36169226612E+03  0.38603873151E+03  0.12500000000E+03 0.  0.
         25    1    1    2    0    0  0.30778963496E+02 -0.40401265532E+02  0.61947898934E+02  0.14846598611E+03  0.12500000000E+03 0.  0.
</event>
<event>
 4    0  0.2250660E-002  0.3070066E+03  0.7546771E-02  0.1081790E+00
         21   -1    0    0  502  501  0.00000000000E+00  0.00000000000E+00  0.10791434954E+03  0.10791434954E+03  0.00000000000E+00 0. -1.
         21   -1    0    0  501  502 -0.00000000000E+00 -0.00000000000E+00 -0.87340620708E+03  0.87340620708E+03  0.00000000000E+00 0. -1.
         25    1    1    2    0    0 -0.16223092378E+03  0.52635709238E+02 -0.27028334825E+02  0.21317814475E+03  0.12500000000E+03 0.  0.
         25    1    1    2    0    0  0.16223092378E+03 -0.52635709238E+02 -0.73846352272E+03  0.76814241186E+03  0.12500000000E+03 0.  0.
</event>
<event>
 4    0  0.2250660E-002  0.2237398E+03  0.7546771E-02  0.1131125E+00
         21   -1    0    0  502  501  0.00000000000E+00  0.00000000000E+00  0.12713935982E+03  0.12713935982E+03  0.00000000000E+00 0. -1.
         21   -1    0    0  501  502 -0.00000000000E+00 -0.00000000000E+00 -0.39373709207E+03  0.39373709207E+03  0.00000000000E+00 0. -1.
         25    1    1    2    0    0  0.28636719997E+02  0.31942833886E+02 -0.34344958828E+03  0.36799867671E+03  0.12500000000E+03 0.  0.
         25    1    1    2    0    0 -0.28636719997E+02 -0.31942833886E+02  0.76851856030E+02  0.15287777518E+03  0.12500000000E+03 0.  0.
</event>
<event>
 4    0  0.2250660E-002  0.2016306E+03  0.7546771E-02  0.1148370E+00
         21   -1    0    0  502  501  0.00000000000E+00  0.00000000000E+00  0.14710070805E+04  0.14710070805E+04  0.00000000000E+00 0.  1.
         21   -1    0    0  501  502 -0.00000000000E+00 -0.00000000000E+00 -0.27637470699E+02  0.27637470699E+02  0.00000000000E+00 0.  1.
         25    1    1    2    0    0 -0.14107069014E+03 -0.66343062096E+02  0.82192700158E+03  0.84586721028E+03  0.12500000000E+03 0.  0.
         25    1    1    2    0    0  0.14107069014E+03  0.66343062096E+02  0.62144260824E+03  0.65277734094E+03  0.12500000000E+03 0.  0.
</event>
<event>
 4    0  0.2250660E-002  0.2317200E+03  0.7546771E-02  0.1125435E+00
         21   -1    0    0  502  501  0.00000000000E+00  0.00000000000E+00  0.12663965399E+03  0.12663965399E+03  0.00000000000E+00 0.  1.
         21   -1    0    0  501  502 -0.00000000000E+00 -0.00000000000E+00 -0.42399165655E+03  0.42399165655E+03  0.00000000000E+00 0.  1.
         25    1    1    2    0    0  0.33931911944E+02  0.95622639168E+02  0.49334095709E+02  0.16838621312E+03  0.12500000000E+03 0.  0.
         25    1    1    2    0    0 -0.33931911944E+02 -0.95622639168E+02 -0.34668609827E+03  0.38224509742E+03  0.12500000000E+03 0.  0.
</event>
<event>
 4    0  0.2250660E-002  0.1788967E+03  0.7546771E-02  0.1168875E+00
         21   -1    0    0  502  501  0.00000000000E+00  0.00000000000E+00  0.36363006994E+03  0.36363006994E+03  0.00000000000E+00 0.  1.
         21   -1    0    0  501  502 -0.00000000000E+00 -0.00000000000E+00 -0.88012633089E+02  0.88012633089E+02  0.00000000000E+00 0.  1.
         25    1    1    2    0    0  0.95982141423E+02 -0.83457558348E+02  0.15571845686E+03  0.23675086763E+03  0.12500000000E+03 0.  0.
         25    1    1    2    0    0 -0.95982141423E+02  0.83457558348E+02  0.11989897999E+03  0.21489183540E+03  0.12500000000E+03 0.  0.
</event>
<event>
 4    0  0.2250660E-002  0.2820800E+03  0.7546771E-02  0.1094558E+00
         21   -1    0    0  502  501  0.00000000000E+00  0.00000000000E+00  0.44746900880E+03  0.44746900880E+03  0.00000000000E+00 0. -1.
         21   -1    0    0  501  502 -0.00000000000E+00 -0.00000000000E+00 -0.17782040730E+03  0.17782040730E+03  0.00000000000E+00 0. -1.
         25    1    1    2    0    0 -0.18564967276E+03 -0.14836868345E+03  0.39061843242E+02  0.27134829062E+03  0.12500000000E+03 0.  0.
         25    1    1    2    0    0  0.18564967276E+03  0.14836868345E+03  0.23058675825E+03  0.35394112548E+03  0.12500000000E+03 0.  0.
</event>
<event>
 4    0  0.2250660E-002  0.1849194E+03  0.7546771E-02  0.1163125E+00
         21   -1    0    0  502  501  0.00000000000E+00  0.00000000000E+00  0.12359294000E+03  0.12359294000E+03  0.00000000000E+00 0. -1.
         21   -1    0    0  501  502 -0.00000000000E+00 -0.00000000000E+00 -0.27667595809E+03  0.27667595809E+03  0.00000000000E+00 0. -1.
         25    1    1    2    0    0  0.91853119272E+02 -0.16992622307E+02  0.30841369994E+02  0.15906581919E+03  0.12500000000E+03 0.  0.
         25    1    1    2    0    0 -0.91853119272E+02  0.16992622307E+02 -0.18392438809E+03  0.24120307889E+03  0.12500000000E+03 0.  0.
</event>
<event>
 4    0  0.2250660E-002  0.2323273E+03  0.7546771E-02  0.1125012E+00
         21   -1    0    0  502  501  0.00000000000E+00  0.00000000000E+00  0.33315785343E+03  0.33315785343E+03  0.00000000000E+00 0.  1.
         21   -1    0    0  501  502 -0.00000000000E+00 -0.00000000000E+00 -0.16201323468E+03  0.16201323468E+03  0.00000000000E+00 0.  1.
         25    1    1    2    0    0 -0.62977151062E+02 -0.47352524142E+02  0.27663042961E+03  0.31362043569E+03  0.12500000000E+03 0.  0.
         25    1    1    2    0    0  0.62977151062E+02  0.47352524142E+02 -0.10548581086E+03  0.18155065241E+03  0.12500000000E+03 0.  0.
</event>
<event>
 4    0  0.2250660E-002  0.2163413E+03  0.7546771E-02  0.1136641E+00
         21   -1    0    0  502  501  0.00000000000E+00  0.00000000000E+00  0.37077174799E+03  0.37077174799E+03  0.00000000000E+00 0.  1.
         21   -1    0    0  501  502 -0.00000000000E+00 -0.00000000000E+00 -0.12623281476E+03  0.12623281476E+03  0.00000000000E+00 0.  1.
         25    1    1    2    0    0  0.17644477111E+03  0.42573022599E+00  0.11451088545E+03  0.24468486137E+03  0.12500000000E+03 0.  0.
         25    1    1    2    0    0 -0.17644477111E+03 -0.42573022599E+00  0.13002804777E+03  0.25231970138E+03  0.12500000000E+03 0.  0.
</event>
<event>
 4    0  0.2250660E-002  0.2064472E+03  0.7546771E-02  0.1144411E+00
         21   -1    0    0  502  501  0.00000000000E+00  0.00000000000E+00  0.73181627011E+02  0.73181627011E+02  0.00000000000E+00 0. -1.
         21   -1    0    0  501  502 -0.00000000000E+00 -0.00000000000E+00 -0.58239299168E+03  0.58239299168E+03  0.00000000000E+00 0. -1.
         25    1    1    2    0    0  0.14435738185E+03  0.67922595497E+02 -0.19223841550E+03  0.27934412660E+03  0.12500000000E+03 0.  0.
         25    1    1    2    0    0 -0.14435738185E+03 -0.67922595497E+02 -0.31697294916E+03  0.37623049208E+03  0.12500000000E+03 0.  0.
</event>
<event>
 4    0  0.2250660E-002  0.2323371E+03  0.7546771E-02  0.1125006E+00
         21   -1    0    0  502  501  0.00000000000E+00  0.00000000000E+00  0.36980124025E+03  0.36980124025E+03  0.00000000000E+00 0.  1.
         21   -1    0    0  501  502 -0.00000000000E+00 -0.00000000000E+00 -0.14597171613E+03  0.14597171613E+03  0.00000000000E+00 0.  1.
         25    1    1    2    0    0  0.37980906882E+01  0.19542047032E+03  0.98233054268E+02  0.25194903982E+03  0.12500000000E+03 0.  0.
         25    1    1    2    0    0 -0.37980906882E+01 -0.19542047032E+03  0.12559646985E+03  0.26382391657E+03  0.12500000000E+03 0.  0.
</event>
<event>
 4    0  0.2250660E-002  0.1926936E+03  0.7546771E-02  0.1156054E+00
         21   -1    0    0  502  501  0.00000000000E+00  0.00000000000E+00  0.87216773773E+02  0.87216773773E+02  0.00000000000E+00 0. -1.
         21   -1    0    0  501  502 -0.00000000000E+00 -0.00000000000E+00 -0.42573030372E+03  0.42573030372E+03  0.00000000000E+00 0. -1.
         25    1    1    2    0    0  0.50581874162E+02 -0.61726825798E+02 -0.55010129572E+01  0.14840481178E+03  0.12500000000E+03 0.  0.
         25    1    1    2    0    0 -0.50581874162E+02  0.61726825798E+02 -0.33301251699E+03  0.36454226571E+03  0.12500000000E+03 0.  0.
</event>
<event>
 4    0  0.2250660E-002  0.2357671E+03  0.7546771E-02  0.1122645E+00
         21   -1    0    0  502  501  0.00000000000E+00  0.00000000000E+00  0.43472123241E+02  0.43472123241E+02  0.00000000000E+00 0.  1.
         21   -1    0    0  501  502 -0.00000000000E+00 -0.00000000000E+00 -0.12786611693E+04  0.12786611693E+04  0.00000000000E+00 0.  1.
         25    1    1    2    0    0 -0.77292392164E+02  0.72046656580E+02 -0.10934009293E+04  0.11055837493E+04  0.12500000000E+03 0.  0.
         25    1    1    2    0    0  0.77292392164E+02 -0.72046656580E+02 -0.14178811679E+03  0.21654954323E+03  0.12500000000E+03 0.  0.
</event>
<event>
 4    0  0.2250660E-002  0.2033847E+03  0.7546771E-02  0.1146914E+00
         21   -1    0    0  502  501  0.00000000000E+00  0.00000000000E+00  0.10363288177E+03  0.10363288177E+03  0.00000000000E+00 0.  1.
         21   -1    0    0  501  502 -0.00000000000E+00 -0.00000000000E+00 -0.39915264358E+03  0.39915264358E+03  0.00000000000E+00 0.  1.
         25    1    1    2    0    0  0.85356163585E+02 -0.12533084499E+03 -0.21254144432E+03  0.28946910184E+03  0.12500000000E+03 0.  0.
         25    1    1    2    0    0 -0.85356163585E+02  0.12533084499E+03 -0.82978317492E+02  0.21331642352E+03  0.12500000000E+03 0.  0.
</event>
<event>
 4    0  0.2250660E-002  0.2786459E+03  0.7546771E-02  0.1096431E+00
         21   -1    0    0  502  501  0.00000000000E+00  0.00000000000E+00  0.16009851499E+03  0.16009851499E+03  0.00000000000E+00 0.  1.
         21   -1    0    0  501  502 -0.00000000000E+00 -0.00000000000E+00 -0.48497339042E+03  0.48497339042E+03  0.00000000000E+00 0.  1.
         25    1    1    2    0    0  0.13989592404E+03 -0.13873251680E+03 -0.33874798949E+03  0.41133050114E+03  0.12500000000E+03 0.  0.
         25    1    1    2    0    0 -0.13989592404E+03  0.13873251680E+03  0.13873114062E+02  0.23374140427E+03  0.12500000000E+03 0.  0.
</event>
<event>
 4    0  0.2250660E-002  0.2020646E+03  0.7546771E-02  0.1148009E+00
         21   -1    0    0  502  501  0.00000000000E+00  0.00000000000E+00  0.32514806407E+03  0.32514806407E+03  0.00000000000E+00 0.  1.
         21   -1    0    0  501  502 -0.00000000000E+00 -0.00000000000E+00 -0.12557382466E+03  0.12557382466E+03  0.00000000000E+00 0.  1.
         25    1    1    2    0    0 -0.12382740276E+03  0.51781905775E+01  0.21044883455E+03  0.27436062272E+03  0.12500000000E+03 0.  0.
         25    1    1    2    0    0  0.12382740276E+03 -0.51781905775E+01 -0.10874595144E+02  0.17636126602E+03  0.12500000000E+03 0.  0.
</event>
<event>
 4    0  0.2250660E-002  0.2004552E+03  0.7546771E-02  0.1149356E+00
         21   -1    0    0  502  501  0.00000000000E+00  0.00000000000E+00  0.58906917113E+03  0.58906917113E+03  0.00000000000E+00 0.  1.
         21   -1    0    0  501  502 -0.00000000000E+00 -0.00000000000E+00 -0.68213175892E+02  0.68213175892E+02  0.00000000000E+00 0.  1.
         25    1    1    2    0    0 -0.86955633918E+02 -0.59669103876E+02  0.70393197468E+02  0.17805023582E+03  0.12500000000E+03 0.  0.
         25    1    1    2    0    0  0.86955633918E+02  0.59669103876E+02  0.45046279777E+03  0.47923211120E+03  0.12500000000E+03 0.  0.
</event>
<event>
 4    0  0.2250660E-002  0.1911148E+03  0.7546771E-02  0.1157460E+00
         21   -1    0    0  502  501  0.00000000000E+00  0.00000000000E+00  0.11371100462E+03  0.11371100462E+03  0.00000000000E+00 0.  1.
         21   -1    0    0  501  502 -0.00000000000E+00 -0.00000000000E+00 -0.32120783276E+03  0.32120783276E+03  0.00000000000E+00 0.  1.
         25    1    1    2    0    0 -0.12747092682E+03  0.91274654899E+01 -0.18064968745E+03  0.25414849475E+03  0.12500000000E+03 0.  0.
         25    1    1    2    0    0  0.12747092682E+03 -0.91274654899E+01 -0.26847140698E+02  0.18077034263E+03  0.12500000000E+03 0.  0.
</event>
<event>
 4    0  0.2250660E-002  0.2425282E+03  0.7546771E-02  0.1118120E+00
         21   -1    0    0  502  501  0.00000000000E+00  0.00000000000E+00  0.19167998471E+04  0.19167998471E+04  0.00000000000E+00 0. -1.
         21   -1    0    0  501  502 -0.00000000000E+00 -0.00000000000E+00 -0.30686515156E+02  0.30686515156E+02  0.00000000000E+00 0. -1.
         25    1    1    2    0    0 -0.11719898714E+03  0.70530043855E+02  0.31480926632E+03  0.36529435232E+03  0.12500000000E+03 0.  0.
         25    1    1    2    0    0  0.11719898714E+03 -0.70530043855E+02  0.15713040656E+04  0.15821920099E+04  0.12500000000E+03 0.  0.
</event>
<event>
 4    0  0.2250660E-002  0.2361227E+03  0.7546771E-02  0.1122403E+00
         21   -1    0    0  502  501  0.00000000000E+00  0.00000000000E+00  0.44593073655E+03  0.44593073655E+03  0.00000000000E+00 0. -1.
         21   -1    0    0  501  502 -0.00000000000E+00 -0.00000000000E+00 -0.12502822013E+03  0.12502822013E+03  0.00000000000E+00 0. -1.
         25    1    1    2    0    0  0.16548528970E+03  0.28494554005E+02  0.28386600397E+02  0.21125368588E+03  0.12500000000E+03 0.  0.
         25    1    1    2    0    0 -0.16548528970E+03 -0.28494554005E+02  0.29251591602E+03  0.35970527080E+03  0.12500000000E+03 0.  0.
</event>
<event>
 4    0  0.2250660E-002  0.2965864E+03  0.7546771E-02  0.1086960E+00
         21   -1    0    0  502  501  0.00000000000E+00  0.00000000000E+00  0.16189823248E+03  0.16189823248E+03  0.00000000000E+00 0.  1.
         21   -1    0    0  501  502 -0.00000000000E+00 -0.00000000000E+00 -0.54332579256E+03  0.54332579256E+03  0.00000000000E+00 0.  1.
         25    1    1    2    0    0 -0.19883753232E+03  0.38438180615E+02  0.19707106583E+02  0.23880374377E+03  0.12500000000E+03 0.  0.
         25    1    1    2    0    0  0.19883753232E+03 -0.38438180615E+02 -0.40113466666E+03  0.46642028128E+03  0.12500000000E+03 0.  0.
</event>
<event>
 4    0  0.2250660E-002  0.1852093E+03  0.7546771E-02  0.1162855E+00
         21   -1    0    0  502  501  0.00000000000E+00  0.00000000000E+00  0.40855617412E+02  0.40855617412E+02  0.00000000000E+00 0. -1.
         21   -1    0    0  501  502 -0.00000000000E+00 -0.00000000000E+00 -0.83960290593E+03  0.83960290593E+03  0.00000000000E+00 0. -1.
         25    1    1    2    0    0 -0.83098832426E+02 -0.95150690885E+02 -0.52330315716E+03  0.55265745649E+03  0.12500000000E+03 0.  0.
         25    1    1    2    0    0  0.83098832426E+02  0.95150690885E+02 -0.27544413136E+03  0.32780106685E+03  0.12500000000E+03 0.  0.
</event>
<event>
 4    0  0.2250660E-002  0.1987889E+03  0.7546771E-02  0.1150765E+00
         21   -1    0    0  502  501  0.00000000000E+00  0.00000000000E+00  0.55858942247E+03  0.55858942247E+03  0.00000000000E+00 0. -1.
         21   -1    0    0  501  502 -0.00000000000E+00 -0.00000000000E+00 -0.70744282587E+02  0.70744282587E+02  0.00000000000E+00 0. -1.
         25    1    1    2    0    0  0.20364036897E+02 -0.12042278838E+02  0.48571222814E+03  0.50209668297E+03  0.12500000000E+03 0.  0.
         25    1    1    2    0    0 -0.20364036897E+02  0.12042278838E+02  0.21329117419E+01  0.12723702209E+03  0.12500000000E+03 0.  0.
</event>
<event>
 4    0  0.2250660E-002  0.1924984E+03  0.7546771E-02  0.1156227E+00
         21   -1    0    0  502  501  0.00000000000E+00  0.00000000000E+00  0.95240277393E+02  0.95240277393E+02  0.00000000000E+00 0. -1.
         21   -1    0    0  501  502 -0.00000000000E+00 -0.00000000000E+00 -0.38907531643E+03  0.38907531643E+03  0.00000000000E+00 0. -1.
         25    1    1    2    0    0 -0.10068364965E+03 -0.88585610623E+02 -0.73070830302E+02  0.19735489342E+03  0.12500000000E+03 0.  0.
         25    1    1    2    0    0  0.10068364965E+03  0.88585610623E+02 -0.22076420874E+03  0.28696070040E+03  0.12500000000E+03 0.  0.
</event>
<event>
 4    0  0.2250660E-002  0.2560042E+03  0.7546771E-02  0.1109568E+00
         21   -1    0    0  502  501  0.00000000000E+00  0.00000000000E+00  0.43987138608E+02  0.43987138608E+02  0.00000000000E+00 0. -1.
         21   -1    0    0  501  502 -0.00000000000E+00 -0.00000000000E+00 -0.14899385345E+04  0.14899385345E+04  0.00000000000E+00 0. -1.
         25    1    1    2    0    0  0.10310198471E+03  0.17574315776E+03 -0.44843852378E+03  0.50817102078E+03  0.12500000000E+03 0.  0.
         25    1    1    2    0    0 -0.10310198471E+03 -0.17574315776E+03 -0.99751287213E+03  0.10257546523E+04  0.12500000000E+03 0.  0.
</event>
<event>
 4    0  0.2250660E-002  0.1892927E+03  0.7546771E-02  0.1159101E+00
         21   -1    0    0  502  501  0.00000000000E+00  0.00000000000E+00  0.26418616514E+03  0.26418616514E+03  0.00000000000E+00 0. -1.
         21   -1    0    0  501  502 -0.00000000000E+00 -0.00000000000E+00 -0.13563058315E+03  0.13563058315E+03  0.00000000000E+00 0. -1.
         25    1    1    2    0    0  0.92806474585E+02  0.82275640164E+02 -0.90753701183E+01  0.17632267305E+03  0.12500000000E+03 0.  0.
         25    1    1    2    0    0 -0.92806474585E+02 -0.82275640164E+02  0.13763095211E+03  0.22349407524E+03  0.12500000000E+03 0.  0.
</event>
<event>
 4    0  0.2250660E-002  0.1991814E+03  0.7546771E-02  0.1150432E+00
         21   -1    0    0  502  501  0.00000000000E+00  0.00000000000E+00  0.28256135966E+02  0.28256135966E+02  0.00000000000E+00 0.  1.
         21   -1    0    0  501  502 -0.00000000000E+00 -0.00000000000E+00 -0.14040565788E+04  0.14040565788E+04  0.00000000000E+00 0.  1.
         25    1    1    2    0    0  0.11852353309E+03  0.37058810755E+02 -0.10218566605E+04  0.10369364580E+04  0.12500000000E+03 0.  0.
         25    1    1    2    0    0 -0.11852353309E+03 -0.37058810755E+02 -0.35394378234E+03  0.39537625676E+03  0.12500000000E+03 0.  0.
</event>
<event>
 4    0  0.2250660E-002  0.4641204E+03  0.7546771E-02  0.1023593E+00
         21   -1    0    0  502  501  0.00000000000E+00  0.00000000000E+00  0.77853332984E+02  0.77853332984E+02  0.00000000000E+00 0.  1.
         21   -1    0    0  501  502 -0.00000000000E+00 -0.00000000000E+00 -0.27668408017E+04  0.27668408017E+04  0.00000000000E+00 0.  1.
         25    1    1    2    0    0  0.17878662273E+03  0.48068766510E+02 -0.25912562903E+04  0.26008670525E+04  0.12500000000E+03 0.  0.
         25    1    1    2    0    0 -0.17878662273E+03 -0.48068766510E+02 -0.97731178460E+02  0.24382708222E+03  0.12500000000E+03 0.  0.
</event>
<event>
 4    0  0.2250660E-002  0.3261020E+03  0.7546771E-02  0.1072875E+00
         21   -1    0    0  502  501  0.00000000000E+00  0.00000000000E+00  0.18492542348E+03  0.18492542348E+03  0.00000000000E+00 0.  1.
         21   -1    0    0  501  502 -0.00000000000E+00 -0.00000000000E+00 -0.57505611434E+03  0.57505611434E+03  0.00000000000E+00 0.  1.
         25    1    1    2    0    0 -0.48629812114E+01  0.15923047782E+03 -0.49292215421E+03  0.53289327615E+03  0.12500000000E+03 0.  0.
         25    1    1    2    0    0  0.48629812114E+01 -0.15923047782E+03  0.10279146335E+03  0.22708826167E+03  0.12500000000E+03 0.  0.
</event>
<event>
 4    0  0.2250660E-002  0.2198120E+03  0.7546771E-02  0.1134023E+00
         21   -1    0    0  502  501  0.00000000000E+00  0.00000000000E+00  0.57005778669E+02  0.57005778669E+02  0.00000000000E+00 0.  1.
         21   -1    0    0  501  502 -0.00000000000E+00 -0.00000000000E+00 -0.84758639149E+03  0.84758639149E+03  0.00000000000E+00 0.  1.
         25    1    1    2    0    0  0.13337883718E+03 -0.11334862217E+03 -0.48855649919E+03  0.53380734096E+03  0.12500000000E+03 0.  0.
         25    1    1    2    0    0 -0.13337883718E+03  0.11334862217E+03 -0.30202411363E+03  0.37078482920E+03  0.12500000000E+03 0.  0.
</event>
<event>
 4    0  0.2250660E-002  0.2473801E+03  0.7546771E-02  0.1114972E+00
         21   -1    0    0  502  501  0.00000000000E+00  0.00000000000E+00  0.11312631228E+03  0.11312631228E+03  0.00000000000E+00 0. -1.
         21   -1    0    0  501  502 -0.00000000000E+00 -0.00000000000E+00 -0.54096103212E+03  0.54096103212E+03  0.00000000000E+00 0. -1.
         25    1    1    2    0    0 -0.51054853386E+02  0.57424022595E+02  0.49388217142E+02  0.15481702884E+03  0.12500000000E+03 0.  0.
         25    1    1    2    0    0  0.51054853386E+02 -0.57424022595E+02 -0.47722293698E+03  0.49927031556E+03  0.12500000000E+03 0.  0.
</event>
<event>
 4    0  0.2250660E-002  0.2572581E+03  0.7546771E-02  0.1108802E+00
         21   -1    0    0  502  501  0.00000000000E+00  0.00000000000E+00  0.40352120004E+03  0.40352120004E+03  0.00000000000E+00 0. -1.
         21   -1    0    0  501  502 -0.00000000000E+00 -0.00000000000E+00 -0.16401047756E+03  0.16401047756E+03  0.00000000000E+00 0. -1.
         25    1    1    2    0    0  0.27674341087E+02 -0.15262622137E+03  0.29930390431E+03  0.35953923255E+03  0.12500000000E+03 0.  0.
         25    1    1    2    0    0 -0.27674341087E+02  0.15262622137E+03 -0.59793181835E+02  0.20799244505E+03  0.12500000000E+03 0.  0.
</event>
<event>
 4    0  0.2250660E-002  0.1911382E+03  0.7546771E-02  0.1157439E+00
         21   -1    0    0  502  501  0.00000000000E+00  0.00000000000E+00  0.61689465759E+02  0.61689465759E+02  0.00000000000E+00 0. -1.
         21   -1    0    0  501  502 -0.00000000000E+00 -0.00000000000E+00 -0.59222102593E+03  0.59222102593E+03  0.00000000000E+00 0. -1.
         25    1    1    2    0    0  0.45773430040E+02 -0.10017355610E+03 -0.42553854153E+03  0.45698796326E+03  0.12500000000E+03 0.  0.
         25    1    1    2    0    0 -0.45773430040E+02  0.10017355610E+03 -0.10499301864E+03  0.19692252843E+03  0.12500000000E+03 0.  0.
</event>
<event>
 4    0  0.2250660E-002  0.4333995E+03  0.7546771E-02  0.1032791E+00
         21   -1    0    0  502  501  0.00000000000E+00  0.00000000000E+00  0.32702767314E+03  0.32702767314E+03  0.00000000000E+00 0. -1.
         21   -1    0    0  501  502 -0.00000000000E+00 -0.00000000000E+00 -0.57437080397E+03  0.57437080397E+03  0.00000000000E+00 0. -1.
         25    1    1    2    0    0  0.29550703170E+03 -0.59933556391E+02  0.17282991606E+03  0.36933943312E+03  0.12500000000E+03 0.  0.
         25    1    1    2    0    0 -0.29550703170E+03  0.59933556391E+02 -0.42017304689E+03  0.53205904400E+03  0.12500000000E+03 0.  0.
</event>
<event>
 4    0  0.2250660E-002  0.3107293E+03  0.7546771E-02  0.1079997E+00
         21   -1    0    0  502  501  0.00000000000E+00  0.00000000000E+00  0.32702341169E+03  0.32702341169E+03  0.00000000000E+00 0. -1.
         21   -1    0    0  501  502 -0.00000000000E+00 -0.00000000000E+00 -0.29524709264E+03  0.29524709264E+03  0.00000000000E+00 0. -1.
         25    1    1    2    0    0  0.90397454624E+02 -0.19894051085E+03 -0.16649996878E+03  0.30182158019E+03  0.12500000000E+03 0.  0.
         25    1    1    2    0    0 -0.90397454624E+02  0.19894051085E+03  0.19827628784E+03  0.32044892414E+03  0.12500000000E+03 0.  0.
</event>
<event>
 4    0  0.2250660E-002  0.1436480E+03  0.7546771E-02  0.1208503E+00
         21   -1    0    0  502  501  0.00000000000E+00  0.00000000000E+00  0.11845503797E+04  0.11845503797E+04  0.00000000000E+00 0. -1.
         21   -1    0    0  501  502 -0.00000000000E+00 -0.00000000000E+00 -0.17419903137E+02  0.17419903137E+02  0.00000000000E+00 0. -1.
         25    1    1    2    0    0  0.20486795125E+02  0.39993599431E+02  0.81235683859E+03  0.82314508440E+03  0.12500000000E+03 0.  0.
         25    1    1    2    0    0 -0.20486795125E+02 -0.39993599431E+02  0.35477363799E+03  0.37882519845E+03  0.12500000000E+03 0.  0.
</event>
<event>
 4    0  0.2250660E-002  0.2774746E+03  0.7546771E-02  0.1097076E+00
         21   -1    0    0  502  501  0.00000000000E+00  0.00000000000E+00  0.72237198004E+02  0.72237198004E+02  0.00000000000E+00 0.  1.
         21   -1    0    0  501  502 -0.00000000000E+00 -0.00000000000E+00 -0.10658245422E+04  0.10658245422E+04  0.00000000000E+00 0.  1.
         25    1    1    2    0    0  0.16937596174E+03  0.12707811318E+03 -0.23312989814E+03  0.33883862335E+03  0.12500000000E+03 0.  0.
         25    1    1    2    0    0 -0.16937596174E+03 -0.12707811318E+03 -0.76045744610E+03  0.79922311690E+03  0.12500000000E+03 0.  0.
</event>
<event>
 4    0  0.2250660E-002  0.2790526E+03  0.7546771E-02  0.1096207E+00
         21   -1    0    0  502  501  0.00000000000E+00  0.00000000000E+00  0.14586712386E+04  0.14586712386E+04  0.00000000000E+00 0.  1.
         21   -1    0    0  501  502 -0.00000000000E+00 -0.00000000000E+00 -0.53384463121E+02  0.53384463121E+02  0.00000000000E+00 0.  1.
         25    1    1    2    0    0  0.10462332633E+03 -0.11089352487E+02  0.89747976106E+02  0.18641006777E+03  0.12500000000E+03 0.  0.
         25    1    1    2    0    0 -0.10462332633E+03  0.11089352487E+02  0.13155387994E+04  0.13256456340E+04  0.12500000000E+03 0.  0.
</event>
<event>
 4    0  0.2250660E-002  0.1675542E+03  0.7546771E-02  0.1180423E+00
         21   -1    0    0  502  501  0.00000000000E+00  0.00000000000E+00  0.78721541303E+03  0.78721541303E+03  0.00000000000E+00 0. -1.
         21   -1    0    0  501  502 -0.00000000000E+00 -0.00000000000E+00 -0.35662942562E+02  0.35662942562E+02  0.00000000000E+00 0. -1.
         25    1    1    2    0    0  0.28879742529E+02 -0.76913949139E+02  0.56116069497E+03  0.58075478533E+03  0.12500000000E+03 0.  0.
         25    1    1    2    0    0 -0.28879742529E+02  0.76913949139E+02  0.19039177550E+03  0.24212357026E+03  0.12500000000E+03 0.  0.
</event>
<event>
 4    0  0.2250660E-002  0.3068662E+03  0.7546771E-02  0.1081858E+00
         21   -1    0    0  502  501  0.00000000000E+00  0.00000000000E+00  0.15276799324E+03  0.15276799324E+03  0.00000000000E+00 0. -1.
         21   -1    0    0  501  502 -0.00000000000E+00 -0.00000000000E+00 -0.61640440392E+03  0.61640440392E+03  0.00000000000E+00 0. -1.
         25    1    1    2    0    0  0.11329551723E+03 -0.10317426634E+03 -0.52589917854E+03  0.56185029095E+03  0.12500000000E+03 0.  0.
         25    1    1    2    0    0 -0.11329551723E+03  0.10317426634E+03  0.62262767858E+02  0.20732210620E+03  0.12500000000E+03 0.  0.
</event>
<event>
 4    0  0.2250660E-002  0.3908944E+03  0.7546771E-02  0.1046979E+00
         21   -1    0    0  502  501  0.00000000000E+00  0.00000000000E+00  0.25903320087E+03  0.25903320087E+03  0.00000000000E+00 0.  1.
         21   -1    0    0  501  502 -0.00000000000E+00 -0.00000000000E+00 -0.58987961397E+03  0.58987961397E+03  0.00000000000E+00 0.  1.
         25    1    1    2    0    0 -0.31221730006E+02 -0.30181110532E+03  0.65200352706E+02  0.33457559043E+03  0.12500000000E+03 0.  0.
         25    1    1    2    0    0  0.31221730006E+02  0.30181110532E+03 -0.39604676580E+03  0.51433722442E+03  0.12500000000E+03 0.  0.
</event>
<event>
 4    0  0.2250660E-002  0.1413553E+03  0.7546771E-02  0.1211517E+00
         21   -1    0    0  502  501  0.00000000000E+00  0.00000000000E+00  0.20429232858E+03  0.20429232858E+03  0.00000000000E+00 0. -1.
         21   -1    0    0  501  502 -0.00000000000E+00 -0.00000000000E+00 -0.97807506511E+02  0.97807506511E+02  0.00000000000E+00 0. -1.
         25    1    1    2    0    0  0.15328080256E+02 -0.64178464621E+02  0.54931277030E+02  0.15164521279E+03  0.12500000000E+03 0.  0.
         25    1    1    2    0    0 -0.15328080256E+02  0.64178464621E+02  0.51553545036E+02  0.15045462230E+03  0.12500000000E+03 0.  0.
</event>
<event>
 4    0  0.2250660E-002  0.1768010E+03  0.7546771E-02  0.1170935E+00
         21   -1    0    0  502  501  0.00000000000E+00  0.00000000000E+00  0.49387339755E+03  0.49387339755E+03  0.00000000000E+00 0.  1.
         21   -1    0    0  501  502 -0.00000000000E+00 -0.00000000000E+00 -0.63292754454E+02  0.63292754454E+02  0.00000000000E+00 0.  1.
         25    1    1    2    0    0  0.76986382491E+02 -0.12555979373E+02  0.61315381708E+02  0.15959051269E+03  0.12500000000E+03 0.  0.
         25    1    1    2    0    0 -0.76986382491E+02  0.12555979373E+02  0.36926526139E+03  0.39757563931E+03  0.12500000000E+03 0.  0.
</event>
<event>
 4    0  0.2250660E-002  0.1960478E+03  0.7546771E-02  0.1153117E+00
         21   -1    0    0  502  501  0.00000000000E+00  0.00000000000E+00  0.55284032084E+02  0.55284032084E+02  0.00000000000E+00 0. -1.
         21   -1    0    0  501  502 -0.00000000000E+00 -0.00000000000E+00 -0.69522341256E+03  0.69522341256E+03  0.00000000000E+00 0. -1.
         25    1    1    2    0    0  0.58353287121E+02  0.56371430381E+00 -0.58660169625E+03  0.60260432618E+03  0.12500000000E+03 0.  0.
         25    1    1    2    0    0 -0.58353287121E+02 -0.56371430381E+00 -0.53337684226E+02  0.14790311846E+03  0.12500000000E+03 0.  0.
</event>
<event>
 4    0  0.2250660E-002  0.2417758E+03  0.7546771E-02  0.1118615E+00
         21   -1    0    0  502  501  0.00000000000E+00  0.00000000000E+00  0.32919407196E+03  0.32919407196E+03  0.00000000000E+00 0.  1.
         21   -1    0    0  501  502 -0.00000000000E+00 -0.00000000000E+00 -0.17757168893E+03  0.17757168893E+03  0.00000000000E+00 0.  1.
         25    1    1    2    0    0  0.15403836834E+03 -0.13264340446E+03  0.35107792275E+02  0.24120457862E+03  0.12500000000E+03 0.  0.
         25    1    1    2    0    0 -0.15403836834E+03  0.13264340446E+03  0.11651459075E+03  0.26556118227E+03  0.12500000000E+03 0.  0.
</event>
<event>
 4    0  0.2250660E-002  0.2394672E+03  0.7546771E-02  0.1120148E+00
         21   -1    0    0  502  501  0.00000000000E+00  0.00000000000E+00  0.15885045508E+03  0.15885045508E+03  0.00000000000E+00 0.  1.
         21   -1    0    0  501  502 -0.00000000000E+00 -0.00000000000E+00 -0.36099687258E+03  0.36099687258E+03  0.00000000000E+00 0.  1.
         25    1    1    2    0    0 -0.84784820798E+02 -0.18187283207E+03 -0.59694095232E+02  0.24383309432E+03  0.12500000000E+03 0.  0.
         25    1    1    2    0    0  0.84784820798E+02  0.18187283207E+03 -0.14245232227E+03  0.27601423333E+03  0.12500000000E+03 0.  0.
</event>
<event>
 4    0  0.2250660E-002  0.1979244E+03  0.7546771E-02  0.1151502E+00
         21   -1    0    0  502  501  0.00000000000E+00  0.00000000000E+00  0.11249567755E+03  0.11249567755E+03  0.00000000000E+00 0.  1.
         21   -1    0    0  501  502 -0.00000000000E+00 -0.00000000000E+00 -0.34822743249E+03  0.34822743249E+03  0.00000000000E+00 0.  1.
         25    1    1    2    0    0 -0.11584834580E+03  0.53172499702E+02 -0.18417066127E+02  0.17947797156E+03  0.12500000000E+03 0.  0.
         25    1    1    2    0    0  0.11584834580E+03 -0.53172499702E+02 -0.21731468881E+03  0.28124513848E+03  0.12500000000E+03 0.  0.
</event>
<event>
 4    0  0.2250660E-002  0.1917654E+03  0.7546771E-02  0.1156879E+00
         21   -1    0    0  502  501  0.00000000000E+00  0.00000000000E+00  0.30834979342E+03  0.30834979342E+03  0.00000000000E+00 0.  1.
         21   -1    0    0  501  502 -0.00000000000E+00 -0.00000000000E+00 -0.11926057241E+03  0.11926057241E+03  0.00000000000E+00 0.  1.
         25    1    1    2    0    0  0.13341846500E+03  0.57724350205E+02  0.99057734035E+02  0.21580088527E+03  0.12500000000E+03 0.  0.
         25    1    1    2    0    0 -0.13341846500E+03 -0.57724350205E+02  0.90031486973E+02  0.21180948056E+03  0.12500000000E+03 0.  0.
</event>
<event>
 4    0  0.2250660E-002  0.2830051E+03  0.7546771E-02  0.1094059E+00
         21   -1    0    0  502  501  0.00000000000E+00  0.00000000000E+00  0.23538275192E+04  0.23538275192E+04  0.00000000000E+00 0.  1.
         21   -1    0    0  501  502 -0.00000000000E+00 -0.00000000000E+00 -0.34026230930E+02  0.34026230930E+02  0.00000000000E+00 0.  1.
         25    1    1    2    0    0 -0.60892419794E+02 -0.10537828313E+03  0.20999754159E+04  0.21072100552E+04  0.12500000000E+03 0.  0.
         25    1    1    2    0    0  0.60892419794E+02  0.10537828313E+03  0.21982587238E+03  0.28064369494E+03  0.12500000000E+03 0.  0.
</event>
<event>
 4    0  0.2250660E-002  0.2615794E+03  0.7546771E-02  0.1106198E+00
         21   -1    0    0  502  501  0.00000000000E+00  0.00000000000E+00  0.65272008028E+03  0.65272008028E+03  0.00000000000E+00 0. -1.
         21   -1    0    0  501  502 -0.00000000000E+00 -0.00000000000E+00 -0.10482869791E+03  0.10482869791E+03  0.00000000000E+00 0. -1.
         25    1    1    2    0    0 -0.43314338240E+02  0.78123708611E+02  0.58050167845E+03  0.60048867136E+03  0.12500000000E+03 0.  0.
         25    1    1    2    0    0  0.43314338240E+02 -0.78123708611E+02 -0.32610296083E+02  0.15706010682E+03  0.12500000000E+03 0.  0.
</event>
<event>
 4    0  0.2250660E-002  0.2006030E+03  0.7546771E-02  0.1149231E+00
         21   -1    0    0  502  501  0.00000000000E+00  0.00000000000E+00  0.80807840482E+03  0.80807840482E+03  0.00000000000E+00 0. -1.
         21   -1    0    0  501  502 -0.00000000000E+00 -0.00000000000E+00 -0.49799075902E+02  0.49799075902E+02  0.00000000000E+00 0. -1.
         25    1    1    2    0    0 -0.68298725296E+01  0.97241436449E+02  0.64201375639E+03  0.66129358648E+03  0.12500000000E+03 0.  0.
         25    1    1    2    0    0  0.68298725296E+01 -0.97241436449E+02  0.11626557253E+03  0.19658389424E+03  0.12500000000E+03 0.  0.
</event>
<event>
 4    0  0.2250660E-002  0.2072885E+03  0.7546771E-02  0.1143731E+00
         21   -1    0    0  502  501  0.00000000000E+00  0.00000000000E+00  0.55135250093E+03  0.55135250093E+03  0.00000000000E+00 0. -1.
         21   -1    0    0  501  502 -0.00000000000E+00 -0.00000000000E+00 -0.77932956105E+02  0.77932956105E+02  0.00000000000E+00 0. -1.
         25    1    1    2    0    0 -0.12727052864E+03  0.86902820808E+02  0.32770317123E+03  0.38309823304E+03  0.12500000000E+03 0.  0.
         25    1    1    2    0    0  0.12727052864E+03 -0.86902820808E+02  0.14571637359E+03  0.24618722399E+03  0.12500000000E+03 0.  0.
</event>
<event>
 4    0  0.2250660E-002  0.2322508E+03  0.7546771E-02  0.1125065E+00
         21   -1    0    0  502  501  0.00000000000E+00  0.00000000000E+00  0.51523147237E+03  0.51523147237E+03  0.00000000000E+00 0.  1.
         21   -1    0    0  501  502 -0.00000000000E+00 -0.00000000000E+00 -0.10469169468E+03  0.10469169468E+03  0.00000000000E+00 0.  1.
         25    1    1    2    0    0 -0.20840110477E+02  0.15019795608E+03  0.40072065093E+02  0.20056048119E+03  0.12500000000E+03 0.  0.
         25    1    1    2    0    0  0.20840110477E+02 -0.15019795608E+03  0.37046771260E+03  0.41936268586E+03  0.12500000000E+03 0.  0.
</event>
<event>
 4    0  0.2250660E-002  0.1750370E+03  0.7546771E-02  0.1172695E+00
         21   -1    0    0  502  501  0.00000000000E+00  0.00000000000E+00  0.66114095336E+02  0.66114095336E+02  0.00000000000E+00 0. -1.
         21   -1    0    0  501  502 -0.00000000000E+00 -0.00000000000E+00 -0.46341004375E+03  0.46341004375E+03  0.00000000000E+00 0. -1.
         25    1    1    2    0    0  0.62859065935E+02  0.68915073895E+02 -0.31882537259E+03  0.35492980684E+03  0.12500000000E+03 0.  0.
         25    1    1    2    0    0 -0.62859065935E+02 -0.68915073895E+02 -0.78470575826E+02  0.17459433224E+03  0.12500000000E+03 0.  0.
</event>
<event>
 4    0  0.2250660E-002  0.3010506E+03  0.7546771E-02  0.1084717E+00
         21   -1    0    0  502  501  0.00000000000E+00  0.00000000000E+00  0.75561882584E+03  0.75561882584E+03  0.00000000000E+00 0. -1.
         21   -1    0    0  501  502 -0.00000000000E+00 -0.00000000000E+00 -0.11994339634E+03  0.11994339634E+03  0.00000000000E+00 0. -1.
         25    1    1    2    0    0  0.10290519070E+03 -0.92385526702E+02  0.66159597309E+03  0.68735638167E+03  0.12500000000E+03 0.  0.
         25    1    1    2    0    0 -0.10290519070E+03  0.92385526702E+02 -0.25920543594E+02  0.18820584050E+03  0.12500000000E+03 0.  0.
</event>
<event>
 4    0  0.2250660E-002  0.2063988E+03  0.7546771E-02  0.1144450E+00
         21   -1    0    0  502  501  0.00000000000E+00  0.00000000000E+00  0.19816927965E+03  0.19816927965E+03  0.00000000000E+00 0. -1.
         21   -1    0    0  501  502 -0.00000000000E+00 -0.00000000000E+00 -0.21497010481E+03  0.21497010481E+03  0.00000000000E+00 0. -1.
         25    1    1    2    0    0 -0.11812934368E+03 -0.47812078747E+02  0.95294892680E+02  0.20235279411E+03  0.12500000000E+03 0.  0.
         25    1    1    2    0    0  0.11812934368E+03  0.47812078747E+02 -0.11209571783E+03  0.21078659035E+03  0.12500000000E+03 0.  0.
</event>
<event>
 4    0  0.2250660E-002  0.1910762E+03  0.7546771E-02  0.1157494E+00
         21   -1    0    0  502  501  0.00000000000E+00  0.00000000000E+00  0.34418721506E+02  0.34418721506E+02  0.00000000000E+00 0.  1.
         21   -1    0    0  501  502 -0.00000000000E+00 -0.00000000000E+00 -0.10607635710E+04  0.10607635710E+04  0.00000000000E+00 0.  1.
         25    1    1    2    0    0 -0.68570256867E+02 -0.12711565389E+03 -0.52746032389E+03  0.56098098263E+03  0.12500000000E+03 0.  0.
         25    1    1    2    0    0  0.68570256867E+02  0.12711565389E+03 -0.49888452562E+03  0.53420130989E+03  0.12500000000E+03 0.  0.
</event>
<event>
 4    0  0.2250660E-002  0.2614232E+03  0.7546771E-02  0.1106291E+00
         21   -1    0    0  502  501  0.00000000000E+00  0.00000000000E+00  0.20259008141E+03  0.20259008141E+03  0.00000000000E+00 0.  1.
         21   -1    0    0  501  502 -0.00000000000E+00 -0.00000000000E+00 -0.33734180308E+03  0.33734180308E+03  0.00000000000E+00 0.  1.
         25    1    1    2    0    0 -0.19385802574E+03 -0.33355367385E+02  0.54915109471E+02  0.23944557612E+03  0.12500000000E+03 0.  0.
         25    1    1    2    0    0  0.19385802574E+03  0.33355367385E+02 -0.18966683114E+03  0.30048630836E+03  0.12500000000E+03 0.  0.
</event>
<event>
 4    0  0.2250660E-002  0.1560580E+03  0.7546771E-02  0.1193220E+00
         21   -1    0    0  502  501  0.00000000000E+00  0.00000000000E+00  0.90088106827E+02  0.90088106827E+02  0.00000000000E+00 0. -1.
         21   -1    0    0  501  502 -0.00000000000E+00 -0.00000000000E+00 -0.27033648022E+03  0.27033648022E+03  0.00000000000E+00 0. -1.
         25    1    1    2    0    0 -0.36926109228E+02  0.24634731653E+02 -0.18505992966E+03  0.22768966843E+03  0.12500000000E+03 0.  0.
         25    1    1    2    0    0  0.36926109228E+02 -0.24634731653E+02  0.48115562620E+01  0.13273491862E+03  0.12500000000E+03 0.  0.
</event>
<event>
 4    0  0.2250660E-002  0.3690078E+03  0.7546771E-02  0.1055073E+00
         21   -1    0    0  502  501  0.00000000000E+00  0.00000000000E+00  0.24642153552E+03  0.24642153552E+03  0.00000000000E+00 0. -1.
         21   -1    0    0  501  502 -0.00000000000E+00 -0.00000000000E+00 -0.55257653285E+03  0.55257653285E+03  0.00000000000E+00 0. -1.
         25    1    1    2    0    0 -0.24052142397E+03  0.58545321403E+02 -0.41663438904E+03  0.50048708693E+03  0.12500000000E+03 0.  0.
         25    1    1    2    0    0  0.24052142397E+03 -0.58545321403E+02  0.11047939172E+03  0.29851098144E+03  0.12500000000E+03 0.  0.
</event>
<event>
 4    0  0.2250660E-002  0.2859541E+03  0.7546771E-02  0.1092481E+00
         21   -1    0    0  502  501  0.00000000000E+00  0.00000000000E+00  0.13328895406E+03  0.13328895406E+03  0.00000000000E+00 0.  1.
         21   -1    0    0  501  502 -0.00000000000E+00 -0.00000000000E+00 -0.61347720946E+03  0.61347720946E+03  0.00000000000E+00 0.  1.
         25    1    1    2    0    0 -0.12441153887E+03 -0.10926928309E+03 -0.49705307464E+03  0.53861374494E+03  0.12500000000E+03 0.  0.
         25    1    1    2    0    0  0.12441153887E+03  0.10926928309E+03  0.16864819240E+02  0.20815241857E+03  0.12500000000E+03 0.  0.
</event>
<event>
 4    0  0.2250660E-002  0.1925760E+03  0.7546771E-02  0.1156158E+00
         21   -1    0    0  502  501  0.00000000000E+00  0.00000000000E+00  0.76459627100E+02  0.76459627100E+02  0.00000000000E+00 0.  1.
         21   -1    0    0  501  502 -0.00000000000E+00 -0.00000000000E+00 -0.48503390396E+03  0.48503390396E+03  0.00000000000E+00 0. -1.
         25    1    1    2    0    0 -0.94816375045E+02 -0.85098504086E+02 -0.98871317900E+02  0.20404028494E+03  0.12500000000E+03 0.  0.
         25    1    1    2    0    0  0.94816375045E+02  0.85098504086E+02 -0.30970295896E+03  0.35745324612E+03  0.12500000000E+03 0.  0.
</event>
<event>
 4    0  0.2250660E-002  0.2617957E+03  0.7546771E-02  0.1106069E+00
         21   -1    0    0  502  501  0.00000000000E+00  0.00000000000E+00  0.83118765752E+03  0.83118765752E+03  0.00000000000E+00 0. -1.
         21   -1    0    0  501  502 -0.00000000000E+00 -0.00000000000E+00 -0.82456714751E+02  0.82456714751E+02  0.00000000000E+00 0. -1.
         25    1    1    2    0    0  0.16286500912E+03  0.66130616912E+02  0.63326513568E+03  0.66899028525E+03  0.12500000000E+03 0.  0.
         25    1    1    2    0    0 -0.16286500912E+03 -0.66130616912E+02  0.11546580709E+03  0.24465408702E+03  0.12500000000E+03 0.  0.
</event>
<event>
 4    0  0.2250660E-002  0.5232616E+03  0.7546771E-02  0.1007880E+00
         21   -1    0    0  502  501  0.00000000000E+00  0.00000000000E+00  0.43890714192E+03  0.43890714192E+03  0.00000000000E+00 0.  1.
         21   -1    0    0  501  502 -0.00000000000E+00 -0.00000000000E+00 -0.62382834522E+03  0.62382834522E+03  0.00000000000E+00 0.  1.
         25    1    1    2    0    0  0.25286112068E+03  0.38969752350E+03 -0.30150098474E+03  0.56774179868E+03  0.12500000000E+03 0.  0.
         25    1    1    2    0    0 -0.25286112068E+03 -0.38969752350E+03  0.11657978143E+03  0.49499368846E+03  0.12500000000E+03 0.  0.
</event>
<event>
 4    0  0.2250660E-002  0.1933601E+03  0.7546771E-02  0.1155465E+00
         21   -1    0    0  502  501  0.00000000000E+00  0.00000000000E+00  0.23269668063E+03  0.23269668063E+03  0.00000000000E+00 0. -1.
         21   -1    0    0  501  502 -0.00000000000E+00 -0.00000000000E+00 -0.16067316896E+03  0.16067316896E+03  0.00000000000E+00 0. -1.
         25    1    1    2    0    0 -0.45469029576E+02  0.12775176144E+03  0.95106926333E+02  0.20750487377E+03  0.12500000000E+03 0.  0.
         25    1    1    2    0    0  0.45469029576E+02 -0.12775176144E+03 -0.23083414664E+02  0.18586497582E+03  0.12500000000E+03 0.  0.
</event>
<event>
 4    0  0.2250660E-002  0.2152890E+03  0.7546771E-02  0.1137445E+00
         21   -1    0    0  502  501  0.00000000000E+00  0.00000000000E+00  0.15963939617E+03  0.15963939617E+03  0.00000000000E+00 0.  1.
         21   -1    0    0  501  502 -0.00000000000E+00 -0.00000000000E+00 -0.29033784553E+03  0.29033784553E+03  0.00000000000E+00 0.  1.
         25    1    1    2    0    0 -0.15755053629E+03 -0.11152488600E+02 -0.14478575668E+03  0.24806141341E+03  0.12500000000E+03 0.  0.
         25    1    1    2    0    0  0.15755053629E+03  0.11152488600E+02  0.14087307327E+02  0.20191582829E+03  0.12500000000E+03 0.  0.
</event>
<event>
 4    0  0.2250660E-002  0.1972016E+03  0.7546771E-02  0.1152122E+00
         21   -1    0    0  502  501  0.00000000000E+00  0.00000000000E+00  0.93542758536E+03  0.93542758536E+03  0.00000000000E+00 0. -1.
         21   -1    0    0  501  502 -0.00000000000E+00 -0.00000000000E+00 -0.41572919176E+02  0.41572919176E+02  0.00000000000E+00 0. -1.
         25    1    1    2    0    0 -0.99121580745E+02 -0.45332388591E+01  0.73387016735E+03  0.75102334221E+03  0.12500000000E+03 0.  0.
         25    1    1    2    0    0  0.99121580745E+02  0.45332388591E+01  0.15998449884E+03  0.22597716232E+03  0.12500000000E+03 0.  0.
</event>
<event>
 4    0  0.2250660E-002  0.1521038E+03  0.7546771E-02  0.1197911E+00
         21   -1    0    0  502  501  0.00000000000E+00  0.00000000000E+00  0.13136350235E+03  0.13136350235E+03  0.00000000000E+00 0.  1.
         21   -1    0    0  501  502 -0.00000000000E+00 -0.00000000000E+00 -0.17611870218E+03  0.17611870218E+03  0.00000000000E+00 0.  1.
         25    1    1    2    0    0  0.34672616792E+01 -0.67460733205E+01 -0.10963787236E+03  0.16644216553E+03  0.12500000000E+03 0.  0.
         25    1    1    2    0    0 -0.34672616792E+01  0.67460733205E+01  0.64882672535E+02  0.14104003901E+03  0.12500000000E+03 0.  0.
</event>
<event>
 4    0  0.2250660E-002  0.2048713E+03  0.7546771E-02  0.1145693E+00
         21   -1    0    0  502  501  0.00000000000E+00  0.00000000000E+00  0.32022206735E+03  0.32022206735E+03  0.00000000000E+00 0.  1.
         21   -1    0    0  501  502 -0.00000000000E+00 -0.00000000000E+00 -0.13107235380E+03  0.13107235380E+03  0.00000000000E+00 0.  1.
         25    1    1    2    0    0 -0.74730167250E+02 -0.14409254633E+03  0.94555683115E+02  0.22563917438E+03  0.12500000000E+03 0.  0.
         25    1    1    2    0    0  0.74730167250E+02  0.14409254633E+03  0.94594030436E+02  0.22565524678E+03  0.12500000000E+03 0.  0.
</event>
<event>
 4    0  0.2250660E-002  0.2141022E+03  0.7546771E-02  0.1138358E+00
         21   -1    0    0  502  501  0.00000000000E+00  0.00000000000E+00  0.14101664118E+04  0.14101664118E+04  0.00000000000E+00 0. -1.
         21   -1    0    0  501  502 -0.00000000000E+00 -0.00000000000E+00 -0.32506625304E+02  0.32506625304E+02  0.00000000000E+00 0. -1.
         25    1    1    2    0    0 -0.11117296473E+03 -0.11175426334E+03  0.93563524876E+03  0.95701972925E+03  0.12500000000E+03 0.  0.
         25    1    1    2    0    0  0.11117296473E+03  0.11175426334E+03  0.44202453771E+03  0.48565330782E+03  0.12500000000E+03 0.  0.
</event>
<event>
 4    0  0.2250660E-002  0.2305891E+03  0.7546771E-02  0.1126226E+00
         21   -1    0    0  502  501  0.00000000000E+00  0.00000000000E+00  0.55172246344E+02  0.55172246344E+02  0.00000000000E+00 0. -1.
         21   -1    0    0  501  502 -0.00000000000E+00 -0.00000000000E+00 -0.96373351452E+03  0.96373351452E+03  0.00000000000E+00 0. -1.
         25    1    1    2    0    0  0.36468329842E+02  0.87345380255E+01 -0.34270322746E+02  0.13492844866E+03  0.12500000000E+03 0.  0.
         25    1    1    2    0    0 -0.36468329842E+02 -0.87345380255E+01 -0.87429094543E+03  0.88397731221E+03  0.12500000000E+03 0.  0.
</event>
<event>
 4    0  0.2250660E-002  0.2082819E+03  0.7546771E-02  0.1142934E+00
         21   -1    0    0  502  501  0.00000000000E+00  0.00000000000E+00  0.18435468763E+04  0.18435468763E+04  0.00000000000E+00 0. -1.
         21   -1    0    0  501  502 -0.00000000000E+00 -0.00000000000E+00 -0.23531464009E+02  0.23531464009E+02  0.00000000000E+00 0. -1.
         25    1    1    2    0    0  0.15795816457E+03 -0.49684276599E+02  0.99229386192E+03  0.10137511615E+04  0.12500000000E+03 0.  0.
         25    1    1    2    0    0 -0.15795816457E+03  0.49684276599E+02  0.82772155032E+03  0.85332717873E+03  0.12500000000E+03 0.  0.
</event>
<event>
 4    0  0.2250660E-002  0.2680123E+03  0.7546771E-02  0.1102423E+00
         21   -1    0    0  502  501  0.00000000000E+00  0.00000000000E+00  0.91374742160E+03  0.91374742160E+03  0.00000000000E+00 0. -1.
         21   -1    0    0  501  502 -0.00000000000E+00 -0.00000000000E+00 -0.78611000547E+02  0.78611000547E+02  0.00000000000E+00 0. -1.
         25    1    1    2    0    0 -0.65608978893E+02  0.18550670116E+03  0.17274199186E+03  0.29014146556E+03  0.12500000000E+03 0.  0.
         25    1    1    2    0    0  0.65608978893E+02 -0.18550670116E+03  0.66239442919E+03  0.70221695658E+03  0.12500000000E+03 0.  0.
</event>
<event>
 4    0  0.2250660E-002  0.2181860E+03  0.7546771E-02  0.1135243E+00
         21   -1    0    0  502  501  0.00000000000E+00  0.00000000000E+00  0.10546475145E+03  0.10546475145E+03  0.00000000000E+00 0. -1.
         21   -1    0    0  501  502 -0.00000000000E+00 -0.00000000000E+00 -0.45138445038E+03  0.45138445038E+03  0.00000000000E+00 0. -1.
         25    1    1    2    0    0 -0.15649131772E+03 -0.61573986603E+02 -0.95346200700E+02  0.23021030893E+03  0.12500000000E+03 0.  0.
         25    1    1    2    0    0  0.15649131772E+03  0.61573986603E+02 -0.25057349823E+03  0.32663889291E+03  0.12500000000E+03 0.  0.
</event>
<event>
 4    0  0.2250660E-002  0.2074789E+03  0.7546771E-02  0.1143578E+00
         21   -1    0    0  502  501  0.00000000000E+00  0.00000000000E+00  0.57293831873E+02  0.57293831873E+02  0.00000000000E+00 0. -1.
         21   -1    0    0  501  502 -0.00000000000E+00 -0.00000000000E+00 -0.75134602523E+03  0.75134602523E+03  0.00000000000E+00 0. -1.
         25    1    1    2    0    0 -0.82335302164E+02 -0.14332234062E+03 -0.32733550055E+03  0.38741957258E+03  0.12500000000E+03 0.  0.
         25    1    1    2    0    0  0.82335302164E+02  0.14332234062E+03 -0.36671669282E+03  0.42122028452E+03  0.12500000000E+03 0.  0.
</event>
<event>
 4    0  0.2250660E-002  0.2107935E+03  0.7546771E-02  0.1140939E+00
         21   -1    0    0  502  501  0.00000000000E+00  0.00000000000E+00  0.59932429023E+03  0.59932429023E+03  0.00000000000E+00 0.  1.
         21   -1    0    0  501  502 -0.00000000000E+00 -0.00000000000E+00 -0.74139999048E+02  0.74139999048E+02  0.00000000000E+00 0.  1.
         25    1    1    2    0    0  0.15238198294E+03 -0.35837616855E+02  0.36739631354E+03  0.41846105519E+03  0.12500000000E+03 0.  0.
         25    1    1    2    0    0 -0.15238198294E+03  0.35837616855E+02  0.15778797764E+03  0.25500323408E+03  0.12500000000E+03 0.  0.
</event>
<event>
 4    0  0.2250660E-002  0.2564460E+03  0.7546771E-02  0.1109298E+00
         21   -1    0    0  502  501  0.00000000000E+00  0.00000000000E+00  0.11867773581E+03  0.11867773581E+03  0.00000000000E+00 0. -1.
         21   -1    0    0  501  502 -0.00000000000E+00 -0.00000000000E+00 -0.55414412078E+03  0.55414412078E+03  0.00000000000E+00 0. -1.
         25    1    1    2    0    0  0.60339840315E+02 -0.21531462240E+03 -0.23315957823E+03  0.34639525382E+03  0.12500000000E+03 0.  0.
         25    1    1    2    0    0 -0.60339840315E+02  0.21531462240E+03 -0.20230680674E+03  0.32642660278E+03  0.12500000000E+03 0.  0.
</event>
<event>
 4    0  0.2250660E-002  0.2183484E+03  0.7546771E-02  0.1135120E+00
         21   -1    0    0  502  501  0.00000000000E+00  0.00000000000E+00  0.63723547717E+03  0.63723547717E+03  0.00000000000E+00 0.  1.
         21   -1    0    0  501  502 -0.00000000000E+00 -0.00000000000E+00 -0.74816988633E+02  0.74816988633E+02  0.00000000000E+00 0.  1.
         25    1    1    2    0    0 -0.15252682274E+03 -0.91587626226E+02  0.24866718875E+03  0.33032271447E+03  0.12500000000E+03 0.  0.
         25    1    1    2    0    0  0.15252682274E+03  0.91587626226E+02  0.31375129979E+03  0.38172975133E+03  0.12500000000E+03 0.  0.
</event>
<event>
 4    0  0.2250660E-002  0.2710841E+03  0.7546771E-02  0.1100661E+00
         21   -1    0    0  502  501  0.00000000000E+00  0.00000000000E+00  0.14532794988E+03  0.14532794988E+03  0.00000000000E+00 0. -1.
         21   -1    0    0  501  502 -0.00000000000E+00 -0.00000000000E+00 -0.50566046410E+03  0.50566046410E+03  0.00000000000E+00 0. -1.
         25    1    1    2    0    0 -0.21934269627E+03  0.25915449120E+02 -0.65759232846E+02  0.26216808657E+03  0.12500000000E+03 0.  0.
         25    1    1    2    0    0  0.21934269627E+03 -0.25915449120E+02 -0.29457328137E+03  0.38882032741E+03  0.12500000000E+03 0.  0.
</event>
<event>
 4    0  0.2250660E-002  0.2208474E+03  0.7546771E-02  0.1133253E+00
         21   -1    0    0  502  501  0.00000000000E+00  0.00000000000E+00  0.99836594305E+03  0.99836594305E+03  0.00000000000E+00 0.  1.
         21   -1    0    0  501  502 -0.00000000000E+00 -0.00000000000E+00 -0.48853382738E+02  0.48853382738E+02  0.00000000000E+00 0.  1.
         25    1    1    2    0    0  0.27023085093E+02  0.17593836348E+02  0.89959808272E+03  0.90881323749E+03  0.12500000000E+03 0.  0.
         25    1    1    2    0    0 -0.27023085093E+02 -0.17593836348E+02  0.49914477597E+02  0.13840608830E+03  0.12500000000E+03 0.  0.
</event>
<event>
 4    0  0.2250660E-002  0.3463536E+03  0.7546771E-02  0.1064122E+00
         21   -1    0    0  502  501  0.00000000000E+00  0.00000000000E+00  0.28084575996E+03  0.28084575996E+03  0.00000000000E+00 0.  1.
         21   -1    0    0  501  502 -0.00000000000E+00 -0.00000000000E+00 -0.42714128028E+03  0.42714128028E+03  0.00000000000E+00 0.  1.
         25    1    1    2    0    0 -0.31939946490E+03  0.39922766711E+02 -0.10068595931E+03  0.35968389995E+03  0.12500000000E+03 0.  0.
         25    1    1    2    0    0  0.31939946490E+03 -0.39922766711E+02 -0.45609561005E+02  0.34830314029E+03  0.12500000000E+03 0.  0.
</event>
<event>
 4    0  0.2250660E-002  0.2102158E+03  0.7546771E-02  0.1141395E+00
         21   -1    0    0  502  501  0.00000000000E+00  0.00000000000E+00  0.13861523224E+03  0.13861523224E+03  0.00000000000E+00 0. -1.
         21   -1    0    0  501  502 -0.00000000000E+00 -0.00000000000E+00 -0.31880113104E+03  0.31880113104E+03  0.00000000000E+00 0. -1.
         25    1    1    2    0    0  0.14609333252E+03  0.82506441522E+02 -0.11225970532E+03  0.23744013170E+03  0.12500000000E+03 0.  0.
         25    1    1    2    0    0 -0.14609333252E+03 -0.82506441522E+02 -0.67926193479E+02  0.21997623158E+03  0.12500000000E+03 0.  0.
</event>
<event>
 4    0  0.2250660E-002  0.3554542E+03  0.7546771E-02  0.1060398E+00
         21   -1    0    0  502  501  0.00000000000E+00  0.00000000000E+00  0.34190790023E+03  0.34190790023E+03  0.00000000000E+00 0. -1.
         21   -1    0    0  501  502 -0.00000000000E+00 -0.00000000000E+00 -0.36953723873E+03  0.36953723873E+03  0.00000000000E+00 0.  1.
         25    1    1    2    0    0  0.20595249493E+03  0.12100591625E+03 -0.24564412666E+03  0.36472578589E+03  0.12500000000E+03 0.  0.
         25    1    1    2    0    0 -0.20595249493E+03 -0.12100591625E+03  0.21801478816E+03  0.34671935307E+03  0.12500000000E+03 0.  0.
</event>
<event>
 4    0  0.2250660E-002  0.1865303E+03  0.7546771E-02  0.1161628E+00
         21   -1    0    0  502  501  0.00000000000E+00  0.00000000000E+00  0.16043088034E+04  0.16043088034E+04  0.00000000000E+00 0. -1.
         21   -1    0    0  501  502 -0.00000000000E+00 -0.00000000000E+00 -0.21687575796E+02  0.21687575796E+02  0.00000000000E+00 0. -1.
         25    1    1    2    0    0 -0.57170791267E+02  0.12216526557E+03  0.92745573729E+03  0.94551149973E+03  0.12500000000E+03 0.  0.
         25    1    1    2    0    0  0.57170791267E+02 -0.12216526557E+03  0.65516549028E+03  0.68048487943E+03  0.12500000000E+03 0.  0.
</event>
<event>
 4    0  0.2250660E-002  0.1540116E+03  0.7546771E-02  0.1195628E+00
         21   -1    0    0  502  501  0.00000000000E+00  0.00000000000E+00  0.21719949179E+02  0.21719949179E+02  0.00000000000E+00 0.  1.
         21   -1    0    0  501  502 -0.00000000000E+00 -0.00000000000E+00 -0.10920642492E+04  0.10920642492E+04  0.00000000000E+00 0.  1.
         25    1    1    2    0    0 -0.28469405394E+01  0.40201224192E+02 -0.82603013614E+03  0.83640601941E+03  0.12500000000E+03 0.  0.
         25    1    1    2    0    0  0.28469405394E+01 -0.40201224192E+02 -0.24431416393E+03  0.27737817901E+03  0.12500000000E+03 0.  0.
</event>
<event>
 4    0  0.2250660E-002  0.2269978E+03  0.7546771E-02  0.1128771E+00
         21   -1    0    0  502  501  0.00000000000E+00  0.00000000000E+00  0.24138135806E+03  0.24138135806E+03  0.00000000000E+00 0. -1.
         21   -1    0    0  501  502 -0.00000000000E+00 -0.00000000000E+00 -0.21347128757E+03  0.21347128757E+03  0.00000000000E+00 0. -1.
         25    1    1    2    0    0 -0.16338329849E+03 -0.15964042357E+02 -0.80849379130E+02  0.22160905888E+03  0.12500000000E+03 0.  0.
         25    1    1    2    0    0  0.16338329849E+03  0.15964042357E+02  0.10875944963E+03  0.23324358674E+03  0.12500000000E+03 0.  0.
</event>
<event>
 4    0  0.2250660E-002  0.2151512E+03  0.7546771E-02  0.1137551E+00
         21   -1    0    0  502  501  0.00000000000E+00  0.00000000000E+00  0.77751604936E+02  0.77751604936E+02  0.00000000000E+00 0.  1.
         21   -1    0    0  501  502 -0.00000000000E+00 -0.00000000000E+00 -0.59535786904E+03  0.59535786904E+03  0.00000000000E+00 0.  1.
         25    1    1    2    0    0 -0.95763330132E+02  0.13994673784E+02 -0.48709326141E+03  0.51210478577E+03  0.12500000000E+03 0.  0.
         25    1    1    2    0    0  0.95763330132E+02 -0.13994673784E+02 -0.30513002692E+02  0.16100468821E+03  0.12500000000E+03 0.  0.
</event>
<event>
 4    0  0.2250660E-002  0.1330842E+03  0.7546771E-02  0.1222950E+00
         21   -1    0    0  502  501  0.00000000000E+00  0.00000000000E+00  0.78837202085E+03  0.78837202085E+03  0.00000000000E+00 0. -1.
         21   -1    0    0  501  502 -0.00000000000E+00 -0.00000000000E+00 -0.22465805259E+02  0.22465805259E+02  0.00000000000E+00 0. -1.
         25    1    1    2    0    0  0.22316710476E+02 -0.45762402433E+01  0.50356000481E+03  0.51934252280E+03  0.12500000000E+03 0.  0.
         25    1    1    2    0    0 -0.22316710476E+02  0.45762402433E+01  0.26234621077E+03  0.29149530330E+03  0.12500000000E+03 0.  0.
</event>
<event>
 4    0  0.2250660E-002  0.2001456E+03  0.7546771E-02  0.1149616E+00
         21   -1    0    0  502  501  0.00000000000E+00  0.00000000000E+00  0.82248051488E+02  0.82248051488E+02  0.00000000000E+00 0. -1.
         21   -1    0    0  501  502 -0.00000000000E+00 -0.00000000000E+00 -0.48704197968E+03  0.48704197968E+03  0.00000000000E+00 0. -1.
         25    1    1    2    0    0  0.83089321159E+02  0.12651975050E+03 -0.25788372021E+03  0.32409889804E+03  0.12500000000E+03 0.  0.
         25    1    1    2    0    0 -0.83089321159E+02 -0.12651975050E+03 -0.14691020798E+03  0.24519113313E+03  0.12500000000E+03 0.  0.
</event>
<event>
 4    0  0.2250660E-002  0.6176603E+03  0.7546771E-02  0.9869429E-01
         21   -1    0    0  502  501  0.00000000000E+00  0.00000000000E+00  0.12015078572E+04  0.12015078572E+04  0.00000000000E+00 0.  1.
         21   -1    0    0  501  502 -0.00000000000E+00 -0.00000000000E+00 -0.31752117539E+03  0.31752117539E+03  0.00000000000E+00 0.  1.
         25    1    1    2    0    0 -0.14809629416E+03 -0.51799328373E+02 -0.27634880454E+03  0.34148110421E+03  0.12500000000E+03 0.  0.
         25    1    1    2    0    0  0.14809629416E+03  0.51799328373E+02  0.11603354864E+04  0.11775479284E+04  0.12500000000E+03 0.  0.
</event>
<event>
 4    0  0.2250660E-002  0.2372522E+03  0.7546771E-02  0.1121637E+00
         21   -1    0    0  502  501  0.00000000000E+00  0.00000000000E+00  0.36615161798E+02  0.36615161798E+02  0.00000000000E+00 0. -1.
         21   -1    0    0  501  502 -0.00000000000E+00 -0.00000000000E+00 -0.15373037012E+04  0.15373037012E+04  0.00000000000E+00 0. -1.
         25    1    1    2    0    0 -0.28669555500E+02  0.11727528207E+03 -0.12860965052E+04  0.12977845182E+04  0.12500000000E+03 0.  0.
         25    1    1    2    0    0  0.28669555500E+02 -0.11727528207E+03 -0.21459203425E+03  0.27613434477E+03  0.12500000000E+03 0.  0.
</event>
<event>
 4    0  0.2250660E-002  0.2486707E+03  0.7546771E-02  0.1114148E+00
         21   -1    0    0  502  501  0.00000000000E+00  0.00000000000E+00  0.16439090885E+03  0.16439090885E+03  0.00000000000E+00 0.  1.
         21   -1    0    0  501  502 -0.00000000000E+00 -0.00000000000E+00 -0.37615898712E+03  0.37615898712E+03  0.00000000000E+00 0.  1.
         25    1    1    2    0    0  0.54737675843E+02  0.20628276121E+03 -0.13387675407E+03  0.28124149056E+03  0.12500000000E+03 0.  0.
         25    1    1    2    0    0 -0.54737675843E+02 -0.20628276121E+03 -0.77891324205E+02  0.25930840541E+03  0.12500000000E+03 0.  0.
</event>
<event>
 4    0  0.2250660E-002  0.2152268E+03  0.7546771E-02  0.1137493E+00
         21   -1    0    0  502  501  0.00000000000E+00  0.00000000000E+00  0.51635215161E+03  0.51635215161E+03  0.00000000000E+00 0. -1.
         21   -1    0    0  501  502 -0.00000000000E+00 -0.00000000000E+00 -0.89711217660E+02  0.89711217660E+02  0.00000000000E+00 0. -1.
         25    1    1    2    0    0  0.97899081766E+02 -0.53149868568E+02  0.22914735129E+02  0.16899474496E+03  0.12500000000E+03 0.  0.
         25    1    1    2    0    0 -0.97899081766E+02  0.53149868568E+02  0.40372619882E+03  0.43706862431E+03  0.12500000000E+03 0.  0.
</event>
<event>
 4    0  0.2250660E-002  0.2943434E+03  0.7546771E-02  0.1088103E+00
         21   -1    0    0  502  501  0.00000000000E+00  0.00000000000E+00  0.10145803466E+04  0.10145803466E+04  0.00000000000E+00 0.  1.
         21   -1    0    0  501  502 -0.00000000000E+00 -0.00000000000E+00 -0.85393001465E+02  0.85393001465E+02  0.00000000000E+00 0. -1.
         25    1    1    2    0    0  0.11644595060E+03  0.23442564548E+03  0.37120469579E+03  0.47109762136E+03  0.12500000000E+03 0.  0.
         25    1    1    2    0    0 -0.11644595060E+03 -0.23442564548E+03  0.55798264936E+03  0.62887572672E+03  0.12500000000E+03 0.  0.
</event>
<event>
 4    0  0.2250660E-002  0.3637830E+03  0.7546771E-02  0.1057096E+00
         21   -1    0    0  502  501  0.00000000000E+00  0.00000000000E+00  0.22911626604E+03  0.22911626604E+03  0.00000000000E+00 0. -1.
         21   -1    0    0  501  502 -0.00000000000E+00 -0.00000000000E+00 -0.57760212293E+03  0.57760212293E+03  0.00000000000E+00 0.  1.
         25    1    1    2    0    0 -0.53927021814E+02 -0.33566011017E+03 -0.21163414908E+03  0.41951143763E+03  0.12500000000E+03 0.  0.
         25    1    1    2    0    0  0.53927021814E+02  0.33566011017E+03 -0.13685170780E+03  0.38720695134E+03  0.12500000000E+03 0.  0.
</event>
<event>
 4    0  0.2250660E-002  0.1865291E+03  0.7546771E-02  0.1161630E+00
         21   -1    0    0  502  501  0.00000000000E+00  0.00000000000E+00  0.11398615215E+04  0.11398615215E+04  0.00000000000E+00 0. -1.
         21   -1    0    0  501  502 -0.00000000000E+00 -0.00000000000E+00 -0.30523962262E+02  0.30523962262E+02  0.00000000000E+00 0. -1.
         25    1    1    2    0    0 -0.92409920190E+02 -0.10205905860E+03  0.60039612290E+03  0.62853492281E+03  0.12500000000E+03 0.  0.
         25    1    1    2    0    0  0.92409920190E+02  0.10205905860E+03  0.50894143636E+03  0.54185056098E+03  0.12500000000E+03 0.  0.
</event>
<event>
 4    0  0.2250660E-002  0.3149684E+03  0.7546771E-02  0.1077989E+00
         21   -1    0    0  502  501  0.00000000000E+00  0.00000000000E+00  0.32662783746E+03  0.32662783746E+03  0.00000000000E+00 0.  1.
         21   -1    0    0  501  502 -0.00000000000E+00 -0.00000000000E+00 -0.30372524985E+03  0.30372524985E+03  0.00000000000E+00 0.  1.
         25    1    1    2    0    0 -0.30315890819E+02 -0.13666266453E+03 -0.24166717805E+03  0.30598000271E+03  0.12500000000E+03 0.  0.
         25    1    1    2    0    0  0.30315890819E+02  0.13666266453E+03  0.26456976566E+03  0.32437308460E+03  0.12500000000E+03 0.  0.
</event>
<event>
 4    0  0.2250660E-002  0.2409514E+03  0.7546771E-02  0.1119161E+00
         21   -1    0    0  502  501  0.00000000000E+00  0.00000000000E+00  0.25666431494E+03  0.25666431494E+03  0.00000000000E+00 0. -1.
         21   -1    0    0  501  502 -0.00000000000E+00 -0.00000000000E+00 -0.22620050675E+03  0.22620050675E+03  0.00000000000E+00 0. -1.
         25    1    1    2    0    0  0.15162812552E+03  0.56399768396E+02  0.14300340564E+03  0.24949347957E+03  0.12500000000E+03 0.  0.
         25    1    1    2    0    0 -0.15162812552E+03 -0.56399768396E+02 -0.11253959745E+03  0.23337134211E+03  0.12500000000E+03 0.  0.
</event>
<event>
 4    0  0.2250660E-002  0.1985094E+03  0.7546771E-02  0.1151003E+00
         21   -1    0    0  502  501  0.00000000000E+00  0.00000000000E+00  0.90255558054E+02  0.90255558054E+02  0.00000000000E+00 0. -1.
         21   -1    0    0  501  502 -0.00000000000E+00 -0.00000000000E+00 -0.43660455594E+03  0.43660455594E+03  0.00000000000E+00 0. -1.
         25    1    1    2    0    0  0.13857195479E+03  0.35611090514E+02 -0.24953010781E+03  0.31362495297E+03  0.12500000000E+03 0.  0.
         25    1    1    2    0    0 -0.13857195479E+03 -0.35611090514E+02 -0.96818890073E+02  0.21323516102E+03  0.12500000000E+03 0.  0.
</event>
<event>
 4    0  0.2250660E-002  0.3413262E+03  0.7546771E-02  0.1066233E+00
         21   -1    0    0  502  501  0.00000000000E+00  0.00000000000E+00  0.59027037155E+03  0.59027037155E+03  0.00000000000E+00 0. -1.
         21   -1    0    0  501  502 -0.00000000000E+00 -0.00000000000E+00 -0.19737318295E+03  0.19737318295E+03  0.00000000000E+00 0. -1.
         25    1    1    2    0    0 -0.11048082248E+03  0.11436742184E+02 -0.14687540807E+03  0.22256279272E+03  0.12500000000E+03 0.  0.
         25    1    1    2    0    0  0.11048082248E+03 -0.11436742184E+02  0.53977259667E+03  0.56508076177E+03  0.12500000000E+03 0.  0.
</event>
<event>
 4    0  0.2250660E-002  0.2051789E+03  0.7546771E-02  0.1145442E+00
         21   -1    0    0  502  501  0.00000000000E+00  0.00000000000E+00  0.69470367052E+02  0.69470367052E+02  0.00000000000E+00 0.  1.
         21   -1    0    0  501  502 -0.00000000000E+00 -0.00000000000E+00 -0.60599076981E+03  0.60599076981E+03  0.00000000000E+00 0.  1.
         25    1    1    2    0    0  0.21371874686E+02  0.13623067980E+03 -0.41040935463E+03  0.45063998215E+03  0.12500000000E+03 0.  0.
         25    1    1    2    0    0 -0.21371874686E+02 -0.13623067980E+03 -0.12611104813E+03  0.22482115471E+03  0.12500000000E+03 0.  0.
</event>
<event>
 4    0  0.2250660E-002  0.2586230E+03  0.7546771E-02  0.1107973E+00
         21   -1    0    0  502  501  0.00000000000E+00  0.00000000000E+00  0.29934026584E+03  0.29934026584E+03  0.00000000000E+00 0. -1.
         21   -1    0    0  501  502 -0.00000000000E+00 -0.00000000000E+00 -0.22344426403E+03  0.22344426403E+03  0.00000000000E+00 0. -1.
         25    1    1    2    0    0 -0.17280595227E+03 -0.38039446767E+02  0.18071191113E+03  0.28211822251E+03  0.12500000000E+03 0.  0.
         25    1    1    2    0    0  0.17280595227E+03  0.38039446767E+02 -0.10481590931E+03  0.24066630736E+03  0.12500000000E+03 0.  0.
</event>
<event>
 4    0  0.2250660E-002  0.3346609E+03  0.7546771E-02  0.1069093E+00
         21   -1    0    0  502  501  0.00000000000E+00  0.00000000000E+00  0.61618947132E+02  0.61618947132E+02  0.00000000000E+00 0.  1.
         21   -1    0    0  501  502 -0.00000000000E+00 -0.00000000000E+00 -0.18175889612E+04  0.18175889612E+04  0.00000000000E+00 0.  1.
         25    1    1    2    0    0  0.30812296218E+03 -0.35667609472E+02 -0.84236239927E+03  0.90631746639E+03  0.12500000000E+03 0.  0.
         25    1    1    2    0    0 -0.30812296218E+03  0.35667609472E+02 -0.91360761477E+03  0.97289044191E+03  0.12500000000E+03 0.  0.
</event>
<event>
 4    0  0.2250660E-002  0.2880154E+03  0.7546771E-02  0.1091390E+00
         21   -1    0    0  502  501  0.00000000000E+00  0.00000000000E+00  0.10672631402E+04  0.10672631402E+04  0.00000000000E+00 0. -1.
         21   -1    0    0  501  502 -0.00000000000E+00 -0.00000000000E+00 -0.77724848852E+02  0.77724848852E+02  0.00000000000E+00 0. -1.
         25    1    1    2    0    0 -0.20807391485E+03  0.54298524576E+02  0.78339803563E+03  0.82193708156E+03  0.12500000000E+03 0.  0.
         25    1    1    2    0    0  0.20807391485E+03 -0.54298524576E+02  0.20614025574E+03  0.32305090752E+03  0.12500000000E+03 0.  0.
</event>
<event>
 4    0  0.2250660E-002  0.4360130E+03  0.7546771E-02  0.1031977E+00
         21   -1    0    0  502  501  0.00000000000E+00  0.00000000000E+00  0.69440611307E+02  0.69440611307E+02  0.00000000000E+00 0.  1.
         21   -1    0    0  501  502 -0.00000000000E+00 -0.00000000000E+00 -0.27376965364E+04  0.27376965364E+04  0.00000000000E+00 0. -1.
         25    1    1    2    0    0 -0.17992518439E+03 -0.16329990515E+03 -0.24278749493E+04  0.24432031640E+04  0.12500000000E+03 0.  0.
         25    1    1    2    0    0  0.17992518439E+03  0.16329990515E+03 -0.24038097582E+03  0.36393398376E+03  0.12500000000E+03 0.  0.
</event>
<event>
 4    0  0.2250660E-002  0.1836125E+03  0.7546771E-02  0.1164352E+00
         21   -1    0    0  502  501  0.00000000000E+00  0.00000000000E+00  0.37651398674E+02  0.37651398674E+02  0.00000000000E+00 0. -1.
         21   -1    0    0  501  502 -0.00000000000E+00 -0.00000000000E+00 -0.89541274875E+03  0.89541274875E+03  0.00000000000E+00 0. -1.
         25    1    1    2    0    0  0.50572774921E+02  0.50486059174E+02 -0.13937858843E+03  0.20039420812E+03  0.12500000000E+03 0.  0.
         25    1    1    2    0    0 -0.50572774921E+02 -0.50486059174E+02 -0.71838276165E+03  0.73266993931E+03  0.12500000000E+03 0.  0.
</event>
<event>
 4    0  0.2250660E-002  0.1861743E+03  0.7546771E-02  0.1161958E+00
         21   -1    0    0  502  501  0.00000000000E+00  0.00000000000E+00  0.11455306891E+04  0.11455306891E+04  0.00000000000E+00 0. -1.
         21   -1    0    0  501  502 -0.00000000000E+00 -0.00000000000E+00 -0.30257491520E+02  0.30257491520E+02  0.00000000000E+00 0. -1.
         25    1    1    2    0    0  0.54568549233E+02 -0.10431285219E+03  0.33043163006E+03  0.37238281357E+03  0.12500000000E+03 0.  0.
         25    1    1    2    0    0 -0.54568549233E+02  0.10431285219E+03  0.78484156752E+03  0.80340536705E+03  0.12500000000E+03 0.  0.
</event>
<event>
 4    0  0.2250660E-002  0.1779913E+03  0.7546771E-02  0.1169761E+00
         21   -1    0    0  502  501  0.00000000000E+00  0.00000000000E+00  0.77216959311E+03  0.77216959311E+03  0.00000000000E+00 0. -1.
         21   -1    0    0  501  502 -0.00000000000E+00 -0.00000000000E+00 -0.41028442301E+02  0.41028442301E+02  0.00000000000E+00 0. -1.
         25    1    1    2    0    0  0.65180011118E+02  0.10731525223E+03  0.32660751614E+03  0.37156758040E+03  0.12500000000E+03 0.  0.
         25    1    1    2    0    0 -0.65180011118E+02 -0.10731525223E+03  0.40453363467E+03  0.44163045501E+03  0.12500000000E+03 0.  0.
</event>
<event>
 4    0  0.2250660E-002  0.2323064E+03  0.7546771E-02  0.1125027E+00
         21   -1    0    0  502  501  0.00000000000E+00  0.00000000000E+00  0.81641896404E+02  0.81641896404E+02  0.00000000000E+00 0. -1.
         21   -1    0    0  501  502 -0.00000000000E+00 -0.00000000000E+00 -0.66101165198E+03  0.66101165198E+03  0.00000000000E+00 0. -1.
         25    1    1    2    0    0  0.17419454287E+03 -0.50018985501E+02 -0.40818069070E+03  0.46376946206E+03  0.12500000000E+03 0.  0.
         25    1    1    2    0    0 -0.17419454287E+03  0.50018985501E+02 -0.17118906488E+03  0.27888408633E+03  0.12500000000E+03 0.  0.
</event>
<event>
 4    0  0.2250660E-002  0.2618965E+03  0.7546771E-02  0.1106009E+00
         21   -1    0    0  502  501  0.00000000000E+00  0.00000000000E+00  0.70722591139E+03  0.70722591139E+03  0.00000000000E+00 0. -1.
         21   -1    0    0  501  502 -0.00000000000E+00 -0.00000000000E+00 -0.96984275133E+02  0.96984275133E+02  0.00000000000E+00 0. -1.
         25    1    1    2    0    0  0.18229014288E+03  0.15530620509E+02  0.90753214799E+02  0.23944110416E+03  0.12500000000E+03 0.  0.
         25    1    1    2    0    0 -0.18229014288E+03 -0.15530620509E+02  0.51948842146E+03  0.56476908237E+03  0.12500000000E+03 0.  0.
</event>
<event>
 4    0  0.2250660E-002  0.2243068E+03  0.7546771E-02  0.1130712E+00
         21   -1    0    0  502  501  0.00000000000E+00  0.00000000000E+00  0.51724874714E+02  0.51724874714E+02  0.00000000000E+00 0.  1.
         21   -1    0    0  501  502 -0.00000000000E+00 -0.00000000000E+00 -0.97271490162E+03  0.97271490162E+03  0.00000000000E+00 0.  1.
         25    1    1    2    0    0  0.16271486368E+02  0.69819474763E+02 -0.67953504164E+02  0.15931791818E+03  0.12500000000E+03 0.  0.
         25    1    1    2    0    0 -0.16271486368E+02 -0.69819474763E+02 -0.85303652274E+03  0.86512185816E+03  0.12500000000E+03 0.  0.
</event>
<event>
 4    0  0.2250660E-002  0.2372467E+03  0.7546771E-02  0.1121641E+00
         21   -1    0    0  502  501  0.00000000000E+00  0.00000000000E+00  0.11518831203E+03  0.11518831203E+03  0.00000000000E+00 0.  1.
         21   -1    0    0  501  502 -0.00000000000E+00 -0.00000000000E+00 -0.48864344760E+03  0.48864344760E+03  0.00000000000E+00 0.  1.
         25    1    1    2    0    0 -0.10573049657E+03  0.14006108491E+03 -0.31312363489E+03  0.38008874771E+03  0.12500000000E+03 0.  0.
         25    1    1    2    0    0  0.10573049657E+03 -0.14006108491E+03 -0.60331500673E+02  0.22374301192E+03  0.12500000000E+03 0.  0.
</event>
<event>
 4    0  0.2250660E-002  0.2383343E+03  0.7546771E-02  0.1120907E+00
         21   -1    0    0  502  501  0.00000000000E+00  0.00000000000E+00  0.27319829074E+04  0.27319829074E+04  0.00000000000E+00 0.  1.
         21   -1    0    0  501  502 -0.00000000000E+00 -0.00000000000E+00 -0.20791945254E+02  0.20791945254E+02  0.00000000000E+00 0.  1.
         25    1    1    2    0    0 -0.18901640878E+03  0.46124247492E+02  0.16885292686E+04  0.17042918588E+04  0.12500000000E+03 0.  0.
         25    1    1    2    0    0  0.18901640878E+03 -0.46124247492E+02  0.10226616936E+04  0.10484829939E+04  0.12500000000E+03 0.  0.
</event>
<event>
 4    0  0.2250660E-002  0.3333858E+03  0.7546771E-02  0.1069649E+00
         21   -1    0    0  502  501  0.00000000000E+00  0.00000000000E+00  0.94949201835E+03  0.94949201835E+03  0.00000000000E+00 0.  1.
         21   -1    0    0  501  502 -0.00000000000E+00 -0.00000000000E+00 -0.11705846769E+03  0.11705846769E+03  0.00000000000E+00 0.  1.
         25    1    1    2    0    0 -0.19515992040E+03  0.21138964490E+03  0.23561286513E+03  0.39231543268E+03  0.12500000000E+03 0.  0.
         25    1    1    2    0    0  0.19515992040E+03 -0.21138964490E+03  0.59682068553E+03  0.67423505336E+03  0.12500000000E+03 0.  0.
</event>
<event>
 4    0  0.2250660E-002  0.1569069E+03  0.7546771E-02  0.1192234E+00
         21   -1    0    0  502  501  0.00000000000E+00  0.00000000000E+00  0.11748410687E+04  0.11748410687E+04  0.00000000000E+00 0. -1.
         21   -1    0    0  501  502 -0.00000000000E+00 -0.00000000000E+00 -0.20955842539E+02  0.20955842539E+02  0.00000000000E+00 0. -1.
         25    1    1    2    0    0  0.78517166532E+02 -0.13896440554E+02  0.77260978570E+03  0.78670765692E+03  0.12500000000E+03 0.  0.
         25    1    1    2    0    0 -0.78517166532E+02  0.13896440554E+02  0.38127544048E+03  0.40908925434E+03  0.12500000000E+03 0.  0.
</event>
<event>
 4    0  0.2250660E-002  0.3091523E+03  0.7546771E-02  0.1080753E+00
         21   -1    0    0  502  501  0.00000000000E+00  0.00000000000E+00  0.15463128292E+04  0.15463128292E+04  0.00000000000E+00 0. -1.
         21   -1    0    0  501  502 -0.00000000000E+00 -0.00000000000E+00 -0.61808404881E+02  0.61808404881E+02  0.00000000000E+00 0. -1.
         25    1    1    2    0    0 -0.37181383152E+02  0.38036709829E+02  0.19977616525E+02  0.13730750784E+03  0.12500000000E+03 0.  0.
         25    1    1    2    0    0  0.37181383152E+02 -0.38036709829E+02  0.14645268078E+04  0.14708137262E+04  0.12500000000E+03 0.  0.
</event>
<event>
 4    0  0.2250660E-002  0.1936533E+03  0.7546771E-02  0.1155207E+00
         21   -1    0    0  502  501  0.00000000000E+00  0.00000000000E+00  0.13994163987E+03  0.13994163987E+03  0.00000000000E+00 0.  1.
         21   -1    0    0  501  502 -0.00000000000E+00 -0.00000000000E+00 -0.26798035296E+03  0.26798035296E+03  0.00000000000E+00 0.  1.
         25    1    1    2    0    0  0.12379302361E+03 -0.37393896990E+02 -0.13962901243E+03  0.22769338449E+03  0.12500000000E+03 0.  0.
         25    1    1    2    0    0 -0.12379302361E+03  0.37393896990E+02  0.11590299342E+02  0.18022860834E+03  0.12500000000E+03 0.  0.
</event>
<event>
 4    0  0.2250660E-002  0.2707710E+03  0.7546771E-02  0.1100839E+00
         21   -1    0    0  502  501  0.00000000000E+00  0.00000000000E+00  0.81593496294E+03  0.81593496294E+03  0.00000000000E+00 0. -1.
         21   -1    0    0  501  502 -0.00000000000E+00 -0.00000000000E+00 -0.89856357602E+02  0.89856357602E+02  0.00000000000E+00 0. -1.
         25    1    1    2    0    0  0.19275701057E+03  0.11236042303E+03  0.21426291229E+03  0.33363711629E+03  0.12500000000E+03 0.  0.
         25    1    1    2    0    0 -0.19275701057E+03 -0.11236042303E+03  0.51181569306E+03  0.57215420425E+03  0.12500000000E+03 0.  0.
</event>
<event>
 4    0  0.2250660E-002  0.2152686E+03  0.7546771E-02  0.1137460E+00
         21   -1    0    0  502  501  0.00000000000E+00  0.00000000000E+00  0.13695569770E+04  0.13695569770E+04  0.00000000000E+00 0. -1.
         21   -1    0    0  501  502 -0.00000000000E+00 -0.00000000000E+00 -0.33836186190E+02  0.33836186190E+02  0.00000000000E+00 0. -1.
         25    1    1    2    0    0  0.95991905032E+00 -0.11087975009E+03  0.11102628000E+04  0.11227661045E+04  0.12500000000E+03 0.  0.
         25    1    1    2    0    0 -0.95991905032E+00  0.11087975009E+03  0.22545799075E+03  0.28062705860E+03  0.12500000000E+03 0.  0.
</event>
<event>
 4    0  0.2250660E-002  0.1877179E+03  0.7546771E-02  0.1160536E+00
         21   -1    0    0  502  501  0.00000000000E+00  0.00000000000E+00  0.21348654775E+03  0.21348654775E+03  0.00000000000E+00 0.  1.
         21   -1    0    0  501  502 -0.00000000000E+00 -0.00000000000E+00 -0.16505966224E+03  0.16505966224E+03  0.00000000000E+00 0.  1.
         25    1    1    2    0    0 -0.99995468815E+02  0.15184314045E+02 -0.73456823024E+02  0.17677828494E+03  0.12500000000E+03 0.  0.
         25    1    1    2    0    0  0.99995468815E+02 -0.15184314045E+02  0.12188370853E+03  0.20176792506E+03  0.12500000000E+03 0.  0.
</event>
<event>
 4    0  0.2250660E-002  0.3664075E+03  0.7546771E-02  0.1056075E+00
         21   -1    0    0  502  501  0.00000000000E+00  0.00000000000E+00  0.25739160967E+03  0.25739160967E+03  0.00000000000E+00 0. -1.
         21   -1    0    0  501  502 -0.00000000000E+00 -0.00000000000E+00 -0.52159603936E+03  0.52159603936E+03  0.00000000000E+00 0. -1.
         25    1    1    2    0    0 -0.29124788050E+03  0.73490982221E+01  0.63185002876E+02  0.32325946502E+03  0.12500000000E+03 0.  0.
         25    1    1    2    0    0  0.29124788050E+03 -0.73490982221E+01 -0.32738943256E+03  0.45572818400E+03  0.12500000000E+03 0.  0.
</event>
<event>
 4    0  0.2250660E-002  0.2989472E+03  0.7546771E-02  0.1085768E+00
         21   -1    0    0  502  501  0.00000000000E+00  0.00000000000E+00  0.76616069620E+03  0.76616069620E+03  0.00000000000E+00 0. -1.
         21   -1    0    0  501  502 -0.00000000000E+00 -0.00000000000E+00 -0.11664583386E+03  0.11664583386E+03  0.00000000000E+00 0. -1.
         25    1    1    2    0    0  0.29648518361E+02 -0.23635577517E+03  0.13223430659E+03  0.29975656612E+03  0.12500000000E+03 0.  0.
         25    1    1    2    0    0 -0.29648518361E+02  0.23635577517E+03  0.51728055574E+03  0.58304996394E+03  0.12500000000E+03 0.  0.
</event>
<event>
 4    0  0.2250660E-002  0.2429627E+03  0.7546771E-02  0.1117835E+00
         21   -1    0    0  502  501  0.00000000000E+00  0.00000000000E+00  0.15988974549E+03  0.15988974549E+03  0.00000000000E+00 0. -1.
         21   -1    0    0  501  502 -0.00000000000E+00 -0.00000000000E+00 -0.36919722910E+03  0.36919722910E+03  0.00000000000E+00 0. -1.
         25    1    1    2    0    0 -0.15728827147E+03  0.91801820804E+02 -0.21482782867E+03  0.30812849692E+03  0.12500000000E+03 0.  0.
         25    1    1    2    0    0  0.15728827147E+03 -0.91801820804E+02  0.55203450574E+01  0.22095847767E+03  0.12500000000E+03 0.  0.
</event>
<event>
 4    0  0.2250660E-002  0.2725329E+03  0.7546771E-02  0.1099839E+00
         21   -1    0    0  502  501  0.00000000000E+00  0.00000000000E+00  0.10451012667E+04  0.10451012667E+04  0.00000000000E+00 0.  1.
         21   -1    0    0  501  502 -0.00000000000E+00 -0.00000000000E+00 -0.71068902115E+02  0.71068902115E+02  0.00000000000E+00 0.  1.
         25    1    1    2    0    0 -0.21031330807E+03 -0.45651472255E+02  0.25959872222E+03  0.35962792029E+03  0.12500000000E+03 0.  0.
         25    1    1    2    0    0  0.21031330807E+03  0.45651472255E+02  0.71443364235E+03  0.75654224851E+03  0.12500000000E+03 0.  0.
</event>
<event>
 4    0  0.2250660E-002  0.2007486E+03  0.7546771E-02  0.1149109E+00
         21   -1    0    0  502  501  0.00000000000E+00  0.00000000000E+00  0.20966052498E+04  0.20966052498E+04  0.00000000000E+00 0.  1.
         21   -1    0    0  501  502 -0.00000000000E+00 -0.00000000000E+00 -0.19221552857E+02  0.19221552857E+02  0.00000000000E+00 0.  1.
         25    1    1    2    0    0  0.19530815691E+02  0.15357017160E+03  0.89829648115E+03  0.92006892047E+03  0.12500000000E+03 0.  0.
         25    1    1    2    0    0 -0.19530815691E+02 -0.15357017160E+03  0.11790872158E+04  0.11957578822E+04  0.12500000000E+03 0.  0.
</event>
<event>
 4    0  0.2250660E-002  0.1927308E+03  0.7546771E-02  0.1156021E+00
         21   -1    0    0  502  501  0.00000000000E+00  0.00000000000E+00  0.52302655239E+03  0.52302655239E+03  0.00000000000E+00 0.  1.
         21   -1    0    0  501  502 -0.00000000000E+00 -0.00000000000E+00 -0.71019622087E+02  0.71019622087E+02  0.00000000000E+00 0.  1.
         25    1    1    2    0    0  0.12153684692E+03  0.48072945230E+02  0.32867016991E+03  0.37514169831E+03  0.12500000000E+03 0.  0.
         25    1    1    2    0    0 -0.12153684692E+03 -0.48072945230E+02  0.12333676039E+03  0.21890447617E+03  0.12500000000E+03 0.  0.
</event>
<event>
 4    0  0.2250660E-002  0.2096824E+03  0.7546771E-02  0.1141818E+00
         21   -1    0    0  502  501  0.00000000000E+00  0.00000000000E+00  0.28282434095E+04  0.28282434095E+04  0.00000000000E+00 0. -1.
         21   -1    0    0  501  502 -0.00000000000E+00 -0.00000000000E+00 -0.15545589001E+02  0.15545589001E+02  0.00000000000E+00 0. -1.
         25    1    1    2    0    0  0.89442475255E+02 -0.32411899667E+01  0.43943588679E+03  0.46555274705E+03  0.12500000000E+03 0.  0.
         25    1    1    2    0    0 -0.89442475255E+02  0.32411899667E+01  0.23732619337E+04  0.23782362514E+04  0.12500000000E+03 0.  0.
</event>
<event>
 4    0  0.2250660E-002  0.1918510E+03  0.7546771E-02  0.1156802E+00
         21   -1    0    0  502  501  0.00000000000E+00  0.00000000000E+00  0.24763250220E+03  0.24763250220E+03  0.00000000000E+00 0.  1.
         21   -1    0    0  501  502 -0.00000000000E+00 -0.00000000000E+00 -0.14863476202E+03  0.14863476202E+03  0.00000000000E+00 0.  1.
         25    1    1    2    0    0 -0.34192131097E+02  0.56069775855E+02 -0.84634630989E+02  0.16462363851E+03  0.12500000000E+03 0.  0.
         25    1    1    2    0    0  0.34192131097E+02 -0.56069775855E+02  0.18363237117E+03  0.23164362572E+03  0.12500000000E+03 0.  0.
</event>
<event>
 4    0  0.2250660E-002  0.1686762E+03  0.7546771E-02  0.1179235E+00
         21   -1    0    0  502  501  0.00000000000E+00  0.00000000000E+00  0.24697941992E+03  0.24697941992E+03  0.00000000000E+00 0.  1.
         21   -1    0    0  501  502 -0.00000000000E+00 -0.00000000000E+00 -0.11519845848E+03  0.11519845848E+03  0.00000000000E+00 0.  1.
         25    1    1    2    0    0  0.45243007584E+02 -0.42712048192E+02  0.16748743618E+03  0.21805570406E+03  0.12500000000E+03 0.  0.
         25    1    1    2    0    0 -0.45243007584E+02  0.42712048192E+02 -0.35706474741E+02  0.14412217433E+03  0.12500000000E+03 0.  0.
</event>
<event>
 4    0  0.2250660E-002  0.3221668E+03  0.7546771E-02  0.1074656E+00
         21   -1    0    0  502  501  0.00000000000E+00  0.00000000000E+00  0.22439735525E+03  0.22439735525E+03  0.00000000000E+00 0. -1.
         21   -1    0    0  501  502 -0.00000000000E+00 -0.00000000000E+00 -0.46253430578E+03  0.46253430578E+03  0.00000000000E+00 0. -1.
         25    1    1    2    0    0  0.26674823835E+02 -0.22823866031E+03  0.81411669856E+02  0.27396585969E+03  0.12500000000E+03 0.  0.
         25    1    1    2    0    0 -0.26674823835E+02  0.22823866031E+03 -0.31954862038E+03  0.41296580134E+03  0.12500000000E+03 0.  0.
</event>
<event>
 4    0  0.2250660E-002  0.2200686E+03  0.7546771E-02  0.1133832E+00
         21   -1    0    0  502  501  0.00000000000E+00  0.00000000000E+00  0.66749790381E+02  0.66749790381E+02  0.00000000000E+00 0.  1.
         21   -1    0    0  501  502 -0.00000000000E+00 -0.00000000000E+00 -0.72554834418E+03  0.72554834418E+03  0.00000000000E+00 0.  1.
         25    1    1    2    0    0 -0.61103377787E+02  0.14240415394E+03 -0.16060411052E+03  0.25579532082E+03  0.12500000000E+03 0.  0.
         25    1    1    2    0    0  0.61103377787E+02 -0.14240415394E+03 -0.49819444328E+03  0.53650281374E+03  0.12500000000E+03 0.  0.
</event>
<event>
 4    0  0.2250660E-002  0.3716733E+03  0.7546771E-02  0.1054055E+00
         21   -1    0    0  502  501  0.00000000000E+00  0.00000000000E+00  0.71791089123E+03  0.71791089123E+03  0.00000000000E+00 0. -1.
         21   -1    0    0  501  502 -0.00000000000E+00 -0.00000000000E+00 -0.19242083227E+03  0.19242083227E+03  0.00000000000E+00 0. -1.
         25    1    1    2    0    0  0.31341775231E+03 -0.15337259324E+03  0.22893584603E+03  0.43564947081E+03  0.12500000000E+03 0.  0.
         25    1    1    2    0    0 -0.31341775231E+03  0.15337259324E+03  0.29655421293E+03  0.47468225270E+03  0.12500000000E+03 0.  0.
</event>
<event>
 4    0  0.2250660E-002  0.2145769E+03  0.7546771E-02  0.1137992E+00
         21   -1    0    0  502  501  0.00000000000E+00  0.00000000000E+00  0.70985395229E+02  0.70985395229E+02  0.00000000000E+00 0.  1.
         21   -1    0    0  501  502 -0.00000000000E+00 -0.00000000000E+00 -0.64862971658E+03  0.64862971658E+03  0.00000000000E+00 0.  1.
         25    1    1    2    0    0  0.10080355381E+02  0.15645482126E+03 -0.16069581213E+03  0.25695888522E+03  0.12500000000E+03 0.  0.
         25    1    1    2    0    0 -0.10080355381E+02 -0.15645482126E+03 -0.41694850922E+03  0.46265622659E+03  0.12500000000E+03 0.  0.
</event>
<event>
 4    0  0.2250660E-002  0.2070552E+03  0.7546771E-02  0.1143919E+00
         21   -1    0    0  502  501  0.00000000000E+00  0.00000000000E+00  0.15200653906E+03  0.15200653906E+03  0.00000000000E+00 0. -1.
         21   -1    0    0  501  502 -0.00000000000E+00 -0.00000000000E+00 -0.28203953754E+03  0.28203953754E+03  0.00000000000E+00 0. -1.
         25    1    1    2    0    0 -0.81085250540E+02  0.14107419697E+03 -0.35929744866E+02  0.20830912959E+03  0.12500000000E+03 0.  0.
         25    1    1    2    0    0  0.81085250540E+02 -0.14107419697E+03 -0.94103253615E+02  0.22573694701E+03  0.12500000000E+03 0.  0.
</event>
<event>
 4    0  0.2250660E-002  0.1897623E+03  0.7546771E-02  0.1158676E+00
         21   -1    0    0  502  501  0.00000000000E+00  0.00000000000E+00  0.41845677382E+03  0.41845677382E+03  0.00000000000E+00 0. -1.
         21   -1    0    0  501  502 -0.00000000000E+00 -0.00000000000E+00 -0.86053647737E+02  0.86053647737E+02  0.00000000000E+00 0. -1.
         25    1    1    2    0    0  0.98385835252E+02  0.10215251790E+03  0.14436576165E+03  0.23786841453E+03  0.12500000000E+03 0.  0.
         25    1    1    2    0    0 -0.98385835252E+02 -0.10215251790E+03  0.18803736443E+03  0.26664200703E+03  0.12500000000E+03 0.  0.
</event>
<event>
 4    0  0.2250660E-002  0.3132039E+03  0.7546771E-02  0.1078820E+00
         21   -1    0    0  502  501  0.00000000000E+00  0.00000000000E+00  0.13356657059E+03  0.13356657059E+03  0.00000000000E+00 0. -1.
         21   -1    0    0  501  502 -0.00000000000E+00 -0.00000000000E+00 -0.73444025015E+03  0.73444025015E+03  0.00000000000E+00 0. -1.
         25    1    1    2    0    0  0.27621702348E+03 -0.50188187390E+01 -0.19176277200E+03  0.35877429302E+03  0.12500000000E+03 0.  0.
         25    1    1    2    0    0 -0.27621702348E+03  0.50188187390E+01 -0.40911090756E+03  0.50923252772E+03  0.12500000000E+03 0.  0.
</event>
<event>
 4    0  0.2250660E-002  0.3701586E+03  0.7546771E-02  0.1054632E+00
         21   -1    0    0  502  501  0.00000000000E+00  0.00000000000E+00  0.23376272162E+03  0.23376272162E+03  0.00000000000E+00 0. -1.
         21   -1    0    0  501  502 -0.00000000000E+00 -0.00000000000E+00 -0.58613886342E+03  0.58613886342E+03  0.00000000000E+00 0. -1.
         25    1    1    2    0    0 -0.21406235597E+03 -0.18334228668E+03  0.50661213035E+02  0.31245582861E+03  0.12500000000E+03 0.  0.
         25    1    1    2    0    0  0.21406235597E+03  0.18334228668E+03 -0.40303735483E+03  0.50744575643E+03  0.12500000000E+03 0.  0.
</event>
<event>
 4    0  0.2250660E-002  0.2029957E+03  0.7546771E-02  0.1147236E+00
         21   -1    0    0  502  501  0.00000000000E+00  0.00000000000E+00  0.25277083263E+03  0.25277083263E+03  0.00000000000E+00 0.  1.
         21   -1    0    0  501  502 -0.00000000000E+00 -0.00000000000E+00 -0.16302218512E+03  0.16302218512E+03  0.00000000000E+00 0.  1.
         25    1    1    2    0    0  0.21581746165E+02 -0.13053588198E+03 -0.47166771872E+02  0.18802949934E+03  0.12500000000E+03 0.  0.
         25    1    1    2    0    0 -0.21581746165E+02  0.13053588198E+03  0.13691541939E+03  0.22776351841E+03  0.12500000000E+03 0.  0.
</event>
<event>
 4    0  0.2250660E-002  0.2026813E+03  0.7546771E-02  0.1147496E+00
         21   -1    0    0  502  501  0.00000000000E+00  0.00000000000E+00  0.61983733261E+02  0.61983733261E+02  0.00000000000E+00 0. -1.
         21   -1    0    0  501  502 -0.00000000000E+00 -0.00000000000E+00 -0.66274979223E+03  0.66274979223E+03  0.00000000000E+00 0.  1.
         25    1    1    2    0    0 -0.14959046229E+03 -0.18368925391E+02 -0.20679752488E+03  0.28478929075E+03  0.12500000000E+03 0.  0.
         25    1    1    2    0    0  0.14959046229E+03  0.18368925391E+02 -0.39396853408E+03  0.43994423474E+03  0.12500000000E+03 0.  0.
</event>
<event>
 4    0  0.2250660E-002  0.1982334E+03  0.7546771E-02  0.1151238E+00
         21   -1    0    0  502  501  0.00000000000E+00  0.00000000000E+00  0.17886816915E+02  0.17886816915E+02  0.00000000000E+00 0. -1.
         21   -1    0    0  501  502 -0.00000000000E+00 -0.00000000000E+00 -0.21969518343E+04  0.21969518343E+04  0.00000000000E+00 0. -1.
         25    1    1    2    0    0  0.46234475336E+02 -0.12707967561E+03 -0.67960014461E+03  0.70410810762E+03  0.12500000000E+03 0.  0.
         25    1    1    2    0    0 -0.46234475336E+02  0.12707967561E+03 -0.14994648728E+04  0.15107305436E+04  0.12500000000E+03 0.  0.
</event>
<event>
 4    0  0.2250660E-002  0.2054262E+03  0.7546771E-02  0.1145240E+00
         21   -1    0    0  502  501  0.00000000000E+00  0.00000000000E+00  0.71729308683E+03  0.71729308683E+03  0.00000000000E+00 0.  1.
         21   -1    0    0  501  502 -0.00000000000E+00 -0.00000000000E+00 -0.58832164206E+02  0.58832164206E+02  0.00000000000E+00 0.  1.
         25    1    1    2    0    0 -0.12855416658E+03 -0.32658151859E+01  0.13996511986E+03  0.22749082195E+03  0.12500000000E+03 0.  0.
         25    1    1    2    0    0  0.12855416658E+03  0.32658151859E+01  0.51849580276E+03  0.54863442908E+03  0.12500000000E+03 0.  0.
</event>
<event>
 4    0  0.2250660E-002  0.1970923E+03  0.7546771E-02  0.1152216E+00
         21   -1    0    0  502  501  0.00000000000E+00  0.00000000000E+00  0.11517696116E+03  0.11517696116E+03  0.00000000000E+00 0.  1.
         21   -1    0    0  501  502 -0.00000000000E+00 -0.00000000000E+00 -0.33726681355E+03  0.33726681355E+03  0.00000000000E+00 0.  1.
         25    1    1    2    0    0  0.10186876572E+03 -0.62943633522E+01 -0.24092107428E+03  0.28997384101E+03  0.12500000000E+03 0.  0.
         25    1    1    2    0    0 -0.10186876572E+03  0.62943633522E+01  0.18831221877E+02  0.16246993370E+03  0.12500000000E+03 0.  0.
</event>
<event>
 4    0  0.2250660E-002  0.2164414E+03  0.7546771E-02  0.1136564E+00
         21   -1    0    0  502  501  0.00000000000E+00  0.00000000000E+00  0.41946165692E+02  0.41946165692E+02  0.00000000000E+00 0. -1.
         21   -1    0    0  501  502 -0.00000000000E+00 -0.00000000000E+00 -0.11168336153E+04  0.11168336153E+04  0.00000000000E+00 0. -1.
         25    1    1    2    0    0 -0.33095530141E+02 -0.12262366583E+03 -0.86627666018E+03  0.88441626483E+03  0.12500000000E+03 0.  0.
         25    1    1    2    0    0  0.33095530141E+02  0.12262366583E+03 -0.20861078946E+03  0.27436351619E+03  0.12500000000E+03 0.  0.
</event>
<event>
 4    0  0.2250660E-002  0.1885123E+03  0.7546771E-02  0.1159810E+00
         21   -1    0    0  502  501  0.00000000000E+00  0.00000000000E+00  0.54431710381E+03  0.54431710381E+03  0.00000000000E+00 0.  1.
         21   -1    0    0  501  502 -0.00000000000E+00 -0.00000000000E+00 -0.65287076214E+02  0.65287076214E+02  0.00000000000E+00 0.  1.
         25    1    1    2    0    0  0.81793041219E+02  0.71983313967E+02  0.38449599719E+03  0.41872887522E+03  0.12500000000E+03 0.  0.
         25    1    1    2    0    0 -0.81793041219E+02 -0.71983313967E+02  0.94534030400E+02  0.19087530481E+03  0.12500000000E+03 0.  0.
</event>
<event>
 4    0  0.2250660E-002  0.2176921E+03  0.7546771E-02  0.1135615E+00
         21   -1    0    0  502  501  0.00000000000E+00  0.00000000000E+00  0.83245514468E+02  0.83245514468E+02  0.00000000000E+00 0. -1.
         21   -1    0    0  501  502 -0.00000000000E+00 -0.00000000000E+00 -0.56927824117E+03  0.56927824117E+03  0.00000000000E+00 0. -1.
         25    1    1    2    0    0  0.94305060750E+01  0.76332836283E+02 -0.20550226119E+01  0.14678167276E+03  0.12500000000E+03 0.  0.
         25    1    1    2    0    0 -0.94305060750E+01 -0.76332836283E+02 -0.48397770408E+03  0.50574208288E+03  0.12500000000E+03 0.  0.
</event>
<event>
 4    0  0.2250660E-002  0.2410738E+03  0.7546771E-02  0.1119080E+00
         21   -1    0    0  502  501  0.00000000000E+00  0.00000000000E+00  0.17186970568E+04  0.17186970568E+04  0.00000000000E+00 0. -1.
         21   -1    0    0  501  502 -0.00000000000E+00 -0.00000000000E+00 -0.33814336194E+02  0.33814336194E+02  0.00000000000E+00 0. -1.
         25    1    1    2    0    0 -0.84100809711E+01 -0.16216002327E+02  0.96129573725E+02  0.15874376567E+03  0.12500000000E+03 0.  0.
         25    1    1    2    0    0  0.84100809711E+01  0.16216002327E+02  0.15887531469E+04  0.15937676273E+04  0.12500000000E+03 0.  0.
</event>
<event>
 4    0  0.2250660E-002  0.2614564E+03  0.7546771E-02  0.1106271E+00
         21   -1    0    0  502  501  0.00000000000E+00  0.00000000000E+00  0.21487817935E+03  0.21487817935E+03  0.00000000000E+00 0.  1.
         21   -1    0    0  501  502 -0.00000000000E+00 -0.00000000000E+00 -0.31813129156E+03  0.31813129156E+03  0.00000000000E+00 0.  1.
         25    1    1    2    0    0  0.10827809243E+03 -0.19256524383E+03 -0.11551820058E+03  0.27888164711E+03  0.12500000000E+03 0.  0.
         25    1    1    2    0    0 -0.10827809243E+03  0.19256524383E+03  0.12265088374E+02  0.25412782379E+03  0.12500000000E+03 0.  0.
</event>
<event>
 4    0  0.2250660E-002  0.1983105E+03  0.7546771E-02  0.1151172E+00
         21   -1    0    0  502  501  0.00000000000E+00  0.00000000000E+00  0.20715484025E+03  0.20715484025E+03  0.00000000000E+00 0.  1.
         21   -1    0    0  501  502 -0.00000000000E+00 -0.00000000000E+00 -0.18984380417E+03  0.18984380417E+03  0.00000000000E+00 0.  1.
         25    1    1    2    0    0 -0.13106816832E+03 -0.26442897666E+02 -0.67732085657E+02  0.19516845803E+03  0.12500000000E+03 0.  0.
         25    1    1    2    0    0  0.13106816832E+03  0.26442897666E+02  0.85043121739E+02  0.20183018639E+03  0.12500000000E+03 0.  0.
</event>
<event>
 4    0  0.2250660E-002  0.2800763E+03  0.7546771E-02  0.1095647E+00
         21   -1    0    0  502  501  0.00000000000E+00  0.00000000000E+00  0.22508976553E+03  0.22508976553E+03  0.00000000000E+00 0.  1.
         21   -1    0    0  501  502 -0.00000000000E+00 -0.00000000000E+00 -0.34849540373E+03  0.34849540373E+03  0.00000000000E+00 0.  1.
         25    1    1    2    0    0 -0.10946461610E+02  0.11525591981E+03 -0.28932600989E+03  0.33576523357E+03  0.12500000000E+03 0.  0.
         25    1    1    2    0    0  0.10946461610E+02 -0.11525591981E+03  0.16592037168E+03  0.23781993569E+03  0.12500000000E+03 0.  0.
</event>
<event>
 4    0  0.2250660E-002  0.1830053E+03  0.7546771E-02  0.1164926E+00
         21   -1    0    0  502  501  0.00000000000E+00  0.00000000000E+00  0.50228487705E+03  0.50228487705E+03  0.00000000000E+00 0.  1.
         21   -1    0    0  501  502 -0.00000000000E+00 -0.00000000000E+00 -0.66677209119E+02  0.66677209119E+02  0.00000000000E+00 0.  1.
         25    1    1    2    0    0 -0.54150884545E+02  0.12210976769E+03  0.22523297811E+03  0.29016893027E+03  0.12500000000E+03 0.  0.
         25    1    1    2    0    0  0.54150884545E+02 -0.12210976769E+03  0.21037468981E+03  0.27879315590E+03  0.12500000000E+03 0.  0.
</event>
<event>
 4    0  0.2250660E-002  0.2080636E+03  0.7546771E-02  0.1143109E+00
         21   -1    0    0  502  501  0.00000000000E+00  0.00000000000E+00  0.11227580656E+03  0.11227580656E+03  0.00000000000E+00 0. -1.
         21   -1    0    0  501  502 -0.00000000000E+00 -0.00000000000E+00 -0.38557263196E+03  0.38557263196E+03  0.00000000000E+00 0. -1.
         25    1    1    2    0    0 -0.15243767122E+03  0.57977506084E+02 -0.97571404722E+02  0.22747266614E+03  0.12500000000E+03 0.  0.
         25    1    1    2    0    0  0.15243767122E+03 -0.57977506084E+02 -0.17572542068E+03  0.27037577239E+03  0.12500000000E+03 0.  0.
</event>
<event>
 4    0  0.2250660E-002  0.1926166E+03  0.7546771E-02  0.1156122E+00
         21   -1    0    0  502  501  0.00000000000E+00  0.00000000000E+00  0.30318088734E+02  0.30318088734E+02  0.00000000000E+00 0.  1.
         21   -1    0    0  501  502 -0.00000000000E+00 -0.00000000000E+00 -0.12237305591E+04  0.12237305591E+04  0.00000000000E+00 0.  1.
         25    1    1    2    0    0 -0.11786100528E+03  0.74541128833E+02 -0.74332384469E+03  0.76655262999E+03  0.12500000000E+03 0.  0.
         25    1    1    2    0    0  0.11786100528E+03 -0.74541128833E+02 -0.45008862564E+03  0.48749601782E+03  0.12500000000E+03 0.  0.
</event>
<event>
 4    0  0.2250660E-002  0.1927599E+03  0.7546771E-02  0.1155995E+00
         21   -1    0    0  502  501  0.00000000000E+00  0.00000000000E+00  0.21860558680E+04  0.21860558680E+04  0.00000000000E+00 0.  1.
         21   -1    0    0  501  502 -0.00000000000E+00 -0.00000000000E+00 -0.16996989692E+02  0.16996989692E+02  0.00000000000E+00 0.  1.
         25    1    1    2    0    0 -0.30778599011E+02  0.10813165716E+03  0.16233796307E+04  0.16320619482E+04  0.12500000000E+03 0.  0.
         25    1    1    2    0    0  0.30778599011E+02 -0.10813165716E+03  0.54567924767E+03  0.57099090954E+03  0.12500000000E+03 0.  0.
</event>
<event>
 4    0  0.2250660E-002  0.2193873E+03  0.7546771E-02  0.1134341E+00
         21   -1    0    0  502  501  0.00000000000E+00  0.00000000000E+00  0.58501200014E+02  0.58501200014E+02  0.00000000000E+00 0.  1.
         21   -1    0    0  501  502 -0.00000000000E+00 -0.00000000000E+00 -0.82273183963E+03  0.82273183963E+03  0.00000000000E+00 0.  1.
         25    1    1    2    0    0 -0.86897163240E+02  0.14126849003E+03 -0.24013018703E+03  0.31748292864E+03  0.12500000000E+03 0.  0.
         25    1    1    2    0    0  0.86897163240E+02 -0.14126849003E+03 -0.52410045259E+03  0.56375011101E+03  0.12500000000E+03 0.  0.
</event>
<event>
 4    0  0.2250660E-002  0.1683590E+03  0.7546771E-02  0.1179570E+00
         21   -1    0    0  502  501  0.00000000000E+00  0.00000000000E+00  0.54673212696E+03  0.54673212696E+03  0.00000000000E+00 0.  1.
         21   -1    0    0  501  502 -0.00000000000E+00 -0.00000000000E+00 -0.51843937442E+02  0.51843937442E+02  0.00000000000E+00 0.  1.
         25    1    1    2    0    0  0.62919000593E+02  0.92735400610E+02  0.22488151586E+03  0.28063383855E+03  0.12500000000E+03 0.  0.
         25    1    1    2    0    0 -0.62919000593E+02 -0.92735400610E+02  0.27000667365E+03  0.31794222585E+03  0.12500000000E+03 0.  0.
</event>
<event>
 4    0  0.2250660E-002  0.2173194E+03  0.7546771E-02  0.1135897E+00
         21   -1    0    0  502  501  0.00000000000E+00  0.00000000000E+00  0.27718861418E+03  0.27718861418E+03  0.00000000000E+00 0. -1.
         21   -1    0    0  501  502 -0.00000000000E+00 -0.00000000000E+00 -0.17038110637E+03  0.17038110637E+03  0.00000000000E+00 0. -1.
         25    1    1    2    0    0  0.81189384330E+02 -0.15690994243E+03  0.33061109045E+02  0.21893031561E+03  0.12500000000E+03 0.  0.
         25    1    1    2    0    0 -0.81189384330E+02  0.15690994243E+03  0.73746398762E+02  0.22863940494E+03  0.12500000000E+03 0.  0.
</event>
<event>
 4    0  0.2250660E-002  0.1751765E+03  0.7546771E-02  0.1172555E+00
         21   -1    0    0  502  501  0.00000000000E+00  0.00000000000E+00  0.27229820999E+02  0.27229820999E+02  0.00000000000E+00 0.  1.
         21   -1    0    0  501  502 -0.00000000000E+00 -0.00000000000E+00 -0.11269563737E+04  0.11269563737E+04  0.00000000000E+00 0.  1.
         25    1    1    2    0    0 -0.92215123544E+01 -0.51945881442E+02 -0.91490372556E+03  0.92490931336E+03  0.12500000000E+03 0.  0.
         25    1    1    2    0    0  0.92215123544E+01  0.51945881442E+02 -0.18482282717E+03  0.22927688137E+03  0.12500000000E+03 0.  0.
</event>
<event>
 4    0  0.2250660E-002  0.4082304E+03  0.7546771E-02  0.1040966E+00
         21   -1    0    0  502  501  0.00000000000E+00  0.00000000000E+00  0.50496665770E+03  0.50496665770E+03  0.00000000000E+00 0. -1.
         21   -1    0    0  501  502 -0.00000000000E+00 -0.00000000000E+00 -0.33002592484E+03  0.33002592484E+03  0.00000000000E+00 0. -1.
         25    1    1    2    0    0 -0.64176491366E+02  0.11272069461E+03  0.46212194181E+03  0.49599018754E+03  0.12500000000E+03 0.  0.
         25    1    1    2    0    0  0.64176491366E+02 -0.11272069461E+03 -0.28718120895E+03  0.33900239499E+03  0.12500000000E+03 0.  0.
</event>
<event>
 4    0  0.2250660E-002  0.1826028E+03  0.7546771E-02  0.1165308E+00
         21   -1    0    0  502  501  0.00000000000E+00  0.00000000000E+00  0.58973549206E+02  0.58973549206E+02  0.00000000000E+00 0.  1.
         21   -1    0    0  501  502 -0.00000000000E+00 -0.00000000000E+00 -0.56540230282E+03  0.56540230282E+03  0.00000000000E+00 0.  1.
         25    1    1    2    0    0 -0.84830201574E+01 -0.13080476799E+03 -0.21359860226E+03  0.28005572990E+03  0.12500000000E+03 0.  0.
         25    1    1    2    0    0  0.84830201574E+01  0.13080476799E+03 -0.29283015135E+03  0.34432012213E+03  0.12500000000E+03 0.  0.
</event>
<event>
 4    0  0.2250660E-002  0.2027828E+03  0.7546771E-02  0.1147412E+00
         21   -1    0    0  502  501  0.00000000000E+00  0.00000000000E+00  0.14188263887E+03  0.14188263887E+03  0.00000000000E+00 0. -1.
         21   -1    0    0  501  502 -0.00000000000E+00 -0.00000000000E+00 -0.28982321508E+03  0.28982321508E+03  0.00000000000E+00 0. -1.
         25    1    1    2    0    0 -0.38404817529E+02 -0.31314243938E+02 -0.23554428167E+03  0.27122245577E+03  0.12500000000E+03 0.  0.
         25    1    1    2    0    0  0.38404817529E+02  0.31314243938E+02  0.87603705460E+02  0.16048339819E+03  0.12500000000E+03 0.  0.
</event>
<event>
 4    0  0.2250660E-002  0.3364955E+03  0.7546771E-02  0.1068298E+00
         21   -1    0    0  502  501  0.00000000000E+00  0.00000000000E+00  0.11182326584E+03  0.11182326584E+03  0.00000000000E+00 0. -1.
         21   -1    0    0  501  502 -0.00000000000E+00 -0.00000000000E+00 -0.10125730640E+04  0.10125730640E+04  0.00000000000E+00 0. -1.
         25    1    1    2    0    0  0.30358751302E+03 -0.16150261675E+02 -0.57059910747E+03  0.65850933969E+03  0.12500000000E+03 0.  0.
         25    1    1    2    0    0 -0.30358751302E+03  0.16150261675E+02 -0.33015069066E+03  0.46588699011E+03  0.12500000000E+03 0.  0.
</event>
<event>
 4    0  0.2250660E-002  0.1712851E+03  0.7546771E-02  0.1176514E+00
         21   -1    0    0  502  501  0.00000000000E+00  0.00000000000E+00  0.13000695497E+04  0.13000695497E+04  0.00000000000E+00 0. -1.
         21   -1    0    0  501  502 -0.00000000000E+00 -0.00000000000E+00 -0.22566930228E+02  0.22566930228E+02  0.00000000000E+00 0. -1.
         25    1    1    2    0    0 -0.26103919604E+02  0.65546998111E+02  0.99961334460E+03  0.10098661606E+04  0.12500000000E+03 0.  0.
         25    1    1    2    0    0  0.26103919604E+02 -0.65546998111E+02  0.27788927491E+03  0.31277031939E+03  0.12500000000E+03 0.  0.
</event>
<event>
 4    0  0.2250660E-002  0.1626277E+03  0.7546771E-02  0.1185762E+00
         21   -1    0    0  502  501  0.00000000000E+00  0.00000000000E+00  0.18304373867E+03  0.18304373867E+03  0.00000000000E+00 0. -1.
         21   -1    0    0  501  502 -0.00000000000E+00 -0.00000000000E+00 -0.14448873441E+03  0.14448873441E+03  0.00000000000E+00 0. -1.
         25    1    1    2    0    0 -0.65590746480E+02 -0.24282857467E+02  0.96829367611E+02  0.17289514054E+03  0.12500000000E+03 0.  0.
         25    1    1    2    0    0  0.65590746480E+02  0.24282857467E+02 -0.58274363348E+02  0.15463733254E+03  0.12500000000E+03 0.  0.
</event>
<event>
 4    0  0.2250660E-002  0.2714170E+03  0.7546771E-02  0.1100471E+00
         21   -1    0    0  502  501  0.00000000000E+00  0.00000000000E+00  0.87073749360E+03  0.87073749360E+03  0.00000000000E+00 0. -1.
         21   -1    0    0  501  502 -0.00000000000E+00 -0.00000000000E+00 -0.84603230996E+02  0.84603230996E+02  0.00000000000E+00 0.  1.
         25    1    1    2    0    0  0.30481813467E+02 -0.23897223598E+03  0.39713203048E+03  0.48101530137E+03  0.12500000000E+03 0.  0.
         25    1    1    2    0    0 -0.30481813467E+02  0.23897223598E+03  0.38900223213E+03  0.47432542323E+03  0.12500000000E+03 0.  0.
</event>
<event>
 4    0  0.2250660E-002  0.1852013E+03  0.7546771E-02  0.1162862E+00
         21   -1    0    0  502  501  0.00000000000E+00  0.00000000000E+00  0.14183082943E+03  0.14183082943E+03  0.00000000000E+00 0. -1.
         21   -1    0    0  501  502 -0.00000000000E+00 -0.00000000000E+00 -0.24183394974E+03  0.24183394974E+03  0.00000000000E+00 0. -1.
         25    1    1    2    0    0 -0.12089773750E+03  0.57962224716E+02 -0.22623621821E+02  0.18469626604E+03  0.12500000000E+03 0.  0.
         25    1    1    2    0    0  0.12089773750E+03 -0.57962224716E+02 -0.77379498490E+02  0.19896851312E+03  0.12500000000E+03 0.  0.
</event>
<event>
 4    0  0.2250660E-002  0.2035616E+03  0.7546771E-02  0.1146768E+00
         21   -1    0    0  502  501  0.00000000000E+00  0.00000000000E+00  0.75108309533E+03  0.75108309533E+03  0.00000000000E+00 0.  1.
         21   -1    0    0  501  502 -0.00000000000E+00 -0.00000000000E+00 -0.55170119079E+02  0.55170119079E+02  0.00000000000E+00 0.  1.
         25    1    1    2    0    0  0.39503760904E+02  0.13289840052E+03  0.50871797550E+03  0.54188699060E+03  0.12500000000E+03 0.  0.
         25    1    1    2    0    0 -0.39503760904E+02 -0.13289840052E+03  0.18719500075E+03  0.26436622381E+03  0.12500000000E+03 0.  0.
</event>
<event>
 4    0  0.2250660E-002  0.2478884E+03  0.7546771E-02  0.1114647E+00
         21   -1    0    0  502  501  0.00000000000E+00  0.00000000000E+00  0.93243672193E+03  0.93243672193E+03  0.00000000000E+00 0. -1.
         21   -1    0    0  501  502 -0.00000000000E+00 -0.00000000000E+00 -0.65901173786E+02  0.65901173786E+02  0.00000000000E+00 0. -1.
         25    1    1    2    0    0  0.39477421288E+02  0.14525725013E+03  0.12678045809E+03  0.23314463335E+03  0.12500000000E+03 0.  0.
         25    1    1    2    0    0 -0.39477421288E+02 -0.14525725013E+03  0.73975509006E+03  0.76519326237E+03  0.12500000000E+03 0.  0.
</event>
<event>
 4    0  0.2250660E-002  0.3440587E+03  0.7546771E-02  0.1065080E+00
         21   -1    0    0  502  501  0.00000000000E+00  0.00000000000E+00  0.17999928991E+04  0.17999928991E+04  0.00000000000E+00 0.  1.
         21   -1    0    0  501  502 -0.00000000000E+00 -0.00000000000E+00 -0.65764928698E+02  0.65764928698E+02  0.00000000000E+00 0.  1.
         25    1    1    2    0    0  0.22643348292E+03 -0.17131506116E+03  0.12704691783E+04  0.13077988781E+04  0.12500000000E+03 0.  0.
         25    1    1    2    0    0 -0.22643348292E+03  0.17131506116E+03  0.46375879209E+03  0.55795894975E+03  0.12500000000E+03 0.  0.
</event>
<event>
 4    0  0.2250660E-002  0.2120403E+03  0.7546771E-02  0.1139960E+00
         21   -1    0    0  502  501  0.00000000000E+00  0.00000000000E+00  0.40745766482E+03  0.40745766482E+03  0.00000000000E+00 0.  1.
         21   -1    0    0  501  502 -0.00000000000E+00 -0.00000000000E+00 -0.11034543894E+03  0.11034543894E+03  0.00000000000E+00 0.  1.
         25    1    1    2    0    0 -0.52224166380E+02 -0.16034920393E+03  0.11198993747E+03  0.23792010602E+03  0.12500000000E+03 0.  0.
         25    1    1    2    0    0  0.52224166380E+02  0.16034920393E+03  0.18512228841E+03  0.27988299774E+03  0.12500000000E+03 0.  0.
</event>
<event>
 4    0  0.2250660E-002  0.1655919E+03  0.7546771E-02  0.1182524E+00
         21   -1    0    0  502  501  0.00000000000E+00  0.00000000000E+00  0.25608642976E+03  0.25608642976E+03  0.00000000000E+00 0. -1.
         21   -1    0    0  501  502 -0.00000000000E+00 -0.00000000000E+00 -0.10707592450E+03  0.10707592450E+03  0.00000000000E+00 0. -1.
         25    1    1    2    0    0  0.70781632674E+02  0.13392488560E+02  0.16363250987E+03  0.21815131574E+03  0.12500000000E+03 0.  0.
         25    1    1    2    0    0 -0.70781632674E+02 -0.13392488560E+02 -0.14622004614E+02  0.14501103852E+03  0.12500000000E+03 0.  0.
</event>
<event>
 4    0  0.2250660E-002  0.2064473E+03  0.7546771E-02  0.1144411E+00
         21   -1    0    0  502  501  0.00000000000E+00  0.00000000000E+00  0.31562020390E+03  0.31562020390E+03  0.00000000000E+00 0.  1.
         21   -1    0    0  501  502 -0.00000000000E+00 -0.00000000000E+00 -0.13503722497E+03  0.13503722497E+03  0.00000000000E+00 0.  1.
         25    1    1    2    0    0 -0.13181683634E+03 -0.89544608430E+02  0.46611838104E+02  0.20782583740E+03  0.12500000000E+03 0.  0.
         25    1    1    2    0    0  0.13181683634E+03  0.89544608430E+02  0.13397114083E+03  0.24283159147E+03  0.12500000000E+03 0.  0.
</event>
<event>
 4    0  0.2250660E-002  0.2018385E+03  0.7546771E-02  0.1148197E+00
         21   -1    0    0  502  501  0.00000000000E+00  0.00000000000E+00  0.88053010930E+03  0.88053010930E+03  0.00000000000E+00 0. -1.
         21   -1    0    0  501  502 -0.00000000000E+00 -0.00000000000E+00 -0.46266213380E+02  0.46266213380E+02  0.00000000000E+00 0. -1.
         25    1    1    2    0    0  0.71120894861E+02 -0.10004073577E+03  0.18699919141E+03  0.25624212786E+03  0.12500000000E+03 0.  0.
         25    1    1    2    0    0 -0.71120894861E+02  0.10004073577E+03  0.64726470451E+03  0.67055419483E+03  0.12500000000E+03 0.  0.
</event>
<event>
 4    0  0.2250660E-002  0.1943047E+03  0.7546771E-02  0.1154635E+00
         21   -1    0    0  502  501  0.00000000000E+00  0.00000000000E+00  0.30123169902E+02  0.30123169902E+02  0.00000000000E+00 0.  1.
         21   -1    0    0  501  502 -0.00000000000E+00 -0.00000000000E+00 -0.12533310627E+04  0.12533310627E+04  0.00000000000E+00 0.  1.
         25    1    1    2    0    0  0.55589205878E+02 -0.79415459829E+02 -0.98427107544E+03  0.99690096048E+03  0.12500000000E+03 0.  0.
         25    1    1    2    0    0 -0.55589205878E+02  0.79415459829E+02 -0.23893681735E+03  0.28655327211E+03  0.12500000000E+03 0.  0.
</event>
<event>
 4    0  0.2250660E-002  0.2410850E+03  0.7546771E-02  0.1119072E+00
         21   -1    0    0  502  501  0.00000000000E+00  0.00000000000E+00  0.36540784055E+03  0.36540784055E+03  0.00000000000E+00 0. -1.
         21   -1    0    0  501  502 -0.00000000000E+00 -0.00000000000E+00 -0.15906050298E+03  0.15906050298E+03  0.00000000000E+00 0. -1.
         25    1    1    2    0    0 -0.51239481888E+02  0.18669452507E+03  0.18021521390E+03  0.29254547256E+03  0.12500000000E+03 0.  0.
         25    1    1    2    0    0  0.51239481888E+02 -0.18669452507E+03  0.26132123676E+02  0.23192287098E+03  0.12500000000E+03 0.  0.
</event>
<event>
 4    0  0.2250660E-002  0.2101133E+03  0.7546771E-02  0.1141476E+00
         21   -1    0    0  502  501  0.00000000000E+00  0.00000000000E+00  0.18442888966E+03  0.18442888966E+03  0.00000000000E+00 0.  1.
         21   -1    0    0  501  502 -0.00000000000E+00 -0.00000000000E+00 -0.23937467368E+03  0.23937467368E+03  0.00000000000E+00 0.  1.
         25    1    1    2    0    0 -0.14358868572E+03 -0.41324785090E+02  0.51919205039E+02  0.20160866147E+03  0.12500000000E+03 0.  0.
         25    1    1    2    0    0  0.14358868572E+03  0.41324785090E+02 -0.10686498905E+03  0.22219490187E+03  0.12500000000E+03 0.  0.
</event>
<event>
 4    0  0.2250660E-002  0.4250836E+03  0.7546771E-02  0.1035424E+00
         21   -1    0    0  502  501  0.00000000000E+00  0.00000000000E+00  0.21241019217E+03  0.21241019217E+03  0.00000000000E+00 0.  1.
         21   -1    0    0  501  502 -0.00000000000E+00 -0.00000000000E+00 -0.85069395789E+03  0.85069395789E+03  0.00000000000E+00 0.  1.
         25    1    1    2    0    0  0.21830157630E+03 -0.21349576837E+03 -0.65429221502E+03  0.73277508416E+03  0.12500000000E+03 0.  0.
         25    1    1    2    0    0 -0.21830157630E+03  0.21349576837E+03  0.16008449310E+02  0.33032906590E+03  0.12500000000E+03 0.  0.
</event>
<event>
 4    0  0.2250660E-002  0.2278046E+03  0.7546771E-02  0.1128195E+00
         21   -1    0    0  502  501  0.00000000000E+00  0.00000000000E+00  0.31876987996E+03  0.31876987996E+03  0.00000000000E+00 0.  1.
         21   -1    0    0  501  502 -0.00000000000E+00 -0.00000000000E+00 -0.16279746202E+03  0.16279746202E+03  0.00000000000E+00 0.  1.
         25    1    1    2    0    0  0.56622619741E+02 -0.15959303303E+03  0.17009395628E+03  0.27061598478E+03  0.12500000000E+03 0.  0.
         25    1    1    2    0    0 -0.56622619741E+02  0.15959303303E+03 -0.14121538349E+02  0.21095135719E+03  0.12500000000E+03 0.  0.
</event>
<event>
 4    0  0.2250660E-002  0.2675828E+03  0.7546771E-02  0.1102671E+00
         21   -1    0    0  502  501  0.00000000000E+00  0.00000000000E+00  0.94257596800E+02  0.94257596800E+02  0.00000000000E+00 0. -1.
         21   -1    0    0  501  502 -0.00000000000E+00 -0.00000000000E+00 -0.75962608398E+03  0.75962608398E+03  0.00000000000E+00 0.  1.
         25    1    1    2    0    0 -0.17619113748E+03  0.98775106714E+02 -0.52923957692E+03  0.58010289468E+03  0.12500000000E+03 0.  0.
         25    1    1    2    0    0  0.17619113748E+03 -0.98775106714E+02 -0.13612891026E+03  0.27378078611E+03  0.12500000000E+03 0.  0.
</event>
<event>
 4    0  0.2250660E-002  0.2441425E+03  0.7546771E-02  0.1117064E+00
         21   -1    0    0  502  501  0.00000000000E+00  0.00000000000E+00  0.48148217964E+03  0.48148217964E+03  0.00000000000E+00 0.  1.
         21   -1    0    0  501  502 -0.00000000000E+00 -0.00000000000E+00 -0.12379598568E+03  0.12379598568E+03  0.00000000000E+00 0.  1.
         25    1    1    2    0    0  0.20618859196E+02  0.16973569833E+03  0.28318595768E+02  0.21368735926E+03  0.12500000000E+03 0.  0.
         25    1    1    2    0    0 -0.20618859196E+02 -0.16973569833E+03  0.32936759819E+03  0.39159080605E+03  0.12500000000E+03 0.  0.
</event>
<event>
 4    0  0.2250660E-002  0.3678113E+03  0.7546771E-02  0.1055533E+00
         21   -1    0    0  502  501  0.00000000000E+00  0.00000000000E+00  0.24388395751E+03  0.24388395751E+03  0.00000000000E+00 0. -1.
         21   -1    0    0  501  502 -0.00000000000E+00 -0.00000000000E+00 -0.55471123893E+03  0.55471123893E+03  0.00000000000E+00 0. -1.
         25    1    1    2    0    0  0.14195729965E+03  0.21958383021E+03  0.90449368439E+02  0.30360339535E+03  0.12500000000E+03 0.  0.
         25    1    1    2    0    0 -0.14195729965E+03 -0.21958383021E+03 -0.40127664986E+03  0.49499180108E+03  0.12500000000E+03 0.  0.
</event>
<event>
 4    0  0.2250660E-002  0.2108955E+03  0.7546771E-02  0.1140859E+00
         21   -1    0    0  502  501  0.00000000000E+00  0.00000000000E+00  0.18427237623E+02  0.18427237623E+02  0.00000000000E+00 0. -1.
         21   -1    0    0  501  502 -0.00000000000E+00 -0.00000000000E+00 -0.24136514137E+04  0.24136514137E+04  0.00000000000E+00 0. -1.
         25    1    1    2    0    0 -0.55699204364E+02  0.14602891801E+03 -0.15811787765E+04  0.15937936408E+04  0.12500000000E+03 0.  0.
         25    1    1    2    0    0  0.55699204364E+02 -0.14602891801E+03 -0.81404539960E+03  0.83828501053E+03  0.12500000000E+03 0.  0.
</event>
<event>
 4    0  0.2250660E-002  0.2184328E+03  0.7546771E-02  0.1135057E+00
         21   -1    0    0  502  501  0.00000000000E+00  0.00000000000E+00  0.42644377515E+03  0.42644377515E+03  0.00000000000E+00 0. -1.
         21   -1    0    0  501  502 -0.00000000000E+00 -0.00000000000E+00 -0.11188551472E+03  0.11188551472E+03  0.00000000000E+00 0. -1.
         25    1    1    2    0    0 -0.23566931997E+02 -0.69989623151E+02 -0.43823545613E+02  0.15165569815E+03  0.12500000000E+03 0.  0.
         25    1    1    2    0    0  0.23566931997E+02  0.69989623151E+02  0.35838180604E+03  0.38667359172E+03  0.12500000000E+03 0.  0.
</event>
<event>
 4    0  0.2250660E-002  0.2291887E+03  0.7546771E-02  0.1127212E+00
         21   -1    0    0  502  501  0.00000000000E+00  0.00000000000E+00  0.42327647606E+03  0.42327647606E+03  0.00000000000E+00 0. -1.
         21   -1    0    0  501  502 -0.00000000000E+00 -0.00000000000E+00 -0.12409724038E+03  0.12409724038E+03  0.00000000000E+00 0. -1.
         25    1    1    2    0    0 -0.81326178142E+02 -0.70513603875E+02  0.33959292671E+03  0.37753737756E+03  0.12500000000E+03 0.  0.
         25    1    1    2    0    0  0.81326178142E+02  0.70513603875E+02 -0.40413691032E+02  0.16983633888E+03  0.12500000000E+03 0.  0.
</event>
<event>
 4    0  0.2250660E-002  0.2096457E+03  0.7546771E-02  0.1141847E+00
         21   -1    0    0  502  501  0.00000000000E+00  0.00000000000E+00  0.60886257028E+03  0.60886257028E+03  0.00000000000E+00 0. -1.
         21   -1    0    0  501  502 -0.00000000000E+00 -0.00000000000E+00 -0.72185976347E+02  0.72185976347E+02  0.00000000000E+00 0. -1.
         25    1    1    2    0    0 -0.23904274552E+02  0.38355495328E+02  0.50049028669E+01  0.13301356102E+03  0.12500000000E+03 0.  0.
         25    1    1    2    0    0  0.23904274552E+02 -0.38355495328E+02  0.53167169106E+03  0.54803498560E+03  0.12500000000E+03 0.  0.
</event>
<event>
 4    0  0.2250660E-002  0.1903211E+03  0.7546771E-02  0.1158172E+00
         21   -1    0    0  502  501  0.00000000000E+00  0.00000000000E+00  0.24478473321E+03  0.24478473321E+03  0.00000000000E+00 0. -1.
         21   -1    0    0  501  502 -0.00000000000E+00 -0.00000000000E+00 -0.14797538322E+03  0.14797538322E+03  0.00000000000E+00 0. -1.
         25    1    1    2    0    0 -0.14134287352E+03 -0.56029774502E+01  0.73423515695E+02  0.20254681905E+03  0.12500000000E+03 0.  0.
         25    1    1    2    0    0  0.14134287352E+03  0.56029774502E+01  0.23385834290E+02  0.19021329737E+03  0.12500000000E+03 0.  0.
</event>
<event>
 4    0  0.2250660E-002  0.1612410E+03  0.7546771E-02  0.1187303E+00
         21   -1    0    0  502  501  0.00000000000E+00  0.00000000000E+00  0.50450740480E+03  0.50450740480E+03  0.00000000000E+00 0.  1.
         21   -1    0    0  501  502 -0.00000000000E+00 -0.00000000000E+00 -0.51532735350E+02  0.51532735350E+02  0.00000000000E+00 0.  1.
         25    1    1    2    0    0  0.57074213648E+01 -0.10148981252E+03  0.23751309746E+03  0.28700213966E+03  0.12500000000E+03 0.  0.
         25    1    1    2    0    0 -0.57074213648E+01  0.10148981252E+03  0.21546157199E+03  0.26903800049E+03  0.12500000000E+03 0.  0.
</event>
<event>
 4    0  0.2250660E-002  0.3402087E+03  0.7546771E-02  0.1066707E+00
         21   -1    0    0  502  501  0.00000000000E+00  0.00000000000E+00  0.83318421408E+02  0.83318421408E+02  0.00000000000E+00 0. -1.
         21   -1    0    0  501  502 -0.00000000000E+00 -0.00000000000E+00 -0.13891517915E+04  0.13891517915E+04  0.00000000000E+00 0. -1.
         25    1    1    2    0    0 -0.12723135997E+03 -0.57956068410E+02 -0.12671854054E+04  0.12809881250E+04  0.12500000000E+03 0.  0.
         25    1    1    2    0    0  0.12723135997E+03  0.57956068410E+02 -0.38647964768E+02  0.19148208795E+03  0.12500000000E+03 0.  0.
</event>
<event>
 4    0  0.2250660E-002  0.2220826E+03  0.7546771E-02  0.1132340E+00
         21   -1    0    0  502  501  0.00000000000E+00  0.00000000000E+00  0.18974556775E+03  0.18974556775E+03  0.00000000000E+00 0. -1.
         21   -1    0    0  501  502 -0.00000000000E+00 -0.00000000000E+00 -0.25993058835E+03  0.25993058835E+03  0.00000000000E+00 0. -1.
         25    1    1    2    0    0 -0.18525589854E+02 -0.93199771328E+02  0.12391117756E+03  0.20002093585E+03  0.12500000000E+03 0.  0.
         25    1    1    2    0    0  0.18525589854E+02  0.93199771328E+02 -0.19409619816E+03  0.24965522024E+03  0.12500000000E+03 0.  0.
</event>
<event>
 4    0  0.2250660E-002  0.1976816E+03  0.7546771E-02  0.1151710E+00
         21   -1    0    0  502  501  0.00000000000E+00  0.00000000000E+00  0.86107320866E+03  0.86107320866E+03  0.00000000000E+00 0.  1.
         21   -1    0    0  501  502 -0.00000000000E+00 -0.00000000000E+00 -0.45382897157E+02  0.45382897157E+02  0.00000000000E+00 0.  1.
         25    1    1    2    0    0  0.35284869855E+02  0.13378259557E+03  0.25732351552E+03  0.31777853382E+03  0.12500000000E+03 0.  0.
         25    1    1    2    0    0 -0.35284869855E+02 -0.13378259557E+03  0.55836679598E+03  0.58867757199E+03  0.12500000000E+03 0.  0.
</event>
<event>
 4    0  0.2250660E-002  0.1682310E+03  0.7546771E-02  0.1179705E+00
         21   -1    0    0  502  501  0.00000000000E+00  0.00000000000E+00  0.46051518670E+03  0.46051518670E+03  0.00000000000E+00 0.  1.
         21   -1    0    0  501  502 -0.00000000000E+00 -0.00000000000E+00 -0.61456525974E+02  0.61456525974E+02  0.00000000000E+00 0.  1.
         25    1    1    2    0    0  0.70294551898E+02  0.59303234505E+02  0.98769306662E+02  0.18395263952E+03  0.12500000000E+03 0.  0.
         25    1    1    2    0    0 -0.70294551898E+02 -0.59303234505E+02  0.30028935406E+03  0.33801907315E+03  0.12500000000E+03 0.  0.
</event>
<event>
 4    0  0.2250660E-002  0.2012910E+03  0.7546771E-02  0.1148654E+00
         21   -1    0    0  502  501  0.00000000000E+00  0.00000000000E+00  0.22266678072E+02  0.22266678072E+02  0.00000000000E+00 0.  1.
         21   -1    0    0  501  502 -0.00000000000E+00 -0.00000000000E+00 -0.18196735946E+04  0.18196735946E+04  0.00000000000E+00 0.  1.
         25    1    1    2    0    0 -0.14667765348E+03 -0.42581809165E+02 -0.10797346439E+04  0.10976244557E+04  0.12500000000E+03 0.  0.
         25    1    1    2    0    0  0.14667765348E+03  0.42581809165E+02 -0.71767227259E+03  0.74431581694E+03  0.12500000000E+03 0.  0.
</event>
<event>
 4    0  0.2250660E-002  0.3706197E+03  0.7546771E-02  0.1054456E+00
         21   -1    0    0  502  501  0.00000000000E+00  0.00000000000E+00  0.11129619319E+04  0.11129619319E+04  0.00000000000E+00 0.  1.
         21   -1    0    0  501  502 -0.00000000000E+00 -0.00000000000E+00 -0.12341750601E+03  0.12341750601E+03  0.00000000000E+00 0.  1.
         25    1    1    2    0    0 -0.59480246355E+02 -0.33419791617E+03  0.36021355662E+03  0.51049481217E+03  0.12500000000E+03 0.  0.
         25    1    1    2    0    0  0.59480246355E+02  0.33419791617E+03  0.62933086932E+03  0.72588462579E+03  0.12500000000E+03 0.  0.
</event>
<event>
 4    0  0.2250660E-002  0.2297952E+03  0.7546771E-02  0.1126784E+00
         21   -1    0    0  502  501  0.00000000000E+00  0.00000000000E+00  0.20512934928E+03  0.20512934928E+03  0.00000000000E+00 0.  1.
         21   -1    0    0  501  502 -0.00000000000E+00 -0.00000000000E+00 -0.25742695028E+03  0.25742695028E+03  0.00000000000E+00 0.  1.
         25    1    1    2    0    0 -0.53743213640E+02  0.11760315797E+03  0.11781973927E+03  0.21500075985E+03  0.12500000000E+03 0.  0.
         25    1    1    2    0    0  0.53743213640E+02 -0.11760315797E+03 -0.17011734028E+03  0.24755553971E+03  0.12500000000E+03 0.  0.
</event>
<event>
 4    0  0.2250660E-002  0.2389223E+03  0.7546771E-02  0.1120513E+00
         21   -1    0    0  502  501  0.00000000000E+00  0.00000000000E+00  0.14099957030E+03  0.14099957030E+03  0.00000000000E+00 0. -1.
         21   -1    0    0  501  502 -0.00000000000E+00 -0.00000000000E+00 -0.40485118556E+03  0.40485118556E+03  0.00000000000E+00 0. -1.
         25    1    1    2    0    0  0.87102782472E+02 -0.95657954190E+02  0.47681815242E+02  0.18610721216E+03  0.12500000000E+03 0.  0.
         25    1    1    2    0    0 -0.87102782472E+02  0.95657954190E+02 -0.31153343050E+03  0.35974354370E+03  0.12500000000E+03 0.  0.
</event>
<event>
 4    0  0.2250660E-002  0.2588499E+03  0.7546771E-02  0.1107836E+00
         21   -1    0    0  502  501  0.00000000000E+00  0.00000000000E+00  0.23890768621E+03  0.23890768621E+03  0.00000000000E+00 0. -1.
         21   -1    0    0  501  502 -0.00000000000E+00 -0.00000000000E+00 -0.28045681967E+03  0.28045681967E+03  0.00000000000E+00 0. -1.
         25    1    1    2    0    0  0.15897204186E+03  0.10755462438E+03  0.10018751872E+03  0.25000529239E+03  0.12500000000E+03 0.  0.
         25    1    1    2    0    0 -0.15897204186E+03 -0.10755462438E+03 -0.14173665219E+03  0.26935921349E+03  0.12500000000E+03 0.  0.
</event>
<event>
 4    0  0.2250660E-002  0.1880299E+03  0.7546771E-02  0.1160250E+00
         21   -1    0    0  502  501  0.00000000000E+00  0.00000000000E+00  0.20308599146E+04  0.20308599146E+04  0.00000000000E+00 0.  1.
         21   -1    0    0  501  502 -0.00000000000E+00 -0.00000000000E+00 -0.17408995957E+02  0.17408995957E+02  0.00000000000E+00 0.  1.
         25    1    1    2    0    0  0.61540430977E+02  0.77837838873E+02  0.46522028287E+03  0.49183418486E+03  0.12500000000E+03 0.  0.
         25    1    1    2    0    0 -0.61540430977E+02 -0.77837838873E+02  0.15482306358E+04  0.15564347257E+04  0.12500000000E+03 0.  0.
</event>
<event>
 4    0  0.2250660E-002  0.1908996E+03  0.7546771E-02  0.1157652E+00
         21   -1    0    0  502  501  0.00000000000E+00  0.00000000000E+00  0.42300003451E+03  0.42300003451E+03  0.00000000000E+00 0.  1.
         21   -1    0    0  501  502 -0.00000000000E+00 -0.00000000000E+00 -0.86152850148E+02  0.86152850148E+02  0.00000000000E+00 0.  1.
         25    1    1    2    0    0 -0.13490161048E+03  0.40486128686E+02  0.21017254659E+03  0.28219686474E+03  0.12500000000E+03 0.  0.
         25    1    1    2    0    0  0.13490161048E+03 -0.40486128686E+02  0.12667463777E+03  0.22695601992E+03  0.12500000000E+03 0.  0.
</event>
<event>
 4    0  0.2250660E-002  0.2310669E+03  0.7546771E-02  0.1125891E+00
         21   -1    0    0  502  501  0.00000000000E+00  0.00000000000E+00  0.12088442116E+03  0.12088442116E+03  0.00000000000E+00 0.  1.
         21   -1    0    0  501  502 -0.00000000000E+00 -0.00000000000E+00 -0.44167734508E+03  0.44167734508E+03  0.00000000000E+00 0.  1.
         25    1    1    2    0    0  0.30715271460E+02 -0.16059711970E+00 -0.39399211862E+03  0.41448551630E+03  0.12500000000E+03 0.  0.
         25    1    1    2    0    0 -0.30715271460E+02  0.16059711970E+00  0.73199194699E+02  0.14807624994E+03  0.12500000000E+03 0.  0.
</event>
<event>
 4    0  0.2250660E-002  0.1960093E+03  0.7546771E-02  0.1153150E+00
         21   -1    0    0  502  501  0.00000000000E+00  0.00000000000E+00  0.61763611535E+03  0.61763611535E+03  0.00000000000E+00 0. -1.
         21   -1    0    0  501  502 -0.00000000000E+00 -0.00000000000E+00 -0.62204307123E+02  0.62204307123E+02  0.00000000000E+00 0. -1.
         25    1    1    2    0    0  0.31777188673E+02 -0.42214312437E+02  0.32445192058E+02  0.13953325189E+03  0.12500000000E+03 0.  0.
         25    1    1    2    0    0 -0.31777188673E+02  0.42214312437E+02  0.52298661617E+03  0.54030717059E+03  0.12500000000E+03 0.  0.
</event>
<event>
 4    0  0.2250660E-002  0.2518788E+03  0.7546771E-02  0.1112123E+00
         21   -1    0    0  502  501  0.00000000000E+00  0.00000000000E+00  0.31653083693E+03  0.31653083693E+03  0.00000000000E+00 0. -1.
         21   -1    0    0  501  502 -0.00000000000E+00 -0.00000000000E+00 -0.20043200732E+03  0.20043200732E+03  0.00000000000E+00 0. -1.
         25    1    1    2    0    0 -0.43274910292E+02 -0.12196462919E+03  0.23893633679E+03  0.29910476705E+03  0.12500000000E+03 0.  0.
         25    1    1    2    0    0  0.43274910292E+02  0.12196462919E+03 -0.12283750718E+03  0.21785807721E+03  0.12500000000E+03 0.  0.
</event>
<event>
 4    0  0.2250660E-002  0.2289339E+03  0.7546771E-02  0.1127392E+00
         21   -1    0    0  502  501  0.00000000000E+00  0.00000000000E+00  0.25578796710E+03  0.25578796710E+03  0.00000000000E+00 0.  1.
         21   -1    0    0  501  502 -0.00000000000E+00 -0.00000000000E+00 -0.20489907412E+03  0.20489907412E+03  0.00000000000E+00 0.  1.
         25    1    1    2    0    0 -0.14821782188E+03 -0.14158372575E+02 -0.96199678762E+02  0.21690634023E+03  0.12500000000E+03 0.  0.
         25    1    1    2    0    0  0.14821782188E+03  0.14158372575E+02  0.14708857174E+03  0.24378070099E+03  0.12500000000E+03 0.  0.
</event>
<event>
 4    0  0.2250660E-002  0.2045662E+03  0.7546771E-02  0.1145943E+00
         21   -1    0    0  502  501  0.00000000000E+00  0.00000000000E+00  0.29267191479E+02  0.29267191479E+02  0.00000000000E+00 0.  1.
         21   -1    0    0  501  502 -0.00000000000E+00 -0.00000000000E+00 -0.14298372650E+04  0.14298372650E+04  0.00000000000E+00 0.  1.
         25    1    1    2    0    0 -0.88271494526E+01  0.93688187712E+02 -0.23029999695E+03  0.27842141383E+03  0.12500000000E+03 0.  0.
         25    1    1    2    0    0  0.88271494526E+01 -0.93688187712E+02 -0.11702700766E+04  0.11806830427E+04  0.12500000000E+03 0.  0.
</event>
<event>
 4    0  0.2250660E-002  0.1617033E+03  0.7546771E-02  0.1186787E+00
         21   -1    0    0  502  501  0.00000000000E+00  0.00000000000E+00  0.15612511953E+03  0.15612511953E+03  0.00000000000E+00 0. -1.
         21   -1    0    0  501  502 -0.00000000000E+00 -0.00000000000E+00 -0.16748086976E+03  0.16748086976E+03  0.00000000000E+00 0. -1.
         25    1    1    2    0    0 -0.56858228803E+02  0.86619634644E+01  0.79316116502E+02  0.15882044620E+03  0.12500000000E+03 0.  0.
         25    1    1    2    0    0  0.56858228803E+02 -0.86619634644E+01 -0.90671866734E+02  0.16478554309E+03  0.12500000000E+03 0.  0.
</event>
<event>
 4    0  0.2250660E-002  0.1593282E+03  0.7546771E-02  0.1189457E+00
         21   -1    0    0  502  501  0.00000000000E+00  0.00000000000E+00  0.26078377723E+02  0.26078377723E+02  0.00000000000E+00 0. -1.
         21   -1    0    0  501  502 -0.00000000000E+00 -0.00000000000E+00 -0.97342980624E+03  0.97342980624E+03  0.00000000000E+00 0. -1.
         25    1    1    2    0    0 -0.59005483329E+01  0.98430840098E+02 -0.49276114752E+03  0.51784360115E+03  0.12500000000E+03 0.  0.
         25    1    1    2    0    0  0.59005483329E+01 -0.98430840098E+02 -0.45459028100E+03  0.48166458281E+03  0.12500000000E+03 0.  0.
</event>
<event>
 4    0  0.2250660E-002  0.2100587E+03  0.7546771E-02  0.1141520E+00
         21   -1    0    0  502  501  0.00000000000E+00  0.00000000000E+00  0.18871167584E+03  0.18871167584E+03  0.00000000000E+00 0. -1.
         21   -1    0    0  501  502 -0.00000000000E+00 -0.00000000000E+00 -0.23382050991E+03  0.23382050991E+03  0.00000000000E+00 0. -1.
         25    1    1    2    0    0 -0.10099114370E+03  0.12209509992E+02  0.11294702035E+03  0.19680018457E+03  0.12500000000E+03 0.  0.
         25    1    1    2    0    0  0.10099114370E+03 -0.12209509992E+02 -0.15805585443E+03  0.22573200119E+03  0.12500000000E+03 0.  0.
</event>
<event>
 4    0  0.2250660E-002  0.1967435E+03  0.7546771E-02  0.1152516E+00
         21   -1    0    0  502  501  0.00000000000E+00  0.00000000000E+00  0.11998699753E+03  0.11998699753E+03  0.00000000000E+00 0. -1.
         21   -1    0    0  501  502 -0.00000000000E+00 -0.00000000000E+00 -0.32260162473E+03  0.32260162473E+03  0.00000000000E+00 0. -1.
         25    1    1    2    0    0 -0.11444023861E+03 -0.62089508932E+02 -0.18938117768E+03  0.26161403974E+03  0.12500000000E+03 0.  0.
         25    1    1    2    0    0  0.11444023861E+03  0.62089508932E+02 -0.13233449514E+02  0.18097458252E+03  0.12500000000E+03 0.  0.
</event>
<event>
 4    0  0.2250660E-002  0.2489482E+03  0.7546771E-02  0.1113971E+00
         21   -1    0    0  502  501  0.00000000000E+00  0.00000000000E+00  0.94185690872E+02  0.94185690872E+02  0.00000000000E+00 0.  1.
         21   -1    0    0  501  502 -0.00000000000E+00 -0.00000000000E+00 -0.65801061699E+03  0.65801061699E+03  0.00000000000E+00 0.  1.
         25    1    1    2    0    0 -0.98962628529E+00  0.18775342941E+03 -0.44106435635E+03  0.49539387972E+03  0.12500000000E+03 0.  0.
         25    1    1    2    0    0  0.98962628529E+00 -0.18775342941E+03 -0.12276056977E+03  0.25680242815E+03  0.12500000000E+03 0.  0.
</event>
<event>
 4    0  0.2250660E-002  0.1993781E+03  0.7546771E-02  0.1150265E+00
         21   -1    0    0  502  501  0.00000000000E+00  0.00000000000E+00  0.81929437505E+03  0.81929437505E+03  0.00000000000E+00 0. -1.
         21   -1    0    0  501  502 -0.00000000000E+00 -0.00000000000E+00 -0.48519328205E+02  0.48519328205E+02  0.00000000000E+00 0. -1.
         25    1    1    2    0    0  0.48545917148E+02  0.13134443597E+03  0.23909623205E+03  0.30397380662E+03  0.12500000000E+03 0.  0.
         25    1    1    2    0    0 -0.48545917148E+02 -0.13134443597E+03  0.53167881479E+03  0.56383989663E+03  0.12500000000E+03 0.  0.
</event>
<event>
 4    0  0.2250660E-002  0.3054199E+03  0.7546771E-02  0.1082562E+00
         21   -1    0    0  502  501  0.00000000000E+00  0.00000000000E+00  0.88497428092E+03  0.88497428092E+03  0.00000000000E+00 0.  1.
         21   -1    0    0  501  502 -0.00000000000E+00 -0.00000000000E+00 -0.10540566842E+03  0.10540566842E+03  0.00000000000E+00 0.  1.
         25    1    1    2    0    0  0.16479683736E+03 -0.11460965862E+03  0.76387170559E+02  0.24850225608E+03  0.12500000000E+03 0.  0.
         25    1    1    2    0    0 -0.16479683736E+03  0.11460965862E+03  0.70318144195E+03  0.74187769326E+03  0.12500000000E+03 0.  0.
</event>
<event>
 4    0  0.2250660E-002  0.1628161E+03  0.7546771E-02  0.1185554E+00
         21   -1    0    0  502  501  0.00000000000E+00  0.00000000000E+00  0.89327930815E+02  0.89327930815E+02  0.00000000000E+00 0.  1.
         21   -1    0    0  501  502 -0.00000000000E+00 -0.00000000000E+00 -0.29676143975E+03  0.29676143975E+03  0.00000000000E+00 0.  1.
         25    1    1    2    0    0  0.84847632808E+02 -0.56414947052E+02 -0.13029032941E+03  0.20732181984E+03  0.12500000000E+03 0.  0.
         25    1    1    2    0    0 -0.84847632808E+02  0.56414947052E+02 -0.77143179518E+02  0.17876755072E+03  0.12500000000E+03 0.  0.
</event>
<event>
 4    0  0.2250660E-002  0.1908837E+03  0.7546771E-02  0.1157667E+00
         21   -1    0    0  502  501  0.00000000000E+00  0.00000000000E+00  0.99873653912E+02  0.99873653912E+02  0.00000000000E+00 0. -1.
         21   -1    0    0  501  502 -0.00000000000E+00 -0.00000000000E+00 -0.36482684650E+03  0.36482684650E+03  0.00000000000E+00 0. -1.
         25    1    1    2    0    0  0.10820106046E+03 -0.25844542198E+02 -0.24427798766E+03  0.29609482451E+03  0.12500000000E+03 0.  0.
         25    1    1    2    0    0 -0.10820106046E+03  0.25844542198E+02 -0.20675204925E+02  0.16860567590E+03  0.12500000000E+03 0.  0.
</event>
<event>
 4    0  0.2327424E-002  0.1950441E+03  0.7546771E-02  0.1153989E+00
         21   -1    0    0  502  501  0.00000000000E+00  0.00000000000E+00  0.22133528425E+03  0.22133528425E+03  0.00000000000E+00 0. -1.
         21   -1    0    0  501  502 -0.00000000000E+00 -0.00000000000E+00 -0.17187583020E+03  0.17187583020E+03  0.00000000000E+00 0. -1.
         25    1    1    2    0    0 -0.75307009556E+01 -0.20245894289E+02  0.17407312869E+03  0.21539048685E+03  0.12500000000E+03 0.  0.
         25    1    1    2    0    0  0.75307009556E+01  0.20245894289E+02 -0.12461367465E+03  0.17782062760E+03  0.12500000000E+03 0.  0.
</event>
<event>
 4    0  0.2250660E-002  0.1701721E+03  0.7546771E-02  0.1177669E+00
         21   -1    0    0  502  501  0.00000000000E+00  0.00000000000E+00  0.14756875496E+03  0.14756875496E+03  0.00000000000E+00 0.  1.
         21   -1    0    0  501  502 -0.00000000000E+00 -0.00000000000E+00 -0.19623757367E+03  0.19623757367E+03  0.00000000000E+00 0.  1.
         25    1    1    2    0    0 -0.25133916612E+02  0.25987691388E+02  0.86446390710E+02  0.15622116481E+03  0.12500000000E+03 0.  0.
         25    1    1    2    0    0  0.25133916612E+02 -0.25987691388E+02 -0.13511520942E+03  0.18758516382E+03  0.12500000000E+03 0.  0.
</event>
<event>
 4    0  0.2250660E-002  0.2580235E+03  0.7546771E-02  0.1108337E+00
         21   -1    0    0  502  501  0.00000000000E+00  0.00000000000E+00  0.23409420386E+04  0.23409420386E+04  0.00000000000E+00 0.  1.
         21   -1    0    0  501  502 -0.00000000000E+00 -0.00000000000E+00 -0.28439895486E+02  0.28439895486E+02  0.00000000000E+00 0.  1.
         25    1    1    2    0    0 -0.96372470796E+02 -0.13922190722E+03  0.18415983520E+04  0.18535856826E+04  0.12500000000E+03 0.  0.
         25    1    1    2    0    0  0.96372470796E+02  0.13922190722E+03  0.47090379108E+03  0.51579625147E+03  0.12500000000E+03 0.  0.
</event>
<event>
 4    0  0.2250660E-002  0.1596625E+03  0.7546771E-02  0.1189078E+00
         21   -1    0    0  502  501  0.00000000000E+00  0.00000000000E+00  0.32777103355E+04  0.32777103355E+04  0.00000000000E+00 0. -1.
         21   -1    0    0  501  502 -0.00000000000E+00 -0.00000000000E+00 -0.77774109320E+01  0.77774109320E+01  0.00000000000E+00 0. -1.
         25    1    1    2    0    0  0.28175798278E+02 -0.39192485731E+02  0.25282129317E+04  0.25317613542E+04  0.12500000000E+03 0.  0.
         25    1    1    2    0    0 -0.28175798278E+02  0.39192485731E+02  0.74171999295E+03  0.75372639232E+03  0.12500000000E+03 0.  0.
</event>
<event>
 4    0  0.2250660E-002  0.2061658E+03  0.7546771E-02  0.1144639E+00
         21   -1    0    0  502  501  0.00000000000E+00  0.00000000000E+00  0.14623925368E+03  0.14623925368E+03  0.00000000000E+00 0.  1.
         21   -1    0    0  501  502 -0.00000000000E+00 -0.00000000000E+00 -0.29064935598E+03  0.29064935598E+03  0.00000000000E+00 0.  1.
         25    1    1    2    0    0  0.12881815109E+03  0.85301010039E+02 -0.13032600620E+03  0.23765573053E+03  0.12500000000E+03 0.  0.
         25    1    1    2    0    0 -0.12881815109E+03 -0.85301010039E+02 -0.14084096103E+02  0.19923287913E+03  0.12500000000E+03 0.  0.
</event>
<event>
 4    0  0.2250660E-002  0.3244875E+03  0.7546771E-02  0.1073602E+00
         21   -1    0    0  502  501  0.00000000000E+00  0.00000000000E+00  0.17570131628E+03  0.17570131628E+03  0.00000000000E+00 0. -1.
         21   -1    0    0  501  502 -0.00000000000E+00 -0.00000000000E+00 -0.59926760760E+03  0.59926760760E+03  0.00000000000E+00 0.  1.
         25    1    1    2    0    0 -0.28784601634E+03  0.28019251417E+02 -0.11907963833E+03  0.33681651954E+03  0.12500000000E+03 0.  0.
         25    1    1    2    0    0  0.28784601634E+03 -0.28019251417E+02 -0.30448665299E+03  0.43815240433E+03  0.12500000000E+03 0.  0.
</event>
<event>
 4    0  0.2250660E-002  0.1532577E+03  0.7546771E-02  0.1196526E+00
         21   -1    0    0  502  501  0.00000000000E+00  0.00000000000E+00  0.16197904434E+03  0.16197904434E+03  0.00000000000E+00 0. -1.
         21   -1    0    0  501  502 -0.00000000000E+00 -0.00000000000E+00 -0.14500589258E+03  0.14500589258E+03  0.00000000000E+00 0. -1.
         25    1    1    2    0    0  0.32757924341E+02 -0.17202646584E+02 -0.72221637911E+02  0.14903012326E+03  0.12500000000E+03 0.  0.
         25    1    1    2    0    0 -0.32757924341E+02  0.17202646584E+02  0.89194789671E+02  0.15795481367E+03  0.12500000000E+03 0.  0.
</event>
<event>
 4    0  0.2250660E-002  0.2219852E+03  0.7546771E-02  0.1132412E+00
         21   -1    0    0  502  501  0.00000000000E+00  0.00000000000E+00  0.17512723053E+03  0.17512723053E+03  0.00000000000E+00 0. -1.
         21   -1    0    0  501  502 -0.00000000000E+00 -0.00000000000E+00 -0.28138084385E+03  0.28138084385E+03  0.00000000000E+00 0. -1.
         25    1    1    2    0    0  0.12255973224E+03 -0.17434115832E+02  0.86075778180E+02  0.19585422117E+03  0.12500000000E+03 0.  0.
         25    1    1    2    0    0 -0.12255973224E+03  0.17434115832E+02 -0.19232939150E+03  0.26065385321E+03  0.12500000000E+03 0.  0.
</event>
<event>
 4    0  0.2250660E-002  0.2242691E+03  0.7546771E-02  0.1130740E+00
         21   -1    0    0  502  501  0.00000000000E+00  0.00000000000E+00  0.16825935353E+03  0.16825935353E+03  0.00000000000E+00 0.  1.
         21   -1    0    0  501  502 -0.00000000000E+00 -0.00000000000E+00 -0.29892324546E+03  0.29892324546E+03  0.00000000000E+00 0.  1.
         25    1    1    2    0    0 -0.17475982871E+03 -0.56596690145E+02 -0.33612015874E+02  0.22471971582E+03  0.12500000000E+03 0.  0.
         25    1    1    2    0    0  0.17475982871E+03  0.56596690145E+02 -0.97051876059E+02  0.24246288317E+03  0.12500000000E+03 0.  0.
</event>
<event>
 4    0  0.2250660E-002  0.3596266E+03  0.7546771E-02  0.1058732E+00
         21   -1    0    0  502  501  0.00000000000E+00  0.00000000000E+00  0.53167106108E+03  0.53167106108E+03  0.00000000000E+00 0. -1.
         21   -1    0    0  501  502 -0.00000000000E+00 -0.00000000000E+00 -0.24325429920E+03  0.24325429920E+03  0.00000000000E+00 0. -1.
         25    1    1    2    0    0  0.12573549094E+02  0.31680848545E+03  0.26790135985E+03  0.43349953772E+03  0.12500000000E+03 0.  0.
         25    1    1    2    0    0 -0.12573549094E+02 -0.31680848545E+03  0.20515402022E+02  0.34142582256E+03  0.12500000000E+03 0.  0.
</event>
<event>
 4    0  0.2250660E-002  0.1879791E+03  0.7546771E-02  0.1160297E+00
         21   -1    0    0  502  501  0.00000000000E+00  0.00000000000E+00  0.18646593979E+04  0.18646593979E+04  0.00000000000E+00 0.  1.
         21   -1    0    0  501  502 -0.00000000000E+00 -0.00000000000E+00 -0.18950455220E+02  0.18950455220E+02  0.00000000000E+00 0.  1.
         25    1    1    2    0    0  0.12913325175E+03  0.55085605969E+02  0.91709011560E+03  0.93615655786E+03  0.12500000000E+03 0.  0.
         25    1    1    2    0    0 -0.12913325175E+03 -0.55085605969E+02  0.92861882710E+03  0.94745329528E+03  0.12500000000E+03 0.  0.
</event>
<event>
 4    0  0.2250660E-002  0.1696062E+03  0.7546771E-02  0.1178259E+00
         21   -1    0    0  502  501  0.00000000000E+00  0.00000000000E+00  0.17154829589E+03  0.17154829589E+03  0.00000000000E+00 0.  1.
         21   -1    0    0  501  502 -0.00000000000E+00 -0.00000000000E+00 -0.16768599951E+03  0.16768599951E+03  0.00000000000E+00 0.  1.
         25    1    1    2    0    0  0.10294247777E+03 -0.27190374084E+02 -0.40554275953E+02  0.16913343688E+03  0.12500000000E+03 0.  0.
         25    1    1    2    0    0 -0.10294247777E+03  0.27190374084E+02  0.44416572331E+02  0.17010085852E+03  0.12500000000E+03 0.  0.
</event>
<event>
 4    0  0.2250660E-002  0.3399093E+03  0.7546771E-02  0.1066835E+00
         21   -1    0    0  502  501  0.00000000000E+00  0.00000000000E+00  0.99392940851E+03  0.99392940851E+03  0.00000000000E+00 0. -1.
         21   -1    0    0  501  502 -0.00000000000E+00 -0.00000000000E+00 -0.11624396949E+03  0.11624396949E+03  0.00000000000E+00 0. -1.
         25    1    1    2    0    0  0.28246751700E+03  0.95224703339E+02  0.61056608632E+03  0.69084845520E+03  0.12500000000E+03 0.  0.
         25    1    1    2    0    0 -0.28246751700E+03 -0.95224703339E+02  0.26711935270E+03  0.41932492280E+03  0.12500000000E+03 0.  0.
</event>
<event>
 4    0  0.2250660E-002  0.3661944E+03  0.7546771E-02  0.1056158E+00
         21   -1    0    0  502  501  0.00000000000E+00  0.00000000000E+00  0.16512547091E+03  0.16512547091E+03  0.00000000000E+00 0.  1.
         21   -1    0    0  501  502 -0.00000000000E+00 -0.00000000000E+00 -0.81209948092E+03  0.81209948092E+03  0.00000000000E+00 0.  1.
         25    1    1    2    0    0 -0.22134234944E+03  0.38706256795E+02 -0.67138514179E+03  0.71893923150E+03  0.12500000000E+03 0.  0.
         25    1    1    2    0    0  0.22134234944E+03 -0.38706256795E+02  0.24411131772E+02  0.25828572033E+03  0.12500000000E+03 0.  0.
</event>
<event>
 4    0  0.2250660E-002  0.4594420E+03  0.7546771E-02  0.1024943E+00
         21   -1    0    0  502  501  0.00000000000E+00  0.00000000000E+00  0.40878800386E+03  0.40878800386E+03  0.00000000000E+00 0.  1.
         21   -1    0    0  501  502 -0.00000000000E+00 -0.00000000000E+00 -0.51637275048E+03  0.51637275048E+03  0.00000000000E+00 0.  1.
         25    1    1    2    0    0  0.32705916631E+03  0.16448530386E+03  0.19576941841E+03  0.43355942919E+03  0.12500000000E+03 0.  0.
         25    1    1    2    0    0 -0.32705916631E+03 -0.16448530386E+03 -0.30335416503E+03  0.49160132515E+03  0.12500000000E+03 0.  0.
</event>
<event>
 4    0  0.2250660E-002  0.1890653E+03  0.7546771E-02  0.1159307E+00
         21   -1    0    0  502  501  0.00000000000E+00  0.00000000000E+00  0.26875521541E+03  0.26875521541E+03  0.00000000000E+00 0. -1.
         21   -1    0    0  501  502 -0.00000000000E+00 -0.00000000000E+00 -0.13300469662E+03  0.13300469662E+03  0.00000000000E+00 0. -1.
         25    1    1    2    0    0 -0.51123262129E+01 -0.96100921826E+02 -0.42844016910E+02  0.16346905775E+03  0.12500000000E+03 0.  0.
         25    1    1    2    0    0  0.51123262129E+01  0.96100921826E+02  0.17859453570E+03  0.23829085429E+03  0.12500000000E+03 0.  0.
</event>
<event>
 4    0  0.2250660E-002  0.1793917E+03  0.7546771E-02  0.1168393E+00
         21   -1    0    0  502  501  0.00000000000E+00  0.00000000000E+00  0.66882001061E+02  0.66882001061E+02  0.00000000000E+00 0.  1.
         21   -1    0    0  501  502 -0.00000000000E+00 -0.00000000000E+00 -0.48116676335E+03  0.48116676335E+03  0.00000000000E+00 0.  1.
         25    1    1    2    0    0 -0.89654380392E+02  0.65854422340E+02 -0.30592085845E+03  0.34869368291E+03  0.12500000000E+03 0.  0.
         25    1    1    2    0    0  0.89654380392E+02 -0.65854422340E+02 -0.10836390384E+03  0.19935508150E+03  0.12500000000E+03 0.  0.
</event>
<event>
 4    0  0.2250660E-002  0.2384865E+03  0.7546771E-02  0.1120805E+00
         21   -1    0    0  502  501  0.00000000000E+00  0.00000000000E+00  0.13168771396E+03  0.13168771396E+03  0.00000000000E+00 0.  1.
         21   -1    0    0  501  502 -0.00000000000E+00 -0.00000000000E+00 -0.43189922828E+03  0.43189922828E+03  0.00000000000E+00 0.  1.
         25    1    1    2    0    0 -0.88106930642E+02  0.67140436755E+02 -0.35125454375E+03  0.38894141459E+03  0.12500000000E+03 0.  0.
         25    1    1    2    0    0  0.88106930642E+02 -0.67140436755E+02  0.51043029434E+02  0.17464552765E+03  0.12500000000E+03 0.  0.
</event>
<event>
 4    0  0.2250660E-002  0.1876566E+03  0.7546771E-02  0.1160592E+00
         21   -1    0    0  502  501  0.00000000000E+00  0.00000000000E+00  0.12313022451E+03  0.12313022451E+03  0.00000000000E+00 0.  1.
         21   -1    0    0  501  502 -0.00000000000E+00 -0.00000000000E+00 -0.28599803260E+03  0.28599803260E+03  0.00000000000E+00 0.  1.
         25    1    1    2    0    0 -0.13697586257E+03  0.28464177249E+02 -0.85981802329E+02  0.20637457849E+03  0.12500000000E+03 0.  0.
         25    1    1    2    0    0  0.13697586257E+03 -0.28464177249E+02 -0.76886005760E+02  0.20275367862E+03  0.12500000000E+03 0.  0.
</event>
<event>
 4    0  0.2250660E-002  0.2437593E+03  0.7546771E-02  0.1117314E+00
         21   -1    0    0  502  501  0.00000000000E+00  0.00000000000E+00  0.39900789117E+02  0.39900789117E+02  0.00000000000E+00 0. -1.
         21   -1    0    0  501  502 -0.00000000000E+00 -0.00000000000E+00 -0.14891578386E+04  0.14891578386E+04  0.00000000000E+00 0. -1.
         25    1    1    2    0    0 -0.20489910018E+03 -0.36988066535E+02 -0.65870308359E+03  0.70204452185E+03  0.12500000000E+03 0.  0.
         25    1    1    2    0    0  0.20489910018E+03  0.36988066535E+02 -0.79055396586E+03  0.82701410584E+03  0.12500000000E+03 0.  0.
</event>
<event>
 4    0  0.2250660E-002  0.2108299E+03  0.7546771E-02  0.1140911E+00
         21   -1    0    0  502  501  0.00000000000E+00  0.00000000000E+00  0.79019297065E+02  0.79019297065E+02  0.00000000000E+00 0.  1.
         21   -1    0    0  501  502 -0.00000000000E+00 -0.00000000000E+00 -0.56251114102E+03  0.56251114102E+03  0.00000000000E+00 0.  1.
         25    1    1    2    0    0  0.12607903958E+03 -0.11319127260E+03 -0.22535621372E+03  0.30841305335E+03  0.12500000000E+03 0.  0.
         25    1    1    2    0    0 -0.12607903958E+03  0.11319127260E+03 -0.25813563023E+03  0.33311738473E+03  0.12500000000E+03 0.  0.
</event>
<event>
 4    0  0.2250660E-002  0.3107710E+03  0.7546771E-02  0.1079977E+00
         21   -1    0    0  502  501  0.00000000000E+00  0.00000000000E+00  0.70903777861E+03  0.70903777861E+03  0.00000000000E+00 0. -1.
         21   -1    0    0  501  502 -0.00000000000E+00 -0.00000000000E+00 -0.13621081126E+03  0.13621081126E+03  0.00000000000E+00 0. -1.
         25    1    1    2    0    0  0.29962409601E+01 -0.73524220076E+02  0.66017887660E+03  0.67592598522E+03  0.12500000000E+03 0.  0.
         25    1    1    2    0    0 -0.29962409601E+01  0.73524220076E+02 -0.87351909240E+02  0.16932260465E+03  0.12500000000E+03 0.  0.
</event>
<event>
 4    0  0.2250660E-002  0.2081067E+03  0.7546771E-02  0.1143074E+00
         21   -1    0    0  502  501  0.00000000000E+00  0.00000000000E+00  0.39403448515E+02  0.39403448515E+02  0.00000000000E+00 0. -1.
         21   -1    0    0  501  502 -0.00000000000E+00 -0.00000000000E+00 -0.10991017965E+04  0.10991017965E+04  0.00000000000E+00 0. -1.
         25    1    1    2    0    0  0.14188654562E+03  0.35666610544E+02 -0.31308796201E+03  0.36749553860E+03  0.12500000000E+03 0.  0.
         25    1    1    2    0    0 -0.14188654562E+03 -0.35666610544E+02 -0.74661038595E+03  0.77100970639E+03  0.12500000000E+03 0.  0.
</event>
<event>
 4    0  0.2250660E-002  0.1940374E+03  0.7546771E-02  0.1154869E+00
         21   -1    0    0  502  501  0.00000000000E+00  0.00000000000E+00  0.10059815520E+04  0.10059815520E+04  0.00000000000E+00 0. -1.
         21   -1    0    0  501  502 -0.00000000000E+00 -0.00000000000E+00 -0.37426644623E+02  0.37426644623E+02  0.00000000000E+00 0. -1.
         25    1    1    2    0    0 -0.14725286424E+02  0.10979980934E+03  0.21875526339E+03  0.27523026261E+03  0.12500000000E+03 0.  0.
         25    1    1    2    0    0  0.14725286424E+02 -0.10979980934E+03  0.74979964399E+03  0.76817793403E+03  0.12500000000E+03 0.  0.
</event>
<event>
 4    0  0.2250660E-002  0.2829897E+03  0.7546771E-02  0.1094067E+00
         21   -1    0    0  502  501  0.00000000000E+00  0.00000000000E+00  0.28802098251E+03  0.28802098251E+03  0.00000000000E+00 0. -1.
         21   -1    0    0  501  502 -0.00000000000E+00 -0.00000000000E+00 -0.27804621516E+03  0.27804621516E+03  0.00000000000E+00 0. -1.
         25    1    1    2    0    0  0.11766340934E+03  0.22391297230E+03 -0.16843672143E+02  0.28264891005E+03  0.12500000000E+03 0.  0.
         25    1    1    2    0    0 -0.11766340934E+03 -0.22391297230E+03  0.26818439494E+02  0.28341828762E+03  0.12500000000E+03 0.  0.
</event>
<event>
 4    0  0.2250660E-002  0.1570879E+03  0.7546771E-02  0.1192024E+00
         21   -1    0    0  502  501  0.00000000000E+00  0.00000000000E+00  0.11734531114E+03  0.11734531114E+03  0.00000000000E+00 0. -1.
         21   -1    0    0  501  502 -0.00000000000E+00 -0.00000000000E+00 -0.21029043132E+03  0.21029043132E+03  0.00000000000E+00 0. -1.
         25    1    1    2    0    0  0.71807681817E+02 -0.61002848065E+02 -0.60224857338E+02  0.16771918221E+03  0.12500000000E+03 0.  0.
         25    1    1    2    0    0 -0.71807681817E+02  0.61002848065E+02 -0.32720262842E+02  0.15991656024E+03  0.12500000000E+03 0.  0.
</event>
<event>
 4    0  0.2250660E-002  0.3164769E+03  0.7546771E-02  0.1077282E+00
         21   -1    0    0  502  501  0.00000000000E+00  0.00000000000E+00  0.63857578406E+03  0.63857578406E+03  0.00000000000E+00 0.  1.
         21   -1    0    0  501  502 -0.00000000000E+00 -0.00000000000E+00 -0.15684536253E+03  0.15684536253E+03  0.00000000000E+00 0.  1.
         25    1    1    2    0    0 -0.26139793405E+03 -0.10075473835E+03  0.33863025812E+03  0.45691995901E+03  0.12500000000E+03 0.  0.
         25    1    1    2    0    0  0.26139793405E+03  0.10075473835E+03  0.14310016341E+03  0.33850118758E+03  0.12500000000E+03 0.  0.
</event>
<event>
 4    0  0.2250660E-002  0.2820651E+03  0.7546771E-02  0.1094566E+00
         21   -1    0    0  502  501  0.00000000000E+00  0.00000000000E+00  0.44436688256E+03  0.44436688256E+03  0.00000000000E+00 0. -1.
         21   -1    0    0  501  502 -0.00000000000E+00 -0.00000000000E+00 -0.17904287516E+03  0.17904287516E+03  0.00000000000E+00 0. -1.
         25    1    1    2    0    0 -0.16685375377E+03 -0.86559117489E+02 -0.54234229121E+02  0.23216159798E+03  0.12500000000E+03 0.  0.
         25    1    1    2    0    0  0.16685375377E+03  0.86559117489E+02  0.31955823652E+03  0.39124815973E+03  0.12500000000E+03 0.  0.
</event>
<event>
 4    0  0.2250660E-002  0.1581916E+03  0.7546771E-02  0.1190754E+00
         21   -1    0    0  502  501  0.00000000000E+00  0.00000000000E+00  0.49492130434E+02  0.49492130434E+02  0.00000000000E+00 0. -1.
         21   -1    0    0  501  502 -0.00000000000E+00 -0.00000000000E+00 -0.50562727469E+03  0.50562727469E+03  0.00000000000E+00 0. -1.
         25    1    1    2    0    0  0.78914829245E+02  0.10201401122E+02 -0.32525215724E+03  0.35741514328E+03  0.12500000000E+03 0.  0.
         25    1    1    2    0    0 -0.78914829245E+02 -0.10201401122E+02 -0.13088298702E+03  0.19770426184E+03  0.12500000000E+03 0.  0.
</event>
<event>
 4    0  0.2250660E-002  0.2265481E+03  0.7546771E-02  0.1129093E+00
         21   -1    0    0  502  501  0.00000000000E+00  0.00000000000E+00  0.13495280288E+04  0.13495280288E+04  0.00000000000E+00 0.  1.
         21   -1    0    0  501  502 -0.00000000000E+00 -0.00000000000E+00 -0.38031101276E+02  0.38031101276E+02  0.00000000000E+00 0.  1.
         25    1    1    2    0    0  0.30538632594E+02 -0.16260697633E+03  0.93517243511E+03  0.95788627729E+03  0.12500000000E+03 0.  0.
         25    1    1    2    0    0 -0.30538632594E+02  0.16260697633E+03  0.37632449242E+03  0.42967285279E+03  0.12500000000E+03 0.  0.
</event>
<event>
 4    0  0.2250660E-002  0.2838239E+03  0.7546771E-02  0.1093619E+00
         21   -1    0    0  502  501  0.00000000000E+00  0.00000000000E+00  0.25071610540E+03  0.25071610540E+03  0.00000000000E+00 0. -1.
         21   -1    0    0  501  502 -0.00000000000E+00 -0.00000000000E+00 -0.32130366153E+03  0.32130366153E+03  0.00000000000E+00 0. -1.
         25    1    1    2    0    0 -0.16986341871E+03 -0.17884494125E+03  0.29166927045E+02  0.27805539675E+03  0.12500000000E+03 0.  0.
         25    1    1    2    0    0  0.16986341871E+03  0.17884494125E+03 -0.99754483174E+02  0.29396437019E+03  0.12500000000E+03 0.  0.
</event>
<event>
 4    0  0.2250660E-002  0.1926870E+03  0.7546771E-02  0.1156060E+00
         21   -1    0    0  502  501  0.00000000000E+00  0.00000000000E+00  0.98064355851E+02  0.98064355851E+02  0.00000000000E+00 0. -1.
         21   -1    0    0  501  502 -0.00000000000E+00 -0.00000000000E+00 -0.37861134159E+03  0.37861134159E+03  0.00000000000E+00 0. -1.
         25    1    1    2    0    0 -0.53218673343E+02  0.81192927762E+02 -0.43320840014E+01  0.15832967398E+03  0.12500000000E+03 0.  0.
         25    1    1    2    0    0  0.53218673343E+02 -0.81192927762E+02 -0.27621490174E+03  0.31834602346E+03  0.12500000000E+03 0.  0.
</event>
<event>
 4    0  0.2250660E-002  0.2882301E+03  0.7546771E-02  0.1091277E+00
         21   -1    0    0  502  501  0.00000000000E+00  0.00000000000E+00  0.95703011129E+03  0.95703011129E+03  0.00000000000E+00 0. -1.
         21   -1    0    0  501  502 -0.00000000000E+00 -0.00000000000E+00 -0.86806633486E+02  0.86806633486E+02  0.00000000000E+00 0. -1.
         25    1    1    2    0    0  0.27129113625E+02 -0.33718686025E+02 -0.28596140164E+02  0.13533542709E+03  0.12500000000E+03 0.  0.
         25    1    1    2    0    0 -0.27129113625E+02  0.33718686025E+02  0.89881961797E+03  0.90850131769E+03  0.12500000000E+03 0.  0.
</event>
<event>
 4    0  0.2250660E-002  0.1987953E+03  0.7546771E-02  0.1150759E+00
         21   -1    0    0  502  501  0.00000000000E+00  0.00000000000E+00  0.11979658498E+04  0.11979658498E+04  0.00000000000E+00 0. -1.
         21   -1    0    0  501  502 -0.00000000000E+00 -0.00000000000E+00 -0.32988887591E+02  0.32988887591E+02  0.00000000000E+00 0. -1.
         25    1    1    2    0    0  0.80368610938E+02 -0.12990463777E+03  0.65576925951E+03  0.68483038064E+03  0.12500000000E+03 0.  0.
         25    1    1    2    0    0 -0.80368610938E+02  0.12990463777E+03  0.50920770270E+03  0.54612435674E+03  0.12500000000E+03 0.  0.
</event>
<event>
 4    0  0.2250660E-002  0.3558037E+03  0.7546771E-02  0.1060258E+00
         21   -1    0    0  502  501  0.00000000000E+00  0.00000000000E+00  0.20593679417E+03  0.20593679417E+03  0.00000000000E+00 0. -1.
         21   -1    0    0  501  502 -0.00000000000E+00 -0.00000000000E+00 -0.61473346497E+03  0.61473346497E+03  0.00000000000E+00 0. -1.
         25    1    1    2    0    0  0.17994662678E+03  0.78164010888E+02  0.10608614748E+03  0.25567493380E+03  0.12500000000E+03 0.  0.
         25    1    1    2    0    0 -0.17994662678E+03 -0.78164010888E+02 -0.51488281828E+03  0.56499532533E+03  0.12500000000E+03 0.  0.
</event>
<event>
 4    0  0.2250660E-002  0.2300362E+03  0.7546771E-02  0.1126614E+00
         21   -1    0    0  502  501  0.00000000000E+00  0.00000000000E+00  0.36883220841E+02  0.36883220841E+02  0.00000000000E+00 0.  1.
         21   -1    0    0  501  502 -0.00000000000E+00 -0.00000000000E+00 -0.14347085153E+04  0.14347085153E+04  0.00000000000E+00 0.  1.
         25    1    1    2    0    0 -0.18209513999E+03 -0.54113924306E+02 -0.80993312751E+03  0.84125122754E+03  0.12500000000E+03 0.  0.
         25    1    1    2    0    0  0.18209513999E+03  0.54113924306E+02 -0.58789216693E+03  0.63034050858E+03  0.12500000000E+03 0.  0.
</event>
<event>
 4    0  0.2250660E-002  0.2171996E+03  0.7546771E-02  0.1135988E+00
         21   -1    0    0  502  501  0.00000000000E+00  0.00000000000E+00  0.21258559728E+03  0.21258559728E+03  0.00000000000E+00 0.  1.
         21   -1    0    0  501  502 -0.00000000000E+00 -0.00000000000E+00 -0.22191376892E+03  0.22191376892E+03  0.00000000000E+00 0.  1.
         25    1    1    2    0    0 -0.61223050173E+02 -0.67525373220E+01 -0.17130625254E+03  0.22082728725E+03  0.12500000000E+03 0.  0.
         25    1    1    2    0    0  0.61223050173E+02  0.67525373220E+01  0.16197808090E+03  0.21367207896E+03  0.12500000000E+03 0.  0.
</event>
<event>
 4    0  0.2250660E-002  0.2251566E+03  0.7546771E-02  0.1130096E+00
         21   -1    0    0  502  501  0.00000000000E+00  0.00000000000E+00  0.10052862223E+04  0.10052862223E+04  0.00000000000E+00 0.  1.
         21   -1    0    0  501  502 -0.00000000000E+00 -0.00000000000E+00 -0.50428921646E+02  0.50428921646E+02  0.00000000000E+00 0.  1.
         25    1    1    2    0    0  0.14022404110E+03 -0.12300338134E+03  0.43834763278E+03  0.49251016303E+03  0.12500000000E+03 0.  0.
         25    1    1    2    0    0 -0.14022404110E+03  0.12300338134E+03  0.51650966789E+03  0.56320498093E+03  0.12500000000E+03 0.  0.
</event>
<event>
 4    0  0.2250660E-002  0.1987903E+03  0.7546771E-02  0.1150764E+00
         21   -1    0    0  502  501  0.00000000000E+00  0.00000000000E+00  0.85591017569E+02  0.85591017569E+02  0.00000000000E+00 0.  1.
         21   -1    0    0  501  502 -0.00000000000E+00 -0.00000000000E+00 -0.46170235334E+03  0.46170235334E+03  0.00000000000E+00 0.  1.
         25    1    1    2    0    0 -0.14409396424E+03  0.32745008035E+02 -0.25049244896E+03  0.31655453411E+03  0.12500000000E+03 0.  0.
         25    1    1    2    0    0  0.14409396424E+03 -0.32745008035E+02 -0.12561888682E+03  0.23073883680E+03  0.12500000000E+03 0.  0.
</event>
<event>
 4    0  0.2250660E-002  0.3107112E+03  0.7546771E-02  0.1080005E+00
         21   -1    0    0  502  501  0.00000000000E+00  0.00000000000E+00  0.81386018507E+03  0.81386018507E+03  0.00000000000E+00 0.  1.
         21   -1    0    0  501  502 -0.00000000000E+00 -0.00000000000E+00 -0.11862164616E+03  0.11862164616E+03  0.00000000000E+00 0.  1.
         25    1    1    2    0    0 -0.23742073816E+03  0.20264222691E+02  0.11448997133E+03  0.29242468973E+03  0.12500000000E+03 0.  0.
         25    1    1    2    0    0  0.23742073816E+03 -0.20264222691E+02  0.58074856759E+03  0.64005714150E+03  0.12500000000E+03 0.  0.
</event>
<event>
 4    0  0.2250660E-002  0.1989253E+03  0.7546771E-02  0.1150649E+00
         21   -1    0    0  502  501  0.00000000000E+00  0.00000000000E+00  0.50087770242E+02  0.50087770242E+02  0.00000000000E+00 0.  1.
         21   -1    0    0  501  502 -0.00000000000E+00 -0.00000000000E+00 -0.79003883017E+03  0.79003883017E+03  0.00000000000E+00 0.  1.
         25    1    1    2    0    0  0.79086428343E+01  0.38633518459E+02 -0.53992877362E+02  0.14175798456E+03  0.12500000000E+03 0.  0.
         25    1    1    2    0    0 -0.79086428343E+01 -0.38633518459E+02 -0.68595818256E+03  0.69836861585E+03  0.12500000000E+03 0.  0.
</event>
<event>
 4    0  0.2250660E-002  0.2448406E+03  0.7546771E-02  0.1116610E+00
         21   -1    0    0  502  501  0.00000000000E+00  0.00000000000E+00  0.90764440084E+02  0.90764440084E+02  0.00000000000E+00 0.  1.
         21   -1    0    0  501  502 -0.00000000000E+00 -0.00000000000E+00 -0.66046682644E+03  0.66046682644E+03  0.00000000000E+00 0.  1.
         25    1    1    2    0    0 -0.13554088932E+03 -0.12674642300E+03 -0.13231648108E+03  0.25993968451E+03  0.12500000000E+03 0.  0.
         25    1    1    2    0    0  0.13554088932E+03  0.12674642300E+03 -0.43738590528E+03  0.49129158201E+03  0.12500000000E+03 0.  0.
</event>
<event>
 4    0  0.2250660E-002  0.2627583E+03  0.7546771E-02  0.1105497E+00
         21   -1    0    0  502  501  0.00000000000E+00  0.00000000000E+00  0.31003993868E+02  0.31003993868E+02  0.00000000000E+00 0.  1.
         21   -1    0    0  501  502 -0.00000000000E+00 -0.00000000000E+00 -0.22268719516E+04  0.22268719516E+04  0.00000000000E+00 0.  1.
         25    1    1    2    0    0 -0.46317088310E+02 -0.21817288811E+03 -0.13582970088E+04  0.13821506596E+04  0.12500000000E+03 0.  0.
         25    1    1    2    0    0  0.46317088310E+02  0.21817288811E+03 -0.83757094894E+03  0.87572528585E+03  0.12500000000E+03 0.  0.
</event>
<event>
 4    0  0.2250660E-002  0.2116349E+03  0.7546771E-02  0.1140278E+00
         21   -1    0    0  502  501  0.00000000000E+00  0.00000000000E+00  0.48125581344E+02  0.48125581344E+02  0.00000000000E+00 0.  1.
         21   -1    0    0  501  502 -0.00000000000E+00 -0.00000000000E+00 -0.93067634907E+03  0.93067634907E+03  0.00000000000E+00 0.  1.
         25    1    1    2    0    0 -0.94519315046E+02 -0.11897943116E+03 -0.62150528163E+03  0.65190783171E+03  0.12500000000E+03 0.  0.
         25    1    1    2    0    0  0.94519315046E+02  0.11897943116E+03 -0.26104548610E+03  0.32689409871E+03  0.12500000000E+03 0.  0.
</event>
<event>
 4    0  0.2250660E-002  0.2061112E+03  0.7546771E-02  0.1144683E+00
         21   -1    0    0  502  501  0.00000000000E+00  0.00000000000E+00  0.18626081805E+03  0.18626081805E+03  0.00000000000E+00 0. -1.
         21   -1    0    0  501  502 -0.00000000000E+00 -0.00000000000E+00 -0.22807703762E+03  0.22807703762E+03  0.00000000000E+00 0. -1.
         25    1    1    2    0    0  0.13029885600E+02  0.13840517899E+03 -0.10813505825E+03  0.21597213319E+03  0.12500000000E+03 0.  0.
         25    1    1    2    0    0 -0.13029885600E+02 -0.13840517899E+03  0.66318838680E+02  0.19836572248E+03  0.12500000000E+03 0.  0.
</event>
<event>
 4    0  0.2250660E-002  0.1794313E+03  0.7546771E-02  0.1168355E+00
         21   -1    0    0  502  501  0.00000000000E+00  0.00000000000E+00  0.67283645706E+03  0.67283645706E+03  0.00000000000E+00 0. -1.
         21   -1    0    0  501  502 -0.00000000000E+00 -0.00000000000E+00 -0.47850524652E+02  0.47850524652E+02  0.00000000000E+00 0. -1.
         25    1    1    2    0    0 -0.41917129822E+02  0.46185828580E+02  0.86348968751E+02  0.16422947646E+03  0.12500000000E+03 0.  0.
         25    1    1    2    0    0  0.41917129822E+02 -0.46185828580E+02  0.53863696365E+03  0.55645750525E+03  0.12500000000E+03 0.  0.
</event>
<event>
 4    0  0.2250660E-002  0.1535575E+03  0.7546771E-02  0.1196168E+00
         21   -1    0    0  502  501  0.00000000000E+00  0.00000000000E+00  0.24144801302E+02  0.24144801302E+02  0.00000000000E+00 0.  1.
         21   -1    0    0  501  502 -0.00000000000E+00 -0.00000000000E+00 -0.97660398005E+03  0.97660398005E+03  0.00000000000E+00 0.  1.
         25    1    1    2    0    0  0.74999710038E+02  0.15078301655E+02 -0.62564729698E+03  0.64258217522E+03  0.12500000000E+03 0.  0.
         25    1    1    2    0    0 -0.74999710038E+02 -0.15078301655E+02 -0.32681188176E+03  0.35816660613E+03  0.12500000000E+03 0.  0.
</event>
<event>
 4    0  0.2250660E-002  0.2039952E+03  0.7546771E-02  0.1146411E+00
         21   -1    0    0  502  501  0.00000000000E+00  0.00000000000E+00  0.13598004487E+04  0.13598004487E+04  0.00000000000E+00 0.  1.
         21   -1    0    0  501  502 -0.00000000000E+00 -0.00000000000E+00 -0.30603039633E+02  0.30603039633E+02  0.00000000000E+00 0.  1.
         25    1    1    2    0    0  0.87439730039E+02  0.12348522780E+03  0.47501473958E+03  0.51396333594E+03  0.12500000000E+03 0.  0.
         25    1    1    2    0    0 -0.87439730039E+02 -0.12348522780E+03  0.85418266948E+03  0.87644015239E+03  0.12500000000E+03 0.  0.
</event>
<event>
 4    0  0.2250660E-002  0.1946143E+03  0.7546771E-02  0.1154364E+00
         21   -1    0    0  502  501  0.00000000000E+00  0.00000000000E+00  0.95855640236E+02  0.95855640236E+02  0.00000000000E+00 0.  1.
         21   -1    0    0  501  502 -0.00000000000E+00 -0.00000000000E+00 -0.39512260368E+03  0.39512260368E+03  0.00000000000E+00 0.  1.
         25    1    1    2    0    0  0.10518977064E+03 -0.58109150607E+02 -0.26109682849E+03  0.31342960147E+03  0.12500000000E+03 0.  0.
         25    1    1    2    0    0 -0.10518977064E+03  0.58109150607E+02 -0.38170134958E+02  0.17754864245E+03  0.12500000000E+03 0.  0.
</event>
<event>
 4    0  0.2250660E-002  0.1605398E+03  0.7546771E-02  0.1188089E+00
         21   -1    0    0  502  501  0.00000000000E+00  0.00000000000E+00  0.30362373707E+03  0.30362373707E+03  0.00000000000E+00 0.  1.
         21   -1    0    0  501  502 -0.00000000000E+00 -0.00000000000E+00 -0.84884720586E+02  0.84884720586E+02  0.00000000000E+00 0.  1.
         25    1    1    2    0    0 -0.19751888823E+02 -0.54670516258E+02  0.98173788990E+01  0.13820413665E+03  0.12500000000E+03 0.  0.
         25    1    1    2    0    0  0.19751888823E+02  0.54670516258E+02  0.20892163758E+03  0.25030432100E+03  0.12500000000E+03 0.  0.
</event>
<event>
 4    0  0.2250660E-002  0.2831513E+03  0.7546771E-02  0.1093980E+00
         21   -1    0    0  502  501  0.00000000000E+00  0.00000000000E+00  0.11271682187E+03  0.11271682187E+03  0.00000000000E+00 0. -1.
         21   -1    0    0  501  502 -0.00000000000E+00 -0.00000000000E+00 -0.71129250940E+03  0.71129250940E+03  0.00000000000E+00 0. -1.
         25    1    1    2    0    0  0.19935453211E+03  0.11456355805E+03 -0.45656051682E+03  0.52625045732E+03  0.12500000000E+03 0.  0.
         25    1    1    2    0    0 -0.19935453211E+03 -0.11456355805E+03 -0.14201517070E+03  0.29775887395E+03  0.12500000000E+03 0.  0.
</event>
<event>
 4    0  0.2250660E-002  0.1951753E+03  0.7546771E-02  0.1153875E+00
         21   -1    0    0  502  501  0.00000000000E+00  0.00000000000E+00  0.15298463580E+03  0.15298463580E+03  0.00000000000E+00 0.  1.
         21   -1    0    0  501  502 -0.00000000000E+00 -0.00000000000E+00 -0.24900147367E+03  0.24900147367E+03  0.00000000000E+00 0.  1.
         25    1    1    2    0    0 -0.53223912776E+02  0.50153535569E+02  0.86736090992E+02  0.16880850542E+03  0.12500000000E+03 0.  0.
         25    1    1    2    0    0  0.53223912776E+02 -0.50153535569E+02 -0.18275292887E+03  0.23317760405E+03  0.12500000000E+03 0.  0.
</event>
<event>
 4    0  0.2250660E-002  0.1952756E+03  0.7546771E-02  0.1153787E+00
         21   -1    0    0  502  501  0.00000000000E+00  0.00000000000E+00  0.10941780277E+03  0.10941780277E+03  0.00000000000E+00 0. -1.
         21   -1    0    0  501  502 -0.00000000000E+00 -0.00000000000E+00 -0.34850408461E+03  0.34850408461E+03  0.00000000000E+00 0. -1.
         25    1    1    2    0    0 -0.42124720998E+02  0.60646972995E+02  0.33579490872E+02  0.14901385727E+03  0.12500000000E+03 0.  0.
         25    1    1    2    0    0  0.42124720998E+02 -0.60646972995E+02 -0.27266577272E+03  0.30890803011E+03  0.12500000000E+03 0.  0.
</event>
<event>
 4    0  0.2250660E-002  0.2079871E+03  0.7546771E-02  0.1143170E+00
         21   -1    0    0  502  501  0.00000000000E+00  0.00000000000E+00  0.20101846333E+04  0.20101846333E+04  0.00000000000E+00 0. -1.
         21   -1    0    0  501  502 -0.00000000000E+00 -0.00000000000E+00 -0.21519730697E+02  0.21519730697E+02  0.00000000000E+00 0. -1.
         25    1    1    2    0    0 -0.34851466562E+02 -0.13205442736E+03  0.53147457208E+03  0.56279944676E+03  0.12500000000E+03 0.  0.
         25    1    1    2    0    0  0.34851466562E+02  0.13205442736E+03  0.14571903305E+04  0.14689049172E+04  0.12500000000E+03 0.  0.
</event>
<event>
 4    0  0.2250660E-002  0.2369435E+03  0.7546771E-02  0.1121846E+00
         21   -1    0    0  502  501  0.00000000000E+00  0.00000000000E+00  0.13594012865E+03  0.13594012865E+03  0.00000000000E+00 0.  1.
         21   -1    0    0  501  502 -0.00000000000E+00 -0.00000000000E+00 -0.41299214110E+03  0.41299214110E+03  0.00000000000E+00 0.  1.
         25    1    1    2    0    0 -0.59529108861E+02  0.15148315406E+03 -0.13379578889E+01  0.20522585339E+03  0.12500000000E+03 0.  0.
         25    1    1    2    0    0  0.59529108861E+02 -0.15148315406E+03 -0.27571405456E+03  0.34370641636E+03  0.12500000000E+03 0.  0.
</event>
<event>
 4    0  0.2250660E-002  0.2722255E+03  0.7546771E-02  0.1100013E+00
         21   -1    0    0  502  501  0.00000000000E+00  0.00000000000E+00  0.46256663056E+02  0.46256663056E+02  0.00000000000E+00 0.  1.
         21   -1    0    0  501  502 -0.00000000000E+00 -0.00000000000E+00 -0.16020771664E+04  0.16020771664E+04  0.00000000000E+00 0. -1.
         25    1    1    2    0    0 -0.19783558279E+03  0.13815979411E+03 -0.72959343072E+03  0.77856189264E+03  0.12500000000E+03 0.  0.
         25    1    1    2    0    0  0.19783558279E+03 -0.13815979411E+03 -0.82622707260E+03  0.86977193678E+03  0.12500000000E+03 0.  0.
</event>
<event>
 4    0  0.2250660E-002  0.1877762E+03  0.7546771E-02  0.1160483E+00
         21   -1    0    0  502  501  0.00000000000E+00  0.00000000000E+00  0.11207273565E+03  0.11207273565E+03  0.00000000000E+00 0. -1.
         21   -1    0    0  501  502 -0.00000000000E+00 -0.00000000000E+00 -0.31461610319E+03  0.31461610319E+03  0.00000000000E+00 0. -1.
         25    1    1    2    0    0 -0.13638073492E+03 -0.16151635016E+02 -0.69656371675E+02  0.19833706231E+03  0.12500000000E+03 0.  0.
         25    1    1    2    0    0  0.13638073492E+03  0.16151635016E+02 -0.13288699586E+03  0.22835177652E+03  0.12500000000E+03 0.  0.
</event>
<event>
 4    0  0.2250660E-002  0.4485116E+03  0.7546771E-02  0.1028167E+00
         21   -1    0    0  502  501  0.00000000000E+00  0.00000000000E+00  0.35054945656E+03  0.35054945656E+03  0.00000000000E+00 0. -1.
         21   -1    0    0  501  502 -0.00000000000E+00 -0.00000000000E+00 -0.57384962808E+03  0.57384962808E+03  0.00000000000E+00 0. -1.
         25    1    1    2    0    0 -0.13156191222E+03  0.13766896874E+03 -0.50980435502E+03  0.55837869059E+03  0.12500000000E+03 0.  0.
         25    1    1    2    0    0  0.13156191222E+03 -0.13766896874E+03  0.28650418350E+03  0.36602039405E+03  0.12500000000E+03 0.  0.
</event>
<event>
 4    0  0.2250660E-002  0.4032409E+03  0.7546771E-02  0.1042663E+00
         21   -1    0    0  502  501  0.00000000000E+00  0.00000000000E+00  0.80318605433E+02  0.80318605433E+02  0.00000000000E+00 0. -1.
         21   -1    0    0  501  502 -0.00000000000E+00 -0.00000000000E+00 -0.20244773973E+04  0.20244773973E+04  0.00000000000E+00 0. -1.
         25    1    1    2    0    0  0.16624096816E+03  0.15241653103E+02 -0.18727983009E+04  0.18843743905E+04  0.12500000000E+03 0.  0.
         25    1    1    2    0    0 -0.16624096816E+03 -0.15241653103E+02 -0.71360490930E+02  0.22042161226E+03  0.12500000000E+03 0.  0.
</event>
<event>
 4    0  0.2250660E-002  0.2407906E+03  0.7546771E-02  0.1119267E+00
         21   -1    0    0  502  501  0.00000000000E+00  0.00000000000E+00  0.35837692315E+03  0.35837692315E+03  0.00000000000E+00 0.  1.
         21   -1    0    0  501  502 -0.00000000000E+00 -0.00000000000E+00 -0.16178526186E+03  0.16178526186E+03  0.00000000000E+00 0.  1.
         25    1    1    2    0    0 -0.27158038801E+02  0.11454444186E+03 -0.84039043045E+02  0.19116890173E+03  0.12500000000E+03 0.  0.
         25    1    1    2    0    0  0.27158038801E+02 -0.11454444186E+03  0.28063070433E+03  0.32899328328E+03  0.12500000000E+03 0.  0.
</event>
<event>
 4    0  0.2250660E-002  0.3672015E+03  0.7546771E-02  0.1055768E+00
         21   -1    0    0  502  501  0.00000000000E+00  0.00000000000E+00  0.10123266663E+04  0.10123266663E+04  0.00000000000E+00 0. -1.
         21   -1    0    0  501  502 -0.00000000000E+00 -0.00000000000E+00 -0.13319510557E+03  0.13319510557E+03  0.00000000000E+00 0. -1.
         25    1    1    2    0    0  0.28494377221E+03 -0.16260876838E+03  0.60739758154E+03  0.70156353022E+03  0.12500000000E+03 0.  0.
         25    1    1    2    0    0 -0.28494377221E+03  0.16260876838E+03  0.27173397920E+03  0.44395824165E+03  0.12500000000E+03 0.  0.
</event>
<event>
 4    0  0.2250660E-002  0.4277061E+03  0.7546771E-02  0.1034587E+00
         21   -1    0    0  502  501  0.00000000000E+00  0.00000000000E+00  0.40857657041E+03  0.40857657041E+03  0.00000000000E+00 0.  1.
         21   -1    0    0  501  502 -0.00000000000E+00 -0.00000000000E+00 -0.44773119073E+03  0.44773119073E+03  0.00000000000E+00 0.  1.
         25    1    1    2    0    0 -0.10539095594E+03 -0.14341658241E+03  0.34909066232E+03  0.41129655994E+03  0.12500000000E+03 0.  0.
         25    1    1    2    0    0  0.10539095594E+03  0.14341658241E+03 -0.38824528263E+03  0.44501120119E+03  0.12500000000E+03 0.  0.
</event>
<event>
 4    0  0.2250660E-002  0.2572862E+03  0.7546771E-02  0.1108785E+00
         21   -1    0    0  502  501  0.00000000000E+00  0.00000000000E+00  0.91184162693E+02  0.91184162693E+02  0.00000000000E+00 0. -1.
         21   -1    0    0  501  502 -0.00000000000E+00 -0.00000000000E+00 -0.72596159211E+03  0.72596159211E+03  0.00000000000E+00 0. -1.
         25    1    1    2    0    0  0.21214477274E+03 -0.38192482137E+02 -0.21561814424E+03  0.32951518086E+03  0.12500000000E+03 0.  0.
         25    1    1    2    0    0 -0.21214477274E+03  0.38192482137E+02 -0.41915928518E+03  0.48763057394E+03  0.12500000000E+03 0.  0.
</event>
<event>
 4    0  0.2250660E-002  0.2454344E+03  0.7546771E-02  0.1116225E+00
         21   -1    0    0  502  501  0.00000000000E+00  0.00000000000E+00  0.12091077031E+04  0.12091077031E+04  0.00000000000E+00 0.  1.
         21   -1    0    0  501  502 -0.00000000000E+00 -0.00000000000E+00 -0.49820244500E+02  0.49820244500E+02  0.00000000000E+00 0.  1.
         25    1    1    2    0    0 -0.20790944957E+03 -0.24093300060E+02  0.50682201244E+03  0.56240588423E+03  0.12500000000E+03 0.  0.
         25    1    1    2    0    0  0.20790944957E+03  0.24093300060E+02  0.65246544621E+03  0.69652206341E+03  0.12500000000E+03 0.  0.
</event>
<event>
 4    0  0.2250660E-002  0.2175326E+03  0.7546771E-02  0.1135736E+00
         21   -1    0    0  502  501  0.00000000000E+00  0.00000000000E+00  0.11248809379E+03  0.11248809379E+03  0.00000000000E+00 0. -1.
         21   -1    0    0  501  502 -0.00000000000E+00 -0.00000000000E+00 -0.42067044310E+03  0.42067044310E+03  0.00000000000E+00 0. -1.
         25    1    1    2    0    0 -0.14695297471E+03  0.91592836403E+02 -0.20478161431E+03  0.29587993176E+03  0.12500000000E+03 0.  0.
         25    1    1    2    0    0  0.14695297471E+03 -0.91592836403E+02 -0.10340073499E+03  0.23727860513E+03  0.12500000000E+03 0.  0.
</event>
<event>
 4    0  0.2250660E-002  0.2116187E+03  0.7546771E-02  0.1140291E+00
         21   -1    0    0  502  501  0.00000000000E+00  0.00000000000E+00  0.69639626044E+02  0.69639626044E+02  0.00000000000E+00 0. -1.
         21   -1    0    0  501  502 -0.00000000000E+00 -0.00000000000E+00 -0.64306006583E+03  0.64306006583E+03  0.00000000000E+00 0. -1.
         25    1    1    2    0    0 -0.30740282526E+02  0.46374918623E+02 -0.14862727805E+02  0.13762811749E+03  0.12500000000E+03 0.  0.
         25    1    1    2    0    0  0.30740282526E+02 -0.46374918623E+02 -0.55855771198E+03  0.57507157438E+03  0.12500000000E+03 0.  0.
</event>
<event>
 4    0  0.2250660E-002  0.2824144E+03  0.7546771E-02  0.1094378E+00
         21   -1    0    0  502  501  0.00000000000E+00  0.00000000000E+00  0.23435685846E+03  0.23435685846E+03  0.00000000000E+00 0.  1.
         21   -1    0    0  501  502 -0.00000000000E+00 -0.00000000000E+00 -0.34032669506E+03  0.34032669506E+03  0.00000000000E+00 0.  1.
         25    1    1    2    0    0 -0.27656643208E+02 -0.17708243103E+03 -0.23501934570E+03  0.32090835163E+03  0.12500000000E+03 0.  0.
         25    1    1    2    0    0  0.27656643208E+02  0.17708243103E+03  0.12904950910E+03  0.25377520189E+03  0.12500000000E+03 0.  0.
</event>
<event>
 4    0  0.2250660E-002  0.2432865E+03  0.7546771E-02  0.1117623E+00
         21   -1    0    0  502  501  0.00000000000E+00  0.00000000000E+00  0.53890527261E+03  0.53890527261E+03  0.00000000000E+00 0.  1.
         21   -1    0    0  501  502 -0.00000000000E+00 -0.00000000000E+00 -0.10983070242E+03  0.10983070242E+03  0.00000000000E+00 0.  1.
         25    1    1    2    0    0  0.66645936523E+02 -0.14417689875E+03  0.39507029523E+03  0.44377268636E+03  0.12500000000E+03 0.  0.
         25    1    1    2    0    0 -0.66645936523E+02  0.14417689875E+03  0.34004274963E+02  0.20496328867E+03  0.12500000000E+03 0.  0.
</event>
<event>
 4    0  0.2250660E-002  0.1887399E+03  0.7546771E-02  0.1159603E+00
         21   -1    0    0  502  501  0.00000000000E+00  0.00000000000E+00  0.11508297352E+04  0.11508297352E+04  0.00000000000E+00 0.  1.
         21   -1    0    0  501  502 -0.00000000000E+00 -0.00000000000E+00 -0.30953970675E+02  0.30953970675E+02  0.00000000000E+00 0.  1.
         25    1    1    2    0    0 -0.11309609777E+02 -0.15376312908E+02  0.12126360722E+03  0.17519760474E+03  0.12500000000E+03 0.  0.
         25    1    1    2    0    0  0.11309609777E+02  0.15376312908E+02  0.99861215731E+03  0.10065861011E+04  0.12500000000E+03 0.  0.
</event>
<event>
 4    0  0.2250660E-002  0.3071103E+03  0.7546771E-02  0.1081739E+00
         21   -1    0    0  502  501  0.00000000000E+00  0.00000000000E+00  0.55603852039E+03  0.55603852039E+03  0.00000000000E+00 0.  1.
         21   -1    0    0  501  502 -0.00000000000E+00 -0.00000000000E+00 -0.16962268998E+03  0.16962268998E+03  0.00000000000E+00 0. -1.
         25    1    1    2    0    0 -0.22974936426E+03 -0.15821536497E+03  0.22815276012E+03  0.38143879462E+03  0.12500000000E+03 0.  0.
         25    1    1    2    0    0  0.22974936426E+03  0.15821536497E+03  0.15826307028E+03  0.34422241575E+03  0.12500000000E+03 0.  0.
</event>
<event>
 4    0  0.2250660E-002  0.8557380E+03  0.7546771E-02  0.9482668E-01
         21   -1    0    0  502  501  0.00000000000E+00  0.00000000000E+00  0.54701224307E+03  0.54701224307E+03  0.00000000000E+00 0.  1.
         21   -1    0    0  501  502 -0.00000000000E+00 -0.00000000000E+00 -0.13387040301E+04  0.13387040301E+04  0.00000000000E+00 0.  1.
         25    1    1    2    0    0 -0.27078404286E+03 -0.20394445759E+03  0.45885044896E+03  0.58402574786E+03  0.12500000000E+03 0.  0.
         25    1    1    2    0    0  0.27078404286E+03  0.20394445759E+03 -0.12505422359E+04  0.13016905253E+04  0.12500000000E+03 0.  0.
</event>
<event>
 4    0  0.2250660E-002  0.2146193E+03  0.7546771E-02  0.1137959E+00
         21   -1    0    0  502  501  0.00000000000E+00  0.00000000000E+00  0.13288676205E+03  0.13288676205E+03  0.00000000000E+00 0.  1.
         21   -1    0    0  501  502 -0.00000000000E+00 -0.00000000000E+00 -0.34662163159E+03  0.34662163159E+03  0.00000000000E+00 0.  1.
         25    1    1    2    0    0 -0.95293693531E+02 -0.35624662826E+02  0.51457316651E+02  0.16918291895E+03  0.12500000000E+03 0.  0.
         25    1    1    2    0    0  0.95293693531E+02  0.35624662826E+02 -0.26519218619E+03  0.31032547469E+03  0.12500000000E+03 0.  0.
</event>
<event>
 4    0  0.2250660E-002  0.2045695E+03  0.7546771E-02  0.1145940E+00
         21   -1    0    0  502  501  0.00000000000E+00  0.00000000000E+00  0.13287101500E+03  0.13287101500E+03  0.00000000000E+00 0. -1.
         21   -1    0    0  501  502 -0.00000000000E+00 -0.00000000000E+00 -0.31495726294E+03  0.31495726294E+03  0.00000000000E+00 0. -1.
         25    1    1    2    0    0 -0.45084670419E+02  0.74990232980E+02 -0.24019119096E+03  0.28455749993E+03  0.12500000000E+03 0.  0.
         25    1    1    2    0    0  0.45084670419E+02 -0.74990232980E+02  0.58104943027E+02  0.16327077801E+03  0.12500000000E+03 0.  0.
</event>
<event>
 4    0  0.2250660E-002  0.1769770E+03  0.7546771E-02  0.1170761E+00
         21   -1    0    0  502  501  0.00000000000E+00  0.00000000000E+00  0.39087769690E+03  0.39087769690E+03  0.00000000000E+00 0.  1.
         21   -1    0    0  501  502 -0.00000000000E+00 -0.00000000000E+00 -0.80129528241E+02  0.80129528241E+02  0.00000000000E+00 0.  1.
         25    1    1    2    0    0  0.71468266129E+01 -0.12471112363E+03  0.14261710180E+03  0.22708716215E+03  0.12500000000E+03 0.  0.
         25    1    1    2    0    0 -0.71468266129E+01  0.12471112363E+03  0.16813106686E+03  0.24392006299E+03  0.12500000000E+03 0.  0.
</event>
<event>
 4    0  0.2250660E-002  0.1874161E+03  0.7546771E-02  0.1160813E+00
         21   -1    0    0  502  501  0.00000000000E+00  0.00000000000E+00  0.25201693453E+03  0.25201693453E+03  0.00000000000E+00 0. -1.
         21   -1    0    0  501  502 -0.00000000000E+00 -0.00000000000E+00 -0.13937469326E+03  0.13937469326E+03  0.00000000000E+00 0. -1.
         25    1    1    2    0    0  0.83461695413E+02  0.10194433788E+03  0.80028397562E+01  0.18178984590E+03  0.12500000000E+03 0.  0.
         25    1    1    2    0    0 -0.83461695413E+02 -0.10194433788E+03  0.10463940151E+03  0.20960178190E+03  0.12500000000E+03 0.  0.
</event>
<event>
 4    0  0.2250660E-002  0.2846648E+03  0.7546771E-02  0.1093168E+00
         21   -1    0    0  502  501  0.00000000000E+00  0.00000000000E+00  0.14819142543E+04  0.14819142543E+04  0.00000000000E+00 0. -1.
         21   -1    0    0  501  502 -0.00000000000E+00 -0.00000000000E+00 -0.54682003056E+02  0.54682003056E+02  0.00000000000E+00 0. -1.
         25    1    1    2    0    0  0.10015754743E+03 -0.14591438349E+03  0.21532032903E+03  0.30546748716E+03  0.12500000000E+03 0.  0.
         25    1    1    2    0    0 -0.10015754743E+03  0.14591438349E+03  0.12119119222E+04  0.12311287702E+04  0.12500000000E+03 0.  0.
</event>
<event>
 4    0  0.2250660E-002  0.2378663E+03  0.7546771E-02  0.1121222E+00
         21   -1    0    0  502  501  0.00000000000E+00  0.00000000000E+00  0.71077379441E+03  0.71077379441E+03  0.00000000000E+00 0. -1.
         21   -1    0    0  501  502 -0.00000000000E+00 -0.00000000000E+00 -0.79603925380E+02  0.79603925380E+02  0.00000000000E+00 0. -1.
         25    1    1    2    0    0 -0.91504957438E+02  0.35124840696E+02  0.60974244372E+03  0.63009345286E+03  0.12500000000E+03 0.  0.
         25    1    1    2    0    0  0.91504957438E+02 -0.35124840696E+02  0.21427425316E+02  0.16028426693E+03  0.12500000000E+03 0.  0.
</event>
<event>
 4    0  0.2250660E-002  0.2470139E+03  0.7546771E-02  0.1115207E+00
         21   -1    0    0  502  501  0.00000000000E+00  0.00000000000E+00  0.47353239402E+03  0.47353239402E+03  0.00000000000E+00 0.  1.
         21   -1    0    0  501  502 -0.00000000000E+00 -0.00000000000E+00 -0.12885255666E+03  0.12885255666E+03  0.00000000000E+00 0.  1.
         25    1    1    2    0    0  0.12690809831E+03 -0.64613148106E+02 -0.20878714956E+02  0.19063432289E+03  0.12500000000E+03 0.  0.
         25    1    1    2    0    0 -0.12690809831E+03  0.64613148106E+02  0.36555855232E+03  0.41175062780E+03  0.12500000000E+03 0.  0.
</event>
<event>
 4    0  0.2250660E-002  0.1956251E+03  0.7546771E-02  0.1153483E+00
         21   -1    0    0  502  501  0.00000000000E+00  0.00000000000E+00  0.15939578808E+04  0.15939578808E+04  0.00000000000E+00 0.  1.
         21   -1    0    0  501  502 -0.00000000000E+00 -0.00000000000E+00 -0.24008914821E+02  0.24008914821E+02  0.00000000000E+00 0.  1.
         25    1    1    2    0    0  0.12307445131E+03 -0.77618809797E+02  0.62630326658E+03  0.65502120724E+03  0.12500000000E+03 0.  0.
         25    1    1    2    0    0 -0.12307445131E+03  0.77618809797E+02  0.94364569944E+03  0.96294558843E+03  0.12500000000E+03 0.  0.
</event>
<event>
 4    0  0.2250660E-002  0.1926915E+03  0.7546771E-02  0.1156056E+00
         21   -1    0    0  502  501  0.00000000000E+00  0.00000000000E+00  0.26825010382E+02  0.26825010382E+02  0.00000000000E+00 0.  1.
         21   -1    0    0  501  502 -0.00000000000E+00 -0.00000000000E+00 -0.13841562444E+04  0.13841562444E+04  0.00000000000E+00 0.  1.
         25    1    1    2    0    0 -0.90138861193E+02  0.80453270705E+02 -0.98295144336E+03  0.99820653327E+03  0.12500000000E+03 0.  0.
         25    1    1    2    0    0  0.90138861193E+02 -0.80453270705E+02 -0.37437979066E+03  0.41277472151E+03  0.12500000000E+03 0.  0.
</event>
<event>
 4    0  0.2250660E-002  0.2021884E+03  0.7546771E-02  0.1147906E+00
         21   -1    0    0  502  501  0.00000000000E+00  0.00000000000E+00  0.17081650732E+02  0.17081650732E+02  0.00000000000E+00 0.  1.
         21   -1    0    0  501  502 -0.00000000000E+00 -0.00000000000E+00 -0.23932205274E+04  0.23932205274E+04  0.00000000000E+00 0.  1.
         25    1    1    2    0    0 -0.64432192480E+02  0.10570556666E+03 -0.59410633192E+03  0.61960673647E+03  0.12500000000E+03 0.  0.
         25    1    1    2    0    0  0.64432192480E+02 -0.10570556666E+03 -0.17820325447E+04  0.17906954416E+04  0.12500000000E+03 0.  0.
</event>
<event>
 4    0  0.2250660E-002  0.3210880E+03  0.7546771E-02  0.1075150E+00
         21   -1    0    0  502  501  0.00000000000E+00  0.00000000000E+00  0.16842758446E+03  0.16842758446E+03  0.00000000000E+00 0.  1.
         21   -1    0    0  501  502 -0.00000000000E+00 -0.00000000000E+00 -0.61211752569E+03  0.61211752569E+03  0.00000000000E+00 0. -1.
         25    1    1    2    0    0  0.84511988091E+02 -0.28288313772E+03 -0.24315317417E+03  0.40238490509E+03  0.12500000000E+03 0.  0.
         25    1    1    2    0    0 -0.84511988091E+02  0.28288313772E+03 -0.20053676706E+03  0.37816020505E+03  0.12500000000E+03 0.  0.
</event>
<event>
 4    0  0.2250660E-002  0.2008598E+03  0.7546771E-02  0.1149016E+00
         21   -1    0    0  502  501  0.00000000000E+00  0.00000000000E+00  0.29647630824E+03  0.29647630824E+03  0.00000000000E+00 0.  1.
         21   -1    0    0  501  502 -0.00000000000E+00 -0.00000000000E+00 -0.13608060108E+03  0.13608060108E+03  0.00000000000E+00 0.  1.
         25    1    1    2    0    0 -0.81389974569E+02  0.77071975998E+02  0.19891193060E+03  0.26029862385E+03  0.12500000000E+03 0.  0.
         25    1    1    2    0    0  0.81389974569E+02 -0.77071975998E+02 -0.38516223444E+02  0.17225828547E+03  0.12500000000E+03 0.  0.
</event>
<event>
 4    0  0.2250660E-002  0.1837154E+03  0.7546771E-02  0.1164255E+00
         21   -1    0    0  502  501  0.00000000000E+00  0.00000000000E+00  0.43990104840E+02  0.43990104840E+02  0.00000000000E+00 0. -1.
         21   -1    0    0  501  502 -0.00000000000E+00 -0.00000000000E+00 -0.76724838380E+03  0.76724838380E+03  0.00000000000E+00 0. -1.
         25    1    1    2    0    0 -0.27007342370E+02 -0.86317325846E+02 -0.14143641952E+03  0.20930680364E+03  0.12500000000E+03 0.  0.
         25    1    1    2    0    0  0.27007342370E+02  0.86317325846E+02 -0.58182185944E+03  0.60193168500E+03  0.12500000000E+03 0.  0.
</event>
<event>
 4    0  0.2250660E-002  0.4238708E+03  0.7546771E-02  0.1035814E+00
         21   -1    0    0  502  501  0.00000000000E+00  0.00000000000E+00  0.13656487487E+03  0.13656487487E+03  0.00000000000E+00 0. -1.
         21   -1    0    0  501  502 -0.00000000000E+00 -0.00000000000E+00 -0.13156126468E+04  0.13156126468E+04  0.00000000000E+00 0. -1.
         25    1    1    2    0    0  0.70096785816E+02  0.37285582002E+03 -0.34662588671E+03  0.52887572004E+03  0.12500000000E+03 0.  0.
         25    1    1    2    0    0 -0.70096785816E+02 -0.37285582002E+03 -0.83242188517E+03  0.92330180159E+03  0.12500000000E+03 0.  0.
</event>
<event>
 4    0  0.2250660E-002  0.2352594E+03  0.7546771E-02  0.1122992E+00
         21   -1    0    0  502  501  0.00000000000E+00  0.00000000000E+00  0.98988963176E+02  0.98988963176E+02  0.00000000000E+00 0.  1.
         21   -1    0    0  501  502 -0.00000000000E+00 -0.00000000000E+00 -0.55912273219E+03  0.55912273219E+03  0.00000000000E+00 0.  1.
         25    1    1    2    0    0 -0.58142950300E+02  0.13537293264E+03 -0.42331401290E+02  0.19779631214E+03  0.12500000000E+03 0.  0.
         25    1    1    2    0    0  0.58142950300E+02 -0.13537293264E+03 -0.41780236772E+03  0.46031538323E+03  0.12500000000E+03 0.  0.
</event>
<event>
 4    0  0.2250660E-002  0.1551279E+03  0.7546771E-02  0.1194310E+00
         21   -1    0    0  502  501  0.00000000000E+00  0.00000000000E+00  0.22043311707E+02  0.22043311707E+02  0.00000000000E+00 0.  1.
         21   -1    0    0  501  502 -0.00000000000E+00 -0.00000000000E+00 -0.10916997805E+04  0.10916997805E+04  0.00000000000E+00 0.  1.
         25    1    1    2    0    0 -0.14331919100E+01  0.67929977436E+02 -0.75678850642E+03  0.77004569950E+03  0.12500000000E+03 0.  0.
         25    1    1    2    0    0  0.14331919100E+01 -0.67929977436E+02 -0.31286796239E+03  0.34369739272E+03  0.12500000000E+03 0.  0.
</event>
<event>
 4    0  0.2250660E-002  0.1569900E+03  0.7546771E-02  0.1192138E+00
         21   -1    0    0  502  501  0.00000000000E+00  0.00000000000E+00  0.12729332516E+04  0.12729332516E+04  0.00000000000E+00 0. -1.
         21   -1    0    0  501  502 -0.00000000000E+00 -0.00000000000E+00 -0.19361467341E+02  0.19361467341E+02  0.00000000000E+00 0. -1.
         25    1    1    2    0    0  0.47655756327E+02 -0.73141788873E+02  0.47278138092E+03  0.49675751281E+03  0.12500000000E+03 0.  0.
         25    1    1    2    0    0 -0.47655756327E+02  0.73141788873E+02  0.78079040336E+03  0.79553720615E+03  0.12500000000E+03 0.  0.
</event>
<event>
 4    0  0.2250660E-002  0.2390041E+03  0.7546771E-02  0.1120458E+00
         21   -1    0    0  502  501  0.00000000000E+00  0.00000000000E+00  0.53836576122E+03  0.53836576122E+03  0.00000000000E+00 0.  1.
         21   -1    0    0  501  502 -0.00000000000E+00 -0.00000000000E+00 -0.10610435716E+03  0.10610435716E+03  0.00000000000E+00 0.  1.
         25    1    1    2    0    0 -0.14145103175E+03 -0.12300497691E+03  0.10861465414E+03  0.25012149412E+03  0.12500000000E+03 0.  0.
         25    1    1    2    0    0  0.14145103175E+03  0.12300497691E+03  0.32364674991E+03  0.39434862426E+03  0.12500000000E+03 0.  0.
</event>
<event>
 4    0  0.2250660E-002  0.2596908E+03  0.7546771E-02  0.1107329E+00
         21   -1    0    0  502  501  0.00000000000E+00  0.00000000000E+00  0.32268951952E+03  0.32268951952E+03  0.00000000000E+00 0.  1.
         21   -1    0    0  501  502 -0.00000000000E+00 -0.00000000000E+00 -0.20899131390E+03  0.20899131390E+03  0.00000000000E+00 0.  1.
         25    1    1    2    0    0 -0.61575065125E+02  0.20728977762E+03 -0.15924190680E+02  0.25027808614E+03  0.12500000000E+03 0.  0.
         25    1    1    2    0    0  0.61575065125E+02 -0.20728977762E+03  0.12962239631E+03  0.28140274728E+03  0.12500000000E+03 0.  0.
</event>
<event>
 4    0  0.2250660E-002  0.3147054E+03  0.7546771E-02  0.1078112E+00
         21   -1    0    0  502  501  0.00000000000E+00  0.00000000000E+00  0.12610714680E+03  0.12610714680E+03  0.00000000000E+00 0.  1.
         21   -1    0    0  501  502 -0.00000000000E+00 -0.00000000000E+00 -0.78535983630E+03  0.78535983630E+03  0.00000000000E+00 0.  1.
         25    1    1    2    0    0 -0.14747551701E+03 -0.15245888548E+03 -0.45772152072E+02  0.25042529782E+03  0.12500000000E+03 0.  0.
         25    1    1    2    0    0  0.14747551701E+03  0.15245888548E+03 -0.61348053743E+03  0.66104168529E+03  0.12500000000E+03 0.  0.
</event>
<event>
 4    0  0.2250660E-002  0.2101664E+03  0.7546771E-02  0.1141434E+00
         21   -1    0    0  502  501  0.00000000000E+00  0.00000000000E+00  0.27882624254E+03  0.27882624254E+03  0.00000000000E+00 0. -1.
         21   -1    0    0  501  502 -0.00000000000E+00 -0.00000000000E+00 -0.15841374570E+03  0.15841374570E+03  0.00000000000E+00 0. -1.
         25    1    1    2    0    0 -0.75532043246E+02 -0.81632156698E+02  0.19250700852E+03  0.25505459591E+03  0.12500000000E+03 0.  0.
         25    1    1    2    0    0  0.75532043246E+02  0.81632156698E+02 -0.72094511682E+02  0.18218539233E+03  0.12500000000E+03 0.  0.
</event>
<event>
 4    0  0.2250660E-002  0.1571895E+03  0.7546771E-02  0.1191907E+00
         21   -1    0    0  502  501  0.00000000000E+00  0.00000000000E+00  0.73749299075E+02  0.73749299075E+02  0.00000000000E+00 0. -1.
         21   -1    0    0  501  502 -0.00000000000E+00 -0.00000000000E+00 -0.33503401026E+03  0.33503401026E+03  0.00000000000E+00 0. -1.
         25    1    1    2    0    0 -0.48467118522E+02  0.23982755453E+02 -0.28594222432E+02  0.13916487953E+03  0.12500000000E+03 0.  0.
         25    1    1    2    0    0  0.48467118522E+02 -0.23982755453E+02 -0.23269048875E+03  0.26961842981E+03  0.12500000000E+03 0.  0.
</event>
<event>
 4    0  0.2250660E-002  0.1394343E+03  0.7546771E-02  0.1214092E+00
         21   -1    0    0  502  501  0.00000000000E+00  0.00000000000E+00  0.74607456054E+03  0.74607456054E+03  0.00000000000E+00 0. -1.
         21   -1    0    0  501  502 -0.00000000000E+00 -0.00000000000E+00 -0.26058950843E+02  0.26058950843E+02  0.00000000000E+00 0. -1.
         25    1    1    2    0    0  0.42491824321E+01  0.43916924243E+02  0.47974613496E+03  0.49772292071E+03  0.12500000000E+03 0.  0.
         25    1    1    2    0    0 -0.42491824321E+01 -0.43916924243E+02  0.24026947474E+03  0.27441059068E+03  0.12500000000E+03 0.  0.
</event>
<event>
 4    0  0.2250660E-002  0.2928866E+03  0.7546771E-02  0.1088852E+00
         21   -1    0    0  502  501  0.00000000000E+00  0.00000000000E+00  0.50825256654E+03  0.50825256654E+03  0.00000000000E+00 0. -1.
         21   -1    0    0  501  502 -0.00000000000E+00 -0.00000000000E+00 -0.16877939805E+03  0.16877939805E+03  0.00000000000E+00 0. -1.
         25    1    1    2    0    0 -0.13614801433E+03  0.22118876618E+03  0.10971535886E+03  0.30842051174E+03  0.12500000000E+03 0.  0.
         25    1    1    2    0    0  0.13614801433E+03 -0.22118876618E+03  0.22975780963E+03  0.36861145286E+03  0.12500000000E+03 0.  0.
</event>
<event>
 4    0  0.2250660E-002  0.2068874E+03  0.7546771E-02  0.1144055E+00
         21   -1    0    0  502  501  0.00000000000E+00  0.00000000000E+00  0.19458337066E+03  0.19458337066E+03  0.00000000000E+00 0. -1.
         21   -1    0    0  501  502 -0.00000000000E+00 -0.00000000000E+00 -0.21996940844E+03  0.21996940844E+03  0.00000000000E+00 0. -1.
         25    1    1    2    0    0  0.14665213003E+03  0.46578479462E+00 -0.88136165981E+02  0.21189631415E+03  0.12500000000E+03 0.  0.
         25    1    1    2    0    0 -0.14665213003E+03 -0.46578479462E+00  0.62750128205E+02  0.20265646495E+03  0.12500000000E+03 0.  0.
</event>
<event>
 4    0  0.2250660E-002  0.1899717E+03  0.7546771E-02  0.1158487E+00
         21   -1    0    0  502  501  0.00000000000E+00  0.00000000000E+00  0.33156025517E+02  0.33156025517E+02  0.00000000000E+00 0.  1.
         21   -1    0    0  501  502 -0.00000000000E+00 -0.00000000000E+00 -0.10884672707E+04  0.10884672707E+04  0.00000000000E+00 0.  1.
         25    1    1    2    0    0  0.20910312703E+01 -0.13100564154E+03 -0.35813841282E+03  0.40131654995E+03  0.12500000000E+03 0.  0.
         25    1    1    2    0    0 -0.20910312703E+01  0.13100564154E+03 -0.69717283234E+03  0.72030674624E+03  0.12500000000E+03 0.  0.
</event>
<event>
 4    0  0.2250660E-002  0.2312403E+03  0.7546771E-02  0.1125770E+00
         21   -1    0    0  502  501  0.00000000000E+00  0.00000000000E+00  0.77359987477E+03  0.77359987477E+03  0.00000000000E+00 0.  1.
         21   -1    0    0  501  502 -0.00000000000E+00 -0.00000000000E+00 -0.69121097273E+02  0.69121097273E+02  0.00000000000E+00 0.  1.
         25    1    1    2    0    0 -0.13809029880E+03 -0.41186689019E+02  0.11408582061E+03  0.22227426400E+03  0.12500000000E+03 0.  0.
         25    1    1    2    0    0  0.13809029880E+03  0.41186689019E+02  0.59039295688E+03  0.62044670804E+03  0.12500000000E+03 0.  0.
</event>
<event>
 4    0  0.2250660E-002  0.2503171E+03  0.7546771E-02  0.1113105E+00
         21   -1    0    0  502  501  0.00000000000E+00  0.00000000000E+00  0.42693842903E+03  0.42693842903E+03  0.00000000000E+00 0. -1.
         21   -1    0    0  501  502 -0.00000000000E+00 -0.00000000000E+00 -0.14676275998E+03  0.14676275998E+03  0.00000000000E+00 0. -1.
         25    1    1    2    0    0 -0.11370143383E+03  0.12952203667E+03 -0.10767464139E+02  0.21317812346E+03  0.12500000000E+03 0.  0.
         25    1    1    2    0    0  0.11370143383E+03 -0.12952203667E+03  0.29094313319E+03  0.36052306554E+03  0.12500000000E+03 0.  0.
</event>
<event>
 4    0  0.2250660E-002  0.1960530E+03  0.7546771E-02  0.1153112E+00
         21   -1    0    0  502  501  0.00000000000E+00  0.00000000000E+00  0.11470645502E+03  0.11470645502E+03  0.00000000000E+00 0. -1.
         21   -1    0    0  501  502 -0.00000000000E+00 -0.00000000000E+00 -0.33508810229E+03  0.33508810229E+03  0.00000000000E+00 0. -1.
         25    1    1    2    0    0  0.89622030455E+02 -0.11031903343E+03 -0.51593379897E+02  0.19618683526E+03  0.12500000000E+03 0.  0.
         25    1    1    2    0    0 -0.89622030455E+02  0.11031903343E+03 -0.16878826738E+03  0.25360772205E+03  0.12500000000E+03 0.  0.
</event>
<event>
 4    0  0.2250660E-002  0.2587463E+03  0.7546771E-02  0.1107899E+00
         21   -1    0    0  502  501  0.00000000000E+00  0.00000000000E+00  0.11559161961E+04  0.11559161961E+04  0.00000000000E+00 0.  1.
         21   -1    0    0  501  502 -0.00000000000E+00 -0.00000000000E+00 -0.57919113531E+02  0.57919113531E+02  0.00000000000E+00 0.  1.
         25    1    1    2    0    0 -0.13285990787E+03  0.53548754161E+02  0.13730960978E+03  0.23451685041E+03  0.12500000000E+03 0.  0.
         25    1    1    2    0    0  0.13285990787E+03 -0.53548754161E+02  0.96068747282E+03  0.97931845925E+03  0.12500000000E+03 0.  0.
</event>
<event>
 4    0  0.2250660E-002  0.1902088E+03  0.7546771E-02  0.1158273E+00
         21   -1    0    0  502  501  0.00000000000E+00  0.00000000000E+00  0.34344712684E+03  0.34344712684E+03  0.00000000000E+00 0.  1.
         21   -1    0    0  501  502 -0.00000000000E+00 -0.00000000000E+00 -0.10534188944E+03  0.10534188944E+03  0.00000000000E+00 0.  1.
         25    1    1    2    0    0 -0.17236352495E+02  0.13965722167E+03  0.15142830368E+03  0.24157144402E+03  0.12500000000E+03 0.  0.
         25    1    1    2    0    0  0.17236352495E+02 -0.13965722167E+03  0.86676933730E+02  0.20721757226E+03  0.12500000000E+03 0.  0.
</event>
<event>
 4    0  0.2250660E-002  0.3217074E+03  0.7546771E-02  0.1074866E+00
         21   -1    0    0  502  501  0.00000000000E+00  0.00000000000E+00  0.68609412745E+03  0.68609412745E+03  0.00000000000E+00 0.  1.
         21   -1    0    0  501  502 -0.00000000000E+00 -0.00000000000E+00 -0.15084758706E+03  0.15084758706E+03  0.00000000000E+00 0.  1.
         25    1    1    2    0    0 -0.58794036118E+02 -0.29045764851E+03  0.25858687979E+03  0.41269184467E+03  0.12500000000E+03 0.  0.
         25    1    1    2    0    0  0.58794036118E+02  0.29045764851E+03  0.27665966060E+03  0.42424986984E+03  0.12500000000E+03 0.  0.
</event>
<event>
 4    0  0.2250660E-002  0.5776314E+03  0.7546771E-02  0.9952932E-01
         21   -1    0    0  502  501  0.00000000000E+00  0.00000000000E+00  0.90660928231E+03  0.90660928231E+03  0.00000000000E+00 0.  1.
         21   -1    0    0  501  502 -0.00000000000E+00 -0.00000000000E+00 -0.36802854122E+03  0.36802854122E+03  0.00000000000E+00 0.  1.
         25    1    1    2    0    0 -0.83816464747E+02 -0.54771137706E+03  0.15346611507E+03  0.58837896020E+03  0.12500000000E+03 0.  0.
         25    1    1    2    0    0  0.83816464747E+02  0.54771137706E+03  0.38511462602E+03  0.68625886333E+03  0.12500000000E+03 0.  0.
</event>
<event>
 4    0  0.2250660E-002  0.4122174E+03  0.7546771E-02  0.1039629E+00
         21   -1    0    0  502  501  0.00000000000E+00  0.00000000000E+00  0.46520862267E+03  0.46520862267E+03  0.00000000000E+00 0. -1.
         21   -1    0    0  501  502 -0.00000000000E+00 -0.00000000000E+00 -0.36526234799E+03  0.36526234799E+03  0.00000000000E+00 0.  1.
         25    1    1    2    0    0  0.28994686622E+03 -0.17583614847E+03 -0.14974765627E+03  0.39119930585E+03  0.12500000000E+03 0.  0.
         25    1    1    2    0    0 -0.28994686622E+03  0.17583614847E+03  0.24969393096E+03  0.43927166480E+03  0.12500000000E+03 0.  0.
</event>
<event>
 4    0  0.2250660E-002  0.3309643E+03  0.7546771E-02  0.1070711E+00
         21   -1    0    0  502  501  0.00000000000E+00  0.00000000000E+00  0.60536027314E+03  0.60536027314E+03  0.00000000000E+00 0.  1.
         21   -1    0    0  501  502 -0.00000000000E+00 -0.00000000000E+00 -0.18094570213E+03  0.18094570213E+03  0.00000000000E+00 0.  1.
         25    1    1    2    0    0  0.17717068065E+03  0.12105907929E+03 -0.47689711884E+02  0.25287162628E+03  0.12500000000E+03 0.  0.
         25    1    1    2    0    0 -0.17717068065E+03 -0.12105907929E+03  0.47210428289E+03  0.53343434899E+03  0.12500000000E+03 0.  0.
</event>
<event>
 4    0  0.2250660E-002  0.2265592E+03  0.7546771E-02  0.1129085E+00
         21   -1    0    0  502  501  0.00000000000E+00  0.00000000000E+00  0.50030599887E+03  0.50030599887E+03  0.00000000000E+00 0.  1.
         21   -1    0    0  501  502 -0.00000000000E+00 -0.00000000000E+00 -0.10259539643E+03  0.10259539643E+03  0.00000000000E+00 0.  1.
         25    1    1    2    0    0 -0.45321617504E+02 -0.18337627692E+03  0.20526196430E+03  0.30567692412E+03  0.12500000000E+03 0.  0.
         25    1    1    2    0    0  0.45321617504E+02  0.18337627692E+03  0.19244863814E+03  0.29722447118E+03  0.12500000000E+03 0.  0.
</event>
<event>
 4    0  0.2250660E-002  0.1696005E+03  0.7546771E-02  0.1178265E+00
         21   -1    0    0  502  501  0.00000000000E+00  0.00000000000E+00  0.11051738125E+04  0.11051738125E+04  0.00000000000E+00 0.  1.
         21   -1    0    0  501  502 -0.00000000000E+00 -0.00000000000E+00 -0.26026973269E+02  0.26026973269E+02  0.00000000000E+00 0.  1.
         25    1    1    2    0    0  0.16860470185E+02  0.24749005556E+02  0.17058022870E+03  0.21358699200E+03  0.12500000000E+03 0.  0.
         25    1    1    2    0    0 -0.16860470185E+02 -0.24749005556E+02  0.90856661056E+03  0.91761379379E+03  0.12500000000E+03 0.  0.
</event>
<event>
 4    0  0.2250660E-002  0.2230401E+03  0.7546771E-02  0.1131637E+00
         21   -1    0    0  502  501  0.00000000000E+00  0.00000000000E+00  0.43821713385E+02  0.43821713385E+02  0.00000000000E+00 0. -1.
         21   -1    0    0  501  502 -0.00000000000E+00 -0.00000000000E+00 -0.11352110432E+04  0.11352110432E+04  0.00000000000E+00 0. -1.
         25    1    1    2    0    0  0.23525930539E+02  0.63694419529E+02 -0.91640014164E+02  0.16921389034E+03  0.12500000000E+03 0.  0.
         25    1    1    2    0    0 -0.23525930539E+02 -0.63694419529E+02 -0.99974931560E+03  0.10098188662E+04  0.12500000000E+03 0.  0.
</event>
<event>
 4    0  0.2250660E-002  0.2081851E+03  0.7546771E-02  0.1143011E+00
         21   -1    0    0  502  501  0.00000000000E+00  0.00000000000E+00  0.65522875929E+03  0.65522875929E+03  0.00000000000E+00 0.  1.
         21   -1    0    0  501  502 -0.00000000000E+00 -0.00000000000E+00 -0.66146405562E+02  0.66146405562E+02  0.00000000000E+00 0.  1.
         25    1    1    2    0    0 -0.16141920096E+03  0.25925311330E+02  0.34899200122E+03  0.40515268372E+03  0.12500000000E+03 0.  0.
         25    1    1    2    0    0  0.16141920096E+03 -0.25925311330E+02  0.24009035250E+03  0.31622248113E+03  0.12500000000E+03 0.  0.
</event>
<event>
 4    0  0.2250660E-002  0.4311886E+03  0.7546771E-02  0.1033485E+00
         21   -1    0    0  502  501  0.00000000000E+00  0.00000000000E+00  0.17933702151E+04  0.17933702151E+04  0.00000000000E+00 0. -1.
         21   -1    0    0  501  502 -0.00000000000E+00 -0.00000000000E+00 -0.10367275861E+03  0.10367275861E+03  0.00000000000E+00 0. -1.
         25    1    1    2    0    0 -0.29549615039E+03 -0.21109851492E+03  0.12760178937E+04  0.13325641534E+04  0.12500000000E+03 0.  0.
         25    1    1    2    0    0  0.29549615039E+03  0.21109851492E+03  0.41367956275E+03  0.56447882027E+03  0.12500000000E+03 0.  0.
</event>
<event>
 4    0  0.2250660E-002  0.2302058E+03  0.7546771E-02  0.1126495E+00
         21   -1    0    0  502  501  0.00000000000E+00  0.00000000000E+00  0.41511407330E+03  0.41511407330E+03  0.00000000000E+00 0. -1.
         21   -1    0    0  501  502 -0.00000000000E+00 -0.00000000000E+00 -0.12766297407E+03  0.12766297407E+03  0.00000000000E+00 0. -1.
         25    1    1    2    0    0  0.27013797750E+02 -0.18030555731E+03  0.67965050687E+02  0.23126626944E+03  0.12500000000E+03 0.  0.
         25    1    1    2    0    0 -0.27013797750E+02  0.18030555731E+03  0.21948604854E+03  0.31151077793E+03  0.12500000000E+03 0.  0.
</event>
<event>
 4    0  0.2250660E-002  0.1788699E+03  0.7546771E-02  0.1168901E+00
         21   -1    0    0  502  501  0.00000000000E+00  0.00000000000E+00  0.14800557045E+03  0.14800557045E+03  0.00000000000E+00 0. -1.
         21   -1    0    0  501  502 -0.00000000000E+00 -0.00000000000E+00 -0.21617061081E+03  0.21617061081E+03  0.00000000000E+00 0. -1.
         25    1    1    2    0    0  0.70570487240E+02  0.42277446583E+02  0.65669635010E+02  0.16341688138E+03  0.12500000000E+03 0.  0.
         25    1    1    2    0    0 -0.70570487240E+02 -0.42277446583E+02 -0.13383467537E+03  0.20075929988E+03  0.12500000000E+03 0.  0.
</event>
<event>
 4    0  0.2250660E-002  0.2362162E+03  0.7546771E-02  0.1122339E+00
         21   -1    0    0  502  501  0.00000000000E+00  0.00000000000E+00  0.11668441245E+03  0.11668441245E+03  0.00000000000E+00 0.  1.
         21   -1    0    0  501  502 -0.00000000000E+00 -0.00000000000E+00 -0.47819661731E+03  0.47819661731E+03  0.00000000000E+00 0.  1.
         25    1    1    2    0    0  0.18770432444E+03  0.59735482755E+02 -0.13411768897E+03  0.26909811558E+03  0.12500000000E+03 0.  0.
         25    1    1    2    0    0 -0.18770432444E+03 -0.59735482755E+02 -0.22739451589E+03  0.32578291418E+03  0.12500000000E+03 0.  0.
</event>
<event>
 4    0  0.2337216E-002  0.2011567E+03  0.7546771E-02  0.1148767E+00
         21   -1    0    0  502  501  0.00000000000E+00  0.00000000000E+00  0.49220815482E+03  0.49220815482E+03  0.00000000000E+00 0. -1.
         21   -1    0    0  501  502 -0.00000000000E+00 -0.00000000000E+00 -0.82209120094E+02  0.82209120094E+02  0.00000000000E+00 0. -1.
         25    1    1    2    0    0  0.16861940422E+02 -0.32687005218E+00  0.42873210120E+03  0.44690115963E+03  0.12500000000E+03 0.  0.
         25    1    1    2    0    0 -0.16861940422E+02  0.32687005218E+00 -0.18733066470E+02  0.12751611529E+03  0.12500000000E+03 0.  0.
</event>
<event>
 4    0  0.2250660E-002  0.2333835E+03  0.7546771E-02  0.1124281E+00
         21   -1    0    0  502  501  0.00000000000E+00  0.00000000000E+00  0.12919285079E+03  0.12919285079E+03  0.00000000000E+00 0. -1.
         21   -1    0    0  501  502 -0.00000000000E+00 -0.00000000000E+00 -0.42160111523E+03  0.42160111523E+03  0.00000000000E+00 0. -1.
         25    1    1    2    0    0  0.37667706734E+02 -0.15373216328E+03 -0.76314118946E+01  0.20183080192E+03  0.12500000000E+03 0.  0.
         25    1    1    2    0    0 -0.37667706734E+02  0.15373216328E+03 -0.28477685254E+03  0.34896316410E+03  0.12500000000E+03 0.  0.
</event>
<event>
 4    0  0.2250660E-002  0.2142841E+03  0.7546771E-02  0.1138218E+00
         21   -1    0    0  502  501  0.00000000000E+00  0.00000000000E+00  0.27912047297E+03  0.27912047297E+03  0.00000000000E+00 0. -1.
         21   -1    0    0  501  502 -0.00000000000E+00 -0.00000000000E+00 -0.16450837074E+03  0.16450837074E+03  0.00000000000E+00 0. -1.
         25    1    1    2    0    0  0.15730051294E+03 -0.74077192245E+02  0.65441797573E+02  0.22391630278E+03  0.12500000000E+03 0.  0.
         25    1    1    2    0    0 -0.15730051294E+03  0.74077192245E+02  0.49170304654E+02  0.21971254093E+03  0.12500000000E+03 0.  0.
</event>
<event>
 4    0  0.2250660E-002  0.2070949E+03  0.7546771E-02  0.1143887E+00
         21   -1    0    0  502  501  0.00000000000E+00  0.00000000000E+00  0.13330983539E+03  0.13330983539E+03  0.00000000000E+00 0. -1.
         21   -1    0    0  501  502 -0.00000000000E+00 -0.00000000000E+00 -0.32171891083E+03  0.32171891083E+03  0.00000000000E+00 0. -1.
         25    1    1    2    0    0 -0.16455719188E+03 -0.71616853667E+01 -0.10687115364E+03  0.23275910856E+03  0.12500000000E+03 0.  0.
         25    1    1    2    0    0  0.16455719188E+03  0.71616853667E+01 -0.81537921794E+02  0.22226963767E+03  0.12500000000E+03 0.  0.
</event>
<event>
 4    0  0.2250660E-002  0.1699432E+03  0.7546771E-02  0.1177907E+00
         21   -1    0    0  502  501  0.00000000000E+00  0.00000000000E+00  0.97421365971E+03  0.97421365971E+03  0.00000000000E+00 0.  1.
         21   -1    0    0  501  502 -0.00000000000E+00 -0.00000000000E+00 -0.29645123740E+02  0.29645123740E+02  0.00000000000E+00 0.  1.
         25    1    1    2    0    0 -0.92376530167E+02  0.65087006470E+02  0.53739183129E+03  0.56319155008E+03  0.12500000000E+03 0.  0.
         25    1    1    2    0    0  0.92376530167E+02 -0.65087006470E+02  0.40717670468E+03  0.44066723338E+03  0.12500000000E+03 0.  0.
</event>
<event>
 4    0  0.2250660E-002  0.2648653E+03  0.7546771E-02  0.1104255E+00
         21   -1    0    0  502  501  0.00000000000E+00  0.00000000000E+00  0.14721622249E+03  0.14721622249E+03  0.00000000000E+00 0.  1.
         21   -1    0    0  501  502 -0.00000000000E+00 -0.00000000000E+00 -0.47653470432E+03  0.47653470432E+03  0.00000000000E+00 0.  1.
         25    1    1    2    0    0 -0.16663445308E+03 -0.41006713587E+02 -0.35113409845E+03  0.41032760887E+03  0.12500000000E+03 0.  0.
         25    1    1    2    0    0  0.16663445308E+03  0.41006713587E+02  0.21815616622E+02  0.21342331794E+03  0.12500000000E+03 0.  0.
</event>
<event>
 4    0  0.2250660E-002  0.1702221E+03  0.7546771E-02  0.1177616E+00
         21   -1    0    0  502  501  0.00000000000E+00  0.00000000000E+00  0.36916118774E+02  0.36916118774E+02  0.00000000000E+00 0.  1.
         21   -1    0    0  501  502 -0.00000000000E+00 -0.00000000000E+00 -0.78490295231E+03  0.78490295231E+03  0.00000000000E+00 0.  1.
         25    1    1    2    0    0 -0.11052491015E+03  0.28595593472E+02 -0.41698001275E+03  0.45003421511E+03  0.12500000000E+03 0.  0.
         25    1    1    2    0    0  0.11052491015E+03 -0.28595593472E+02 -0.33100682078E+03  0.37178485597E+03  0.12500000000E+03 0.  0.
</event>
<event>
 4    0  0.2250660E-002  0.2443363E+03  0.7546771E-02  0.1116937E+00
         21   -1    0    0  502  501  0.00000000000E+00  0.00000000000E+00  0.50904205714E+03  0.50904205714E+03  0.00000000000E+00 0. -1.
         21   -1    0    0  501  502 -0.00000000000E+00 -0.00000000000E+00 -0.11727954250E+03  0.11727954250E+03  0.00000000000E+00 0. -1.
         25    1    1    2    0    0 -0.13478528356E+03  0.15850793396E+03  0.16000838398E+03  0.29072241182E+03  0.12500000000E+03 0.  0.
         25    1    1    2    0    0  0.13478528356E+03 -0.15850793396E+03  0.23175413065E+03  0.33559918782E+03  0.12500000000E+03 0.  0.
</event>
<event>
 4    0  0.2250660E-002  0.1872083E+03  0.7546771E-02  0.1161004E+00
         21   -1    0    0  502  501  0.00000000000E+00  0.00000000000E+00  0.31332384032E+03  0.31332384032E+03  0.00000000000E+00 0. -1.
         21   -1    0    0  501  502 -0.00000000000E+00 -0.00000000000E+00 -0.11185533237E+03  0.11185533237E+03  0.00000000000E+00 0. -1.
         25    1    1    2    0    0 -0.11935528613E+03  0.57180932049E+02  0.15031882935E+03  0.23608492916E+03  0.12500000000E+03 0.  0.
         25    1    1    2    0    0  0.11935528613E+03 -0.57180932049E+02  0.51149678594E+02  0.18909424353E+03  0.12500000000E+03 0.  0.
</event>
<event>
 4    0  0.2250660E-002  0.1690604E+03  0.7546771E-02  0.1178831E+00
         21   -1    0    0  502  501  0.00000000000E+00  0.00000000000E+00  0.16933322475E+03  0.16933322475E+03  0.00000000000E+00 0. -1.
         21   -1    0    0  501  502 -0.00000000000E+00 -0.00000000000E+00 -0.16878808557E+03  0.16878808557E+03  0.00000000000E+00 0. -1.
         25    1    1    2    0    0  0.72818428577E+02  0.62751133923E+02  0.61233312188E+02  0.16915893967E+03  0.12500000000E+03 0.  0.
         25    1    1    2    0    0 -0.72818428577E+02 -0.62751133923E+02 -0.60688173008E+02  0.16896237064E+03  0.12500000000E+03 0.  0.
</event>
<event>
 4    0  0.2250660E-002  0.2444452E+03  0.7546771E-02  0.1116867E+00
         21   -1    0    0  502  501  0.00000000000E+00  0.00000000000E+00  0.11489346538E+04  0.11489346538E+04  0.00000000000E+00 0. -1.
         21   -1    0    0  501  502 -0.00000000000E+00 -0.00000000000E+00 -0.52007686749E+02  0.52007686749E+02  0.00000000000E+00 0. -1.
         25    1    1    2    0    0  0.16099333824E+03  0.13241793196E+03  0.61228764275E+03  0.65876742567E+03  0.12500000000E+03 0.  0.
         25    1    1    2    0    0 -0.16099333824E+03 -0.13241793196E+03  0.48463932429E+03  0.54217491487E+03  0.12500000000E+03 0.  0.
</event>
<event>
 4    0  0.2250660E-002  0.2859484E+03  0.7546771E-02  0.1092484E+00
         21   -1    0    0  502  501  0.00000000000E+00  0.00000000000E+00  0.10869236318E+04  0.10869236318E+04  0.00000000000E+00 0.  1.
         21   -1    0    0  501  502 -0.00000000000E+00 -0.00000000000E+00 -0.75227454462E+02  0.75227454462E+02  0.00000000000E+00 0.  1.
         25    1    1    2    0    0  0.19277942383E+03  0.12333198810E+03  0.74427847154E+03  0.78863814816E+03  0.12500000000E+03 0.  0.
         25    1    1    2    0    0 -0.19277942383E+03 -0.12333198810E+03  0.26741770575E+03  0.37351293805E+03  0.12500000000E+03 0.  0.
</event>
<event>
 4    0  0.2250660E-002  0.2949611E+03  0.7546771E-02  0.1087787E+00
         21   -1    0    0  502  501  0.00000000000E+00  0.00000000000E+00  0.16811460494E+04  0.16811460494E+04  0.00000000000E+00 0.  1.
         21   -1    0    0  501  502 -0.00000000000E+00 -0.00000000000E+00 -0.51751629887E+02  0.51751629887E+02  0.00000000000E+00 0.  1.
         25    1    1    2    0    0  0.77792449052E+02 -0.75027869228E+02  0.96983014083E+02  0.19160258691E+03  0.12500000000E+03 0.  0.
         25    1    1    2    0    0 -0.77792449052E+02  0.75027869228E+02  0.15324114054E+04  0.15412950924E+04  0.12500000000E+03 0.  0.
</event>
<event>
 4    0  0.2250660E-002  0.3060676E+03  0.7546771E-02  0.1082246E+00
         21   -1    0    0  502  501  0.00000000000E+00  0.00000000000E+00  0.68350809423E+02  0.68350809423E+02  0.00000000000E+00 0. -1.
         21   -1    0    0  501  502 -0.00000000000E+00 -0.00000000000E+00 -0.13705379396E+04  0.13705379396E+04  0.00000000000E+00 0. -1.
         25    1    1    2    0    0  0.24923102128E+03 -0.58884754352E+02 -0.38861535540E+03  0.48190290590E+03  0.12500000000E+03 0.  0.
         25    1    1    2    0    0 -0.24923102128E+03  0.58884754352E+02 -0.91357177477E+03  0.95698584311E+03  0.12500000000E+03 0.  0.
</event>
<event>
 4    0  0.2250660E-002  0.1811301E+03  0.7546771E-02  0.1166714E+00
         21   -1    0    0  502  501  0.00000000000E+00  0.00000000000E+00  0.11283408316E+03  0.11283408316E+03  0.00000000000E+00 0.  1.
         21   -1    0    0  501  502 -0.00000000000E+00 -0.00000000000E+00 -0.29076430936E+03  0.29076430936E+03  0.00000000000E+00 0.  1.
         25    1    1    2    0    0  0.12887698585E+03  0.14908675096E+02 -0.68075052848E+02  0.19258961263E+03  0.12500000000E+03 0.  0.
         25    1    1    2    0    0 -0.12887698585E+03 -0.14908675096E+02 -0.10985517335E+03  0.21100877988E+03  0.12500000000E+03 0.  0.
</event>
<event>
 4    0  0.2250660E-002  0.1730186E+03  0.7546771E-02  0.1174736E+00
         21   -1    0    0  502  501  0.00000000000E+00  0.00000000000E+00  0.16173784150E+03  0.16173784150E+03  0.00000000000E+00 0.  1.
         21   -1    0    0  501  502 -0.00000000000E+00 -0.00000000000E+00 -0.18508619549E+03  0.18508619549E+03  0.00000000000E+00 0.  1.
         25    1    1    2    0    0 -0.16060483928E+02  0.42141154186E+02  0.99377690373E+02  0.16593595561E+03  0.12500000000E+03 0.  0.
         25    1    1    2    0    0  0.16060483928E+02 -0.42141154186E+02 -0.12272604436E+03  0.18088808138E+03  0.12500000000E+03 0.  0.
</event>
<event>
 4    0  0.2250660E-002  0.1865307E+03  0.7546771E-02  0.1161628E+00
         21   -1    0    0  502  501  0.00000000000E+00  0.00000000000E+00  0.14423455037E+03  0.14423455037E+03  0.00000000000E+00 0. -1.
         21   -1    0    0  501  502 -0.00000000000E+00 -0.00000000000E+00 -0.24122990197E+03  0.24122990197E+03  0.00000000000E+00 0. -1.
         25    1    1    2    0    0 -0.54236155710E+02  0.26819767042E+02 -0.17716834931E+03  0.22510993867E+03  0.12500000000E+03 0.  0.
         25    1    1    2    0    0  0.54236155710E+02 -0.26819767042E+02  0.80172997713E+02  0.16035451366E+03  0.12500000000E+03 0.  0.
</event>
<event>
 4    0  0.2250660E-002  0.2573261E+03  0.7546771E-02  0.1108760E+00
         21   -1    0    0  502  501  0.00000000000E+00  0.00000000000E+00  0.13017442314E+04  0.13017442314E+04  0.00000000000E+00 0. -1.
         21   -1    0    0  501  502 -0.00000000000E+00 -0.00000000000E+00 -0.50867696254E+02  0.50867696254E+02  0.00000000000E+00 0. -1.
         25    1    1    2    0    0  0.17753676664E+03  0.10126908798E+03  0.37865271335E+03  0.44808214539E+03  0.12500000000E+03 0.  0.
         25    1    1    2    0    0 -0.17753676664E+03 -0.10126908798E+03  0.87222382175E+03  0.90452978222E+03  0.12500000000E+03 0.  0.
</event>
<event>
 4    0  0.2250660E-002  0.2464780E+03  0.7546771E-02  0.1115551E+00
         21   -1    0    0  502  501  0.00000000000E+00  0.00000000000E+00  0.34725174119E+02  0.34725174119E+02  0.00000000000E+00 0. -1.
         21   -1    0    0  501  502 -0.00000000000E+00 -0.00000000000E+00 -0.17494923084E+04  0.17494923084E+04  0.00000000000E+00 0. -1.
         25    1    1    2    0    0 -0.16264271021E+03 -0.36489774226E+02 -0.38074131874E+03  0.43401970762E+03  0.12500000000E+03 0.  0.
         25    1    1    2    0    0  0.16264271021E+03  0.36489774226E+02 -0.13340258156E+04  0.13501977749E+04  0.12500000000E+03 0.  0.
</event>
<event>
 4    0  0.2250660E-002  0.2344674E+03  0.7546771E-02  0.1123534E+00
         21   -1    0    0  502  501  0.00000000000E+00  0.00000000000E+00  0.65391113051E+03  0.65391113051E+03  0.00000000000E+00 0.  1.
         21   -1    0    0  501  502 -0.00000000000E+00 -0.00000000000E+00 -0.84070982573E+02  0.84070982573E+02  0.00000000000E+00 0.  1.
         25    1    1    2    0    0  0.12653506661E+03  0.11812211322E+03  0.13245387890E+03  0.25126278425E+03  0.12500000000E+03 0.  0.
         25    1    1    2    0    0 -0.12653506661E+03 -0.11812211322E+03  0.43738626904E+03  0.48671932883E+03  0.12500000000E+03 0.  0.
</event>
<event>
 4    0  0.2250660E-002  0.3269419E+03  0.7546771E-02  0.1072498E+00
         21   -1    0    0  502  501  0.00000000000E+00  0.00000000000E+00  0.64703135351E+03  0.64703135351E+03  0.00000000000E+00 0. -1.
         21   -1    0    0  501  502 -0.00000000000E+00 -0.00000000000E+00 -0.16520223737E+03  0.16520223737E+03  0.00000000000E+00 0. -1.
         25    1    1    2    0    0 -0.11079126729E+03  0.16142746926E+02  0.58945443667E+03  0.61287586516E+03  0.12500000000E+03 0.  0.
         25    1    1    2    0    0  0.11079126729E+03 -0.16142746926E+02 -0.10762532052E+03  0.19935772572E+03  0.12500000000E+03 0.  0.
</event>
<event>
 4    0  0.2250660E-002  0.1780028E+03  0.7546771E-02  0.1169750E+00
         21   -1    0    0  502  501  0.00000000000E+00  0.00000000000E+00  0.76191252790E+03  0.76191252790E+03  0.00000000000E+00 0. -1.
         21   -1    0    0  501  502 -0.00000000000E+00 -0.00000000000E+00 -0.41586153804E+02  0.41586153804E+02  0.00000000000E+00 0. -1.
         25    1    1    2    0    0 -0.39469682179E+01 -0.62273018914E+02  0.11121375388E+03  0.17856933246E+03  0.12500000000E+03 0.  0.
         25    1    1    2    0    0  0.39469682179E+01  0.62273018914E+02  0.60911262021E+03  0.62492934924E+03  0.12500000000E+03 0.  0.
</event>
<event>
 4    0  0.2250660E-002  0.1789789E+03  0.7546771E-02  0.1168795E+00
         21   -1    0    0  502  501  0.00000000000E+00  0.00000000000E+00  0.13997246249E+03  0.13997246249E+03  0.00000000000E+00 0. -1.
         21   -1    0    0  501  502 -0.00000000000E+00 -0.00000000000E+00 -0.22885543728E+03  0.22885543728E+03  0.00000000000E+00 0. -1.
         25    1    1    2    0    0  0.94174533305E+02  0.39829824830E+02  0.35058514658E+02  0.16525542992E+03  0.12500000000E+03 0.  0.
         25    1    1    2    0    0 -0.94174533305E+02 -0.39829824830E+02 -0.12394148945E+03  0.20357246984E+03  0.12500000000E+03 0.  0.
</event>
<event>
 4    0  0.2250660E-002  0.2341727E+03  0.7546771E-02  0.1123737E+00
         21   -1    0    0  502  501  0.00000000000E+00  0.00000000000E+00  0.20690159022E+03  0.20690159022E+03  0.00000000000E+00 0. -1.
         21   -1    0    0  501  502 -0.00000000000E+00 -0.00000000000E+00 -0.26503838485E+03  0.26503838485E+03  0.00000000000E+00 0. -1.
         25    1    1    2    0    0  0.18723230841E+03  0.25866480760E+02 -0.88571165658E+02  0.24329994559E+03  0.12500000000E+03 0.  0.
         25    1    1    2    0    0 -0.18723230841E+03 -0.25866480760E+02  0.30434371032E+02  0.22864002948E+03  0.12500000000E+03 0.  0.
</event>
<event>
 4    0  0.2250660E-002  0.2122862E+03  0.7546771E-02  0.1139768E+00
         21   -1    0    0  502  501  0.00000000000E+00  0.00000000000E+00  0.62779132722E+03  0.62779132722E+03  0.00000000000E+00 0. -1.
         21   -1    0    0  501  502 -0.00000000000E+00 -0.00000000000E+00 -0.71784105680E+02  0.71784105680E+02  0.00000000000E+00 0. -1.
         25    1    1    2    0    0 -0.10662247802E+03  0.40495999814E+02  0.66786021796E+02  0.18191660597E+03  0.12500000000E+03 0.  0.
         25    1    1    2    0    0  0.10662247802E+03 -0.40495999814E+02  0.48922119974E+03  0.51765882693E+03  0.12500000000E+03 0.  0.
</event>
<event>
 4    0  0.2250660E-002  0.7023484E+03  0.7546771E-02  0.9713225E-01
         21   -1    0    0  502  501  0.00000000000E+00  0.00000000000E+00  0.31022965001E+04  0.31022965001E+04  0.00000000000E+00 0. -1.
         21   -1    0    0  501  502 -0.00000000000E+00 -0.00000000000E+00 -0.15900907465E+03  0.15900907465E+03  0.00000000000E+00 0. -1.
         25    1    1    2    0    0  0.39146006333E+03 -0.43181387639E+03  0.60927712373E+03  0.85237774404E+03  0.12500000000E+03 0.  0.
         25    1    1    2    0    0 -0.39146006333E+03  0.43181387639E+03  0.23340103017E+04  0.24089278307E+04  0.12500000000E+03 0.  0.
</event>
<event>
 4    0  0.2250660E-002  0.2914478E+03  0.7546771E-02  0.1089596E+00
         21   -1    0    0  502  501  0.00000000000E+00  0.00000000000E+00  0.36662689979E+03  0.36662689979E+03  0.00000000000E+00 0. -1.
         21   -1    0    0  501  502 -0.00000000000E+00 -0.00000000000E+00 -0.23168464781E+03  0.23168464781E+03  0.00000000000E+00 0. -1.
         25    1    1    2    0    0  0.70712469805E+02 -0.19706388865E+03 -0.96382748626E+02  0.26220042683E+03  0.12500000000E+03 0.  0.
         25    1    1    2    0    0 -0.70712469805E+02  0.19706388865E+03  0.23132500061E+03  0.33611112077E+03  0.12500000000E+03 0.  0.
</event>
<event>
 4    0  0.2250660E-002  0.2896689E+03  0.7546771E-02  0.1090522E+00
         21   -1    0    0  502  501  0.00000000000E+00  0.00000000000E+00  0.34972093645E+03  0.34972093645E+03  0.00000000000E+00 0.  1.
         21   -1    0    0  501  502 -0.00000000000E+00 -0.00000000000E+00 -0.23992862247E+03  0.23992862247E+03  0.00000000000E+00 0.  1.
         25    1    1    2    0    0  0.24161092040E+03 -0.87477937616E+02  0.10322647201E+03  0.30382384855E+03  0.12500000000E+03 0.  0.
         25    1    1    2    0    0 -0.24161092040E+03  0.87477937616E+02  0.65658419650E+01  0.28582571037E+03  0.12500000000E+03 0.  0.
</event>
<event>
 4    0  0.2250660E-002  0.1590569E+03  0.7546771E-02  0.1189766E+00
         21   -1    0    0  502  501  0.00000000000E+00  0.00000000000E+00  0.97950729675E+02  0.97950729675E+02  0.00000000000E+00 0. -1.
         21   -1    0    0  501  502 -0.00000000000E+00 -0.00000000000E+00 -0.25828376297E+03  0.25828376297E+03  0.00000000000E+00 0. -1.
         25    1    1    2    0    0  0.16773878480E+02  0.26802163766E+01 -0.18865487393E+03  0.22694538554E+03  0.12500000000E+03 0.  0.
         25    1    1    2    0    0 -0.16773878480E+02 -0.26802163766E+01  0.28321840637E+02  0.12928910711E+03  0.12500000000E+03 0.  0.
</event>
<event>
 4    0  0.2250660E-002  0.5599253E+03  0.7546771E-02  0.9992224E-01
         21   -1    0    0  502  501  0.00000000000E+00  0.00000000000E+00  0.35672012110E+03  0.35672012110E+03  0.00000000000E+00 0. -1.
         21   -1    0    0  501  502 -0.00000000000E+00 -0.00000000000E+00 -0.87888594009E+03  0.87888594009E+03  0.00000000000E+00 0. -1.
         25    1    1    2    0    0 -0.22536669464E+03 -0.45556155829E+03 -0.41613213741E+02  0.52505536852E+03  0.12500000000E+03 0.  0.
         25    1    1    2    0    0  0.22536669464E+03  0.45556155829E+03 -0.48055260525E+03  0.71055069268E+03  0.12500000000E+03 0.  0.
</event>
<event>
 4    0  0.2250660E-002  0.2722831E+03  0.7546771E-02  0.1099980E+00
         21   -1    0    0  502  501  0.00000000000E+00  0.00000000000E+00  0.37114441670E+03  0.37114441670E+03  0.00000000000E+00 0. -1.
         21   -1    0    0  501  502 -0.00000000000E+00 -0.00000000000E+00 -0.19975529296E+03  0.19975529296E+03  0.00000000000E+00 0. -1.
         25    1    1    2    0    0  0.19194992717E+03 -0.51736305601E+02 -0.58779694712E+02  0.24207740987E+03  0.12500000000E+03 0.  0.
         25    1    1    2    0    0 -0.19194992717E+03  0.51736305601E+02  0.23016881845E+03  0.32882229980E+03  0.12500000000E+03 0.  0.
</event>
<event>
 4    0  0.2250660E-002  0.2094247E+03  0.7546771E-02  0.1142022E+00
         21   -1    0    0  502  501  0.00000000000E+00  0.00000000000E+00  0.86005220375E+03  0.86005220375E+03  0.00000000000E+00 0. -1.
         21   -1    0    0  501  502 -0.00000000000E+00 -0.00000000000E+00 -0.50995415551E+02  0.50995415551E+02  0.00000000000E+00 0. -1.
         25    1    1    2    0    0  0.53040268574E+02  0.14816398565E+03  0.27643836827E+03  0.34177332867E+03  0.12500000000E+03 0.  0.
         25    1    1    2    0    0 -0.53040268574E+02 -0.14816398565E+03  0.53261841993E+03  0.56927429064E+03  0.12500000000E+03 0.  0.
</event>
<event>
 4    0  0.2250660E-002  0.2211822E+03  0.7546771E-02  0.1133005E+00
         21   -1    0    0  502  501  0.00000000000E+00  0.00000000000E+00  0.16753223829E+03  0.16753223829E+03  0.00000000000E+00 0.  1.
         21   -1    0    0  501  502 -0.00000000000E+00 -0.00000000000E+00 -0.29201284023E+03  0.29201284023E+03  0.00000000000E+00 0.  1.
         25    1    1    2    0    0  0.76485179767E+01 -0.16993812185E+03 -0.13082801881E+03  0.24835143566E+03  0.12500000000E+03 0.  0.
         25    1    1    2    0    0 -0.76485179767E+01  0.16993812185E+03  0.63474168806E+01  0.21119364286E+03  0.12500000000E+03 0.  0.
</event>
<event>
 4    0  0.2250660E-002  0.2889604E+03  0.7546771E-02  0.1090893E+00
         21   -1    0    0  502  501  0.00000000000E+00  0.00000000000E+00  0.30357128559E+03  0.30357128559E+03  0.00000000000E+00 0.  1.
         21   -1    0    0  501  502 -0.00000000000E+00 -0.00000000000E+00 -0.27505280964E+03  0.27505280964E+03  0.00000000000E+00 0.  1.
         25    1    1    2    0    0  0.92898177822E+02 -0.17748504345E+03  0.18102157675E+03  0.29753121406E+03  0.12500000000E+03 0.  0.
         25    1    1    2    0    0 -0.92898177822E+02  0.17748504345E+03 -0.15250310080E+03  0.28109288117E+03  0.12500000000E+03 0.  0.
</event>
<event>
 4    0  0.2250660E-002  0.1873875E+03  0.7546771E-02  0.1160839E+00
         21   -1    0    0  502  501  0.00000000000E+00  0.00000000000E+00  0.63718217795E+03  0.63718217795E+03  0.00000000000E+00 0.  1.
         21   -1    0    0  501  502 -0.00000000000E+00 -0.00000000000E+00 -0.55108349414E+02  0.55108349414E+02  0.00000000000E+00 0.  1.
         25    1    1    2    0    0  0.53163902576E+02  0.55486781505E+02  0.50632981755E+03  0.52716227824E+03  0.12500000000E+03 0.  0.
         25    1    1    2    0    0 -0.53163902576E+02 -0.55486781505E+02  0.75744010990E+02  0.16512824913E+03  0.12500000000E+03 0.  0.
</event>
<event>
 4    0  0.2250660E-002  0.2131360E+03  0.7546771E-02  0.1139106E+00
         21   -1    0    0  502  501  0.00000000000E+00  0.00000000000E+00  0.15987217339E+04  0.15987217339E+04  0.00000000000E+00 0.  1.
         21   -1    0    0  501  502 -0.00000000000E+00 -0.00000000000E+00 -0.28414535825E+02  0.28414535825E+02  0.00000000000E+00 0.  1.
         25    1    1    2    0    0 -0.15809630710E+03 -0.19212168208E+02  0.10394555868E+04  0.10589884167E+04  0.12500000000E+03 0.  0.
         25    1    1    2    0    0  0.15809630710E+03  0.19212168208E+02  0.53085161124E+03  0.56814785301E+03  0.12500000000E+03 0.  0.
</event>
<event>
 4    0  0.2250660E-002  0.1668321E+03  0.7546771E-02  0.1181192E+00
         21   -1    0    0  502  501  0.00000000000E+00  0.00000000000E+00  0.76674499101E+03  0.76674499101E+03  0.00000000000E+00 0. -1.
         21   -1    0    0  501  502 -0.00000000000E+00 -0.00000000000E+00 -0.36300135099E+02  0.36300135099E+02  0.00000000000E+00 0. -1.
         25    1    1    2    0    0 -0.40581100215E+02  0.90783239300E+02  0.48113481382E+03  0.50695574886E+03  0.12500000000E+03 0.  0.
         25    1    1    2    0    0  0.40581100215E+02 -0.90783239300E+02  0.24931004210E+03  0.29608937725E+03  0.12500000000E+03 0.  0.
</event>
<event>
 4    0  0.2250660E-002  0.1852842E+03  0.7546771E-02  0.1162785E+00
         21   -1    0    0  502  501  0.00000000000E+00  0.00000000000E+00  0.21837533276E+03  0.21837533276E+03  0.00000000000E+00 0. -1.
         21   -1    0    0  501  502 -0.00000000000E+00 -0.00000000000E+00 -0.15720750754E+03  0.15720750754E+03  0.00000000000E+00 0. -1.
         25    1    1    2    0    0 -0.61094829438E+01 -0.29628338113E+02 -0.10460038104E+03  0.16577516073E+03  0.12500000000E+03 0.  0.
         25    1    1    2    0    0  0.61094829438E+01  0.29628338113E+02  0.16576820626E+03  0.20980767957E+03  0.12500000000E+03 0.  0.
</event>
<event>
 4    0  0.2250660E-002  0.2272826E+03  0.7546771E-02  0.1128567E+00
         21   -1    0    0  502  501  0.00000000000E+00  0.00000000000E+00  0.24187972909E+03  0.24187972909E+03  0.00000000000E+00 0.  1.
         21   -1    0    0  501  502 -0.00000000000E+00 -0.00000000000E+00 -0.21356641355E+03  0.21356641355E+03  0.00000000000E+00 0.  1.
         25    1    1    2    0    0  0.36222989972E+02  0.14447879294E+03  0.13205439930E+03  0.23505231543E+03  0.12500000000E+03 0.  0.
         25    1    1    2    0    0 -0.36222989972E+02 -0.14447879294E+03 -0.10374108376E+03  0.22039382721E+03  0.12500000000E+03 0.  0.
</event>
<event>
 4    0  0.2250660E-002  0.1786546E+03  0.7546771E-02  0.1169112E+00
         21   -1    0    0  502  501  0.00000000000E+00  0.00000000000E+00  0.15529134955E+02  0.15529134955E+02  0.00000000000E+00 0.  1.
         21   -1    0    0  501  502 -0.00000000000E+00 -0.00000000000E+00 -0.20553273302E+04  0.20553273302E+04  0.00000000000E+00 0.  1.
         25    1    1    2    0    0 -0.85112451967E+02  0.76754923320E+02 -0.13455435590E+04  0.13561887468E+04  0.12500000000E+03 0.  0.
         25    1    1    2    0    0  0.85112451967E+02 -0.76754923320E+02 -0.69425463623E+03  0.71466771835E+03  0.12500000000E+03 0.  0.
</event>
<event>
 4    0  0.2250660E-002  0.2397198E+03  0.7546771E-02  0.1119980E+00
         21   -1    0    0  502  501  0.00000000000E+00  0.00000000000E+00  0.40966161145E+03  0.40966161145E+03  0.00000000000E+00 0.  1.
         21   -1    0    0  501  502 -0.00000000000E+00 -0.00000000000E+00 -0.14027577151E+03  0.14027577151E+03  0.00000000000E+00 0.  1.
         25    1    1    2    0    0  0.13303154769E+03  0.14193194532E+03  0.20722487686E+03  0.31049834038E+03  0.12500000000E+03 0.  0.
         25    1    1    2    0    0 -0.13303154769E+03 -0.14193194532E+03  0.62160963070E+02  0.23943904258E+03  0.12500000000E+03 0.  0.
</event>
<event>
 4    0  0.2250660E-002  0.2148637E+03  0.7546771E-02  0.1137771E+00
         21   -1    0    0  502  501  0.00000000000E+00  0.00000000000E+00  0.46747358477E+03  0.46747358477E+03  0.00000000000E+00 0.  1.
         21   -1    0    0  501  502 -0.00000000000E+00 -0.00000000000E+00 -0.98757270160E+02  0.98757270160E+02  0.00000000000E+00 0.  1.
         25    1    1    2    0    0  0.15232314953E+03 -0.42384046911E+02  0.86260235829E+02  0.21923635100E+03  0.12500000000E+03 0.  0.
         25    1    1    2    0    0 -0.15232314953E+03  0.42384046911E+02  0.28245607878E+03  0.34699450393E+03  0.12500000000E+03 0.  0.
</event>
<event>
 4    0  0.2250660E-002  0.4305937E+03  0.7546771E-02  0.1033673E+00
         21   -1    0    0  502  501  0.00000000000E+00  0.00000000000E+00  0.10713473794E+03  0.10713473794E+03  0.00000000000E+00 0.  1.
         21   -1    0    0  501  502 -0.00000000000E+00 -0.00000000000E+00 -0.17306328395E+04  0.17306328395E+04  0.00000000000E+00 0.  1.
         25    1    1    2    0    0  0.17849038630E+03  0.55798195959E+02 -0.28211383057E+02  0.22670054876E+03  0.12500000000E+03 0.  0.
         25    1    1    2    0    0 -0.17849038630E+03 -0.55798195959E+02 -0.15952867185E+04  0.16110670287E+04  0.12500000000E+03 0.  0.
</event>
<event>
 4    0  0.2250660E-002  0.2084446E+03  0.7546771E-02  0.1142804E+00
         21   -1    0    0  502  501  0.00000000000E+00  0.00000000000E+00  0.21256236592E+03  0.21256236592E+03  0.00000000000E+00 0. -1.
         21   -1    0    0  501  502 -0.00000000000E+00 -0.00000000000E+00 -0.20440667850E+03  0.20440667850E+03  0.00000000000E+00 0. -1.
         25    1    1    2    0    0 -0.10470696191E+03 -0.11751228898E+03  0.59328627575E+02  0.20956519746E+03  0.12500000000E+03 0.  0.
         25    1    1    2    0    0  0.10470696191E+03  0.11751228898E+03 -0.51172940155E+02  0.20740384697E+03  0.12500000000E+03 0.  0.
</event>
<event>
 4    0  0.2250660E-002  0.3452887E+03  0.7546771E-02  0.1064566E+00
         21   -1    0    0  502  501  0.00000000000E+00  0.00000000000E+00  0.35437221312E+03  0.35437221312E+03  0.00000000000E+00 0.  1.
         21   -1    0    0  501  502 -0.00000000000E+00 -0.00000000000E+00 -0.33643809441E+03  0.33643809441E+03  0.00000000000E+00 0. -1.
         25    1    1    2    0    0  0.29399462277E+03 -0.12461743252E+01 -0.12209207775E+03  0.34200272897E+03  0.12500000000E+03 0.  0.
         25    1    1    2    0    0 -0.29399462277E+03  0.12461743252E+01  0.14002619646E+03  0.34880757857E+03  0.12500000000E+03 0.  0.
</event>
<event>
 4    0  0.2250660E-002  0.2361111E+03  0.7546771E-02  0.1122411E+00
         21   -1    0    0  502  501  0.00000000000E+00  0.00000000000E+00  0.65859138440E+02  0.65859138440E+02  0.00000000000E+00 0. -1.
         21   -1    0    0  501  502 -0.00000000000E+00 -0.00000000000E+00 -0.84648011359E+03  0.84648011359E+03  0.00000000000E+00 0. -1.
         25    1    1    2    0    0 -0.87510163567E+02 -0.76407596890E+02 -0.70557387614E+03  0.72591710565E+03  0.12500000000E+03 0.  0.
         25    1    1    2    0    0  0.87510163567E+02  0.76407596890E+02 -0.75047099010E+02  0.18642214638E+03  0.12500000000E+03 0.  0.
</event>
<event>
 4    0  0.2250660E-002  0.1965848E+03  0.7546771E-02  0.1152653E+00
         21   -1    0    0  502  501  0.00000000000E+00  0.00000000000E+00  0.20767354428E+03  0.20767354428E+03  0.00000000000E+00 0. -1.
         21   -1    0    0  501  502 -0.00000000000E+00 -0.00000000000E+00 -0.18608822320E+03  0.18608822320E+03  0.00000000000E+00 0. -1.
         25    1    1    2    0    0 -0.10146795072E+03 -0.91770081621E+02 -0.54904203419E+02  0.19327949828E+03  0.12500000000E+03 0.  0.
         25    1    1    2    0    0  0.10146795072E+03  0.91770081621E+02  0.76489524505E+02  0.20048226920E+03  0.12500000000E+03 0.  0.
</event>
<event>
 4    0  0.2250660E-002  0.1914084E+03  0.7546771E-02  0.1157197E+00
         21   -1    0    0  502  501  0.00000000000E+00  0.00000000000E+00  0.10953029934E+03  0.10953029934E+03  0.00000000000E+00 0.  1.
         21   -1    0    0  501  502 -0.00000000000E+00 -0.00000000000E+00 -0.33449350491E+03  0.33449350491E+03  0.00000000000E+00 0.  1.
         25    1    1    2    0    0 -0.15684572612E+02  0.47519143584E+02  0.45314466817E+02  0.14206504048E+03  0.12500000000E+03 0.  0.
         25    1    1    2    0    0  0.15684572612E+02 -0.47519143584E+02 -0.27027767238E+03  0.30195876376E+03  0.12500000000E+03 0.  0.
</event>
<event>
 4    0  0.2250660E-002  0.2343735E+03  0.7546771E-02  0.1123599E+00
         21   -1    0    0  502  501  0.00000000000E+00  0.00000000000E+00  0.27018681881E+03  0.27018681881E+03  0.00000000000E+00 0.  1.
         21   -1    0    0  501  502 -0.00000000000E+00 -0.00000000000E+00 -0.20330731084E+03  0.20330731084E+03  0.00000000000E+00 0.  1.
         25    1    1    2    0    0  0.82376285519E+02  0.78941272323E+02 -0.13033913749E+03  0.21361382833E+03  0.12500000000E+03 0.  0.
         25    1    1    2    0    0 -0.82376285519E+02 -0.78941272323E+02  0.19721864547E+03  0.25988030132E+03  0.12500000000E+03 0.  0.
</event>
<event>
 4    0  0.2250660E-002  0.2835890E+03  0.7546771E-02  0.1093745E+00
         21   -1    0    0  502  501  0.00000000000E+00  0.00000000000E+00  0.61183007321E+03  0.61183007321E+03  0.00000000000E+00 0.  1.
         21   -1    0    0  501  502 -0.00000000000E+00 -0.00000000000E+00 -0.13144613296E+03  0.13144613296E+03  0.00000000000E+00 0.  1.
         25    1    1    2    0    0  0.39422663677E+02 -0.14684916728E+03 -0.27348139209E+02  0.19872530050E+03  0.12500000000E+03 0.  0.
         25    1    1    2    0    0 -0.39422663677E+02  0.14684916728E+03  0.50773207947E+03  0.54455090566E+03  0.12500000000E+03 0.  0.
</event>
<event>
 4    0  0.2250660E-002  0.2293899E+03  0.7546771E-02  0.1127070E+00
         21   -1    0    0  502  501  0.00000000000E+00  0.00000000000E+00  0.24871685759E+04  0.24871685759E+04  0.00000000000E+00 0. -1.
         21   -1    0    0  501  502 -0.00000000000E+00 -0.00000000000E+00 -0.21156473220E+02  0.21156473220E+02  0.00000000000E+00 0. -1.
         25    1    1    2    0    0 -0.55381274144E+02  0.14654768066E+03  0.62292323996E+03  0.65437120285E+03  0.12500000000E+03 0.  0.
         25    1    1    2    0    0  0.55381274144E+02 -0.14654768066E+03  0.18430888627E+04  0.18539538463E+04  0.12500000000E+03 0.  0.
</event>
