<event>
 5    0  0.5547141E-005  0.3023117E+03  0.7546771E-02  0.1084091E+00
         21   -1    0    0  502  501  0.00000000000E+00  0.00000000000E+00  0.73810597190E+03  0.73810597190E+03  0.00000000000E+00 0.  1.
         21   -1    0    0  501  502 -0.00000000000E+00 -0.00000000000E+00 -0.12382012925E+03  0.12382012925E+03  0.00000000000E+00 0.  1.
         25    1    1    2    0    0  0.14156224369E+03 -0.90453928283E+02  0.15419594959E+03  0.26004455936E+03  0.12500000000E+03 0.  0.
         25    1    1    2    0    0  0.52510328145E+02  0.77969833925E+02  0.20015220667E+03  0.25401286463E+03  0.12500000000E+03 0.  0.
         25    1    1    2    0    0 -0.19407257184E+03  0.12484094358E+02  0.25993768638E+03  0.34786867717E+03  0.12500000000E+03 0.  0.
</event>
<event>
 5    0  0.5547141E-005  0.2264559E+03  0.7546771E-02  0.1129159E+00
         21   -1    0    0  502  501  0.00000000000E+00  0.00000000000E+00  0.10516914473E+04  0.10516914473E+04  0.00000000000E+00 0. -1.
         21   -1    0    0  501  502 -0.00000000000E+00 -0.00000000000E+00 -0.48761712133E+02  0.48761712133E+02  0.00000000000E+00 0. -1.
         25    1    1    2    0    0 -0.51649527667E+02 -0.32232389490E+02  0.33109625208E+03  0.35910489941E+03  0.12500000000E+03 0.  0.
         25    1    1    2    0    0  0.11172885754E+03  0.30909281827E+02  0.30898480084E+03  0.35289563395E+03  0.12500000000E+03 0.  0.
         25    1    1    2    0    0 -0.60079329876E+02  0.13231076627E+01  0.36284868223E+03  0.38845262605E+03  0.12500000000E+03 0.  0.
</event>
<event>
 5    0  0.5547141E-005  0.2821590E+03  0.7546771E-02  0.1094516E+00
         21   -1    0    0  502  501  0.00000000000E+00  0.00000000000E+00  0.93506156863E+02  0.93506156863E+02  0.00000000000E+00 0.  1.
         21   -1    0    0  501  502 -0.00000000000E+00 -0.00000000000E+00 -0.85142731309E+03  0.85142731309E+03  0.00000000000E+00 0.  1.
         25    1    1    2    0    0 -0.87963680315E+02  0.10954761264E+03 -0.28588462113E+03  0.34218899031E+03  0.12500000000E+03 0.  0.
         25    1    1    2    0    0  0.88679011877E+02  0.33036038783E+02 -0.10225616664E+03  0.18718085004E+03  0.12500000000E+03 0.  0.
         25    1    1    2    0    0 -0.71533156208E+00 -0.14258365143E+03 -0.36978036845E+03  0.41556362960E+03  0.12500000000E+03 0.  0.
</event>
<event>
 5    0  0.5547141E-005  0.2565695E+03  0.7546771E-02  0.1109222E+00
         21   -1    0    0  502  501  0.00000000000E+00  0.00000000000E+00  0.15980385312E+04  0.15980385312E+04  0.00000000000E+00 0. -1.
         21   -1    0    0  501  502 -0.00000000000E+00 -0.00000000000E+00 -0.41192945885E+02  0.41192945885E+02  0.00000000000E+00 0. -1.
         25    1    1    2    0    0 -0.21242266625E+02  0.54210548349E+02  0.66353314788E+03  0.67771030373E+03  0.12500000000E+03 0.  0.
         25    1    1    2    0    0 -0.36813102515E+02 -0.87681560605E+02  0.72311106971E+03  0.73997153981E+03  0.12500000000E+03 0.  0.
         25    1    1    2    0    0  0.58055369140E+02  0.33471012257E+02  0.17020136769E+03  0.22154963352E+03  0.12500000000E+03 0.  0.
</event>
<event>
 5    0  0.5547141E-005  0.3186148E+03  0.7546771E-02  0.1076289E+00
         21   -1    0    0  502  501  0.00000000000E+00  0.00000000000E+00  0.11206319156E+03  0.11206319156E+03  0.00000000000E+00 0. -1.
         21   -1    0    0  501  502 -0.00000000000E+00 -0.00000000000E+00 -0.90587617025E+03  0.90587617025E+03  0.00000000000E+00 0. -1.
         25    1    1    2    0    0 -0.16234392184E+03 -0.35835147301E+02 -0.24764149651E+03  0.32340534556E+03  0.12500000000E+03 0.  0.
         25    1    1    2    0    0  0.15000108466E+03 -0.11691637853E+03 -0.24656255937E+03  0.33554114599E+03  0.12500000000E+03 0.  0.
         25    1    1    2    0    0  0.12342837181E+02  0.15275152583E+03 -0.29960892281E+03  0.35899287027E+03  0.12500000000E+03 0.  0.
</event>
<event>
 5    0  0.5547141E-005  0.2556344E+03  0.7546771E-02  0.1109795E+00
         21   -1    0    0  502  501  0.00000000000E+00  0.00000000000E+00  0.40033835656E+03  0.40033835656E+03  0.00000000000E+00 0.  1.
         21   -1    0    0  501  502 -0.00000000000E+00 -0.00000000000E+00 -0.16323423320E+03  0.16323423320E+03  0.00000000000E+00 0.  1.
         25    1    1    2    0    0  0.55382000722E+02 -0.44674630160E+02  0.16268523042E+03  0.21715080654E+03  0.12500000000E+03 0.  0.
         25    1    1    2    0    0  0.99363053775E+01  0.10620741358E+03  0.97117234698E+02  0.19088085850E+03  0.12500000000E+03 0.  0.
         25    1    1    2    0    0 -0.65318306100E+02 -0.61532783425E+02 -0.22698341753E+02  0.15554092473E+03  0.12500000000E+03 0.  0.
</event>
<event>
 5    0  0.5547141E-005  0.3297481E+03  0.7546771E-02  0.1071248E+00
         21   -1    0    0  502  501  0.00000000000E+00  0.00000000000E+00  0.80121670669E+02  0.80121670669E+02  0.00000000000E+00 0. -1.
         21   -1    0    0  501  502 -0.00000000000E+00 -0.00000000000E+00 -0.13571088209E+04  0.13571088209E+04  0.00000000000E+00 0. -1.
         25    1    1    2    0    0 -0.15084875917E+03  0.41743278049E+02 -0.61006097078E+03  0.64210375912E+03  0.12500000000E+03 0.  0.
         25    1    1    2    0    0  0.36673323988E+02  0.78127800692E+02 -0.51787549373E+03  0.53969335084E+03  0.12500000000E+03 0.  0.
         25    1    1    2    0    0  0.11417543518E+03 -0.11987107874E+03 -0.14905068567E+03  0.25543338156E+03  0.12500000000E+03 0.  0.
</event>
<event>
 5    0  0.5547141E-005  0.2853321E+03  0.7546771E-02  0.1092812E+00
         21   -1    0    0  502  501  0.00000000000E+00  0.00000000000E+00  0.44857534542E+02  0.44857534542E+02  0.00000000000E+00 0. -1.
         21   -1    0    0  501  502 -0.00000000000E+00 -0.00000000000E+00 -0.18149554985E+04  0.18149554985E+04  0.00000000000E+00 0. -1.
         25    1    1    2    0    0 -0.84733636680E+02 -0.74472157276E+02 -0.22798999981E+03  0.28342605986E+03  0.12500000000E+03 0.  0.
         25    1    1    2    0    0  0.98983875777E+02  0.43248396789E+02 -0.11853876836E+04  0.11968446816E+04  0.12500000000E+03 0.  0.
         25    1    1    2    0    0 -0.14250239097E+02  0.31223760486E+02 -0.35672028060E+03  0.37954229162E+03  0.12500000000E+03 0.  0.
</event>
<event>
 5    0  0.5670981E-005  0.2856228E+03  0.7546771E-02  0.1092657E+00
         21   -1    0    0  502  501  0.00000000000E+00  0.00000000000E+00  0.81775934593E+02  0.81775934593E+02  0.00000000000E+00 0. -1.
         21   -1    0    0  501  502 -0.00000000000E+00 -0.00000000000E+00 -0.99760841192E+03  0.99760841192E+03  0.00000000000E+00 0. -1.
         25    1    1    2    0    0 -0.15988140194E+03 -0.10600828252E+03 -0.32299981287E+03  0.39592132775E+03  0.12500000000E+03 0.  0.
         25    1    1    2    0    0  0.45671510710E+02  0.92271373161E+02 -0.36463273316E+03  0.39897609362E+03  0.12500000000E+03 0.  0.
         25    1    1    2    0    0  0.11420989123E+03  0.13736909355E+02 -0.22819993130E+03  0.28448692514E+03  0.12500000000E+03 0.  0.
</event>
<event>
 5    0  0.5547141E-005  0.4757715E+03  0.7546771E-02  0.1020304E+00
         21   -1    0    0  502  501  0.00000000000E+00  0.00000000000E+00  0.95006925718E+03  0.95006925718E+03  0.00000000000E+00 0.  1.
         21   -1    0    0  501  502 -0.00000000000E+00 -0.00000000000E+00 -0.23825479179E+03  0.23825479179E+03  0.00000000000E+00 0.  1.
         25    1    1    2    0    0  0.16308651844E+03 -0.22055796239E+03  0.35409970587E+03  0.46503185802E+03  0.12500000000E+03 0.  0.
         25    1    1    2    0    0 -0.33343469910E+03  0.57064839501E+02  0.22396663962E+03  0.42452461664E+03  0.12500000000E+03 0.  0.
         25    1    1    2    0    0  0.17034818066E+03  0.16349312289E+03  0.13374811990E+03  0.29876757431E+03  0.12500000000E+03 0.  0.
</event>
<event>
 5    0  0.5547141E-005  0.2993484E+03  0.7546771E-02  0.1085567E+00
         21   -1    0    0  502  501  0.00000000000E+00  0.00000000000E+00  0.19666210217E+03  0.19666210217E+03  0.00000000000E+00 0.  1.
         21   -1    0    0  501  502 -0.00000000000E+00 -0.00000000000E+00 -0.45565187456E+03  0.45565187456E+03  0.00000000000E+00 0.  1.
         25    1    1    2    0    0 -0.11421842832E+03 -0.84178976684E+02 -0.26418062038E+03  0.32488205501E+03  0.12500000000E+03 0.  0.
         25    1    1    2    0    0  0.59031907102E+02  0.45884714491E+02  0.80879708414E+02  0.16660342227E+03  0.12500000000E+03 0.  0.
         25    1    1    2    0    0  0.55186521221E+02  0.38294262193E+02 -0.75688860429E+02  0.16082849945E+03  0.12500000000E+03 0.  0.
</event>
<event>
 5    0  0.5547141E-005  0.3154618E+03  0.7546771E-02  0.1077757E+00
         21   -1    0    0  502  501  0.00000000000E+00  0.00000000000E+00  0.34782435007E+03  0.34782435007E+03  0.00000000000E+00 0.  1.
         21   -1    0    0  501  502 -0.00000000000E+00 -0.00000000000E+00 -0.28611026899E+03  0.28611026899E+03  0.00000000000E+00 0.  1.
         25    1    1    2    0    0  0.20132511881E+02 -0.19915826012E+03  0.21616999515E+01  0.23600636338E+03  0.12500000000E+03 0.  0.
         25    1    1    2    0    0 -0.12177913240E+03  0.81630438535E+02  0.45798636777E+02  0.19803080748E+03  0.12500000000E+03 0.  0.
         25    1    1    2    0    0  0.10164662051E+03  0.11752782159E+03  0.13753744345E+02  0.19989744819E+03  0.12500000000E+03 0.  0.
</event>
<event>
 5    0  0.5547141E-005  0.2730145E+03  0.7546771E-02  0.1099567E+00
         21   -1    0    0  502  501  0.00000000000E+00  0.00000000000E+00  0.40912439565E+03  0.40912439565E+03  0.00000000000E+00 0.  1.
         21   -1    0    0  501  502 -0.00000000000E+00 -0.00000000000E+00 -0.18218648159E+03  0.18218648159E+03  0.00000000000E+00 0.  1.
         25    1    1    2    0    0  0.11249438949E+03  0.10649084845E+03  0.34574516022E+02  0.20202892275E+03  0.12500000000E+03 0.  0.
         25    1    1    2    0    0 -0.70960553837E+02 -0.12243235895E+03  0.17130169917E+03  0.25493990441E+03  0.12500000000E+03 0.  0.
         25    1    1    2    0    0 -0.41533835651E+02  0.15941510509E+02  0.21061698866E+02  0.13434205008E+03  0.12500000000E+03 0.  0.
</event>
<event>
 5    0  0.5608881E-005  0.4857135E+03  0.7546771E-02  0.1017577E+00
         21   -1    0    0  502  501  0.00000000000E+00  0.00000000000E+00  0.15612441939E+04  0.15612441939E+04  0.00000000000E+00 0.  1.
         21   -1    0    0  501  502 -0.00000000000E+00 -0.00000000000E+00 -0.15110869517E+03  0.15110869517E+03  0.00000000000E+00 0.  1.
         25    1    1    2    0    0 -0.17519882761E+03 -0.26508988370E+03  0.61462898984E+03  0.70310815014E+03  0.12500000000E+03 0.  0.
         25    1    1    2    0    0 -0.61818925097E+02  0.14715483489E+03  0.50718386083E+02  0.20898200788E+03  0.12500000000E+03 0.  0.
         25    1    1    2    0    0  0.23701775270E+03  0.11793504881E+03  0.74478812286E+03  0.80026273110E+03  0.12500000000E+03 0.  0.
</event>
<event>
 5    0  0.5547141E-005  0.2716654E+03  0.7546771E-02  0.1100330E+00
         21   -1    0    0  502  501  0.00000000000E+00  0.00000000000E+00  0.71111823183E+03  0.71111823183E+03  0.00000000000E+00 0. -1.
         21   -1    0    0  501  502 -0.00000000000E+00 -0.00000000000E+00 -0.10378314191E+03  0.10378314191E+03  0.00000000000E+00 0. -1.
         25    1    1    2    0    0 -0.83643452795E+02 -0.15623102889E+03  0.33065829738E+03  0.39542922402E+03  0.12500000000E+03 0.  0.
         25    1    1    2    0    0  0.22616627055E+02  0.44731132992E+02  0.14460972072E+03  0.19760910254E+03  0.12500000000E+03 0.  0.
         25    1    1    2    0    0  0.61026825740E+02  0.11149989590E+03  0.13206707182E+03  0.22186304718E+03  0.12500000000E+03 0.  0.
</event>
<event>
 5    0  0.5547141E-005  0.2038054E+03  0.7546771E-02  0.1146568E+00
         21   -1    0    0  502  501  0.00000000000E+00  0.00000000000E+00  0.17384740245E+02  0.17384740245E+02  0.00000000000E+00 0. -1.
         21   -1    0    0  501  502 -0.00000000000E+00 -0.00000000000E+00 -0.23892588095E+04  0.23892588095E+04  0.00000000000E+00 0. -1.
         25    1    1    2    0    0  0.13979833852E+02 -0.61971245862E+02 -0.78728566919E+03  0.79967468134E+03  0.12500000000E+03 0.  0.
         25    1    1    2    0    0  0.14253479326E+02  0.47860576710E+02 -0.94267639608E+03  0.95223819720E+03  0.12500000000E+03 0.  0.
         25    1    1    2    0    0 -0.28233313179E+02  0.14110669152E+02 -0.64191200396E+03  0.65473067118E+03  0.12500000000E+03 0.  0.
</event>
<event>
 5    0  0.5547141E-005  0.3527151E+03  0.7546771E-02  0.1061506E+00
         21   -1    0    0  502  501  0.00000000000E+00  0.00000000000E+00  0.25461651333E+03  0.25461651333E+03  0.00000000000E+00 0.  1.
         21   -1    0    0  501  502 -0.00000000000E+00 -0.00000000000E+00 -0.48860906160E+03  0.48860906160E+03  0.00000000000E+00 0.  1.
         25    1    1    2    0    0  0.45858351895E+02 -0.16243690449E+03 -0.15862312722E+03  0.26320150621E+03  0.12500000000E+03 0.  0.
         25    1    1    2    0    0 -0.15017217134E+03 -0.16790497867E+02 -0.12540184064E+03  0.23277504913E+03  0.12500000000E+03 0.  0.
         25    1    1    2    0    0  0.10431381944E+03  0.17922740236E+03  0.50032419591E+02  0.24724901960E+03  0.12500000000E+03 0.  0.
</event>
<event>
 5    0  0.5547141E-005  0.3018369E+03  0.7546771E-02  0.1084326E+00
         21   -1    0    0  502  501  0.00000000000E+00  0.00000000000E+00  0.51785746323E+03  0.51785746323E+03  0.00000000000E+00 0. -1.
         21   -1    0    0  501  502 -0.00000000000E+00 -0.00000000000E+00 -0.17592781109E+03  0.17592781109E+03  0.00000000000E+00 0. -1.
         25    1    1    2    0    0  0.14190458930E+03  0.97094642743E+02  0.12320940594E+03  0.24570274689E+03  0.12500000000E+03 0.  0.
         25    1    1    2    0    0  0.24927515078E+02 -0.58739268261E+02 -0.42888564341E+01  0.14041038755E+03  0.12500000000E+03 0.  0.
         25    1    1    2    0    0 -0.16683210438E+03 -0.38355374482E+02  0.22300910262E+03  0.30767213988E+03  0.12500000000E+03 0.  0.
</event>
<event>
 5    0  0.5547141E-005  0.3647578E+03  0.7546771E-02  0.1056716E+00
         21   -1    0    0  502  501  0.00000000000E+00  0.00000000000E+00  0.70247915029E+03  0.70247915029E+03  0.00000000000E+00 0. -1.
         21   -1    0    0  501  502 -0.00000000000E+00 -0.00000000000E+00 -0.18939818644E+03  0.18939818644E+03  0.00000000000E+00 0. -1.
         25    1    1    2    0    0  0.24570625760E+03 -0.11842265379E+03  0.10209289972E+03  0.31692814663E+03  0.12500000000E+03 0.  0.
         25    1    1    2    0    0 -0.14097854091E+03  0.28496974565E+02  0.10724320493E+03  0.21866214021E+03  0.12500000000E+03 0.  0.
         25    1    1    2    0    0 -0.10472771669E+03  0.89925679220E+02  0.30374485920E+03  0.35628704989E+03  0.12500000000E+03 0.  0.
</event>
<event>
 5    0  0.5547141E-005  0.5370200E+03  0.7546771E-02  0.1004544E+00
         21   -1    0    0  502  501  0.00000000000E+00  0.00000000000E+00  0.69210847055E+03  0.69210847055E+03  0.00000000000E+00 0. -1.
         21   -1    0    0  501  502 -0.00000000000E+00 -0.00000000000E+00 -0.41668394408E+03  0.41668394408E+03  0.00000000000E+00 0. -1.
         25    1    1    2    0    0  0.97616372925E+02 -0.34593256065E+02  0.56236649900E+03  0.58532617302E+03  0.12500000000E+03 0.  0.
         25    1    1    2    0    0  0.18762098380E+02 -0.14302092969E+03 -0.13814693040E+03  0.23561955998E+03  0.12500000000E+03 0.  0.
         25    1    1    2    0    0 -0.11637847131E+03  0.17761418576E+03 -0.14879504213E+03  0.28784668164E+03  0.12500000000E+03 0.  0.
</event>
<event>
 5    0  0.5547141E-005  0.4571762E+03  0.7546771E-02  0.1025603E+00
         21   -1    0    0  502  501  0.00000000000E+00  0.00000000000E+00  0.58275877029E+03  0.58275877029E+03  0.00000000000E+00 0. -1.
         21   -1    0    0  501  502 -0.00000000000E+00 -0.00000000000E+00 -0.35865629259E+03  0.35865629259E+03  0.00000000000E+00 0. -1.
         25    1    1    2    0    0  0.19367583936E+03 -0.13248070202E+02 -0.15314509953E+03  0.27706364545E+03  0.12500000000E+03 0.  0.
         25    1    1    2    0    0 -0.31210734711E+03  0.22052262963E+02  0.12618500824E+03  0.35978459490E+03  0.12500000000E+03 0.  0.
         25    1    1    2    0    0  0.11843150775E+03 -0.88041927613E+01  0.25106256900E+03  0.30456682253E+03  0.12500000000E+03 0.  0.
</event>
<event>
 5    0  0.5634958E-005  0.3104971E+03  0.7546771E-02  0.1080108E+00
         21   -1    0    0  502  501  0.00000000000E+00  0.00000000000E+00  0.48411253318E+03  0.48411253318E+03  0.00000000000E+00 0.  1.
         21   -1    0    0  501  502 -0.00000000000E+00 -0.00000000000E+00 -0.19914471654E+03  0.19914471654E+03  0.00000000000E+00 0.  1.
         25    1    1    2    0    0 -0.83380025940E+02  0.81027913185E+02  0.18125820600E+03  0.24899254745E+03  0.12500000000E+03 0.  0.
         25    1    1    2    0    0  0.12844017698E+03  0.54696424657E+02  0.14852711368E+03  0.23911060502E+03  0.12500000000E+03 0.  0.
         25    1    1    2    0    0 -0.45060151042E+02 -0.13572433784E+03 -0.44817503038E+02  0.19515409725E+03  0.12500000000E+03 0.  0.
</event>
<event>
 5    0  0.5547141E-005  0.2973734E+03  0.7546771E-02  0.1086561E+00
         21   -1    0    0  502  501  0.00000000000E+00  0.00000000000E+00  0.13928335948E+03  0.13928335948E+03  0.00000000000E+00 0. -1.
         21   -1    0    0  501  502 -0.00000000000E+00 -0.00000000000E+00 -0.63489963935E+03  0.63489963935E+03  0.00000000000E+00 0. -1.
         25    1    1    2    0    0 -0.57022162466E+02 -0.53552263215E+02 -0.69399908497E+02  0.16297459682E+03  0.12500000000E+03 0.  0.
         25    1    1    2    0    0 -0.70567954906E+02  0.10200946399E+03 -0.36589246293E+02  0.17985977857E+03  0.12500000000E+03 0.  0.
         25    1    1    2    0    0  0.12759011737E+03 -0.48457200773E+02 -0.38962712508E+03  0.43134862345E+03  0.12500000000E+03 0.  0.
</event>
<event>
 5    0  0.5547141E-005  0.2893509E+03  0.7546771E-02  0.1090689E+00
         21   -1    0    0  502  501  0.00000000000E+00  0.00000000000E+00  0.20222253586E+03  0.20222253586E+03  0.00000000000E+00 0. -1.
         21   -1    0    0  501  502 -0.00000000000E+00 -0.00000000000E+00 -0.41401891933E+03  0.41401891933E+03  0.00000000000E+00 0. -1.
         25    1    1    2    0    0  0.81472711588E+01  0.31488481661E+02  0.79638713175E+02  0.15174065751E+03  0.12500000000E+03 0.  0.
         25    1    1    2    0    0  0.11473927927E+02  0.94370351866E+02 -0.22432656851E+03  0.27383356930E+03  0.12500000000E+03 0.  0.
         25    1    1    2    0    0 -0.19621199085E+02 -0.12585883353E+03 -0.67108528134E+02  0.19066722838E+03  0.12500000000E+03 0.  0.
</event>
<event>
 5    0  0.5547141E-005  0.2587689E+03  0.7546771E-02  0.1107885E+00
         21   -1    0    0  502  501  0.00000000000E+00  0.00000000000E+00  0.47560900749E+03  0.47560900749E+03  0.00000000000E+00 0. -1.
         21   -1    0    0  501  502 -0.00000000000E+00 -0.00000000000E+00 -0.14079078691E+03  0.14079078691E+03  0.00000000000E+00 0. -1.
         25    1    1    2    0    0 -0.30086675725E+02  0.64216803756E+02  0.66938218598E+02  0.15853936751E+03  0.12500000000E+03 0.  0.
         25    1    1    2    0    0 -0.56803893672E+02 -0.10126161107E+03  0.24643155197E+03  0.29972338251E+03  0.12500000000E+03 0.  0.
         25    1    1    2    0    0  0.86890569397E+02  0.37044807315E+02  0.21448450013E+02  0.15813704439E+03  0.12500000000E+03 0.  0.
</event>
<event>
 5    0  0.5547141E-005  0.3534997E+03  0.7546771E-02  0.1061188E+00
         21   -1    0    0  502  501  0.00000000000E+00  0.00000000000E+00  0.45004248461E+04  0.45004248461E+04  0.00000000000E+00 0. -1.
         21   -1    0    0  501  502 -0.00000000000E+00 -0.00000000000E+00 -0.27766719034E+02  0.27766719034E+02  0.00000000000E+00 0. -1.
         25    1    1    2    0    0  0.86298217638E+01  0.16761576283E+03  0.84895624684E+03  0.87436904498E+03  0.12500000000E+03 0.  0.
         25    1    1    2    0    0 -0.10234265912E+03  0.20970410695E+01  0.25744107224E+04  0.25794755252E+04  0.12500000000E+03 0.  0.
         25    1    1    2    0    0  0.93712837351E+02 -0.16971280390E+03  0.10492911578E+04  0.10743469950E+04  0.12500000000E+03 0.  0.
</event>
<event>
 5    0  0.5547141E-005  0.3666239E+03  0.7546771E-02  0.1055991E+00
         21   -1    0    0  502  501  0.00000000000E+00  0.00000000000E+00  0.36047537754E+03  0.36047537754E+03  0.00000000000E+00 0. -1.
         21   -1    0    0  501  502 -0.00000000000E+00 -0.00000000000E+00 -0.37287736135E+03  0.37287736135E+03  0.00000000000E+00 0. -1.
         25    1    1    2    0    0  0.19902174940E+03  0.30822855961E+02  0.32276018871E+02  0.23922049783E+03  0.12500000000E+03 0.  0.
         25    1    1    2    0    0  0.38704269903E+02  0.12414745564E+02 -0.15265159787E+03  0.20144392954E+03  0.12500000000E+03 0.  0.
         25    1    1    2    0    0 -0.23772601931E+03 -0.43237601525E+02  0.10797359520E+03  0.29268831152E+03  0.12500000000E+03 0.  0.
</event>
<event>
 5    0  0.6354932E-005  0.3524178E+03  0.7546771E-02  0.1061627E+00
         21   -1    0    0  502  501  0.00000000000E+00  0.00000000000E+00  0.23425233576E+03  0.23425233576E+03  0.00000000000E+00 0. -1.
         21   -1    0    0  501  502 -0.00000000000E+00 -0.00000000000E+00 -0.53019035129E+03  0.53019035129E+03  0.00000000000E+00 0. -1.
         25    1    1    2    0    0  0.46999458144E+02  0.17832984815E+03 -0.23607740751E+03  0.32460441486E+03  0.12500000000E+03 0.  0.
         25    1    1    2    0    0 -0.10438148982E+03 -0.18132523570E+03 -0.13955631333E+03  0.28084746947E+03  0.12500000000E+03 0.  0.
         25    1    1    2    0    0  0.57382031676E+02  0.29953875534E+01  0.79695705314E+02  0.15899080273E+03  0.12500000000E+03 0.  0.
</event>
<event>
 5    0  0.5547141E-005  0.2203209E+03  0.7546771E-02  0.1133644E+00
         21   -1    0    0  502  501  0.00000000000E+00  0.00000000000E+00  0.49230960094E+03  0.49230960094E+03  0.00000000000E+00 0. -1.
         21   -1    0    0  501  502 -0.00000000000E+00 -0.00000000000E+00 -0.98599119871E+02  0.98599119871E+02  0.00000000000E+00 0. -1.
         25    1    1    2    0    0 -0.13341515769E+02  0.11460633251E+02  0.16241679728E+03  0.20570259648E+03  0.12500000000E+03 0.  0.
         25    1    1    2    0    0 -0.41368746070E+00  0.82330908338E+02  0.94103694191E+02  0.17680230447E+03  0.12500000000E+03 0.  0.
         25    1    1    2    0    0  0.13755203230E+02 -0.93791541589E+02  0.13718998959E+03  0.20840381986E+03  0.12500000000E+03 0.  0.
</event>
<event>
 5    0  0.5547141E-005  0.2497964E+03  0.7546771E-02  0.1113434E+00
         21   -1    0    0  502  501  0.00000000000E+00  0.00000000000E+00  0.92383115140E+02  0.92383115140E+02  0.00000000000E+00 0.  1.
         21   -1    0    0  501  502 -0.00000000000E+00 -0.00000000000E+00 -0.67542910818E+03  0.67542910818E+03  0.00000000000E+00 0.  1.
         25    1    1    2    0    0  0.10301670786E+03 -0.20418032887E+02 -0.19618100520E+03  0.25522798626E+03  0.12500000000E+03 0.  0.
         25    1    1    2    0    0 -0.95425030759E+02  0.70291231727E+02 -0.31695304564E+03  0.36073678340E+03  0.12500000000E+03 0.  0.
         25    1    1    2    0    0 -0.75916771058E+01 -0.49873198841E+02 -0.69911942194E+02  0.15184745367E+03  0.12500000000E+03 0.  0.
</event>
<event>
 5    0  0.5547141E-005  0.2922405E+03  0.7546771E-02  0.1089185E+00
         21   -1    0    0  502  501  0.00000000000E+00  0.00000000000E+00  0.12679660036E+03  0.12679660036E+03  0.00000000000E+00 0.  1.
         21   -1    0    0  501  502 -0.00000000000E+00 -0.00000000000E+00 -0.67355521760E+03  0.67355521760E+03  0.00000000000E+00 0.  1.
         25    1    1    2    0    0 -0.85251655389E+02  0.12063753737E+03 -0.22183381975E+03  0.29437476752E+03  0.12500000000E+03 0.  0.
         25    1    1    2    0    0  0.14761610908E+03 -0.75816977357E+02 -0.28725068799E+03  0.35450907953E+03  0.12500000000E+03 0.  0.
         25    1    1    2    0    0 -0.62364453695E+02 -0.44820560013E+02 -0.37674109499E+02  0.15146797091E+03  0.12500000000E+03 0.  0.
</event>
<event>
 5    0  0.5547141E-005  0.2488094E+03  0.7546771E-02  0.1114060E+00
         21   -1    0    0  502  501  0.00000000000E+00  0.00000000000E+00  0.93012623464E+02  0.93012623464E+02  0.00000000000E+00 0.  1.
         21   -1    0    0  501  502 -0.00000000000E+00 -0.00000000000E+00 -0.66556705008E+03  0.66556705008E+03  0.00000000000E+00 0.  1.
         25    1    1    2    0    0 -0.78892706068E+02 -0.60521362882E+02 -0.24007774358E+03  0.28835606011E+03  0.12500000000E+03 0.  0.
         25    1    1    2    0    0 -0.45259448894E+02  0.48516308972E+02 -0.81372252026E+02  0.16324427509E+03  0.12500000000E+03 0.  0.
         25    1    1    2    0    0  0.12415215496E+03  0.12005053910E+02 -0.25110443101E+03  0.30697933835E+03  0.12500000000E+03 0.  0.
</event>
<event>
 5    0  0.5547141E-005  0.3138697E+03  0.7546771E-02  0.1078506E+00
         21   -1    0    0  502  501  0.00000000000E+00  0.00000000000E+00  0.16206827722E+03  0.16206827722E+03  0.00000000000E+00 0. -1.
         21   -1    0    0  501  502 -0.00000000000E+00 -0.00000000000E+00 -0.60785597018E+03  0.60785597018E+03  0.00000000000E+00 0. -1.
         25    1    1    2    0    0 -0.82973836224E+02 -0.14035048672E+03 -0.25950631610E+03  0.33098556572E+03  0.12500000000E+03 0.  0.
         25    1    1    2    0    0  0.12422433066E+03  0.14480471766E+03 -0.23128629217E+02  0.22925973060E+03  0.12500000000E+03 0.  0.
         25    1    1    2    0    0 -0.41250494432E+02 -0.44542309378E+01 -0.16315274765E+03  0.20967895109E+03  0.12500000000E+03 0.  0.
</event>
<event>
 5    0  0.5547141E-005  0.4015834E+03  0.7546771E-02  0.1043233E+00
         21   -1    0    0  502  501  0.00000000000E+00  0.00000000000E+00  0.93797777004E+02  0.93797777004E+02  0.00000000000E+00 0.  1.
         21   -1    0    0  501  502 -0.00000000000E+00 -0.00000000000E+00 -0.17193288322E+04  0.17193288322E+04  0.00000000000E+00 0.  1.
         25    1    1    2    0    0  0.20637443363E+03 -0.17645291516E+03 -0.77744893811E+03  0.83293330435E+03  0.12500000000E+03 0.  0.
         25    1    1    2    0    0 -0.56922569260E+02  0.19309715334E+03 -0.68740614771E+03  0.72710308858E+03  0.12500000000E+03 0.  0.
         25    1    1    2    0    0 -0.14945186437E+03 -0.16644238171E+02 -0.16067596933E+03  0.25309021623E+03  0.12500000000E+03 0.  0.
</event>
<event>
 5    0  0.5547141E-005  0.3587966E+03  0.7546771E-02  0.1059061E+00
         21   -1    0    0  502  501  0.00000000000E+00  0.00000000000E+00  0.82206037722E+02  0.82206037722E+02  0.00000000000E+00 0.  1.
         21   -1    0    0  501  502 -0.00000000000E+00 -0.00000000000E+00 -0.15660045805E+04  0.15660045805E+04  0.00000000000E+00 0.  1.
         25    1    1    2    0    0  0.35304010867E+02  0.11838410132E+03 -0.89653770487E+03  0.91360058280E+03  0.12500000000E+03 0.  0.
         25    1    1    2    0    0 -0.87006495594E+02 -0.42229386666E+02 -0.36249710808E+02  0.16214960039E+03  0.12500000000E+03 0.  0.
         25    1    1    2    0    0  0.51702484727E+02 -0.76154714653E+02 -0.55101112706E+03  0.57246043499E+03  0.12500000000E+03 0.  0.
</event>
<event>
 5    0  0.5547141E-005  0.3169877E+03  0.7546771E-02  0.1077044E+00
         21   -1    0    0  502  501  0.00000000000E+00  0.00000000000E+00  0.30680196038E+03  0.30680196038E+03  0.00000000000E+00 0.  1.
         21   -1    0    0  501  502 -0.00000000000E+00 -0.00000000000E+00 -0.32751150733E+03  0.32751150733E+03  0.00000000000E+00 0.  1.
         25    1    1    2    0    0 -0.17172864244E+03 -0.67456787134E+02 -0.13034771875E+03  0.25817953550E+03  0.12500000000E+03 0.  0.
         25    1    1    2    0    0  0.17707596256E+03 -0.17467929576E+01  0.62577010953E+02  0.22560990692E+03  0.12500000000E+03 0.  0.
         25    1    1    2    0    0 -0.53473201208E+01  0.69203580092E+02  0.47061160849E+02  0.15052402529E+03  0.12500000000E+03 0.  0.
</event>
<event>
 5    0  0.5606085E-005  0.3461906E+03  0.7546771E-02  0.1064190E+00
         21   -1    0    0  502  501  0.00000000000E+00  0.00000000000E+00  0.80581305664E+03  0.80581305664E+03  0.00000000000E+00 0. -1.
         21   -1    0    0  501  502 -0.00000000000E+00 -0.00000000000E+00 -0.14872918406E+03  0.14872918406E+03  0.00000000000E+00 0. -1.
         25    1    1    2    0    0 -0.58453175604E+02  0.96874689560E+02  0.30865407475E+03  0.35170131799E+03  0.12500000000E+03 0.  0.
         25    1    1    2    0    0 -0.85661162866E+02 -0.19919952658E+03  0.90599154214E+02  0.26617943752E+03  0.12500000000E+03 0.  0.
         25    1    1    2    0    0  0.14411433847E+03  0.10232483702E+03  0.25783064361E+03  0.33666148519E+03  0.12500000000E+03 0.  0.
</event>
<event>
 5    0  0.5547141E-005  0.3833457E+03  0.7546771E-02  0.1049704E+00
         21   -1    0    0  502  501  0.00000000000E+00  0.00000000000E+00  0.65592802886E+03  0.65592802886E+03  0.00000000000E+00 0. -1.
         21   -1    0    0  501  502 -0.00000000000E+00 -0.00000000000E+00 -0.22403966971E+03  0.22403966971E+03  0.00000000000E+00 0. -1.
         25    1    1    2    0    0  0.10265745572E+03 -0.11273004653E+03  0.69223820305E+01  0.19728034869E+03  0.12500000000E+03 0.  0.
         25    1    1    2    0    0  0.94877948758E+01  0.16691443056E+03  0.45784938870E+03  0.50319132357E+03  0.12500000000E+03 0.  0.
         25    1    1    2    0    0 -0.11214525060E+03 -0.54184384037E+02 -0.32883411591E+02  0.17949602631E+03  0.12500000000E+03 0.  0.
</event>
<event>
 5    0  0.5547141E-005  0.2696869E+03  0.7546771E-02  0.1101459E+00
         21   -1    0    0  502  501  0.00000000000E+00  0.00000000000E+00  0.30765700252E+03  0.30765700252E+03  0.00000000000E+00 0. -1.
         21   -1    0    0  501  502 -0.00000000000E+00 -0.00000000000E+00 -0.23640304076E+03  0.23640304076E+03  0.00000000000E+00 0. -1.
         25    1    1    2    0    0  0.12546630161E+03 -0.67875768304E+02  0.41003882645E+02  0.19404955850E+03  0.12500000000E+03 0.  0.
         25    1    1    2    0    0 -0.64986681369E+02  0.82562003334E+02  0.10249132965E+03  0.19279322033E+03  0.12500000000E+03 0.  0.
         25    1    1    2    0    0 -0.60479620236E+02 -0.14686235030E+02 -0.72241250544E+02  0.15721726446E+03  0.12500000000E+03 0.  0.
</event>
<event>
 5    0  0.5547141E-005  0.2432308E+03  0.7546771E-02  0.1117659E+00
         21   -1    0    0  502  501  0.00000000000E+00  0.00000000000E+00  0.76589435709E+02  0.76589435709E+02  0.00000000000E+00 0. -1.
         21   -1    0    0  501  502 -0.00000000000E+00 -0.00000000000E+00 -0.77244602430E+03  0.77244602430E+03  0.00000000000E+00 0. -1.
         25    1    1    2    0    0  0.80864993315E+02 -0.29434147031E+02 -0.17502120353E+03  0.23165262321E+03  0.12500000000E+03 0.  0.
         25    1    1    2    0    0  0.38426145927E+01  0.10205844317E+03 -0.21759699244E+03  0.27093198893E+03  0.12500000000E+03 0.  0.
         25    1    1    2    0    0 -0.84707607907E+02 -0.72624296137E+02 -0.30323839263E+03  0.34645084787E+03  0.12500000000E+03 0.  0.
</event>
<event>
 5    0  0.5547141E-005  0.4537681E+03  0.7546771E-02  0.1026604E+00
         21   -1    0    0  502  501  0.00000000000E+00  0.00000000000E+00  0.13521190209E+04  0.13521190209E+04  0.00000000000E+00 0. -1.
         21   -1    0    0  501  502 -0.00000000000E+00 -0.00000000000E+00 -0.15228356810E+03  0.15228356810E+03  0.00000000000E+00 0. -1.
         25    1    1    2    0    0  0.25525979923E+02  0.18479891438E+03 -0.79915331536E+00  0.22456146832E+03  0.12500000000E+03 0.  0.
         25    1    1    2    0    0  0.10391462716E+03 -0.20545064627E+03  0.72585060753E+03  0.77168149015E+03  0.12500000000E+03 0.  0.
         25    1    1    2    0    0 -0.12944060708E+03  0.20651731883E+02  0.47478399856E+03  0.50815963051E+03  0.12500000000E+03 0.  0.
</event>
<event>
 5    0  0.5547141E-005  0.2897779E+03  0.7546771E-02  0.1090465E+00
         21   -1    0    0  502  501  0.00000000000E+00  0.00000000000E+00  0.81305384437E+02  0.81305384437E+02  0.00000000000E+00 0.  1.
         21   -1    0    0  501  502 -0.00000000000E+00 -0.00000000000E+00 -0.10327881324E+04  0.10327881324E+04  0.00000000000E+00 0.  1.
         25    1    1    2    0    0  0.12463600307E+03  0.10237173489E+03 -0.43585177414E+03  0.48125447986E+03  0.12500000000E+03 0.  0.
         25    1    1    2    0    0 -0.13506531115E+03  0.27705065277E+02 -0.26835772102E+03  0.32657476227E+03  0.12500000000E+03 0.  0.
         25    1    1    2    0    0  0.10429308083E+02 -0.13007680017E+03 -0.24727325279E+03  0.30626427469E+03  0.12500000000E+03 0.  0.
</event>
<event>
 5    0  0.5547141E-005  0.2770564E+03  0.7546771E-02  0.1097308E+00
         21   -1    0    0  502  501  0.00000000000E+00  0.00000000000E+00  0.64129262058E+02  0.64129262058E+02  0.00000000000E+00 0. -1.
         21   -1    0    0  501  502 -0.00000000000E+00 -0.00000000000E+00 -0.11969609943E+04  0.11969609943E+04  0.00000000000E+00 0. -1.
         25    1    1    2    0    0  0.76509867153E+02  0.91723977122E+02 -0.12267115091E+03  0.21199117674E+03  0.12500000000E+03 0.  0.
         25    1    1    2    0    0 -0.10498660896E+02 -0.51913567027E+02 -0.51804205856E+03  0.53553507332E+03  0.12500000000E+03 0.  0.
         25    1    1    2    0    0 -0.66011206258E+02 -0.39810410095E+02 -0.49211852274E+03  0.51356400626E+03  0.12500000000E+03 0.  0.
</event>
<event>
 5    0  0.5547141E-005  0.3715129E+03  0.7546771E-02  0.1054116E+00
         21   -1    0    0  502  501  0.00000000000E+00  0.00000000000E+00  0.22810272285E+03  0.22810272285E+03  0.00000000000E+00 0.  1.
         21   -1    0    0  501  502 -0.00000000000E+00 -0.00000000000E+00 -0.60508646152E+03  0.60508646152E+03  0.00000000000E+00 0.  1.
         25    1    1    2    0    0  0.14006057790E+03 -0.23374184110E+03 -0.81274595588E+02  0.31061676331E+03  0.12500000000E+03 0.  0.
         25    1    1    2    0    0 -0.74595981711E+02  0.15972322709E+02 -0.19582406297E+03  0.24452349420E+03  0.12500000000E+03 0.  0.
         25    1    1    2    0    0 -0.65464596185E+02  0.21776951839E+03 -0.99885080111E+02  0.27804892685E+03  0.12500000000E+03 0.  0.
</event>
<event>
 5    0  0.5547141E-005  0.3669890E+03  0.7546771E-02  0.1055850E+00
         21   -1    0    0  502  501  0.00000000000E+00  0.00000000000E+00  0.85098289519E+02  0.85098289519E+02  0.00000000000E+00 0.  1.
         21   -1    0    0  501  502 -0.00000000000E+00 -0.00000000000E+00 -0.15826512755E+04  0.15826512755E+04  0.00000000000E+00 0.  1.
         25    1    1    2    0    0 -0.11851389330E+03 -0.14986024182E+03 -0.72003712887E+03  0.75536885158E+03  0.12500000000E+03 0.  0.
         25    1    1    2    0    0 -0.14572274307E+02  0.22560609833E+03 -0.56987672823E+03  0.62569557147E+03  0.12500000000E+03 0.  0.
         25    1    1    2    0    0  0.13308616761E+03 -0.75745856507E+02 -0.20763912890E+03  0.28668514199E+03  0.12500000000E+03 0.  0.
</event>
<event>
 5    0  0.5547141E-005  0.4678723E+03  0.7546771E-02  0.1022522E+00
         21   -1    0    0  502  501  0.00000000000E+00  0.00000000000E+00  0.51553529321E+03  0.51553529321E+03  0.00000000000E+00 0. -1.
         21   -1    0    0  501  502 -0.00000000000E+00 -0.00000000000E+00 -0.42461584919E+03  0.42461584919E+03  0.00000000000E+00 0. -1.
         25    1    1    2    0    0 -0.32089530037E+03  0.39044771595E+02 -0.10210660514E+03  0.36131571624E+03  0.12500000000E+03 0.  0.
         25    1    1    2    0    0  0.37547059929E+03 -0.65819926516E+02  0.17847814218E+03  0.43907844504E+03  0.12500000000E+03 0.  0.
         25    1    1    2    0    0 -0.54575298929E+02  0.26775154922E+02  0.14547906984E+02  0.13975698112E+03  0.12500000000E+03 0.  0.
</event>
<event>
 5    0  0.5547141E-005  0.4171037E+03  0.7546771E-02  0.1038013E+00
         21   -1    0    0  502  501  0.00000000000E+00  0.00000000000E+00  0.46260338012E+03  0.46260338012E+03  0.00000000000E+00 0. -1.
         21   -1    0    0  501  502 -0.00000000000E+00 -0.00000000000E+00 -0.37607922406E+03  0.37607922406E+03  0.00000000000E+00 0. -1.
         25    1    1    2    0    0  0.79089572494E+01 -0.78648730271E+02 -0.11444031599E+03  0.18700203288E+03  0.12500000000E+03 0.  0.
         25    1    1    2    0    0 -0.37356326355E+02 -0.21131408781E+03 -0.42397800401E+02  0.25193592896E+03  0.12500000000E+03 0.  0.
         25    1    1    2    0    0  0.29447369106E+02  0.28996281808E+03  0.24336227246E+03  0.39974464233E+03  0.12500000000E+03 0.  0.
</event>
<event>
 5    0  0.5547141E-005  0.3076781E+03  0.7546771E-02  0.1081464E+00
         21   -1    0    0  502  501  0.00000000000E+00  0.00000000000E+00  0.42775914027E+03  0.42775914027E+03  0.00000000000E+00 0.  1.
         21   -1    0    0  501  502 -0.00000000000E+00 -0.00000000000E+00 -0.22130638839E+03  0.22130638839E+03  0.00000000000E+00 0.  1.
         25    1    1    2    0    0  0.13968040685E+03  0.12533879146E+03  0.97702273319E+02  0.24574613509E+03  0.12500000000E+03 0.  0.
         25    1    1    2    0    0 -0.16828945835E+03 -0.13832227196E+03  0.11057248241E+03  0.27441877956E+03  0.12500000000E+03 0.  0.
         25    1    1    2    0    0  0.28609051494E+02  0.12983480501E+02 -0.18220038425E+01  0.12890061401E+03  0.12500000000E+03 0.  0.
</event>
<event>
 5    0  0.5547141E-005  0.4200338E+03  0.7546771E-02  0.1037055E+00
         21   -1    0    0  502  501  0.00000000000E+00  0.00000000000E+00  0.14841258196E+03  0.14841258196E+03  0.00000000000E+00 0.  1.
         21   -1    0    0  501  502 -0.00000000000E+00 -0.00000000000E+00 -0.11887695313E+04  0.11887695313E+04  0.00000000000E+00 0.  1.
         25    1    1    2    0    0 -0.90521982481E+02  0.18057326885E+03 -0.31865001022E+03  0.39744655458E+03  0.12500000000E+03 0.  0.
         25    1    1    2    0    0  0.10176513602E+03  0.69961751279E+02 -0.11318471925E+02  0.17607923602E+03  0.12500000000E+03 0.  0.
         25    1    1    2    0    0 -0.11243153539E+02 -0.25053502013E+03 -0.71038846721E+03  0.76365632267E+03  0.12500000000E+03 0.  0.
</event>
<event>
 5    0  0.5547141E-005  0.2452271E+03  0.7546771E-02  0.1116359E+00
         21   -1    0    0  502  501  0.00000000000E+00  0.00000000000E+00  0.92671068851E+02  0.92671068851E+02  0.00000000000E+00 0. -1.
         21   -1    0    0  501  502 -0.00000000000E+00 -0.00000000000E+00 -0.64892257715E+03  0.64892257715E+03  0.00000000000E+00 0. -1.
         25    1    1    2    0    0  0.22166424616E+02  0.85419328989E+02 -0.62161138665E+02  0.16515695355E+03  0.12500000000E+03 0.  0.
         25    1    1    2    0    0  0.37459761960E+02 -0.37350620510E+02 -0.14930806737E+03  0.20178256020E+03  0.12500000000E+03 0.  0.
         25    1    1    2    0    0 -0.59626186575E+02 -0.48068708479E+02 -0.34478230226E+03  0.37465413225E+03  0.12500000000E+03 0.  0.
</event>
<event>
 5    0  0.5547141E-005  0.2613572E+03  0.7546771E-02  0.1106331E+00
         21   -1    0    0  502  501  0.00000000000E+00  0.00000000000E+00  0.16252855259E+04  0.16252855259E+04  0.00000000000E+00 0. -1.
         21   -1    0    0  501  502 -0.00000000000E+00 -0.00000000000E+00 -0.42028049984E+02  0.42028049984E+02  0.00000000000E+00 0. -1.
         25    1    1    2    0    0 -0.35639631406E+02  0.98706977401E+02  0.77187160327E+03  0.78893854174E+03  0.12500000000E+03 0.  0.
         25    1    1    2    0    0  0.85777712990E+02  0.24488385261E+02  0.35076428025E+03  0.38290740050E+03  0.12500000000E+03 0.  0.
         25    1    1    2    0    0 -0.50138081584E+02 -0.12319536266E+03  0.46062159244E+03  0.49546763369E+03  0.12500000000E+03 0.  0.
</event>
<event>
 5    0  0.5547141E-005  0.2811511E+03  0.7546771E-02  0.1095062E+00
         21   -1    0    0  502  501  0.00000000000E+00  0.00000000000E+00  0.14740511332E+03  0.14740511332E+03  0.00000000000E+00 0.  1.
         21   -1    0    0  501  502 -0.00000000000E+00 -0.00000000000E+00 -0.53624953780E+03  0.53624953780E+03  0.00000000000E+00 0.  1.
         25    1    1    2    0    0 -0.56351831651E+02  0.55407972303E+02  0.33891772021E+02  0.15172087706E+03  0.12500000000E+03 0.  0.
         25    1    1    2    0    0  0.89367834975E+01 -0.87265940347E+02 -0.33690655593E+03  0.36990030802E+03  0.12500000000E+03 0.  0.
         25    1    1    2    0    0  0.47415048153E+02  0.31857968044E+02 -0.85829640574E+02  0.16203346605E+03  0.12500000000E+03 0.  0.
</event>
<event>
 5    0  0.5547141E-005  0.5207019E+03  0.7546771E-02  0.1008512E+00
         21   -1    0    0  502  501  0.00000000000E+00  0.00000000000E+00  0.27862432786E+03  0.27862432786E+03  0.00000000000E+00 0.  1.
         21   -1    0    0  501  502 -0.00000000000E+00 -0.00000000000E+00 -0.97310414172E+03  0.97310414172E+03  0.00000000000E+00 0.  1.
         25    1    1    2    0    0  0.35439115063E+02  0.24781827335E+03 -0.17414194636E+03  0.32957585616E+03  0.12500000000E+03 0.  0.
         25    1    1    2    0    0  0.19443294141E+03  0.32725632150E+02 -0.48331256422E+03  0.53674125092E+03  0.12500000000E+03 0.  0.
         25    1    1    2    0    0 -0.22987205648E+03 -0.28054390550E+03 -0.37025303268E+02  0.38541136250E+03  0.12500000000E+03 0.  0.
</event>
<event>
 5    0  0.5547141E-005  0.2013840E+03  0.7546771E-02  0.1148577E+00
         21   -1    0    0  502  501  0.00000000000E+00  0.00000000000E+00  0.99007790701E+03  0.99007790701E+03  0.00000000000E+00 0. -1.
         21   -1    0    0  501  502 -0.00000000000E+00 -0.00000000000E+00 -0.40961936128E+02  0.40961936128E+02  0.00000000000E+00 0. -1.
         25    1    1    2    0    0 -0.57164203822E+02 -0.34000923017E+01  0.27438470116E+03  0.30690596452E+03  0.12500000000E+03 0.  0.
         25    1    1    2    0    0  0.39146591883E+02  0.23976198425E+02  0.38586011670E+03  0.40819155234E+03  0.12500000000E+03 0.  0.
         25    1    1    2    0    0  0.18017611939E+02 -0.20576106123E+02  0.28887115302E+03  0.31594232627E+03  0.12500000000E+03 0.  0.
</event>
<event>
 5    0  0.5547141E-005  0.3503282E+03  0.7546771E-02  0.1062480E+00
         21   -1    0    0  502  501  0.00000000000E+00  0.00000000000E+00  0.78049794629E+02  0.78049794629E+02  0.00000000000E+00 0. -1.
         21   -1    0    0  501  502 -0.00000000000E+00 -0.00000000000E+00 -0.15724561226E+04  0.15724561226E+04  0.00000000000E+00 0. -1.
         25    1    1    2    0    0  0.82013157775E+02  0.17575861155E+03 -0.11370004916E+04  0.11601777302E+04  0.12500000000E+03 0.  0.
         25    1    1    2    0    0 -0.66286241225E+02 -0.15085884066E+03 -0.20827740208E+03  0.29352466983E+03  0.12500000000E+03 0.  0.
         25    1    1    2    0    0 -0.15726916550E+02 -0.24899770896E+02 -0.14912843426E+03  0.19680351724E+03  0.12500000000E+03 0.  0.
</event>
<event>
 5    0  0.5547141E-005  0.6042060E+03  0.7546771E-02  0.9896718E-01
         21   -1    0    0  502  501  0.00000000000E+00  0.00000000000E+00  0.25119658721E+03  0.25119658721E+03  0.00000000000E+00 0. -1.
         21   -1    0    0  501  502 -0.00000000000E+00 -0.00000000000E+00 -0.14533034393E+04  0.14533034393E+04  0.00000000000E+00 0. -1.
         25    1    1    2    0    0 -0.22735647427E+03  0.36785604770E+02 -0.14329959250E+03  0.29867025350E+03  0.12500000000E+03 0.  0.
         25    1    1    2    0    0  0.44252278200E+03 -0.53650561379E+02 -0.10597029339E+04  0.11564169246E+04  0.12500000000E+03 0.  0.
         25    1    1    2    0    0 -0.21516630772E+03  0.16864956610E+02  0.89567431168E+00  0.24941284845E+03  0.12500000000E+03 0.  0.
</event>
<event>
 5    0  0.5547141E-005  0.4154859E+03  0.7546771E-02  0.1038546E+00
         21   -1    0    0  502  501  0.00000000000E+00  0.00000000000E+00  0.30362018056E+03  0.30362018056E+03  0.00000000000E+00 0.  1.
         21   -1    0    0  501  502 -0.00000000000E+00 -0.00000000000E+00 -0.56856741705E+03  0.56856741705E+03  0.00000000000E+00 0.  1.
         25    1    1    2    0    0  0.11318003893E+03  0.95195702299E+00 -0.40728782965E+03  0.44081629236E+03  0.12500000000E+03 0.  0.
         25    1    1    2    0    0  0.45954262257E+02  0.61368497462E+02 -0.39940800936E+02  0.15198076944E+03  0.12500000000E+03 0.  0.
         25    1    1    2    0    0 -0.15913430119E+03 -0.62320454485E+02  0.18228139409E+03  0.27939053580E+03  0.12500000000E+03 0.  0.
</event>
<event>
 5    0  0.5547141E-005  0.3122346E+03  0.7546771E-02  0.1079280E+00
         21   -1    0    0  502  501  0.00000000000E+00  0.00000000000E+00  0.35299169880E+03  0.35299169880E+03  0.00000000000E+00 0. -1.
         21   -1    0    0  501  502 -0.00000000000E+00 -0.00000000000E+00 -0.27618347954E+03  0.27618347954E+03  0.00000000000E+00 0. -1.
         25    1    1    2    0    0  0.94972130096E+02  0.44411558895E+02 -0.91318213968E+02  0.18696552693E+03  0.12500000000E+03 0.  0.
         25    1    1    2    0    0 -0.44482645840E+02  0.19122301775E+02  0.24141229262E+03  0.27613269136E+03  0.12500000000E+03 0.  0.
         25    1    1    2    0    0 -0.50489484256E+02 -0.63533860670E+02 -0.73285859394E+02  0.16607696005E+03  0.12500000000E+03 0.  0.
</event>
<event>
 5    0  0.5547141E-005  0.2208703E+03  0.7546771E-02  0.1133236E+00
         21   -1    0    0  502  501  0.00000000000E+00  0.00000000000E+00  0.87122119778E+02  0.87122119778E+02  0.00000000000E+00 0. -1.
         21   -1    0    0  501  502 -0.00000000000E+00 -0.00000000000E+00 -0.55994600731E+03  0.55994600731E+03  0.00000000000E+00 0. -1.
         25    1    1    2    0    0 -0.51596041207E+02 -0.49326465009E+02 -0.20835862899E+03  0.25324606590E+03  0.12500000000E+03 0.  0.
         25    1    1    2    0    0  0.83691540654E+02  0.72330319719E+01 -0.10097077869E+03  0.18131930090E+03  0.12500000000E+03 0.  0.
         25    1    1    2    0    0 -0.32095499447E+02  0.42093433037E+02 -0.16349447985E+03  0.21250276029E+03  0.12500000000E+03 0.  0.
</event>
<event>
 5    0  0.5547141E-005  0.5836583E+03  0.7546771E-02  0.9939902E-01
         21   -1    0    0  502  501  0.00000000000E+00  0.00000000000E+00  0.66879985839E+03  0.66879985839E+03  0.00000000000E+00 0.  1.
         21   -1    0    0  501  502 -0.00000000000E+00 -0.00000000000E+00 -0.50935566007E+03  0.50935566007E+03  0.00000000000E+00 0.  1.
         25    1    1    2    0    0  0.20875695175E+03 -0.18663439481E+03  0.46522662282E+03  0.55720074732E+03  0.12500000000E+03 0.  0.
         25    1    1    2    0    0 -0.31605834963E+03  0.10559352096E+03 -0.21898584303E+03  0.41787877607E+03  0.12500000000E+03 0.  0.
         25    1    1    2    0    0  0.10730139788E+03  0.81040873855E+02 -0.86796581469E+02  0.20307599508E+03  0.12500000000E+03 0.  0.
</event>
<event>
 5    0  0.5547141E-005  0.2468966E+03  0.7546771E-02  0.1115282E+00
         21   -1    0    0  502  501  0.00000000000E+00  0.00000000000E+00  0.66974875473E+03  0.66974875473E+03  0.00000000000E+00 0.  1.
         21   -1    0    0  501  502 -0.00000000000E+00 -0.00000000000E+00 -0.91016115714E+02  0.91016115714E+02  0.00000000000E+00 0.  1.
         25    1    1    2    0    0 -0.10648670120E+03  0.58453951653E+02  0.32019532936E+03  0.36456320568E+03  0.12500000000E+03 0.  0.
         25    1    1    2    0    0  0.94358434340E+02  0.10431425541E+02  0.13758466623E+03  0.20872678111E+03  0.12500000000E+03 0.  0.
         25    1    1    2    0    0  0.12128266856E+02 -0.68885377194E+02  0.12095264343E+03  0.18747488365E+03  0.12500000000E+03 0.  0.
</event>
<event>
 5    0  0.5547141E-005  0.2878259E+03  0.7546771E-02  0.1091490E+00
         21   -1    0    0  502  501  0.00000000000E+00  0.00000000000E+00  0.19713182271E+04  0.19713182271E+04  0.00000000000E+00 0. -1.
         21   -1    0    0  501  502 -0.00000000000E+00 -0.00000000000E+00 -0.42024529427E+02  0.42024529427E+02  0.00000000000E+00 0. -1.
         25    1    1    2    0    0 -0.14315529680E+03 -0.85409166834E+02  0.10786118560E+04  0.10985520928E+04  0.12500000000E+03 0.  0.
         25    1    1    2    0    0  0.66164563619E+02 -0.53444746912E+01  0.22561787538E+03  0.26633576286E+03  0.12500000000E+03 0.  0.
         25    1    1    2    0    0  0.76990733182E+02  0.90753641525E+02  0.62506396633E+03  0.64845490086E+03  0.12500000000E+03 0.  0.
</event>
<event>
 5    0  0.5547141E-005  0.2654159E+03  0.7546771E-02  0.1103932E+00
         21   -1    0    0  502  501  0.00000000000E+00  0.00000000000E+00  0.38953225372E+02  0.38953225372E+02  0.00000000000E+00 0. -1.
         21   -1    0    0  501  502 -0.00000000000E+00 -0.00000000000E+00 -0.18084663180E+04  0.18084663180E+04  0.00000000000E+00 0. -1.
         25    1    1    2    0    0  0.13177472901E+03 -0.13645178662E+02 -0.81359846632E+03  0.83373750935E+03  0.12500000000E+03 0.  0.
         25    1    1    2    0    0 -0.26650581022E+02  0.89648223008E+02 -0.40416869927E+03  0.43327173324E+03  0.12500000000E+03 0.  0.
         25    1    1    2    0    0 -0.10512414799E+03 -0.76003044346E+02 -0.55174592701E+03  0.58041030075E+03  0.12500000000E+03 0.  0.
</event>
<event>
 5    0  0.5547141E-005  0.4436379E+03  0.7546771E-02  0.1029636E+00
         21   -1    0    0  502  501  0.00000000000E+00  0.00000000000E+00  0.57547042365E+03  0.57547042365E+03  0.00000000000E+00 0.  1.
         21   -1    0    0  501  502 -0.00000000000E+00 -0.00000000000E+00 -0.34200649570E+03  0.34200649570E+03  0.00000000000E+00 0.  1.
         25    1    1    2    0    0  0.31329619910E+03 -0.13459379103E+03 -0.61796376851E+02  0.36839352484E+03  0.12500000000E+03 0.  0.
         25    1    1    2    0    0 -0.14836379345E+03  0.87705859271E+02  0.39126991022E+02  0.21647183278E+03  0.12500000000E+03 0.  0.
         25    1    1    2    0    0 -0.16493240564E+03  0.46887931759E+02  0.25613331377E+03  0.33261156174E+03  0.12500000000E+03 0.  0.
</event>
<event>
 5    0  0.6086251E-005  0.2858290E+03  0.7546771E-02  0.1092547E+00
         21   -1    0    0  502  501  0.00000000000E+00  0.00000000000E+00  0.68122189124E+03  0.68122189124E+03  0.00000000000E+00 0.  1.
         21   -1    0    0  501  502 -0.00000000000E+00 -0.00000000000E+00 -0.11992894022E+03  0.11992894022E+03  0.00000000000E+00 0.  1.
         25    1    1    2    0    0 -0.14101877971E+03 -0.33486648054E+02  0.22282853346E+03  0.29374343764E+03  0.12500000000E+03 0.  0.
         25    1    1    2    0    0  0.14067112001E+03  0.66622551012E+02  0.31945374863E+03  0.37669964935E+03  0.12500000000E+03 0.  0.
         25    1    1    2    0    0  0.34765970238E+00 -0.33135902958E+02  0.19010668930E+02  0.13070774447E+03  0.12500000000E+03 0.  0.
</event>
<event>
 5    0  0.5547141E-005  0.2932554E+03  0.7546771E-02  0.1088662E+00
         21   -1    0    0  502  501  0.00000000000E+00  0.00000000000E+00  0.33351502914E+03  0.33351502914E+03  0.00000000000E+00 0.  1.
         21   -1    0    0  501  502 -0.00000000000E+00 -0.00000000000E+00 -0.25785557060E+03  0.25785557060E+03  0.00000000000E+00 0.  1.
         25    1    1    2    0    0  0.98157541283E+02  0.53976929078E+02  0.15306199419E+03  0.22715938424E+03  0.12500000000E+03 0.  0.
         25    1    1    2    0    0 -0.20299259985E+02  0.83984814354E+02 -0.53071516749E+02  0.16095681063E+03  0.12500000000E+03 0.  0.
         25    1    1    2    0    0 -0.77858281298E+02 -0.13796174343E+03 -0.24331018908E+02  0.20325440487E+03  0.12500000000E+03 0.  0.
</event>
<event>
 5    0  0.5547141E-005  0.2528828E+03  0.7546771E-02  0.1111496E+00
         21   -1    0    0  502  501  0.00000000000E+00  0.00000000000E+00  0.20439082234E+03  0.20439082234E+03  0.00000000000E+00 0.  1.
         21   -1    0    0  501  502 -0.00000000000E+00 -0.00000000000E+00 -0.31287953520E+03  0.31287953520E+03  0.00000000000E+00 0.  1.
         25    1    1    2    0    0  0.10148835861E+03  0.10458810189E+03 -0.12102206543E+03  0.22695792189E+03  0.12500000000E+03 0.  0.
         25    1    1    2    0    0 -0.53599877340E+02 -0.43947927965E+02  0.14166279393E+01  0.14293835755E+03  0.12500000000E+03 0.  0.
         25    1    1    2    0    0 -0.47888481269E+02 -0.60640173922E+02  0.11116724625E+02  0.14737407811E+03  0.12500000000E+03 0.  0.
</event>
<event>
 5    0  0.5547141E-005  0.4933014E+03  0.7546771E-02  0.1015542E+00
         21   -1    0    0  502  501  0.00000000000E+00  0.00000000000E+00  0.62219660306E+03  0.62219660306E+03  0.00000000000E+00 0. -1.
         21   -1    0    0  501  502 -0.00000000000E+00 -0.00000000000E+00 -0.39110834030E+03  0.39110834030E+03  0.00000000000E+00 0. -1.
         25    1    1    2    0    0  0.20090828625E+03 -0.21161014165E+03 -0.23603059156E+03  0.39557354776E+03  0.12500000000E+03 0.  0.
         25    1    1    2    0    0 -0.26817298211E+02  0.93892698109E+02  0.16202340907E+03  0.22674124311E+03  0.12500000000E+03 0.  0.
         25    1    1    2    0    0 -0.17409098804E+03  0.11771744354E+03  0.30509544525E+03  0.39099015249E+03  0.12500000000E+03 0.  0.
</event>
<event>
 5    0  0.6883231E-005  0.2959801E+03  0.7546771E-02  0.1087268E+00
         21   -1    0    0  502  501  0.00000000000E+00  0.00000000000E+00  0.49703097719E+03  0.49703097719E+03  0.00000000000E+00 0.  1.
         21   -1    0    0  501  502 -0.00000000000E+00 -0.00000000000E+00 -0.17625509799E+03  0.17625509799E+03  0.00000000000E+00 0.  1.
         25    1    1    2    0    0  0.81119132185E+02  0.89551509359E+01  0.22364584836E+03  0.26889212302E+03  0.12500000000E+03 0.  0.
         25    1    1    2    0    0 -0.80700449776E+01 -0.12190077109E+03  0.13002696630E+03  0.21784612822E+03  0.12500000000E+03 0.  0.
         25    1    1    2    0    0 -0.73049087207E+02  0.11294562015E+03 -0.32896935463E+02  0.18654782394E+03  0.12500000000E+03 0.  0.
</event>
<event>
 5    0  0.5547141E-005  0.3591401E+03  0.7546771E-02  0.1058925E+00
         21   -1    0    0  502  501  0.00000000000E+00  0.00000000000E+00  0.77046215122E+02  0.77046215122E+02  0.00000000000E+00 0. -1.
         21   -1    0    0  501  502 -0.00000000000E+00 -0.00000000000E+00 -0.16740813867E+04  0.16740813867E+04  0.00000000000E+00 0. -1.
         25    1    1    2    0    0 -0.17292486197E+03 -0.68529489331E+02 -0.36381148400E+03  0.42729743117E+03  0.12500000000E+03 0.  0.
         25    1    1    2    0    0  0.23303651644E+03  0.13709682430E+02 -0.41613599670E+03  0.49324247702E+03  0.12500000000E+03 0.  0.
         25    1    1    2    0    0 -0.60111654466E+02  0.54819806900E+02 -0.81708769088E+03  0.83058769364E+03  0.12500000000E+03 0.  0.
</event>
<event>
 5    0  0.6089918E-005  0.5508775E+03  0.7546771E-02  0.1001291E+00
         21   -1    0    0  502  501  0.00000000000E+00  0.00000000000E+00  0.10036654529E+04  0.10036654529E+04  0.00000000000E+00 0. -1.
         21   -1    0    0  501  502 -0.00000000000E+00 -0.00000000000E+00 -0.30235770157E+03  0.30235770157E+03  0.00000000000E+00 0. -1.
         25    1    1    2    0    0 -0.26986826065E+02  0.21901997350E+03  0.28353137750E+03  0.38041172380E+03  0.12500000000E+03 0.  0.
         25    1    1    2    0    0  0.37678502077E+03 -0.27808620564E+02  0.27651985153E+03  0.48459106424E+03  0.12500000000E+03 0.  0.
         25    1    1    2    0    0 -0.34979819471E+03 -0.19121135294E+03  0.14125652229E+03  0.44102036642E+03  0.12500000000E+03 0.  0.
</event>
<event>
 5    0  0.5547141E-005  0.2753272E+03  0.7546771E-02  0.1098269E+00
         21   -1    0    0  502  501  0.00000000000E+00  0.00000000000E+00  0.19865109066E+03  0.19865109066E+03  0.00000000000E+00 0.  1.
         21   -1    0    0  501  502 -0.00000000000E+00 -0.00000000000E+00 -0.38159906880E+03  0.38159906880E+03  0.00000000000E+00 0.  1.
         25    1    1    2    0    0  0.96476196437E+02 -0.61827533115E+02 -0.20105505072E+03  0.26301793428E+03  0.12500000000E+03 0.  0.
         25    1    1    2    0    0 -0.10768643734E+03  0.92928526506E+01 -0.38820287075E+02  0.16974905180E+03  0.12500000000E+03 0.  0.
         25    1    1    2    0    0  0.11210240907E+02  0.52534680464E+02  0.56927359659E+02  0.14748317338E+03  0.12500000000E+03 0.  0.
</event>
<event>
 5    0  0.5547141E-005  0.2683819E+03  0.7546771E-02  0.1102209E+00
         21   -1    0    0  502  501  0.00000000000E+00  0.00000000000E+00  0.25058886456E+03  0.25058886456E+03  0.00000000000E+00 0. -1.
         21   -1    0    0  501  502 -0.00000000000E+00 -0.00000000000E+00 -0.28743828767E+03  0.28743828767E+03  0.00000000000E+00 0. -1.
         25    1    1    2    0    0 -0.48661761307E+02  0.72665028504E+02 -0.13051734200E+03  0.20076839877E+03  0.12500000000E+03 0.  0.
         25    1    1    2    0    0 -0.56799645616E+02  0.56055877631E+01  0.10590936544E+02  0.13782158863E+03  0.12500000000E+03 0.  0.
         25    1    1    2    0    0  0.10546140692E+03 -0.78270616267E+02  0.83076982350E+02  0.19943716484E+03  0.12500000000E+03 0.  0.
</event>
<event>
 5    0  0.5547141E-005  0.4618940E+03  0.7546771E-02  0.1024233E+00
         21   -1    0    0  502  501  0.00000000000E+00  0.00000000000E+00  0.14646270784E+04  0.14646270784E+04  0.00000000000E+00 0.  1.
         21   -1    0    0  501  502 -0.00000000000E+00 -0.00000000000E+00 -0.14566580277E+03  0.14566580277E+03  0.00000000000E+00 0.  1.
         25    1    1    2    0    0 -0.14186608996E+03 -0.15252807014E+03  0.82023388932E+03  0.85545276483E+03  0.12500000000E+03 0.  0.
         25    1    1    2    0    0  0.25143285423E+03 -0.31623884180E+02  0.39567227960E+03  0.48620993725E+03  0.12500000000E+03 0.  0.
         25    1    1    2    0    0 -0.10956676427E+03  0.18415195432E+03  0.10305510676E+03  0.26863017913E+03  0.12500000000E+03 0.  0.
</event>
<event>
 5    0  0.5547141E-005  0.2687408E+03  0.7546771E-02  0.1102002E+00
         21   -1    0    0  502  501  0.00000000000E+00  0.00000000000E+00  0.11319152395E+04  0.11319152395E+04  0.00000000000E+00 0. -1.
         21   -1    0    0  501  502 -0.00000000000E+00 -0.00000000000E+00 -0.63804769953E+02  0.63804769953E+02  0.00000000000E+00 0. -1.
         25    1    1    2    0    0  0.21474827773E+02 -0.50352395463E+02  0.74255143697E+03  0.75498620419E+03  0.12500000000E+03 0.  0.
         25    1    1    2    0    0  0.40792072524E+02  0.78647447519E+02  0.18983396895E+03  0.24394948237E+03  0.12500000000E+03 0.  0.
         25    1    1    2    0    0 -0.62266900297E+02 -0.28295052055E+02  0.13572506363E+03  0.19678432291E+03  0.12500000000E+03 0.  0.
</event>
<event>
 5    0  0.5547141E-005  0.2434684E+03  0.7546771E-02  0.1117504E+00
         21   -1    0    0  502  501  0.00000000000E+00  0.00000000000E+00  0.10107228463E+03  0.10107228463E+03  0.00000000000E+00 0.  1.
         21   -1    0    0  501  502 -0.00000000000E+00 -0.00000000000E+00 -0.58648002719E+03  0.58648002719E+03  0.00000000000E+00 0.  1.
         25    1    1    2    0    0 -0.46540941709E+02 -0.40469481663E+02 -0.28083352874E+03  0.31352242195E+03  0.12500000000E+03 0.  0.
         25    1    1    2    0    0  0.86382610818E+02 -0.17114930082E+02 -0.44605498967E+02  0.15927814295E+03  0.12500000000E+03 0.  0.
         25    1    1    2    0    0 -0.39841669109E+02  0.57584411746E+02 -0.15996871484E+03  0.21475174691E+03  0.12500000000E+03 0.  0.
</event>
<event>
 5    0  0.5547141E-005  0.4287561E+03  0.7546771E-02  0.1034254E+00
         21   -1    0    0  502  501  0.00000000000E+00  0.00000000000E+00  0.10908562332E+04  0.10908562332E+04  0.00000000000E+00 0. -1.
         21   -1    0    0  501  502 -0.00000000000E+00 -0.00000000000E+00 -0.16852062843E+03  0.16852062843E+03  0.00000000000E+00 0. -1.
         25    1    1    2    0    0 -0.86783714508E+02 -0.11007004015E+03  0.15429210555E+03  0.24305941800E+03  0.12500000000E+03 0.  0.
         25    1    1    2    0    0  0.27810860753E+03 -0.77660953385E+02  0.59653242224E+03  0.67442683224E+03  0.12500000000E+03 0.  0.
         25    1    1    2    0    0 -0.19132489302E+03  0.18773099354E+03  0.17151107697E+03  0.34189061137E+03  0.12500000000E+03 0.  0.
</event>
<event>
 5    0  0.5547141E-005  0.2479187E+03  0.7546771E-02  0.1114627E+00
         21   -1    0    0  502  501  0.00000000000E+00  0.00000000000E+00  0.16593517278E+03  0.16593517278E+03  0.00000000000E+00 0. -1.
         21   -1    0    0  501  502 -0.00000000000E+00 -0.00000000000E+00 -0.37040772611E+03  0.37040772611E+03  0.00000000000E+00 0. -1.
         25    1    1    2    0    0 -0.67891346658E+02  0.68796419558E+02 -0.14658595208E+03  0.21553334694E+03  0.12500000000E+03 0.  0.
         25    1    1    2    0    0  0.33440610126E+02 -0.11910394283E+03 -0.22497290518E+02  0.17729960993E+03  0.12500000000E+03 0.  0.
         25    1    1    2    0    0  0.34450736531E+02  0.50307523267E+02 -0.35389310730E+02  0.14350994202E+03  0.12500000000E+03 0.  0.
</event>
<event>
 5    0  0.5547141E-005  0.2918003E+03  0.7546771E-02  0.1089413E+00
         21   -1    0    0  502  501  0.00000000000E+00  0.00000000000E+00  0.46079402716E+03  0.46079402716E+03  0.00000000000E+00 0. -1.
         21   -1    0    0  501  502 -0.00000000000E+00 -0.00000000000E+00 -0.18478405895E+03  0.18478405895E+03  0.00000000000E+00 0. -1.
         25    1    1    2    0    0 -0.11573985726E+03  0.10059370378E+03  0.13171969773E+03  0.23767601176E+03  0.12500000000E+03 0.  0.
         25    1    1    2    0    0  0.11094905066E+03 -0.10082059556E+03  0.19221360304E+03  0.27394443510E+03  0.12500000000E+03 0.  0.
         25    1    1    2    0    0  0.47908065982E+01  0.22689178515E+00 -0.47923332562E+02  0.13395763924E+03  0.12500000000E+03 0.  0.
</event>
<event>
 5    0  0.5547141E-005  0.4754698E+03  0.7546771E-02  0.1020388E+00
         21   -1    0    0  502  501  0.00000000000E+00  0.00000000000E+00  0.87052429221E+03  0.87052429221E+03  0.00000000000E+00 0.  1.
         21   -1    0    0  501  502 -0.00000000000E+00 -0.00000000000E+00 -0.25969586933E+03  0.25969586933E+03  0.00000000000E+00 0.  1.
         25    1    1    2    0    0  0.80213009155E+02  0.23840322012E+03  0.12103514221E+03  0.30585082614E+03  0.12500000000E+03 0.  0.
         25    1    1    2    0    0 -0.21013092114E+03  0.10383083368E+03  0.12855752461E+03  0.29510656240E+03  0.12500000000E+03 0.  0.
         25    1    1    2    0    0  0.12991791198E+03 -0.34223405380E+03  0.36123575605E+03  0.52926277300E+03  0.12500000000E+03 0.  0.
</event>
<event>
 5    0  0.5547141E-005  0.3721631E+03  0.7546771E-02  0.1053869E+00
         21   -1    0    0  502  501  0.00000000000E+00  0.00000000000E+00  0.17521414697E+03  0.17521414697E+03  0.00000000000E+00 0.  1.
         21   -1    0    0  501  502 -0.00000000000E+00 -0.00000000000E+00 -0.79049176372E+03  0.79049176372E+03  0.00000000000E+00 0.  1.
         25    1    1    2    0    0  0.18448568206E+03  0.20264707313E+03 -0.32423455666E+03  0.44255378302E+03  0.12500000000E+03 0.  0.
         25    1    1    2    0    0  0.27573100884E+01 -0.18776681614E+02 -0.16100398458E+03  0.20471309089E+03  0.12500000000E+03 0.  0.
         25    1    1    2    0    0 -0.18724299215E+03 -0.18387039152E+03 -0.13003907552E+03  0.31843903678E+03  0.12500000000E+03 0.  0.
</event>
<event>
 5    0  0.5547141E-005  0.2884536E+03  0.7546771E-02  0.1091159E+00
         21   -1    0    0  502  501  0.00000000000E+00  0.00000000000E+00  0.39584735721E+03  0.39584735721E+03  0.00000000000E+00 0.  1.
         21   -1    0    0  501  502 -0.00000000000E+00 -0.00000000000E+00 -0.21019583655E+03  0.21019583655E+03  0.00000000000E+00 0.  1.
         25    1    1    2    0    0  0.24200229580E+01 -0.21747444381E+02  0.38422983441E+02  0.13259009580E+03  0.12500000000E+03 0.  0.
         25    1    1    2    0    0 -0.66405431713E+02 -0.88609888429E+02 -0.79400344311E+02  0.18490756708E+03  0.12500000000E+03 0.  0.
         25    1    1    2    0    0  0.63985408755E+02  0.11035733281E+03  0.22662888153E+03  0.28854553087E+03  0.12500000000E+03 0.  0.
</event>
<event>
 5    0  0.5547141E-005  0.4610854E+03  0.7546771E-02  0.1024467E+00
         21   -1    0    0  502  501  0.00000000000E+00  0.00000000000E+00  0.25057918390E+03  0.25057918390E+03  0.00000000000E+00 0. -1.
         21   -1    0    0  501  502 -0.00000000000E+00 -0.00000000000E+00 -0.84843344117E+03  0.84843344117E+03  0.00000000000E+00 0. -1.
         25    1    1    2    0    0  0.18624316388E+03 -0.22363035383E+03  0.28990206887E+02  0.31806050265E+03  0.12500000000E+03 0.  0.
         25    1    1    2    0    0 -0.17517625578E+03  0.24500679188E+03 -0.36274336945E+03  0.48777330876E+03  0.12500000000E+03 0.  0.
         25    1    1    2    0    0 -0.11066908109E+02 -0.21376438051E+02 -0.26410109470E+03  0.29317881366E+03  0.12500000000E+03 0.  0.
</event>
<event>
 5    0  0.5547141E-005  0.2842474E+03  0.7546771E-02  0.1093391E+00
         21   -1    0    0  502  501  0.00000000000E+00  0.00000000000E+00  0.18704808267E+03  0.18704808267E+03  0.00000000000E+00 0. -1.
         21   -1    0    0  501  502 -0.00000000000E+00 -0.00000000000E+00 -0.43195620935E+03  0.43195620935E+03  0.00000000000E+00 0. -1.
         25    1    1    2    0    0  0.13749073336E+03  0.19439677796E+02 -0.71898409298E+02  0.20018987011E+03  0.12500000000E+03 0.  0.
         25    1    1    2    0    0 -0.44433488827E+02 -0.13338742169E+03 -0.92689411627E+02  0.20972092461E+03  0.12500000000E+03 0.  0.
         25    1    1    2    0    0 -0.93057244535E+02  0.11394774389E+03 -0.80320305748E+02  0.20909349730E+03  0.12500000000E+03 0.  0.
</event>
<event>
 5    0  0.7571986E-005  0.2857621E+03  0.7546771E-02  0.1092583E+00
         21   -1    0    0  502  501  0.00000000000E+00  0.00000000000E+00  0.12719283385E+03  0.12719283385E+03  0.00000000000E+00 0.  1.
         21   -1    0    0  501  502 -0.00000000000E+00 -0.00000000000E+00 -0.64201690899E+03  0.64201690899E+03  0.00000000000E+00 0.  1.
         25    1    1    2    0    0 -0.10102301989E+03  0.34048470876E+02 -0.51000781898E+02  0.17202043097E+03  0.12500000000E+03 0.  0.
         25    1    1    2    0    0  0.17391555710E+03 -0.70624281808E+02 -0.30393076520E+03  0.37846178172E+03  0.12500000000E+03 0.  0.
         25    1    1    2    0    0 -0.72892537211E+02  0.36575810932E+02 -0.15989252803E+03  0.21872753015E+03  0.12500000000E+03 0.  0.
</event>
<event>
 5    0  0.5547141E-005  0.2532510E+03  0.7546771E-02  0.1111267E+00
         21   -1    0    0  502  501  0.00000000000E+00  0.00000000000E+00  0.27495929611E+03  0.27495929611E+03  0.00000000000E+00 0.  1.
         21   -1    0    0  501  502 -0.00000000000E+00 -0.00000000000E+00 -0.23325656673E+03  0.23325656673E+03  0.00000000000E+00 0.  1.
         25    1    1    2    0    0  0.36911754628E+01 -0.41497414046E+02 -0.46393322663E+02  0.13968894207E+03  0.12500000000E+03 0.  0.
         25    1    1    2    0    0 -0.47385163570E+02 -0.54067840530E+02 -0.52078194062E+02  0.15331608984E+03  0.12500000000E+03 0.  0.
         25    1    1    2    0    0  0.43693988107E+02  0.95565254576E+02  0.14017424610E+03  0.21521083093E+03  0.12500000000E+03 0.  0.
</event>
<event>
 5    0  0.5547141E-005  0.2755165E+03  0.7546771E-02  0.1098163E+00
         21   -1    0    0  502  501  0.00000000000E+00  0.00000000000E+00  0.19745445134E+03  0.19745445134E+03  0.00000000000E+00 0.  1.
         21   -1    0    0  501  502 -0.00000000000E+00 -0.00000000000E+00 -0.38443971744E+03  0.38443971744E+03  0.00000000000E+00 0.  1.
         25    1    1    2    0    0 -0.67003184223E+02 -0.70064138949E+02  0.18486164663E+02  0.15926439824E+03  0.12500000000E+03 0.  0.
         25    1    1    2    0    0 -0.50774011400E+02  0.11123206550E+03 -0.37370055687E+02  0.17880742068E+03  0.12500000000E+03 0.  0.
         25    1    1    2    0    0  0.11777719562E+03 -0.41167926549E+02 -0.16810137507E+03  0.24382234985E+03  0.12500000000E+03 0.  0.
</event>
<event>
 5    0  0.5547141E-005  0.2188016E+03  0.7546771E-02  0.1134780E+00
         21   -1    0    0  502  501  0.00000000000E+00  0.00000000000E+00  0.20451066505E+03  0.20451066505E+03  0.00000000000E+00 0. -1.
         21   -1    0    0  501  502 -0.00000000000E+00 -0.00000000000E+00 -0.23409110381E+03  0.23409110381E+03  0.00000000000E+00 0. -1.
         25    1    1    2    0    0  0.62807468100E+01 -0.50454809134E+02 -0.51696711194E+02  0.14450842707E+03  0.12500000000E+03 0.  0.
         25    1    1    2    0    0  0.68479664877E+02  0.17647786266E+02  0.17958661943E+02  0.14473569843E+03  0.12500000000E+03 0.  0.
         25    1    1    2    0    0 -0.74760411687E+02  0.32807022867E+02  0.41576104854E+01  0.14935764336E+03  0.12500000000E+03 0.  0.
</event>
<event>
 5    0  0.5547141E-005  0.2430937E+03  0.7546771E-02  0.1117749E+00
         21   -1    0    0  502  501  0.00000000000E+00  0.00000000000E+00  0.14452542408E+04  0.14452542408E+04  0.00000000000E+00 0. -1.
         21   -1    0    0  501  502 -0.00000000000E+00 -0.00000000000E+00 -0.40888669312E+02  0.40888669312E+02  0.00000000000E+00 0. -1.
         25    1    1    2    0    0  0.28844328208E+02 -0.54111347746E+02  0.85078138496E+03  0.86209860122E+03  0.12500000000E+03 0.  0.
         25    1    1    2    0    0  0.33651290696E+02  0.50880394669E+02  0.35426454338E+03  0.38059110686E+03  0.12500000000E+03 0.  0.
         25    1    1    2    0    0 -0.62495618903E+02  0.32309530765E+01  0.19931964320E+03  0.24345320208E+03  0.12500000000E+03 0.  0.
</event>
<event>
 5    0  0.5547141E-005  0.6630784E+03  0.7546771E-02  0.9782543E-01
         21   -1    0    0  502  501  0.00000000000E+00  0.00000000000E+00  0.11268114438E+04  0.11268114438E+04  0.00000000000E+00 0. -1.
         21   -1    0    0  501  502 -0.00000000000E+00 -0.00000000000E+00 -0.39019214838E+03  0.39019214838E+03  0.00000000000E+00 0. -1.
         25    1    1    2    0    0  0.45125659833E+03  0.14888018494E+03  0.77728803685E+02  0.49745813284E+03  0.12500000000E+03 0.  0.
         25    1    1    2    0    0 -0.49883310166E+03 -0.27273880531E+03  0.57729813383E+03  0.81982867390E+03  0.12500000000E+03 0.  0.
         25    1    1    2    0    0  0.47576503323E+02  0.12385862037E+03  0.81592357881E+02  0.19971678541E+03  0.12500000000E+03 0.  0.
</event>
<event>
 5    0  0.5547141E-005  0.2584858E+03  0.7546771E-02  0.1108056E+00
         21   -1    0    0  502  501  0.00000000000E+00  0.00000000000E+00  0.16786436322E+03  0.16786436322E+03  0.00000000000E+00 0.  1.
         21   -1    0    0  501  502 -0.00000000000E+00 -0.00000000000E+00 -0.39802924719E+03  0.39802924719E+03  0.00000000000E+00 0.  1.
         25    1    1    2    0    0  0.21882297695E+02 -0.10434103235E+03 -0.14821646607E+03  0.22126682263E+03  0.12500000000E+03 0.  0.
         25    1    1    2    0    0  0.72271590181E+02  0.35197568922E+01 -0.62773605545E+02  0.15748364039E+03  0.12500000000E+03 0.  0.
         25    1    1    2    0    0 -0.94153887877E+02  0.10082127546E+03 -0.19174812357E+02  0.18714314739E+03  0.12500000000E+03 0.  0.
</event>
<event>
 5    0  0.5547141E-005  0.2985324E+03  0.7546771E-02  0.1085977E+00
         21   -1    0    0  502  501  0.00000000000E+00  0.00000000000E+00  0.13870749290E+04  0.13870749290E+04  0.00000000000E+00 0. -1.
         21   -1    0    0  501  502 -0.00000000000E+00 -0.00000000000E+00 -0.64251460995E+02  0.64251460995E+02  0.00000000000E+00 0. -1.
         25    1    1    2    0    0 -0.70000709904E+02  0.14778797562E+03  0.46839607558E+03  0.51162610249E+03  0.12500000000E+03 0.  0.
         25    1    1    2    0    0 -0.61984519850E+02 -0.53141380432E+02  0.56933978326E+03  0.58859058421E+03  0.12500000000E+03 0.  0.
         25    1    1    2    0    0  0.13198522975E+03 -0.94646595184E+02  0.28508760915E+03  0.35110970329E+03  0.12500000000E+03 0.  0.
</event>
<event>
 5    0  0.5547141E-005  0.2255060E+03  0.7546771E-02  0.1129843E+00
         21   -1    0    0  502  501  0.00000000000E+00  0.00000000000E+00  0.34326246826E+03  0.34326246826E+03  0.00000000000E+00 0. -1.
         21   -1    0    0  501  502 -0.00000000000E+00 -0.00000000000E+00 -0.14814592520E+03  0.14814592520E+03  0.00000000000E+00 0. -1.
         25    1    1    2    0    0  0.37298190343E+02 -0.13337299091E+02  0.90562021950E+02  0.15935971376E+03  0.12500000000E+03 0.  0.
         25    1    1    2    0    0  0.71706767335E+02 -0.41160162205E+00  0.20350684235E+02  0.14553755614E+03  0.12500000000E+03 0.  0.
         25    1    1    2    0    0 -0.10900495768E+03  0.13748900713E+02  0.84203836868E+02  0.18651112356E+03  0.12500000000E+03 0.  0.
</event>
<event>
 5    0  0.5547141E-005  0.2535174E+03  0.7546771E-02  0.1111102E+00
         21   -1    0    0  502  501  0.00000000000E+00  0.00000000000E+00  0.14975618996E+04  0.14975618996E+04  0.00000000000E+00 0.  1.
         21   -1    0    0  501  502 -0.00000000000E+00 -0.00000000000E+00 -0.42917135088E+02  0.42917135088E+02  0.00000000000E+00 0.  1.
         25    1    1    2    0    0 -0.47639636210E+02 -0.20626035980E+02  0.34626023219E+03  0.37177428192E+03  0.12500000000E+03 0.  0.
         25    1    1    2    0    0  0.13911877715E+03 -0.53071707484E+02  0.68022554318E+03  0.70746196356E+03  0.12500000000E+03 0.  0.
         25    1    1    2    0    0 -0.91479140938E+02  0.73697743464E+02  0.42815898918E+03  0.46124278925E+03  0.12500000000E+03 0.  0.
</event>
<event>
 5    0  0.5547141E-005  0.2915278E+03  0.7546771E-02  0.1089554E+00
         21   -1    0    0  502  501  0.00000000000E+00  0.00000000000E+00  0.76296620000E+03  0.76296620000E+03  0.00000000000E+00 0.  1.
         21   -1    0    0  501  502 -0.00000000000E+00 -0.00000000000E+00 -0.11139217944E+03  0.11139217944E+03  0.00000000000E+00 0.  1.
         25    1    1    2    0    0 -0.63436920515E+02 -0.69610567753E+02  0.72680495128E+02  0.17256108599E+03  0.12500000000E+03 0.  0.
         25    1    1    2    0    0  0.13743265454E+03  0.28592681702E+02  0.49415896572E+03  0.52869968733E+03  0.12500000000E+03 0.  0.
         25    1    1    2    0    0 -0.73995734028E+02  0.41017886051E+02  0.84734559713E+02  0.17309760611E+03  0.12500000000E+03 0.  0.
</event>
<event>
 5    0  0.5547141E-005  0.3446356E+03  0.7546771E-02  0.1064839E+00
         21   -1    0    0  502  501  0.00000000000E+00  0.00000000000E+00  0.12960372379E+04  0.12960372379E+04  0.00000000000E+00 0.  1.
         21   -1    0    0  501  502 -0.00000000000E+00 -0.00000000000E+00 -0.91643714695E+02  0.91643714695E+02  0.00000000000E+00 0.  1.
         25    1    1    2    0    0 -0.17734963470E+03 -0.33573242818E+02  0.66766381871E+03  0.70283712934E+03  0.12500000000E+03 0.  0.
         25    1    1    2    0    0  0.19079144704E+03  0.10596726330E+03  0.21109368371E+03  0.32835343832E+03  0.12500000000E+03 0.  0.
         25    1    1    2    0    0 -0.13441812339E+02 -0.72394020482E+02  0.32563602078E+03  0.35649038493E+03  0.12500000000E+03 0.  0.
</event>
<event>
 5    0  0.5547141E-005  0.2306689E+03  0.7546771E-02  0.1126170E+00
         21   -1    0    0  502  501  0.00000000000E+00  0.00000000000E+00  0.20884319612E+03  0.20884319612E+03  0.00000000000E+00 0.  1.
         21   -1    0    0  501  502 -0.00000000000E+00 -0.00000000000E+00 -0.25477557347E+03  0.25477557347E+03  0.00000000000E+00 0.  1.
         25    1    1    2    0    0 -0.72790178084E+01  0.25929101802E+02 -0.68283715610E+02  0.14495850523E+03  0.12500000000E+03 0.  0.
         25    1    1    2    0    0 -0.45624388409E+02 -0.75784474241E+02  0.67249840429E+02  0.16724955124E+03  0.12500000000E+03 0.  0.
         25    1    1    2    0    0  0.52903406217E+02  0.49855372440E+02 -0.44898502161E+02  0.15141071312E+03  0.12500000000E+03 0.  0.
</event>
<event>
 5    0  0.5547141E-005  0.3348580E+03  0.7546771E-02  0.1069007E+00
         21   -1    0    0  502  501  0.00000000000E+00  0.00000000000E+00  0.20725500721E+03  0.20725500721E+03  0.00000000000E+00 0.  1.
         21   -1    0    0  501  502 -0.00000000000E+00 -0.00000000000E+00 -0.54102369216E+03  0.54102369216E+03  0.00000000000E+00 0.  1.
         25    1    1    2    0    0  0.26107235628E+03  0.22852723335E+02 -0.85409689023E+02  0.30265630203E+03  0.12500000000E+03 0.  0.
         25    1    1    2    0    0 -0.88641220355E+02 -0.13853527324E+01 -0.13041546868E+03  0.20122718409E+03  0.12500000000E+03 0.  0.
         25    1    1    2    0    0 -0.17243113593E+03 -0.21467370603E+02 -0.11794352724E+03  0.24439521324E+03  0.12500000000E+03 0.  0.
</event>
<event>
 5    0  0.5547141E-005  0.2662677E+03  0.7546771E-02  0.1103435E+00
         21   -1    0    0  502  501  0.00000000000E+00  0.00000000000E+00  0.11176920424E+04  0.11176920424E+04  0.00000000000E+00 0. -1.
         21   -1    0    0  501  502 -0.00000000000E+00 -0.00000000000E+00 -0.63432935918E+02  0.63432935918E+02  0.00000000000E+00 0. -1.
         25    1    1    2    0    0  0.17704849042E+02  0.59396003833E+02  0.10011857855E+03  0.17172675016E+03  0.12500000000E+03 0.  0.
         25    1    1    2    0    0 -0.14881149836E+02 -0.56944812727E+02  0.79542345780E+03  0.80733365936E+03  0.12500000000E+03 0.  0.
         25    1    1    2    0    0 -0.28236992056E+01 -0.24511911062E+01  0.15871707017E+03  0.20206456884E+03  0.12500000000E+03 0.  0.
</event>
<event>
 5    0  0.5547141E-005  0.3102234E+03  0.7546771E-02  0.1080239E+00
         21   -1    0    0  502  501  0.00000000000E+00  0.00000000000E+00  0.12256257597E+03  0.12256257597E+03  0.00000000000E+00 0. -1.
         21   -1    0    0  501  502 -0.00000000000E+00 -0.00000000000E+00 -0.78521955426E+03  0.78521955426E+03  0.00000000000E+00 0. -1.
         25    1    1    2    0    0  0.25245594946E+02 -0.29988784172E+02 -0.95934201439E+02  0.16237314509E+03  0.12500000000E+03 0.  0.
         25    1    1    2    0    0  0.35497850188E+02 -0.12355385490E+03 -0.49461943357E+03  0.52611694184E+03  0.12500000000E+03 0.  0.
         25    1    1    2    0    0 -0.60743445134E+02  0.15354263907E+03 -0.72103343276E+02  0.21929204329E+03  0.12500000000E+03 0.  0.
</event>
<event>
 5    0  0.6706111E-005  0.3090053E+03  0.7546771E-02  0.1080824E+00
         21   -1    0    0  502  501  0.00000000000E+00  0.00000000000E+00  0.13180013542E+03  0.13180013542E+03  0.00000000000E+00 0.  1.
         21   -1    0    0  501  502 -0.00000000000E+00 -0.00000000000E+00 -0.72446277036E+03  0.72446277036E+03  0.00000000000E+00 0.  1.
         25    1    1    2    0    0 -0.41865068265E+02  0.78254092254E+02 -0.28942250223E+02  0.15600974567E+03  0.12500000000E+03 0.  0.
         25    1    1    2    0    0 -0.12049439863E+03 -0.69920894394E+02 -0.38559577043E+03  0.42862212932E+03  0.12500000000E+03 0.  0.
         25    1    1    2    0    0  0.16235946689E+03 -0.83331978599E+01 -0.17812461428E+03  0.27163103079E+03  0.12500000000E+03 0.  0.
</event>
<event>
 5    0  0.5547141E-005  0.3165025E+03  0.7546771E-02  0.1077270E+00
         21   -1    0    0  502  501  0.00000000000E+00  0.00000000000E+00  0.61425427823E+02  0.61425427823E+02  0.00000000000E+00 0.  1.
         21   -1    0    0  501  502 -0.00000000000E+00 -0.00000000000E+00 -0.16308207460E+04  0.16308207460E+04  0.00000000000E+00 0.  1.
         25    1    1    2    0    0 -0.37388764713E+02 -0.13348276772E+03 -0.11913356709E+04  0.12058694994E+04  0.12500000000E+03 0.  0.
         25    1    1    2    0    0  0.41357029730E+02  0.14652992661E+02 -0.14486281621E+03  0.19630422721E+03  0.12500000000E+03 0.  0.
         25    1    1    2    0    0 -0.39682650174E+01  0.11882977506E+03 -0.23319683109E+03  0.29007244715E+03  0.12500000000E+03 0.  0.
</event>
<event>
 5    0  0.5547141E-005  0.2965453E+03  0.7546771E-02  0.1086980E+00
         21   -1    0    0  502  501  0.00000000000E+00  0.00000000000E+00  0.11016533353E+03  0.11016533353E+03  0.00000000000E+00 0. -1.
         21   -1    0    0  501  502 -0.00000000000E+00 -0.00000000000E+00 -0.79824656021E+03  0.79824656021E+03  0.00000000000E+00 0. -1.
         25    1    1    2    0    0  0.66850034864E+02  0.13435375873E+03 -0.38057247960E+03  0.42776193364E+03  0.12500000000E+03 0.  0.
         25    1    1    2    0    0  0.47784810970E+02  0.15041638685E+02 -0.66322163259E+02  0.15011085368E+03  0.12500000000E+03 0.  0.
         25    1    1    2    0    0 -0.11463484583E+03 -0.14939539742E+03 -0.24118658383E+03  0.33053910641E+03  0.12500000000E+03 0.  0.
</event>
<event>
 5    0  0.5547141E-005  0.4297840E+03  0.7546771E-02  0.1033928E+00
         21   -1    0    0  502  501  0.00000000000E+00  0.00000000000E+00  0.73829857653E+03  0.73829857653E+03  0.00000000000E+00 0. -1.
         21   -1    0    0  501  502 -0.00000000000E+00 -0.00000000000E+00 -0.25018911786E+03  0.25018911786E+03  0.00000000000E+00 0. -1.
         25    1    1    2    0    0 -0.97300742313E+02 -0.33147169268E+03  0.36111497723E+03  0.51514070339E+03  0.12500000000E+03 0.  0.
         25    1    1    2    0    0  0.63297701703E+02  0.86440068304E+02  0.10509419130E+03  0.19531583012E+03  0.12500000000E+03 0.  0.
         25    1    1    2    0    0  0.34003040610E+02  0.24503162438E+03  0.21900290148E+02  0.27803116089E+03  0.12500000000E+03 0.  0.
</event>
<event>
 5    0  0.5547141E-005  0.3214453E+03  0.7546771E-02  0.1074986E+00
         21   -1    0    0  502  501  0.00000000000E+00  0.00000000000E+00  0.57091315978E+03  0.57091315978E+03  0.00000000000E+00 0. -1.
         21   -1    0    0  501  502 -0.00000000000E+00 -0.00000000000E+00 -0.18098565237E+03  0.18098565237E+03  0.00000000000E+00 0. -1.
         25    1    1    2    0    0  0.88971444534E+02  0.20547504498E+03  0.33631381798E+02  0.25863484277E+03  0.12500000000E+03 0.  0.
         25    1    1    2    0    0 -0.56844946029E+02 -0.77109138696E+02  0.14157590936E+03  0.21176851813E+03  0.12500000000E+03 0.  0.
         25    1    1    2    0    0 -0.32126498505E+02 -0.12836590629E+03  0.21472021625E+03  0.28149545124E+03  0.12500000000E+03 0.  0.
</event>
<event>
 5    0  0.5547141E-005  0.2211612E+03  0.7546771E-02  0.1133020E+00
         21   -1    0    0  502  501  0.00000000000E+00  0.00000000000E+00  0.14924986985E+03  0.14924986985E+03  0.00000000000E+00 0. -1.
         21   -1    0    0  501  502 -0.00000000000E+00 -0.00000000000E+00 -0.32772072569E+03  0.32772072569E+03  0.00000000000E+00 0. -1.
         25    1    1    2    0    0 -0.18089477744E+02  0.26895178770E+02 -0.15638185873E+03  0.20280745939E+03  0.12500000000E+03 0.  0.
         25    1    1    2    0    0  0.80061795037E+01 -0.14655498984E+02 -0.63938567079E+02  0.14139315019E+03  0.12500000000E+03 0.  0.
         25    1    1    2    0    0  0.10083298241E+02 -0.12239679785E+02  0.41849569972E+02  0.13276998596E+03  0.12500000000E+03 0.  0.
</event>
<event>
 5    0  0.5547141E-005  0.1168312E+04  0.7546771E-02  0.9141054E-01
         21   -1    0    0  502  501  0.00000000000E+00  0.00000000000E+00  0.15216592375E+04  0.15216592375E+04  0.00000000000E+00 0. -1.
         21   -1    0    0  501  502 -0.00000000000E+00 -0.00000000000E+00 -0.89701578671E+03  0.89701578671E+03  0.00000000000E+00 0. -1.
         25    1    1    2    0    0 -0.84952962868E+03 -0.59354588292E+03 -0.20611373291E+03  0.10640043120E+04  0.12500000000E+03 0.  0.
         25    1    1    2    0    0  0.49243199242E+03  0.35706403562E+03  0.53214309228E+03  0.81779292205E+03  0.12500000000E+03 0.  0.
         25    1    1    2    0    0  0.35709763625E+03  0.23648184729E+03  0.29861409137E+03  0.53687779008E+03  0.12500000000E+03 0.  0.
</event>
<event>
 5    0  0.5547141E-005  0.2744247E+03  0.7546771E-02  0.1098774E+00
         21   -1    0    0  502  501  0.00000000000E+00  0.00000000000E+00  0.10426069537E+03  0.10426069537E+03  0.00000000000E+00 0.  1.
         21   -1    0    0  501  502 -0.00000000000E+00 -0.00000000000E+00 -0.72231332013E+03  0.72231332013E+03  0.00000000000E+00 0.  1.
         25    1    1    2    0    0  0.10218187775E+03  0.11514966666E+03 -0.24480641014E+03  0.31504882212E+03  0.12500000000E+03 0.  0.
         25    1    1    2    0    0 -0.10005031056E+03 -0.10509693214E+03 -0.11233825078E+03  0.22203673655E+03  0.12500000000E+03 0.  0.
         25    1    1    2    0    0 -0.21315671835E+01 -0.10052734523E+02 -0.26090796383E+03  0.28948845683E+03  0.12500000000E+03 0.  0.
</event>
<event>
 5    0  0.5547141E-005  0.2766294E+03  0.7546771E-02  0.1097544E+00
         21   -1    0    0  502  501  0.00000000000E+00  0.00000000000E+00  0.46912855090E+02  0.46912855090E+02  0.00000000000E+00 0. -1.
         21   -1    0    0  501  502 -0.00000000000E+00 -0.00000000000E+00 -0.16311912497E+04  0.16311912497E+04  0.00000000000E+00 0. -1.
         25    1    1    2    0    0 -0.10244583955E+03 -0.46102600877E+01 -0.38145651650E+03  0.41430722721E+03  0.12500000000E+03 0.  0.
         25    1    1    2    0    0  0.12825265744E+03  0.46533868634E+02 -0.10215251981E+04  0.10381487732E+04  0.12500000000E+03 0.  0.
         25    1    1    2    0    0 -0.25806817886E+02 -0.41923608546E+02 -0.18129668006E+03  0.22564810437E+03  0.12500000000E+03 0.  0.
</event>
<event>
 5    0  0.5547141E-005  0.2479143E+03  0.7546771E-02  0.1114630E+00
         21   -1    0    0  502  501  0.00000000000E+00  0.00000000000E+00  0.65084821517E+03  0.65084821517E+03  0.00000000000E+00 0. -1.
         21   -1    0    0  501  502 -0.00000000000E+00 -0.00000000000E+00 -0.94432919457E+02  0.94432919457E+02  0.00000000000E+00 0. -1.
         25    1    1    2    0    0  0.52701916664E+02  0.70520960485E+01  0.25016539799E+02  0.13812331933E+03  0.12500000000E+03 0.  0.
         25    1    1    2    0    0 -0.88268836376E+02 -0.40412569436E+02  0.31526960411E+03  0.35276690111E+03  0.12500000000E+03 0.  0.
         25    1    1    2    0    0  0.35566919713E+02  0.33360473387E+02  0.21612915180E+03  0.25439091419E+03  0.12500000000E+03 0.  0.
</event>
<event>
 5    0  0.5547141E-005  0.3878021E+03  0.7546771E-02  0.1048087E+00
         21   -1    0    0  502  501  0.00000000000E+00  0.00000000000E+00  0.65852055324E+02  0.65852055324E+02  0.00000000000E+00 0.  1.
         21   -1    0    0  501  502 -0.00000000000E+00 -0.00000000000E+00 -0.22837630281E+04  0.22837630281E+04  0.00000000000E+00 0.  1.
         25    1    1    2    0    0 -0.12906859681E+03  0.15699939610E+03 -0.31517282819E+03  0.39530548275E+03  0.12500000000E+03 0.  0.
         25    1    1    2    0    0 -0.66796762485E+02 -0.32482876983E+02 -0.10957672249E+04  0.11053722250E+04  0.12500000000E+03 0.  0.
         25    1    1    2    0    0  0.19586535929E+03 -0.12451651912E+03 -0.80697091971E+03  0.84893737564E+03  0.12500000000E+03 0.  0.
</event>
<event>
 5    0  0.5547141E-005  0.3320335E+03  0.7546771E-02  0.1070241E+00
         21   -1    0    0  502  501  0.00000000000E+00  0.00000000000E+00  0.82145032142E+02  0.82145032142E+02  0.00000000000E+00 0. -1.
         21   -1    0    0  501  502 -0.00000000000E+00 -0.00000000000E+00 -0.13420929031E+04  0.13420929031E+04  0.00000000000E+00 0. -1.
         25    1    1    2    0    0  0.42766566355E+02  0.23201981712E+03 -0.81004506377E+03  0.85291276229E+03  0.12500000000E+03 0.  0.
         25    1    1    2    0    0  0.18402970717E+01 -0.13928516363E+03 -0.20341411549E+03  0.27641643562E+03  0.12500000000E+03 0.  0.
         25    1    1    2    0    0 -0.44606863427E+02 -0.92734653491E+02 -0.24648869174E+03  0.29490873737E+03  0.12500000000E+03 0.  0.
</event>
<event>
 5    0  0.5547141E-005  0.4348635E+03  0.7546771E-02  0.1032335E+00
         21   -1    0    0  502  501  0.00000000000E+00  0.00000000000E+00  0.10078117414E+03  0.10078117414E+03  0.00000000000E+00 0.  1.
         21   -1    0    0  501  502 -0.00000000000E+00 -0.00000000000E+00 -0.18764042613E+04  0.18764042613E+04  0.00000000000E+00 0.  1.
         25    1    1    2    0    0  0.10819541043E+03 -0.35981198242E+03 -0.85342722632E+03  0.94081557181E+03  0.12500000000E+03 0.  0.
         25    1    1    2    0    0 -0.10186283414E+03  0.19869837509E+03 -0.63010202158E+03  0.68008134722E+03  0.12500000000E+03 0.  0.
         25    1    1    2    0    0 -0.63325762931E+01  0.16111360733E+03 -0.29209383924E+03  0.35628851639E+03  0.12500000000E+03 0.  0.
</event>
<event>
 5    0  0.5547141E-005  0.2253146E+03  0.7546771E-02  0.1129982E+00
         21   -1    0    0  502  501  0.00000000000E+00  0.00000000000E+00  0.25614073142E+03  0.25614073142E+03  0.00000000000E+00 0. -1.
         21   -1    0    0  501  502 -0.00000000000E+00 -0.00000000000E+00 -0.19819833226E+03  0.19819833226E+03  0.00000000000E+00 0. -1.
         25    1    1    2    0    0  0.98762041550E+02  0.30308175775E+02  0.49113015603E+01  0.16223947501E+03  0.12500000000E+03 0.  0.
         25    1    1    2    0    0 -0.62717980645E+02 -0.61659227725E+02  0.37579270282E+02  0.15739316064E+03  0.12500000000E+03 0.  0.
         25    1    1    2    0    0 -0.36044060905E+02  0.31351051950E+02  0.15451827310E+02  0.13470642803E+03  0.12500000000E+03 0.  0.
</event>
<event>
 5    0  0.5547141E-005  0.2467376E+03  0.7546771E-02  0.1115384E+00
         21   -1    0    0  502  501  0.00000000000E+00  0.00000000000E+00  0.49225650857E+02  0.49225650857E+02  0.00000000000E+00 0.  1.
         21   -1    0    0  501  502 -0.00000000000E+00 -0.00000000000E+00 -0.12367427141E+04  0.12367427141E+04  0.00000000000E+00 0.  1.
         25    1    1    2    0    0  0.13893185942E+03  0.20328952212E+02 -0.43116369025E+03  0.47036417344E+03  0.12500000000E+03 0.  0.
         25    1    1    2    0    0 -0.75866467942E+02  0.36289286665E+02 -0.31607535893E+03  0.35014463556E+03  0.12500000000E+03 0.  0.
         25    1    1    2    0    0 -0.63065391480E+02 -0.56618238877E+02 -0.44027801409E+03  0.46545955599E+03  0.12500000000E+03 0.  0.
</event>
<event>
 5    0  0.5547141E-005  0.3518060E+03  0.7546771E-02  0.1061876E+00
         21   -1    0    0  502  501  0.00000000000E+00  0.00000000000E+00  0.37889151283E+04  0.37889151283E+04  0.00000000000E+00 0.  1.
         21   -1    0    0  501  502 -0.00000000000E+00 -0.00000000000E+00 -0.32665666702E+02  0.32665666702E+02  0.00000000000E+00 0.  1.
         25    1    1    2    0    0  0.22463647953E+03 -0.17329206384E+03  0.16438448689E+04  0.16728247488E+04  0.12500000000E+03 0.  0.
         25    1    1    2    0    0 -0.98627887176E+02  0.38080718877E+02  0.70390317718E+03  0.72269100183E+03  0.12500000000E+03 0.  0.
         25    1    1    2    0    0 -0.12600859236E+03  0.13521134496E+03  0.14085014155E+04  0.14260650444E+04  0.12500000000E+03 0.  0.
</event>
<event>
 5    0  0.5547141E-005  0.2566364E+03  0.7546771E-02  0.1109181E+00
         21   -1    0    0  502  501  0.00000000000E+00  0.00000000000E+00  0.12269301134E+03  0.12269301134E+03  0.00000000000E+00 0.  1.
         21   -1    0    0  501  502 -0.00000000000E+00 -0.00000000000E+00 -0.53680508621E+03  0.53680508621E+03  0.00000000000E+00 0.  1.
         25    1    1    2    0    0 -0.10706951849E+03  0.45363242676E+02 -0.11581498556E+03  0.20630030648E+03  0.12500000000E+03 0.  0.
         25    1    1    2    0    0  0.12315839534E+03 -0.94974397903E+02 -0.21891998954E+03  0.29620784665E+03  0.12500000000E+03 0.  0.
         25    1    1    2    0    0 -0.16088876851E+02  0.49611155227E+02 -0.79377099775E+02  0.15698994442E+03  0.12500000000E+03 0.  0.
</event>
<event>
 5    0  0.5547141E-005  0.3237584E+03  0.7546771E-02  0.1073932E+00
         21   -1    0    0  502  501  0.00000000000E+00  0.00000000000E+00  0.52395555577E+02  0.52395555577E+02  0.00000000000E+00 0. -1.
         21   -1    0    0  501  502 -0.00000000000E+00 -0.00000000000E+00 -0.20005412725E+04  0.20005412725E+04  0.00000000000E+00 0. -1.
         25    1    1    2    0    0  0.96714181670E+02  0.92436583053E+02 -0.29605351770E+03  0.34809602147E+03  0.12500000000E+03 0.  0.
         25    1    1    2    0    0  0.87159713033E+02 -0.14165587552E+02 -0.35621407455E+03  0.38769955682E+03  0.12500000000E+03 0.  0.
         25    1    1    2    0    0 -0.18387389470E+03 -0.78270995500E+02 -0.12958781246E+04  0.13171412498E+04  0.12500000000E+03 0.  0.
</event>
<event>
 5    0  0.5547141E-005  0.3104197E+03  0.7546771E-02  0.1080145E+00
         21   -1    0    0  502  501  0.00000000000E+00  0.00000000000E+00  0.11887570325E+04  0.11887570325E+04  0.00000000000E+00 0.  1.
         21   -1    0    0  501  502 -0.00000000000E+00 -0.00000000000E+00 -0.81059771912E+02  0.81059771912E+02  0.00000000000E+00 0.  1.
         25    1    1    2    0    0  0.12578646753E+03 -0.11410273678E+02  0.24011158532E+03  0.29871558909E+03  0.12500000000E+03 0.  0.
         25    1    1    2    0    0  0.70262255717E+02  0.43993517073E+02  0.58393120425E+03  0.60288710835E+03  0.12500000000E+03 0.  0.
         25    1    1    2    0    0 -0.19604872325E+03 -0.32583243396E+02  0.28365447100E+03  0.36821410695E+03  0.12500000000E+03 0.  0.
</event>
<event>
 5    0  0.5547141E-005  0.2582923E+03  0.7546771E-02  0.1108174E+00
         21   -1    0    0  502  501  0.00000000000E+00  0.00000000000E+00  0.14538506623E+04  0.14538506623E+04  0.00000000000E+00 0. -1.
         21   -1    0    0  501  502 -0.00000000000E+00 -0.00000000000E+00 -0.45888433106E+02  0.45888433106E+02  0.00000000000E+00 0. -1.
         25    1    1    2    0    0  0.93033350300E+02  0.67059944690E+02  0.57944745503E+03  0.60376865900E+03  0.12500000000E+03 0.  0.
         25    1    1    2    0    0 -0.12949928973E+03 -0.94728466137E+02  0.42705885578E+03  0.47301988821E+03  0.12500000000E+03 0.  0.
         25    1    1    2    0    0  0.36465939434E+02  0.27668521447E+02  0.40145591841E+03  0.42295054823E+03  0.12500000000E+03 0.  0.
</event>
<event>
 5    0  0.5547141E-005  0.2728650E+03  0.7546771E-02  0.1099651E+00
         21   -1    0    0  502  501  0.00000000000E+00  0.00000000000E+00  0.34292569644E+03  0.34292569644E+03  0.00000000000E+00 0.  1.
         21   -1    0    0  501  502 -0.00000000000E+00 -0.00000000000E+00 -0.21711791520E+03  0.21711791520E+03  0.00000000000E+00 0.  1.
         25    1    1    2    0    0 -0.60485720459E+02 -0.29958140378E+02 -0.11095383541E+03  0.18025472573E+03  0.12500000000E+03 0.  0.
         25    1    1    2    0    0  0.84694603125E+02 -0.33533508109E+02  0.12159650460E+03  0.19674445836E+03  0.12500000000E+03 0.  0.
         25    1    1    2    0    0 -0.24208882666E+02  0.63491648487E+02  0.11516511204E+03  0.18304442755E+03  0.12500000000E+03 0.  0.
</event>
<event>
 5    0  0.5547141E-005  0.2745508E+03  0.7546771E-02  0.1098703E+00
         21   -1    0    0  502  501  0.00000000000E+00  0.00000000000E+00  0.21096100157E+04  0.21096100157E+04  0.00000000000E+00 0.  1.
         21   -1    0    0  501  502 -0.00000000000E+00 -0.00000000000E+00 -0.35730840190E+02  0.35730840190E+02  0.00000000000E+00 0.  1.
         25    1    1    2    0    0 -0.93686598737E+02  0.21173324421E+02  0.94445680289E+03  0.95752239711E+03  0.12500000000E+03 0.  0.
         25    1    1    2    0    0  0.13755955259E+03  0.16749350590E+02  0.35332664620E+03  0.39958464707E+03  0.12500000000E+03 0.  0.
         25    1    1    2    0    0 -0.43872953854E+02 -0.37922675011E+02  0.77609572645E+03  0.78823381175E+03  0.12500000000E+03 0.  0.
</event>
<event>
 5    0  0.5547141E-005  0.4623647E+03  0.7546771E-02  0.1024098E+00
         21   -1    0    0  502  501  0.00000000000E+00  0.00000000000E+00  0.11289515606E+04  0.11289515606E+04  0.00000000000E+00 0.  1.
         21   -1    0    0  501  502 -0.00000000000E+00 -0.00000000000E+00 -0.18936255269E+03  0.18936255269E+03  0.00000000000E+00 0.  1.
         25    1    1    2    0    0 -0.25164096650E+03  0.55131389785E+02  0.76701580179E+03  0.81871905215E+03  0.12500000000E+03 0.  0.
         25    1    1    2    0    0 -0.52687945347E+02 -0.22311610602E+02  0.38036702122E+02  0.14263806736E+03  0.12500000000E+03 0.  0.
         25    1    1    2    0    0  0.30432891184E+03 -0.32819779182E+02  0.13453650397E+03  0.35695699375E+03  0.12500000000E+03 0.  0.
</event>
<event>
 5    0  0.5547141E-005  0.3373567E+03  0.7546771E-02  0.1067927E+00
         21   -1    0    0  502  501  0.00000000000E+00  0.00000000000E+00  0.57066429761E+02  0.57066429761E+02  0.00000000000E+00 0.  1.
         21   -1    0    0  501  502 -0.00000000000E+00 -0.00000000000E+00 -0.19943344471E+04  0.19943344471E+04  0.00000000000E+00 0.  1.
         25    1    1    2    0    0  0.12254982716E+03 -0.75343994611E+02 -0.11441802233E+04  0.11599433439E+04  0.12500000000E+03 0.  0.
         25    1    1    2    0    0 -0.31453578447E+02  0.42213011687E+02 -0.72661206649E+02  0.15386980504E+03  0.12500000000E+03 0.  0.
         25    1    1    2    0    0 -0.91096248709E+02  0.33130982924E+02 -0.72042658737E+03  0.73758772790E+03  0.12500000000E+03 0.  0.
</event>
<event>
 5    0  0.5547141E-005  0.2929760E+03  0.7546771E-02  0.1088806E+00
         21   -1    0    0  502  501  0.00000000000E+00  0.00000000000E+00  0.96312648627E+03  0.96312648627E+03  0.00000000000E+00 0. -1.
         21   -1    0    0  501  502 -0.00000000000E+00 -0.00000000000E+00 -0.89121120459E+02  0.89121120459E+02  0.00000000000E+00 0. -1.
         25    1    1    2    0    0 -0.13322025876E+03 -0.35139029822E+02  0.51414523577E+03  0.54676568311E+03  0.12500000000E+03 0.  0.
         25    1    1    2    0    0 -0.59652383212E+01  0.69360121155E+02  0.71228856072E+02  0.15982790874E+03  0.12500000000E+03 0.  0.
         25    1    1    2    0    0  0.13918549708E+03 -0.34221091333E+02  0.28863127397E+03  0.34565401488E+03  0.12500000000E+03 0.  0.
</event>
<event>
 5    0  0.5547141E-005  0.3876322E+03  0.7546771E-02  0.1048148E+00
         21   -1    0    0  502  501  0.00000000000E+00  0.00000000000E+00  0.97340865367E+03  0.97340865367E+03  0.00000000000E+00 0. -1.
         21   -1    0    0  501  502 -0.00000000000E+00 -0.00000000000E+00 -0.15436346607E+03  0.15436346607E+03  0.00000000000E+00 0. -1.
         25    1    1    2    0    0 -0.12494395736E+03  0.15121569400E+03  0.62026746769E+03  0.66244540157E+03  0.12500000000E+03 0.  0.
         25    1    1    2    0    0  0.25868967446E+02 -0.12509248468E+03  0.23932133460E+03  0.29869220679E+03  0.12500000000E+03 0.  0.
         25    1    1    2    0    0  0.99074989912E+02 -0.26123209326E+02 -0.40543614686E+02  0.16663451138E+03  0.12500000000E+03 0.  0.
</event>
<event>
 5    0  0.5547141E-005  0.2939217E+03  0.7546771E-02  0.1088319E+00
         21   -1    0    0  502  501  0.00000000000E+00  0.00000000000E+00  0.18154992366E+03  0.18154992366E+03  0.00000000000E+00 0. -1.
         21   -1    0    0  501  502 -0.00000000000E+00 -0.00000000000E+00 -0.47584704036E+03  0.47584704036E+03  0.00000000000E+00 0. -1.
         25    1    1    2    0    0  0.26123017543E+02 -0.17987825456E+02  0.13188232388E+02  0.12963372780E+03  0.12500000000E+03 0.  0.
         25    1    1    2    0    0  0.61658209491E+02  0.16553702632E+03 -0.16251536510E+03  0.27062979470E+03  0.12500000000E+03 0.  0.
         25    1    1    2    0    0 -0.87781227033E+02 -0.14754920087E+03 -0.14496998398E+03  0.25713344153E+03  0.12500000000E+03 0.  0.
</event>
<event>
 5    0  0.5547141E-005  0.2665084E+03  0.7546771E-02  0.1103295E+00
         21   -1    0    0  502  501  0.00000000000E+00  0.00000000000E+00  0.48507671048E+03  0.48507671048E+03  0.00000000000E+00 0.  1.
         21   -1    0    0  501  502 -0.00000000000E+00 -0.00000000000E+00 -0.14642370641E+03  0.14642370641E+03  0.00000000000E+00 0.  1.
         25    1    1    2    0    0  0.35801668537E+02 -0.25630321678E+02 -0.55185224823E+01  0.13264285488E+03  0.12500000000E+03 0.  0.
         25    1    1    2    0    0 -0.13886449210E+03 -0.90901507726E+01  0.12873775409E+03  0.22707793230E+03  0.12500000000E+03 0.  0.
         25    1    1    2    0    0  0.10306282357E+03  0.34720472451E+02  0.21543377246E+03  0.27177962971E+03  0.12500000000E+03 0.  0.
</event>
<event>
 5    0  0.5547141E-005  0.5369674E+03  0.7546771E-02  0.1004556E+00
         21   -1    0    0  502  501  0.00000000000E+00  0.00000000000E+00  0.62602148687E+03  0.62602148687E+03  0.00000000000E+00 0.  1.
         21   -1    0    0  501  502 -0.00000000000E+00 -0.00000000000E+00 -0.46058157085E+03  0.46058157085E+03  0.00000000000E+00 0.  1.
         25    1    1    2    0    0 -0.39467770308E+03  0.13218375226E+02  0.25099368159E+03  0.48432225114E+03  0.12500000000E+03 0.  0.
         25    1    1    2    0    0  0.17392215760E+02 -0.26953665112E+02  0.10016566162E+03  0.16336201823E+03  0.12500000000E+03 0.  0.
         25    1    1    2    0    0  0.37728548732E+03  0.13735289886E+02 -0.18571942719E+03  0.43891878835E+03  0.12500000000E+03 0.  0.
</event>
<event>
 5    0  0.5547141E-005  0.2674299E+03  0.7546771E-02  0.1102760E+00
         21   -1    0    0  502  501  0.00000000000E+00  0.00000000000E+00  0.53767011434E+03  0.53767011434E+03  0.00000000000E+00 0.  1.
         21   -1    0    0  501  502 -0.00000000000E+00 -0.00000000000E+00 -0.13301606180E+03  0.13301606180E+03  0.00000000000E+00 0.  1.
         25    1    1    2    0    0  0.32743630389E+02 -0.12059019494E+03  0.16326006736E+02  0.17749839138E+03  0.12500000000E+03 0.  0.
         25    1    1    2    0    0  0.14987922437E+02  0.91708672683E+01  0.20174303818E+03  0.23797898243E+03  0.12500000000E+03 0.  0.
         25    1    1    2    0    0 -0.47731552825E+02  0.11141932767E+03  0.18658500763E+03  0.25520880233E+03  0.12500000000E+03 0.  0.
</event>
<event>
 5    0  0.5547141E-005  0.3450047E+03  0.7546771E-02  0.1064684E+00
         21   -1    0    0  502  501  0.00000000000E+00  0.00000000000E+00  0.20968970366E+03  0.20968970366E+03  0.00000000000E+00 0.  1.
         21   -1    0    0  501  502 -0.00000000000E+00 -0.00000000000E+00 -0.56764006351E+03  0.56764006351E+03  0.00000000000E+00 0.  1.
         25    1    1    2    0    0 -0.10501836163E+03 -0.59646953256E+02  0.12100238541E+03  0.21178572329E+03  0.12500000000E+03 0.  0.
         25    1    1    2    0    0  0.43799848158E+02 -0.20838654829E+02 -0.27404199766E+03  0.30508473038E+03  0.12500000000E+03 0.  0.
         25    1    1    2    0    0  0.61218513472E+02  0.80485608085E+02 -0.20491074761E+03  0.26045931350E+03  0.12500000000E+03 0.  0.
</event>
<event>
 5    0  0.5547141E-005  0.3949500E+03  0.7546771E-02  0.1045542E+00
         21   -1    0    0  502  501  0.00000000000E+00  0.00000000000E+00  0.17668187822E+04  0.17668187822E+04  0.00000000000E+00 0. -1.
         21   -1    0    0  501  502 -0.00000000000E+00 -0.00000000000E+00 -0.88286085879E+02  0.88286085879E+02  0.00000000000E+00 0. -1.
         25    1    1    2    0    0  0.88858705773E+02 -0.14815367196E+03  0.50351335307E+03  0.54680533723E+03  0.12500000000E+03 0.  0.
         25    1    1    2    0    0  0.19991834314E+03  0.83307652410E+02  0.43926070391E+03  0.50545274247E+03  0.12500000000E+03 0.  0.
         25    1    1    2    0    0 -0.28877704891E+03  0.64846019547E+02  0.73575863931E+03  0.80284678834E+03  0.12500000000E+03 0.  0.
</event>
<event>
 5    0  0.5608198E-005  0.3673565E+03  0.7546771E-02  0.1055708E+00
         21   -1    0    0  502  501  0.00000000000E+00  0.00000000000E+00  0.54255632786E+03  0.54255632786E+03  0.00000000000E+00 0. -1.
         21   -1    0    0  501  502 -0.00000000000E+00 -0.00000000000E+00 -0.24873145483E+03  0.24873145483E+03  0.00000000000E+00 0. -1.
         25    1    1    2    0    0 -0.46864738767E+02  0.12470215554E+03 -0.91125172869E+02  0.20414634081E+03  0.12500000000E+03 0.  0.
         25    1    1    2    0    0 -0.12069248277E+03 -0.90855872159E+02  0.30122982247E+03  0.35942436040E+03  0.12500000000E+03 0.  0.
         25    1    1    2    0    0  0.16755722153E+03 -0.33846283383E+02  0.83720223425E+02  0.22771708148E+03  0.12500000000E+03 0.  0.
</event>
<event>
 5    0  0.5547141E-005  0.2767708E+03  0.7546771E-02  0.1097466E+00
         21   -1    0    0  502  501  0.00000000000E+00  0.00000000000E+00  0.25116974078E+02  0.25116974078E+02  0.00000000000E+00 0. -1.
         21   -1    0    0  501  502 -0.00000000000E+00 -0.00000000000E+00 -0.30498136788E+04  0.30498136788E+04  0.00000000000E+00 0. -1.
         25    1    1    2    0    0  0.89388398682E+02 -0.11367901884E+03 -0.16263974948E+04  0.16375918345E+04  0.12500000000E+03 0.  0.
         25    1    1    2    0    0 -0.40149998003E+02  0.10207193444E+03 -0.10631573772E+04  0.10760851783E+04  0.12500000000E+03 0.  0.
         25    1    1    2    0    0 -0.49238400679E+02  0.11607084397E+02 -0.33514183270E+03  0.36125364017E+03  0.12500000000E+03 0.  0.
</event>
<event>
 5    0  0.5547141E-005  0.4609334E+03  0.7546771E-02  0.1024511E+00
         21   -1    0    0  502  501  0.00000000000E+00  0.00000000000E+00  0.61997358120E+03  0.61997358120E+03  0.00000000000E+00 0. -1.
         21   -1    0    0  501  502 -0.00000000000E+00 -0.00000000000E+00 -0.34269139791E+03  0.34269139791E+03  0.00000000000E+00 0. -1.
         25    1    1    2    0    0 -0.20945620508E+03  0.30785258283E+02  0.38793057997E+03  0.45927635346E+03  0.12500000000E+03 0.  0.
         25    1    1    2    0    0  0.13166988514E+03  0.14641532591E+03 -0.13861100115E+03  0.27131608126E+03  0.12500000000E+03 0.  0.
         25    1    1    2    0    0  0.77786319939E+02 -0.17720058419E+03  0.27962604466E+02  0.23207254438E+03  0.12500000000E+03 0.  0.
</event>
<event>
 5    0  0.5547141E-005  0.2183154E+03  0.7546771E-02  0.1135145E+00
         21   -1    0    0  502  501  0.00000000000E+00  0.00000000000E+00  0.50748444199E+03  0.50748444199E+03  0.00000000000E+00 0. -1.
         21   -1    0    0  501  502 -0.00000000000E+00 -0.00000000000E+00 -0.93917380748E+02  0.93917380748E+02  0.00000000000E+00 0. -1.
         25    1    1    2    0    0  0.72766369223E+02  0.46845009375E+02  0.74592984482E+02  0.16934731391E+03  0.12500000000E+03 0.  0.
         25    1    1    2    0    0 -0.36588237227E+02 -0.26777378256E+02  0.13671361390E+03  0.19071271409E+03  0.12500000000E+03 0.  0.
         25    1    1    2    0    0 -0.36178131996E+02 -0.20067631118E+02  0.20226046286E+03  0.24134179475E+03  0.12500000000E+03 0.  0.
</event>
<event>
 5    0  0.5547141E-005  0.4615188E+03  0.7546771E-02  0.1024342E+00
         21   -1    0    0  502  501  0.00000000000E+00  0.00000000000E+00  0.26766318711E+03  0.26766318711E+03  0.00000000000E+00 0. -1.
         21   -1    0    0  501  502 -0.00000000000E+00 -0.00000000000E+00 -0.79577486927E+03  0.79577486927E+03  0.00000000000E+00 0. -1.
         25    1    1    2    0    0 -0.13800787706E+03 -0.24177204394E+03 -0.15472663147E+03  0.34214795900E+03  0.12500000000E+03 0.  0.
         25    1    1    2    0    0 -0.16503980884E+03  0.62847653153E+02 -0.24384503628E+03  0.32599596275E+03  0.12500000000E+03 0.  0.
         25    1    1    2    0    0  0.30304768590E+03  0.17892439078E+03 -0.12954001440E+03  0.39529413464E+03  0.12500000000E+03 0.  0.
</event>
<event>
 5    0  0.5547141E-005  0.3275540E+03  0.7546771E-02  0.1072224E+00
         21   -1    0    0  502  501  0.00000000000E+00  0.00000000000E+00  0.78326607779E+03  0.78326607779E+03  0.00000000000E+00 0. -1.
         21   -1    0    0  501  502 -0.00000000000E+00 -0.00000000000E+00 -0.13697982341E+03  0.13697982341E+03  0.00000000000E+00 0. -1.
         25    1    1    2    0    0 -0.18748944689E+03 -0.13593507794E+03  0.35046926065E+03  0.43827427574E+03  0.12500000000E+03 0.  0.
         25    1    1    2    0    0  0.23705733446E+02  0.11988078416E+02  0.16353033809E+03  0.20753998964E+03  0.12500000000E+03 0.  0.
         25    1    1    2    0    0  0.16378371345E+03  0.12394699952E+03  0.13228665563E+03  0.27443163582E+03  0.12500000000E+03 0.  0.
</event>
<event>
 5    0  0.5863345E-005  0.3506249E+03  0.7546771E-02  0.1062359E+00
         21   -1    0    0  502  501  0.00000000000E+00  0.00000000000E+00  0.15158944874E+03  0.15158944874E+03  0.00000000000E+00 0. -1.
         21   -1    0    0  501  502 -0.00000000000E+00 -0.00000000000E+00 -0.81099204009E+03  0.81099204009E+03  0.00000000000E+00 0. -1.
         25    1    1    2    0    0 -0.97965491085E+02 -0.14828312911E+03 -0.40289483144E+03  0.45774924252E+03  0.12500000000E+03 0.  0.
         25    1    1    2    0    0  0.20059477647E+03  0.78452390124E+02 -0.20130267977E+03  0.32021994120E+03  0.12500000000E+03 0.  0.
         25    1    1    2    0    0 -0.10262928538E+03  0.69830738985E+02 -0.55205080140E+02  0.18461230511E+03  0.12500000000E+03 0.  0.
</event>
<event>
 5    0  0.5547141E-005  0.3992089E+03  0.7546771E-02  0.1044054E+00
         21   -1    0    0  502  501  0.00000000000E+00  0.00000000000E+00  0.18550209293E+03  0.18550209293E+03  0.00000000000E+00 0.  1.
         21   -1    0    0  501  502 -0.00000000000E+00 -0.00000000000E+00 -0.85911552601E+03  0.85911552601E+03  0.00000000000E+00 0.  1.
         25    1    1    2    0    0  0.16002066430E+03  0.52793855891E+02  0.14262208619E+02  0.21029078633E+03  0.12500000000E+03 0.  0.
         25    1    1    2    0    0  0.25147082730E+02  0.12988207370E+03 -0.29954577541E+03  0.35050592064E+03  0.12500000000E+03 0.  0.
         25    1    1    2    0    0 -0.18516774703E+03 -0.18267592959E+03 -0.38832986629E+03  0.48382091196E+03  0.12500000000E+03 0.  0.
</event>
<event>
 5    0  0.5547141E-005  0.3235546E+03  0.7546771E-02  0.1074025E+00
         21   -1    0    0  502  501  0.00000000000E+00  0.00000000000E+00  0.54578909745E+03  0.54578909745E+03  0.00000000000E+00 0. -1.
         21   -1    0    0  501  502 -0.00000000000E+00 -0.00000000000E+00 -0.19180952867E+03  0.19180952867E+03  0.00000000000E+00 0. -1.
         25    1    1    2    0    0  0.56792388761E+02  0.79402585467E+02  0.15755689214E+03  0.22356055167E+03  0.12500000000E+03 0.  0.
         25    1    1    2    0    0  0.13963893993E+03  0.43647446066E+02  0.15576332248E+03  0.24757089030E+03  0.12500000000E+03 0.  0.
         25    1    1    2    0    0 -0.19643132869E+03 -0.12305003153E+03  0.40659354151E+02  0.26646718416E+03  0.12500000000E+03 0.  0.
</event>
<event>
 5    0  0.5547141E-005  0.4884305E+03  0.7546771E-02  0.1016844E+00
         21   -1    0    0  502  501  0.00000000000E+00  0.00000000000E+00  0.17821773028E+04  0.17821773028E+04  0.00000000000E+00 0. -1.
         21   -1    0    0  501  502 -0.00000000000E+00 -0.00000000000E+00 -0.13386115628E+03  0.13386115628E+03  0.00000000000E+00 0. -1.
         25    1    1    2    0    0 -0.19674931279E+03  0.13552145280E+03  0.41985846683E+03  0.49898145098E+03  0.12500000000E+03 0.  0.
         25    1    1    2    0    0  0.17287713773E+03  0.11642221486E+03  0.11590521525E+03  0.26925760116E+03  0.12500000000E+03 0.  0.
         25    1    1    2    0    0  0.23872175061E+02 -0.25194366766E+03  0.11125524644E+04  0.11477994069E+04  0.12500000000E+03 0.  0.
</event>
<event>
 5    0  0.5547141E-005  0.3363421E+03  0.7546771E-02  0.1068365E+00
         21   -1    0    0  502  501  0.00000000000E+00  0.00000000000E+00  0.23123635975E+03  0.23123635975E+03  0.00000000000E+00 0. -1.
         21   -1    0    0  501  502 -0.00000000000E+00 -0.00000000000E+00 -0.48922238721E+03  0.48922238721E+03  0.00000000000E+00 0. -1.
         25    1    1    2    0    0  0.92466017347E+02  0.23351072846E+02 -0.94783764092E+02  0.18358703359E+03  0.12500000000E+03 0.  0.
         25    1    1    2    0    0 -0.70341265129E+02  0.15129133818E+03 -0.23043227800E+03  0.31074265451E+03  0.12500000000E+03 0.  0.
         25    1    1    2    0    0 -0.22124752218E+02 -0.17464241103E+03  0.67230014634E+02  0.22612905885E+03  0.12500000000E+03 0.  0.
</event>
<event>
 5    0  0.5547141E-005  0.3024546E+03  0.7546771E-02  0.1084020E+00
         21   -1    0    0  502  501  0.00000000000E+00  0.00000000000E+00  0.41008903017E+02  0.41008903017E+02  0.00000000000E+00 0. -1.
         21   -1    0    0  501  502 -0.00000000000E+00 -0.00000000000E+00 -0.22307059208E+04  0.22307059208E+04  0.00000000000E+00 0. -1.
         25    1    1    2    0    0 -0.99385351674E+01 -0.75226094601E+01 -0.20289956928E+03  0.23863905663E+03  0.12500000000E+03 0.  0.
         25    1    1    2    0    0  0.15163252053E+03 -0.71197713032E+02 -0.71545910851E+03  0.74536452261E+03  0.12500000000E+03 0.  0.
         25    1    1    2    0    0 -0.14169398537E+03  0.78720322492E+02 -0.12713383400E+04  0.12877112445E+04  0.12500000000E+03 0.  0.
</event>
<event>
 5    0  0.5547141E-005  0.2599065E+03  0.7546771E-02  0.1107199E+00
         21   -1    0    0  502  501  0.00000000000E+00  0.00000000000E+00  0.14930289169E+03  0.14930289169E+03  0.00000000000E+00 0. -1.
         21   -1    0    0  501  502 -0.00000000000E+00 -0.00000000000E+00 -0.45244525376E+03  0.45244525376E+03  0.00000000000E+00 0. -1.
         25    1    1    2    0    0  0.65214894632E+02  0.63315078719E+02 -0.29199644250E+02  0.15728763747E+03  0.12500000000E+03 0.  0.
         25    1    1    2    0    0  0.70646492145E+02 -0.48062584187E+02 -0.18472481921E+03  0.23884973872E+03  0.12500000000E+03 0.  0.
         25    1    1    2    0    0 -0.13586138678E+03 -0.15252494532E+02 -0.89217898608E+02  0.20561076927E+03  0.12500000000E+03 0.  0.
</event>
<event>
 5    0  0.5547141E-005  0.6144212E+03  0.7546771E-02  0.9875930E-01
         21   -1    0    0  502  501  0.00000000000E+00  0.00000000000E+00  0.16066185627E+04  0.16066185627E+04  0.00000000000E+00 0.  1.
         21   -1    0    0  501  502 -0.00000000000E+00 -0.00000000000E+00 -0.23497391863E+03  0.23497391863E+03  0.00000000000E+00 0.  1.
         25    1    1    2    0    0 -0.18280982161E+03 -0.40877293205E+03  0.41024132640E+03  0.62003039179E+03  0.12500000000E+03 0.  0.
         25    1    1    2    0    0  0.33332196263E+03  0.38751578546E+03  0.83722199864E+03  0.98885675897E+03  0.12500000000E+03 0.  0.
         25    1    1    2    0    0 -0.15051214102E+03  0.21257146588E+02  0.12418131899E+03  0.23270533054E+03  0.12500000000E+03 0.  0.
</event>
<event>
 5    0  0.5547141E-005  0.2826108E+03  0.7546771E-02  0.1094271E+00
         21   -1    0    0  502  501  0.00000000000E+00  0.00000000000E+00  0.10431966306E+03  0.10431966306E+03  0.00000000000E+00 0.  1.
         21   -1    0    0  501  502 -0.00000000000E+00 -0.00000000000E+00 -0.76561661162E+03  0.76561661162E+03  0.00000000000E+00 0. -1.
         25    1    1    2    0    0 -0.17672679722E+02 -0.14919097396E+03 -0.97385763001E+02  0.21835580403E+03  0.12500000000E+03 0.  0.
         25    1    1    2    0    0  0.21606833121E+02  0.14984404049E+03 -0.39823628076E+03  0.44400138178E+03  0.12500000000E+03 0.  0.
         25    1    1    2    0    0 -0.39341533997E+01 -0.65306652714E+00 -0.16567490479E+03  0.20757908887E+03  0.12500000000E+03 0.  0.
</event>
<event>
 5    0  0.5547141E-005  0.3373193E+03  0.7546771E-02  0.1067943E+00
         21   -1    0    0  502  501  0.00000000000E+00  0.00000000000E+00  0.60907438512E+02  0.60907438512E+02  0.00000000000E+00 0. -1.
         21   -1    0    0  501  502 -0.00000000000E+00 -0.00000000000E+00 -0.18681517151E+04  0.18681517151E+04  0.00000000000E+00 0. -1.
         25    1    1    2    0    0  0.56316774781E+02  0.76322126609E+02 -0.75142867772E+03  0.76763709123E+03  0.12500000000E+03 0.  0.
         25    1    1    2    0    0 -0.18960427532E+03 -0.58252839869E+02 -0.28503181215E+03  0.36906816242E+03  0.12500000000E+03 0.  0.
         25    1    1    2    0    0  0.13328750054E+03 -0.18069286740E+02 -0.77078378676E+03  0.79235390001E+03  0.12500000000E+03 0.  0.
</event>
<event>
 5    0  0.5547141E-005  0.2700931E+03  0.7546771E-02  0.1101226E+00
         21   -1    0    0  502  501  0.00000000000E+00  0.00000000000E+00  0.80272844847E+02  0.80272844847E+02  0.00000000000E+00 0. -1.
         21   -1    0    0  501  502 -0.00000000000E+00 -0.00000000000E+00 -0.90877928090E+03  0.90877928090E+03  0.00000000000E+00 0. -1.
         25    1    1    2    0    0  0.73356436715E+01  0.73342459614E+02 -0.20022500857E+03  0.24728118025E+03  0.12500000000E+03 0.  0.
         25    1    1    2    0    0  0.25283595594E+02  0.23281568688E+02 -0.46005237362E+02  0.13756007237E+03  0.12500000000E+03 0.  0.
         25    1    1    2    0    0 -0.32619239265E+02 -0.96624028302E+02 -0.58227619012E+03  0.60421087312E+03  0.12500000000E+03 0.  0.
</event>
<event>
 5    0  0.5547141E-005  0.2626878E+03  0.7546771E-02  0.1105539E+00
         21   -1    0    0  502  501  0.00000000000E+00  0.00000000000E+00  0.27768221009E+02  0.27768221009E+02  0.00000000000E+00 0.  1.
         21   -1    0    0  501  502 -0.00000000000E+00 -0.00000000000E+00 -0.24850300956E+04  0.24850300956E+04  0.00000000000E+00 0.  1.
         25    1    1    2    0    0 -0.52125669770E+02  0.64770495794E+02 -0.47348115731E+03  0.49671089066E+03  0.12500000000E+03 0.  0.
         25    1    1    2    0    0  0.81390563792E+02 -0.10988549315E+02 -0.41473718475E+03  0.44088218892E+03  0.12500000000E+03 0.  0.
         25    1    1    2    0    0 -0.29264894022E+02 -0.53781946480E+02 -0.15690435326E+04  0.15752052371E+04  0.12500000000E+03 0.  0.
</event>
<event>
 5    0  0.5547141E-005  0.2717393E+03  0.7546771E-02  0.1100288E+00
         21   -1    0    0  502  501  0.00000000000E+00  0.00000000000E+00  0.51118018624E+03  0.51118018624E+03  0.00000000000E+00 0.  1.
         21   -1    0    0  501  502 -0.00000000000E+00 -0.00000000000E+00 -0.14445445235E+03  0.14445445235E+03  0.00000000000E+00 0.  1.
         25    1    1    2    0    0 -0.61139061535E+02 -0.69203770673E+02  0.11665072099E+03  0.19431813459E+03  0.12500000000E+03 0.  0.
         25    1    1    2    0    0  0.15718546325E+02  0.12834329079E+03  0.94479345894E+01  0.18009257746E+03  0.12500000000E+03 0.  0.
         25    1    1    2    0    0  0.45420515210E+02 -0.59139520115E+02  0.24062707831E+03  0.28122392653E+03  0.12500000000E+03 0.  0.
</event>
<event>
 5    0  0.5547141E-005  0.2941738E+03  0.7546771E-02  0.1088190E+00
         21   -1    0    0  502  501  0.00000000000E+00  0.00000000000E+00  0.21129427832E+03  0.21129427832E+03  0.00000000000E+00 0.  1.
         21   -1    0    0  501  502 -0.00000000000E+00 -0.00000000000E+00 -0.40956245419E+03  0.40956245419E+03  0.00000000000E+00 0.  1.
         25    1    1    2    0    0  0.72659931472E+02 -0.70281473088E+02 -0.46062986902E+02  0.16722963213E+03  0.12500000000E+03 0.  0.
         25    1    1    2    0    0 -0.20388754557E+03  0.24777171636E+02 -0.82721684770E+02  0.25426741160E+03  0.12500000000E+03 0.  0.
         25    1    1    2    0    0  0.13122761410E+03  0.45504301452E+02 -0.69483504194E+02  0.19935968877E+03  0.12500000000E+03 0.  0.
</event>
<event>
 5    0  0.5547141E-005  0.2818327E+03  0.7546771E-02  0.1094692E+00
         21   -1    0    0  502  501  0.00000000000E+00  0.00000000000E+00  0.38141284319E+03  0.38141284319E+03  0.00000000000E+00 0. -1.
         21   -1    0    0  501  502 -0.00000000000E+00 -0.00000000000E+00 -0.20825109898E+03  0.20825109898E+03  0.00000000000E+00 0. -1.
         25    1    1    2    0    0  0.11348169212E+03 -0.33246457605E+01 -0.55996720371E+02  0.17790385158E+03  0.12500000000E+03 0.  0.
         25    1    1    2    0    0 -0.80633712366E+02 -0.69626693546E+02  0.20290251934E+03  0.26104425751E+03  0.12500000000E+03 0.  0.
         25    1    1    2    0    0 -0.32847979750E+02  0.72951339306E+02  0.26255945232E+02  0.15071583308E+03  0.12500000000E+03 0.  0.
</event>
<event>
 5    0  0.5547141E-005  0.2723735E+03  0.7546771E-02  0.1099929E+00
         21   -1    0    0  502  501  0.00000000000E+00  0.00000000000E+00  0.30378155091E+02  0.30378155091E+02  0.00000000000E+00 0.  1.
         21   -1    0    0  501  502 -0.00000000000E+00 -0.00000000000E+00 -0.24421265968E+04  0.24421265968E+04  0.00000000000E+00 0.  1.
         25    1    1    2    0    0 -0.45070487891E+02  0.10614467479E+03 -0.12888873217E+04  0.13000590636E+04  0.12500000000E+03 0.  0.
         25    1    1    2    0    0  0.22384064032E+02  0.33036176436E+02 -0.28650916350E+03  0.31512685706E+03  0.12500000000E+03 0.  0.
         25    1    1    2    0    0  0.22686423859E+02 -0.13918085122E+03 -0.83635195648E+03  0.85731883117E+03  0.12500000000E+03 0.  0.
</event>
<event>
 5    0  0.5547141E-005  0.2555005E+03  0.7546771E-02  0.1109877E+00
         21   -1    0    0  502  501  0.00000000000E+00  0.00000000000E+00  0.65970997220E+03  0.65970997220E+03  0.00000000000E+00 0. -1.
         21   -1    0    0  501  502 -0.00000000000E+00 -0.00000000000E+00 -0.98953310908E+02  0.98953310908E+02  0.00000000000E+00 0. -1.
         25    1    1    2    0    0  0.71789026347E+02  0.35947153793E+02  0.13848582671E+03  0.20309895708E+03  0.12500000000E+03 0.  0.
         25    1    1    2    0    0 -0.56799887801E+02  0.51476068594E+02  0.53290189082E+02  0.15601556699E+03  0.12500000000E+03 0.  0.
         25    1    1    2    0    0 -0.14989138546E+02 -0.87423222387E+02  0.36898064550E+03  0.39954875903E+03  0.12500000000E+03 0.  0.
</event>
<event>
 5    0  0.5547141E-005  0.2401206E+03  0.7546771E-02  0.1119713E+00
         21   -1    0    0  502  501  0.00000000000E+00  0.00000000000E+00  0.32281923383E+03  0.32281923383E+03  0.00000000000E+00 0. -1.
         21   -1    0    0  501  502 -0.00000000000E+00 -0.00000000000E+00 -0.17860733871E+03  0.17860733871E+03  0.00000000000E+00 0. -1.
         25    1    1    2    0    0 -0.44724853800E+02  0.29710975772E+02  0.27055761525E+02  0.13870857530E+03  0.12500000000E+03 0.  0.
         25    1    1    2    0    0  0.81694691145E+02  0.18570475302E+02 -0.37186363640E+02  0.15500551847E+03  0.12500000000E+03 0.  0.
         25    1    1    2    0    0 -0.36969837345E+02 -0.48281451075E+02  0.15434249723E+03  0.20771247879E+03  0.12500000000E+03 0.  0.
</event>
<event>
 5    0  0.5547141E-005  0.3221413E+03  0.7546771E-02  0.1074668E+00
         21   -1    0    0  502  501  0.00000000000E+00  0.00000000000E+00  0.22795587240E+04  0.22795587240E+04  0.00000000000E+00 0.  1.
         21   -1    0    0  501  502 -0.00000000000E+00 -0.00000000000E+00 -0.45524167774E+02  0.45524167774E+02  0.00000000000E+00 0.  1.
         25    1    1    2    0    0  0.15260013981E+03 -0.21038730758E+02  0.29613908447E+03  0.35644464958E+03  0.12500000000E+03 0.  0.
         25    1    1    2    0    0 -0.19352484681E+02  0.69325351886E+02  0.11168471540E+04  0.11261230343E+04  0.12500000000E+03 0.  0.
         25    1    1    2    0    0 -0.13324765513E+03 -0.48286621128E+02  0.82104831775E+03  0.84251520785E+03  0.12500000000E+03 0.  0.
</event>
<event>
 5    0  0.5973500E-005  0.3670202E+03  0.7546771E-02  0.1055838E+00
         21   -1    0    0  502  501  0.00000000000E+00  0.00000000000E+00  0.28903152847E+03  0.28903152847E+03  0.00000000000E+00 0.  1.
         21   -1    0    0  501  502 -0.00000000000E+00 -0.00000000000E+00 -0.46605235391E+03  0.46605235391E+03  0.00000000000E+00 0.  1.
         25    1    1    2    0    0 -0.64322624481E+02 -0.35780593673E+02 -0.29606774465E+03  0.32969495041E+03  0.12500000000E+03 0.  0.
         25    1    1    2    0    0  0.12970778080E+03 -0.57243743052E+02 -0.40150461745E+02  0.19323046886E+03  0.12500000000E+03 0.  0.
         25    1    1    2    0    0 -0.65385156316E+02  0.93024336725E+02  0.15919738096E+03  0.23215846311E+03  0.12500000000E+03 0.  0.
</event>
<event>
 5    0  0.5547141E-005  0.2403243E+03  0.7546771E-02  0.1119577E+00
         21   -1    0    0  502  501  0.00000000000E+00  0.00000000000E+00  0.66808036693E+03  0.66808036693E+03  0.00000000000E+00 0. -1.
         21   -1    0    0  501  502 -0.00000000000E+00 -0.00000000000E+00 -0.86450351925E+02  0.86450351925E+02  0.00000000000E+00 0. -1.
         25    1    1    2    0    0 -0.24231200337E+02  0.19128250131E+02  0.15248014742E+03  0.19957012898E+03  0.12500000000E+03 0.  0.
         25    1    1    2    0    0 -0.13397661015E+02 -0.99872579543E+02  0.93303970768E+02  0.18570045887E+03  0.12500000000E+03 0.  0.
         25    1    1    2    0    0  0.37628861352E+02  0.80744329412E+02  0.33584589681E+03  0.36926013100E+03  0.12500000000E+03 0.  0.
</event>
<event>
 5    0  0.5547141E-005  0.3412980E+03  0.7546771E-02  0.1066244E+00
         21   -1    0    0  502  501  0.00000000000E+00  0.00000000000E+00  0.11453519075E+03  0.11453519075E+03  0.00000000000E+00 0.  1.
         21   -1    0    0  501  502 -0.00000000000E+00 -0.00000000000E+00 -0.10170179382E+04  0.10170179382E+04  0.00000000000E+00 0.  1.
         25    1    1    2    0    0 -0.22021890705E+03  0.22763224640E+02 -0.18654435579E+03  0.31533843422E+03  0.12500000000E+03 0.  0.
         25    1    1    2    0    0  0.11151376027E+03  0.34264003320E+02 -0.54597505180E+03  0.57212157611E+03  0.12500000000E+03 0.  0.
         25    1    1    2    0    0  0.10870514678E+03 -0.57027227960E+02 -0.16996333990E+03  0.24409311865E+03  0.12500000000E+03 0.  0.
</event>
<event>
 5    0  0.5547141E-005  0.3281138E+03  0.7546771E-02  0.1071975E+00
         21   -1    0    0  502  501  0.00000000000E+00  0.00000000000E+00  0.74167117350E+02  0.74167117350E+02  0.00000000000E+00 0.  1.
         21   -1    0    0  501  502 -0.00000000000E+00 -0.00000000000E+00 -0.14515686173E+04  0.14515686173E+04  0.00000000000E+00 0.  1.
         25    1    1    2    0    0 -0.20036038959E+03  0.38199918796E+02 -0.37487849680E+03  0.44470485367E+03  0.12500000000E+03 0.  0.
         25    1    1    2    0    0  0.16848064333E+01 -0.73348997061E+02 -0.56480159339E+03  0.58310269579E+03  0.12500000000E+03 0.  0.
         25    1    1    2    0    0  0.19867558316E+03  0.35149078264E+02 -0.43772140977E+03  0.49792818520E+03  0.12500000000E+03 0.  0.
</event>
<event>
 5    0  0.5547141E-005  0.2714692E+03  0.7546771E-02  0.1100442E+00
         21   -1    0    0  502  501  0.00000000000E+00  0.00000000000E+00  0.67011880656E+03  0.67011880656E+03  0.00000000000E+00 0. -1.
         21   -1    0    0  501  502 -0.00000000000E+00 -0.00000000000E+00 -0.10997380604E+03  0.10997380604E+03  0.00000000000E+00 0. -1.
         25    1    1    2    0    0 -0.24897335169E+02 -0.81032111076E+02  0.19146900641E+03  0.24386771155E+03  0.12500000000E+03 0.  0.
         25    1    1    2    0    0 -0.43376640566E+02  0.99664116896E+02  0.35522937537E+03  0.39195328583E+03  0.12500000000E+03 0.  0.
         25    1    1    2    0    0  0.68273975735E+02 -0.18632005820E+02  0.13446618740E+02  0.14427161522E+03  0.12500000000E+03 0.  0.
</event>
<event>
 5    0  0.5547141E-005  0.3692932E+03  0.7546771E-02  0.1054964E+00
         21   -1    0    0  502  501  0.00000000000E+00  0.00000000000E+00  0.62561441737E+03  0.62561441737E+03  0.00000000000E+00 0. -1.
         21   -1    0    0  501  502 -0.00000000000E+00 -0.00000000000E+00 -0.21798966676E+03  0.21798966676E+03  0.00000000000E+00 0. -1.
         25    1    1    2    0    0 -0.12093774620E+03  0.18183444119E+03  0.34660069759E+03  0.42830683631E+03  0.12500000000E+03 0.  0.
         25    1    1    2    0    0  0.98241198673E+02  0.20237212295E+02 -0.23710944602E+02  0.16201261300E+03  0.12500000000E+03 0.  0.
         25    1    1    2    0    0  0.22696547528E+02 -0.20207165348E+03  0.84734997625E+02  0.25328463481E+03  0.12500000000E+03 0.  0.
</event>
<event>
 5    0  0.5547141E-005  0.4751669E+03  0.7546771E-02  0.1020472E+00
         21   -1    0    0  502  501  0.00000000000E+00  0.00000000000E+00  0.20865956334E+03  0.20865956334E+03  0.00000000000E+00 0. -1.
         21   -1    0    0  501  502 -0.00000000000E+00 -0.00000000000E+00 -0.10820665798E+04  0.10820665798E+04  0.00000000000E+00 0. -1.
         25    1    1    2    0    0  0.26175100065E+03 -0.98371789968E+02 -0.84407636525E+02  0.31771094489E+03  0.12500000000E+03 0.  0.
         25    1    1    2    0    0 -0.12718820286E+03 -0.65418756007E+02 -0.67607812707E+03  0.70225571303E+03  0.12500000000E+03 0.  0.
         25    1    1    2    0    0 -0.13456279779E+03  0.16379054597E+03 -0.11292125291E+03  0.27075948526E+03  0.12500000000E+03 0.  0.
</event>
<event>
 5    0  0.5736681E-005  0.3146284E+03  0.7546771E-02  0.1078148E+00
         21   -1    0    0  502  501  0.00000000000E+00  0.00000000000E+00  0.76678993174E+03  0.76678993174E+03  0.00000000000E+00 0.  1.
         21   -1    0    0  501  502 -0.00000000000E+00 -0.00000000000E+00 -0.12909799929E+03  0.12909799929E+03  0.00000000000E+00 0.  1.
         25    1    1    2    0    0 -0.11442877705E+03  0.64130289731E+02  0.29292235951E+03  0.34443453337E+03  0.12500000000E+03 0.  0.
         25    1    1    2    0    0 -0.34617059693E+00  0.79350745493E+02  0.28526086587E+03  0.32139605200E+03  0.12500000000E+03 0.  0.
         25    1    1    2    0    0  0.11477494765E+03 -0.14348103522E+03  0.59508707076E+02  0.23005734566E+03  0.12500000000E+03 0.  0.
</event>
<event>
 5    0  0.5547141E-005  0.2725760E+03  0.7546771E-02  0.1099814E+00
         21   -1    0    0  502  501  0.00000000000E+00  0.00000000000E+00  0.77656939481E+03  0.77656939481E+03  0.00000000000E+00 0. -1.
         21   -1    0    0  501  502 -0.00000000000E+00 -0.00000000000E+00 -0.95674244347E+02  0.95674244347E+02  0.00000000000E+00 0. -1.
         25    1    1    2    0    0  0.14898414796E+01 -0.54146211796E+02  0.90928641393E+02  0.16378965079E+03  0.12500000000E+03 0.  0.
         25    1    1    2    0    0  0.38516754571E+02 -0.84716498851E+02  0.10691927930E+03  0.18898983530E+03  0.12500000000E+03 0.  0.
         25    1    1    2    0    0 -0.40006596051E+02  0.13886271065E+03  0.48304722977E+03  0.51946415307E+03  0.12500000000E+03 0.  0.
</event>
<event>
 5    0  0.5679246E-005  0.3095533E+03  0.7546771E-02  0.1080560E+00
         21   -1    0    0  502  501  0.00000000000E+00  0.00000000000E+00  0.40050750353E+03  0.40050750353E+03  0.00000000000E+00 0.  1.
         21   -1    0    0  501  502 -0.00000000000E+00 -0.00000000000E+00 -0.23925463223E+03  0.23925463223E+03  0.00000000000E+00 0.  1.
         25    1    1    2    0    0 -0.55541787475E+02  0.36153512141E+01 -0.71654732549E+02  0.15445828439E+03  0.12500000000E+03 0.  0.
         25    1    1    2    0    0  0.12437734378E+03 -0.19203618664E+02 -0.35522113756E+02  0.18090141841E+03  0.12500000000E+03 0.  0.
         25    1    1    2    0    0 -0.68835556310E+02  0.15588267450E+02  0.26842971760E+03  0.30440243295E+03  0.12500000000E+03 0.  0.
</event>
<event>
 5    0  0.5547141E-005  0.2716474E+03  0.7546771E-02  0.1100340E+00
         21   -1    0    0  502  501  0.00000000000E+00  0.00000000000E+00  0.92452082202E+03  0.92452082202E+03  0.00000000000E+00 0.  1.
         21   -1    0    0  501  502 -0.00000000000E+00 -0.00000000000E+00 -0.79816795659E+02  0.79816795659E+02  0.00000000000E+00 0.  1.
         25    1    1    2    0    0 -0.52317715188E+02  0.12005946235E+03  0.17584668882E+03  0.25238556970E+03  0.12500000000E+03 0.  0.
         25    1    1    2    0    0  0.11015983906E+03 -0.18873419857E+02  0.39532762626E+03  0.42941859322E+03  0.12500000000E+03 0.  0.
         25    1    1    2    0    0 -0.57842123871E+02 -0.10118604249E+03  0.27352971128E+03  0.32253345476E+03  0.12500000000E+03 0.  0.
</event>
<event>
 5    0  0.5547141E-005  0.2139088E+03  0.7546771E-02  0.1138507E+00
         21   -1    0    0  502  501  0.00000000000E+00  0.00000000000E+00  0.16988147153E+03  0.16988147153E+03  0.00000000000E+00 0.  1.
         21   -1    0    0  501  502 -0.00000000000E+00 -0.00000000000E+00 -0.26934653964E+03  0.26934653964E+03  0.00000000000E+00 0.  1.
         25    1    1    2    0    0  0.47982265507E+02 -0.73472316895E+02 -0.69179326052E+02  0.16766412349E+03  0.12500000000E+03 0.  0.
         25    1    1    2    0    0 -0.74598549425E+01  0.52694403617E+02 -0.26832742606E+02  0.13848229376E+03  0.12500000000E+03 0.  0.
         25    1    1    2    0    0 -0.40522410564E+02  0.20777913278E+02 -0.34529994520E+01  0.13308159393E+03  0.12500000000E+03 0.  0.
</event>
<event>
 5    0  0.5547141E-005  0.2825350E+03  0.7546771E-02  0.1094312E+00
         21   -1    0    0  502  501  0.00000000000E+00  0.00000000000E+00  0.84527363185E+02  0.84527363185E+02  0.00000000000E+00 0.  1.
         21   -1    0    0  501  502 -0.00000000000E+00 -0.00000000000E+00 -0.94438106986E+03  0.94438106986E+03  0.00000000000E+00 0.  1.
         25    1    1    2    0    0 -0.36259100013E+02  0.97665908426E+02 -0.31369691160E+03  0.35338945139E+03  0.12500000000E+03 0.  0.
         25    1    1    2    0    0 -0.82072863482E+02  0.50242642377E+02 -0.31094548540E+03  0.34867230020E+03  0.12500000000E+03 0.  0.
         25    1    1    2    0    0  0.11833196349E+03 -0.14790855080E+03 -0.23521130967E+03  0.32684668146E+03  0.12500000000E+03 0.  0.
</event>
<event>
 5    0  0.5547141E-005  0.3560219E+03  0.7546771E-02  0.1060170E+00
         21   -1    0    0  502  501  0.00000000000E+00  0.00000000000E+00  0.16284066413E+03  0.16284066413E+03  0.00000000000E+00 0. -1.
         21   -1    0    0  501  502 -0.00000000000E+00 -0.00000000000E+00 -0.77837784105E+03  0.77837784105E+03  0.00000000000E+00 0. -1.
         25    1    1    2    0    0  0.10574125818E+03 -0.65310937496E+02 -0.35812171901E+03  0.39915272499E+03  0.12500000000E+03 0.  0.
         25    1    1    2    0    0 -0.11274271749E+03 -0.39498203433E+01 -0.33817132767E+03  0.37777158216E+03  0.12500000000E+03 0.  0.
         25    1    1    2    0    0  0.70014593012E+01  0.69260757840E+02  0.80755869761E+02  0.16429419804E+03  0.12500000000E+03 0.  0.
</event>
<event>
 5    0  0.6629721E-005  0.3244650E+03  0.7546771E-02  0.1073613E+00
         21   -1    0    0  502  501  0.00000000000E+00  0.00000000000E+00  0.32819801338E+03  0.32819801338E+03  0.00000000000E+00 0. -1.
         21   -1    0    0  501  502 -0.00000000000E+00 -0.00000000000E+00 -0.32077450180E+03  0.32077450180E+03  0.00000000000E+00 0. -1.
         25    1    1    2    0    0 -0.90789283743E+02  0.93866778429E+02  0.94783182543E+02  0.20411398244E+03  0.12500000000E+03 0.  0.
         25    1    1    2    0    0 -0.74506510584E+02  0.69432180853E+02 -0.82159976014E+02  0.18096217703E+03  0.12500000000E+03 0.  0.
         25    1    1    2    0    0  0.16529579433E+03 -0.16329895928E+03 -0.51996949483E+01  0.26389635570E+03  0.12500000000E+03 0.  0.
</event>
<event>
 5    0  0.5547141E-005  0.3519971E+03  0.7546771E-02  0.1061798E+00
         21   -1    0    0  502  501  0.00000000000E+00  0.00000000000E+00  0.23205244305E+03  0.23205244305E+03  0.00000000000E+00 0. -1.
         21   -1    0    0  501  502 -0.00000000000E+00 -0.00000000000E+00 -0.53393954337E+03  0.53393954337E+03  0.00000000000E+00 0. -1.
         25    1    1    2    0    0 -0.87860461557E+02  0.63647334446E+02  0.23980659226E+02  0.16724388151E+03  0.12500000000E+03 0.  0.
         25    1    1    2    0    0  0.20559596515E+03 -0.15697362621E+03 -0.27293245946E+03  0.39626701558E+03  0.12500000000E+03 0.  0.
         25    1    1    2    0    0 -0.11773550359E+03  0.93326291769E+02 -0.52935300082E+02  0.20248108933E+03  0.12500000000E+03 0.  0.
</event>
<event>
 5    0  0.5547141E-005  0.2373931E+03  0.7546771E-02  0.1121542E+00
         21   -1    0    0  502  501  0.00000000000E+00  0.00000000000E+00  0.50637973099E+02  0.50637973099E+02  0.00000000000E+00 0.  1.
         21   -1    0    0  501  502 -0.00000000000E+00 -0.00000000000E+00 -0.11129096378E+04  0.11129096378E+04  0.00000000000E+00 0.  1.
         25    1    1    2    0    0 -0.10442297796E+03  0.32890043332E+02 -0.32386895959E+03  0.36400826400E+03  0.12500000000E+03 0.  0.
         25    1    1    2    0    0  0.11072391577E+03  0.21438809447E+02 -0.36397101702E+03  0.40102282891E+03  0.12500000000E+03 0.  0.
         25    1    1    2    0    0 -0.63009378066E+01 -0.54328852779E+02 -0.37443168806E+03  0.39851651796E+03  0.12500000000E+03 0.  0.
</event>
<event>
 5    0  0.5547141E-005  0.2686362E+03  0.7546771E-02  0.1102063E+00
         21   -1    0    0  502  501  0.00000000000E+00  0.00000000000E+00  0.11540931934E+04  0.11540931934E+04  0.00000000000E+00 0. -1.
         21   -1    0    0  501  502 -0.00000000000E+00 -0.00000000000E+00 -0.62529950196E+02  0.62529950196E+02  0.00000000000E+00 0. -1.
         25    1    1    2    0    0  0.49333026929E+02 -0.17053148431E+02  0.10782961318E+03  0.17313804578E+03  0.12500000000E+03 0.  0.
         25    1    1    2    0    0 -0.10635767956E+03 -0.71017047331E+02  0.41714390153E+03  0.45386056404E+03  0.12500000000E+03 0.  0.
         25    1    1    2    0    0  0.57024652633E+02  0.88070195763E+02  0.56658972855E+03  0.58962453382E+03  0.12500000000E+03 0.  0.
</event>
<event>
 5    0  0.5547141E-005  0.2711937E+03  0.7546771E-02  0.1100598E+00
         21   -1    0    0  502  501  0.00000000000E+00  0.00000000000E+00  0.83214916714E+03  0.83214916714E+03  0.00000000000E+00 0.  1.
         21   -1    0    0  501  502 -0.00000000000E+00 -0.00000000000E+00 -0.88380830489E+02  0.88380830489E+02  0.00000000000E+00 0.  1.
         25    1    1    2    0    0 -0.16595239469E+03  0.21809613589E+02  0.17668803937E+03  0.27360467796E+03  0.12500000000E+03 0.  0.
         25    1    1    2    0    0  0.86205646119E+02 -0.46212185132E+02  0.33086015725E+03  0.36696106487E+03  0.12500000000E+03 0.  0.
         25    1    1    2    0    0  0.79746748568E+02  0.24402571543E+02  0.23622014003E+03  0.27996425479E+03  0.12500000000E+03 0.  0.
</event>
<event>
 5    0  0.5547141E-005  0.2462836E+03  0.7546771E-02  0.1115676E+00
         21   -1    0    0  502  501  0.00000000000E+00  0.00000000000E+00  0.45007478591E+02  0.45007478591E+02  0.00000000000E+00 0. -1.
         21   -1    0    0  501  502 -0.00000000000E+00 -0.00000000000E+00 -0.13476783137E+04  0.13476783137E+04  0.00000000000E+00 0. -1.
         25    1    1    2    0    0 -0.24868652365E+02 -0.16841933582E+02 -0.19011209854E+03  0.22949882485E+03  0.12500000000E+03 0.  0.
         25    1    1    2    0    0 -0.50977983112E+02  0.10236408452E+03 -0.59182484725E+03  0.61559630472E+03  0.12500000000E+03 0.  0.
         25    1    1    2    0    0  0.75846635477E+02 -0.85522150939E+02 -0.52073388937E+03  0.54759066277E+03  0.12500000000E+03 0.  0.
</event>
<event>
 5    0  0.5547141E-005  0.2395403E+03  0.7546771E-02  0.1120099E+00
         21   -1    0    0  502  501  0.00000000000E+00  0.00000000000E+00  0.93717443292E+03  0.93717443292E+03  0.00000000000E+00 0. -1.
         21   -1    0    0  501  502 -0.00000000000E+00 -0.00000000000E+00 -0.61226137599E+02  0.61226137599E+02  0.00000000000E+00 0. -1.
         25    1    1    2    0    0 -0.66726109532E+02  0.63653586597E+02  0.16068464344E+03  0.22349207462E+03  0.12500000000E+03 0.  0.
         25    1    1    2    0    0 -0.18311435059E+02  0.35163541949E+01  0.39040803927E+03  0.41035485927E+03  0.12500000000E+03 0.  0.
         25    1    1    2    0    0  0.85037544591E+02 -0.67169940792E+02  0.32485561262E+03  0.36455363663E+03  0.12500000000E+03 0.  0.
</event>
<event>
 5    0  0.5547141E-005  0.2533241E+03  0.7546771E-02  0.1111222E+00
         21   -1    0    0  502  501  0.00000000000E+00  0.00000000000E+00  0.11399238183E+03  0.11399238183E+03  0.00000000000E+00 0.  1.
         21   -1    0    0  501  502 -0.00000000000E+00 -0.00000000000E+00 -0.56295937551E+03  0.56295937551E+03  0.00000000000E+00 0.  1.
         25    1    1    2    0    0 -0.13065369676E+03  0.16319329068E+02 -0.25252062637E+03  0.31101185784E+03  0.12500000000E+03 0.  0.
         25    1    1    2    0    0  0.11312775505E+03 -0.28016510197E+02 -0.63695651046E+02  0.18238681358E+03  0.12500000000E+03 0.  0.
         25    1    1    2    0    0  0.17525941709E+02  0.11697181129E+02 -0.13275071626E+03  0.18355308591E+03  0.12500000000E+03 0.  0.
</event>
<event>
 5    0  0.5547141E-005  0.3350798E+03  0.7546771E-02  0.1068911E+00
         21   -1    0    0  502  501  0.00000000000E+00  0.00000000000E+00  0.11976642106E+03  0.11976642106E+03  0.00000000000E+00 0. -1.
         21   -1    0    0  501  502 -0.00000000000E+00 -0.00000000000E+00 -0.93747868546E+03  0.93747868546E+03  0.00000000000E+00 0. -1.
         25    1    1    2    0    0  0.18235996385E+03 -0.52531605380E+02 -0.50900876948E+03  0.55743129925E+03  0.12500000000E+03 0.  0.
         25    1    1    2    0    0  0.20264454918E+02  0.55607760403E+02 -0.18650044132E+03  0.23218588622E+03  0.12500000000E+03 0.  0.
         25    1    1    2    0    0 -0.20262441877E+03 -0.30761550222E+01 -0.12220305360E+03  0.26762792104E+03  0.12500000000E+03 0.  0.
</event>
<event>
 5    0  0.5547141E-005  0.2632376E+03  0.7546771E-02  0.1105213E+00
         21   -1    0    0  502  501  0.00000000000E+00  0.00000000000E+00  0.11419449927E+03  0.11419449927E+03  0.00000000000E+00 0.  1.
         21   -1    0    0  501  502 -0.00000000000E+00 -0.00000000000E+00 -0.60680704121E+03  0.60680704121E+03  0.00000000000E+00 0.  1.
         25    1    1    2    0    0 -0.69282356332E+02  0.39402047301E+02 -0.38426059063E+03  0.41186620126E+03  0.12500000000E+03 0.  0.
         25    1    1    2    0    0  0.35833972730E+02  0.81401231110E+01  0.54095047212E+01  0.13040167923E+03  0.12500000000E+03 0.  0.
         25    1    1    2    0    0  0.33448383602E+02 -0.47542170412E+02 -0.11376145603E+03  0.17873365999E+03  0.12500000000E+03 0.  0.
</event>
<event>
 5    0  0.5547141E-005  0.2354628E+03  0.7546771E-02  0.1122853E+00
         21   -1    0    0  502  501  0.00000000000E+00  0.00000000000E+00  0.16369531068E+03  0.16369531068E+03  0.00000000000E+00 0.  1.
         21   -1    0    0  501  502 -0.00000000000E+00 -0.00000000000E+00 -0.33869453662E+03  0.33869453662E+03  0.00000000000E+00 0.  1.
         25    1    1    2    0    0 -0.80702093396E+02 -0.35160837406E+02  0.10501602425E+02  0.15324619414E+03  0.12500000000E+03 0.  0.
         25    1    1    2    0    0 -0.69251063357E+01  0.62901315034E+02 -0.77627795147E+02  0.16017367796E+03  0.12500000000E+03 0.  0.
         25    1    1    2    0    0  0.87627199731E+02 -0.27740477628E+02 -0.10787303322E+03  0.18896997520E+03  0.12500000000E+03 0.  0.
</event>
<event>
 5    0  0.5547141E-005  0.2357374E+03  0.7546771E-02  0.1122665E+00
         21   -1    0    0  502  501  0.00000000000E+00  0.00000000000E+00  0.11630232722E+03  0.11630232722E+03  0.00000000000E+00 0.  1.
         21   -1    0    0  501  502 -0.00000000000E+00 -0.00000000000E+00 -0.47782482192E+03  0.47782482192E+03  0.00000000000E+00 0.  1.
         25    1    1    2    0    0 -0.35202474130E+02 -0.11750518452E+03 -0.10589556985E+03  0.20465960590E+03  0.12500000000E+03 0.  0.
         25    1    1    2    0    0  0.53544027148E+02  0.85433369346E+02 -0.11371638228E+03  0.19677967131E+03  0.12500000000E+03 0.  0.
         25    1    1    2    0    0 -0.18341553018E+02  0.32071815174E+02 -0.14191054257E+03  0.19268787192E+03  0.12500000000E+03 0.  0.
</event>
<event>
 5    0  0.5547141E-005  0.4119560E+03  0.7546771E-02  0.1039717E+00
         21   -1    0    0  502  501  0.00000000000E+00  0.00000000000E+00  0.77220827808E+03  0.77220827808E+03  0.00000000000E+00 0. -1.
         21   -1    0    0  501  502 -0.00000000000E+00 -0.00000000000E+00 -0.21976943462E+03  0.21976943462E+03  0.00000000000E+00 0. -1.
         25    1    1    2    0    0  0.20492383564E+03  0.10707503018E+03  0.98929267894E+02  0.28083952811E+03  0.12500000000E+03 0.  0.
         25    1    1    2    0    0 -0.24483116241E+03  0.10379107153E+03  0.29579185817E+03  0.41693249811E+03  0.12500000000E+03 0.  0.
         25    1    1    2    0    0  0.39907326765E+02 -0.21086610171E+03  0.15771771740E+03  0.29420568649E+03  0.12500000000E+03 0.  0.
</event>
<event>
 5    0  0.5547141E-005  0.2800270E+03  0.7546771E-02  0.1095674E+00
         21   -1    0    0  502  501  0.00000000000E+00  0.00000000000E+00  0.24547505638E+04  0.24547505638E+04  0.00000000000E+00 0. -1.
         21   -1    0    0  501  502 -0.00000000000E+00 -0.00000000000E+00 -0.31944233215E+02  0.31944233215E+02  0.00000000000E+00 0. -1.
         25    1    1    2    0    0 -0.53267079359E+02 -0.20599820105E+02  0.25966980389E+03  0.29379438623E+03  0.12500000000E+03 0.  0.
         25    1    1    2    0    0 -0.70096668264E+02  0.50833567119E+02  0.57389493276E+03  0.59369856686E+03  0.12500000000E+03 0.  0.
         25    1    1    2    0    0  0.12336374762E+03 -0.30233747014E+02  0.15892415939E+04  0.15992018439E+04  0.12500000000E+03 0.  0.
</event>
<event>
 5    0  0.5547141E-005  0.2508481E+03  0.7546771E-02  0.1112770E+00
         21   -1    0    0  502  501  0.00000000000E+00  0.00000000000E+00  0.52644089183E+03  0.52644089183E+03  0.00000000000E+00 0. -1.
         21   -1    0    0  501  502 -0.00000000000E+00 -0.00000000000E+00 -0.11952865962E+03  0.11952865962E+03  0.00000000000E+00 0. -1.
         25    1    1    2    0    0  0.40141573925E+01  0.44356985835E+02  0.17018515895E+03  0.21580464309E+03  0.12500000000E+03 0.  0.
         25    1    1    2    0    0  0.14696194950E+01  0.87200337281E+01 -0.31727121369E+02  0.12926642642E+03  0.12500000000E+03 0.  0.
         25    1    1    2    0    0 -0.54837768874E+01 -0.53077019564E+02  0.26845419463E+03  0.30089848193E+03  0.12500000000E+03 0.  0.
</event>
<event>
 5    0  0.5547141E-005  0.2714301E+03  0.7546771E-02  0.1100464E+00
         21   -1    0    0  502  501  0.00000000000E+00  0.00000000000E+00  0.73825864529E+02  0.73825864529E+02  0.00000000000E+00 0.  1.
         21   -1    0    0  501  502 -0.00000000000E+00 -0.00000000000E+00 -0.99794724769E+03  0.99794724769E+03  0.00000000000E+00 0.  1.
         25    1    1    2    0    0  0.82380218793E+02  0.17567394545E+02 -0.17449662926E+03  0.23058444749E+03  0.12500000000E+03 0.  0.
         25    1    1    2    0    0  0.26762942266E+02 -0.51070233376E+02 -0.59891859490E+03  0.61453470784E+03  0.12500000000E+03 0.  0.
         25    1    1    2    0    0 -0.10914316106E+03  0.33502838831E+02 -0.15070615899E+03  0.22665395689E+03  0.12500000000E+03 0.  0.
</event>
<event>
 5    0  0.5547141E-005  0.2931050E+03  0.7546771E-02  0.1088739E+00
         21   -1    0    0  502  501  0.00000000000E+00  0.00000000000E+00  0.21654669220E+03  0.21654669220E+03  0.00000000000E+00 0. -1.
         21   -1    0    0  501  502 -0.00000000000E+00 -0.00000000000E+00 -0.39672995434E+03  0.39672995434E+03  0.00000000000E+00 0. -1.
         25    1    1    2    0    0  0.35389012888E+02 -0.37488546790E+02  0.12279696583E+03  0.18265231504E+03  0.12500000000E+03 0.  0.
         25    1    1    2    0    0  0.48881774694E+02  0.48957636478E+01 -0.21373138067E+03  0.25242721620E+03  0.12500000000E+03 0.  0.
         25    1    1    2    0    0 -0.84270787582E+02  0.32592783143E+02 -0.89248847299E+02  0.17819711529E+03  0.12500000000E+03 0.  0.
</event>
<event>
 5    0  0.5547141E-005  0.2819477E+03  0.7546771E-02  0.1094630E+00
         21   -1    0    0  502  501  0.00000000000E+00  0.00000000000E+00  0.44141179418E+03  0.44141179418E+03  0.00000000000E+00 0. -1.
         21   -1    0    0  501  502 -0.00000000000E+00 -0.00000000000E+00 -0.18009144515E+03  0.18009144515E+03  0.00000000000E+00 0. -1.
         25    1    1    2    0    0 -0.90076290836E+02 -0.46165142301E+02  0.18257926132E+03  0.24332107430E+03  0.12500000000E+03 0.  0.
         25    1    1    2    0    0  0.86169868209E+02 -0.76950691525E+02  0.10609721390E+03  0.20056987289E+03  0.12500000000E+03 0.  0.
         25    1    1    2    0    0  0.39064226274E+01  0.12311583383E+03 -0.27356126200E+02  0.17761229213E+03  0.12500000000E+03 0.  0.
</event>
<event>
 5    0  0.5547141E-005  0.3365334E+03  0.7546771E-02  0.1068282E+00
         21   -1    0    0  502  501  0.00000000000E+00  0.00000000000E+00  0.14188831085E+04  0.14188831085E+04  0.00000000000E+00 0. -1.
         21   -1    0    0  501  502 -0.00000000000E+00 -0.00000000000E+00 -0.79819638027E+02  0.79819638027E+02  0.00000000000E+00 0. -1.
         25    1    1    2    0    0 -0.16870935072E+03  0.26945707837E+02  0.27206374176E+03  0.34472104051E+03  0.12500000000E+03 0.  0.
         25    1    1    2    0    0  0.15118879048E+03  0.12032410920E+03  0.72692127611E+03  0.76247982484E+03  0.12500000000E+03 0.  0.
         25    1    1    2    0    0  0.17520560235E+02 -0.14726981704E+03  0.34007845262E+03  0.39150188119E+03  0.12500000000E+03 0.  0.
</event>
<event>
 5    0  0.5547141E-005  0.2601045E+03  0.7546771E-02  0.1107080E+00
         21   -1    0    0  502  501  0.00000000000E+00  0.00000000000E+00  0.36490864699E+03  0.36490864699E+03  0.00000000000E+00 0. -1.
         21   -1    0    0  501  502 -0.00000000000E+00 -0.00000000000E+00 -0.18540084824E+03  0.18540084824E+03  0.00000000000E+00 0. -1.
         25    1    1    2    0    0  0.89270633371E+02  0.19957605629E+02  0.68080804920E+02  0.16919677303E+03  0.12500000000E+03 0.  0.
         25    1    1    2    0    0  0.75238726039E+02 -0.49746422183E+02  0.64855713964E+02  0.16723287969E+03  0.12500000000E+03 0.  0.
         25    1    1    2    0    0 -0.16450935941E+03  0.29788816554E+02  0.46571279867E+02  0.21387984251E+03  0.12500000000E+03 0.  0.
</event>
<event>
 5    0  0.5547141E-005  0.3192862E+03  0.7546771E-02  0.1075978E+00
         21   -1    0    0  502  501  0.00000000000E+00  0.00000000000E+00  0.50804537725E+03  0.50804537725E+03  0.00000000000E+00 0. -1.
         21   -1    0    0  501  502 -0.00000000000E+00 -0.00000000000E+00 -0.20065856441E+03  0.20065856441E+03  0.00000000000E+00 0. -1.
         25    1    1    2    0    0 -0.20993334961E+03 -0.14701607820E+02  0.27616298509E+03  0.36902458304E+03  0.12500000000E+03 0.  0.
         25    1    1    2    0    0  0.14833807141E+03  0.32396363663E+02  0.46935088079E+01  0.19672502848E+03  0.12500000000E+03 0.  0.
         25    1    1    2    0    0  0.61595278204E+02 -0.17694755843E+02  0.26530318941E+02  0.14295433014E+03  0.12500000000E+03 0.  0.
</event>
<event>
 5    0  0.5547141E-005  0.2872630E+03  0.7546771E-02  0.1091787E+00
         21   -1    0    0  502  501  0.00000000000E+00  0.00000000000E+00  0.62242308450E+02  0.62242308450E+02  0.00000000000E+00 0.  1.
         21   -1    0    0  501  502 -0.00000000000E+00 -0.00000000000E+00 -0.13257872247E+04  0.13257872247E+04  0.00000000000E+00 0.  1.
         25    1    1    2    0    0 -0.31356618627E+02 -0.29991685216E+02 -0.49765110433E+02  0.14136585490E+03  0.12500000000E+03 0.  0.
         25    1    1    2    0    0  0.46983332490E+02  0.41203678380E+02 -0.85269221574E+03  0.86406839511E+03  0.12500000000E+03 0.  0.
         25    1    1    2    0    0 -0.15626713864E+02 -0.11211993164E+02 -0.36108759006E+03  0.38259528313E+03  0.12500000000E+03 0.  0.
</event>
<event>
 5    0  0.5547141E-005  0.2471185E+03  0.7546771E-02  0.1115139E+00
         21   -1    0    0  502  501  0.00000000000E+00  0.00000000000E+00  0.33618751888E+03  0.33618751888E+03  0.00000000000E+00 0. -1.
         21   -1    0    0  501  502 -0.00000000000E+00 -0.00000000000E+00 -0.18164735266E+03  0.18164735266E+03  0.00000000000E+00 0. -1.
         25    1    1    2    0    0  0.10932102984E+03  0.22469132621E+02 -0.18981876851E+02  0.16864537092E+03  0.12500000000E+03 0.  0.
         25    1    1    2    0    0 -0.78254340306E+01 -0.26668368560E+02  0.25779280548E+02  0.13062163146E+03  0.12500000000E+03 0.  0.
         25    1    1    2    0    0 -0.10149559581E+03  0.41992359386E+01  0.14774276252E+03  0.21856786916E+03  0.12500000000E+03 0.  0.
</event>
<event>
 5    0  0.5547141E-005  0.3104084E+03  0.7546771E-02  0.1080150E+00
         21   -1    0    0  502  501  0.00000000000E+00  0.00000000000E+00  0.20775519511E+03  0.20775519511E+03  0.00000000000E+00 0.  1.
         21   -1    0    0  501  502 -0.00000000000E+00 -0.00000000000E+00 -0.46378307900E+03  0.46378307900E+03  0.00000000000E+00 0.  1.
         25    1    1    2    0    0  0.17632532300E+03  0.41911824818E+01 -0.17559675823E+03  0.27850925845E+03  0.12500000000E+03 0.  0.
         25    1    1    2    0    0 -0.64663325857E+02  0.94496568476E+01 -0.15456274554E+03  0.20924933461E+03  0.12500000000E+03 0.  0.
         25    1    1    2    0    0 -0.11166199714E+03 -0.13640839329E+02  0.74131619882E+02  0.18377968106E+03  0.12500000000E+03 0.  0.
</event>
<event>
 5    0  0.5547141E-005  0.3110008E+03  0.7546771E-02  0.1079867E+00
         21   -1    0    0  502  501  0.00000000000E+00  0.00000000000E+00  0.92021887988E+03  0.92021887988E+03  0.00000000000E+00 0.  1.
         21   -1    0    0  501  502 -0.00000000000E+00 -0.00000000000E+00 -0.10510703310E+03  0.10510703310E+03  0.00000000000E+00 0.  1.
         25    1    1    2    0    0  0.52538340143E+02 -0.12419983839E+03  0.16952106020E+03  0.25009651515E+03  0.12500000000E+03 0.  0.
         25    1    1    2    0    0 -0.17841304685E+03  0.27928240090E+02  0.26283817868E+03  0.34252023306E+03  0.12500000000E+03 0.  0.
         25    1    1    2    0    0  0.12587470671E+03  0.96271598295E+02  0.38275260790E+03  0.43270916478E+03  0.12500000000E+03 0.  0.
</event>
<event>
 5    0  0.5547141E-005  0.3397274E+03  0.7546771E-02  0.1066912E+00
         21   -1    0    0  502  501  0.00000000000E+00  0.00000000000E+00  0.11972624058E+04  0.11972624058E+04  0.00000000000E+00 0. -1.
         21   -1    0    0  501  502 -0.00000000000E+00 -0.00000000000E+00 -0.96398859500E+02  0.96398859500E+02  0.00000000000E+00 0. -1.
         25    1    1    2    0    0  0.89722531073E+02  0.18008067964E+03  0.38666302388E+03  0.45344512105E+03  0.12500000000E+03 0.  0.
         25    1    1    2    0    0  0.39605110934E+02 -0.19351110862E+03  0.54456223130E+03  0.59261128722E+03  0.12500000000E+03 0.  0.
         25    1    1    2    0    0 -0.12932764201E+03  0.13430428988E+02  0.16963829106E+03  0.24760485699E+03  0.12500000000E+03 0.  0.
</event>
<event>
 5    0  0.5547141E-005  0.2475327E+03  0.7546771E-02  0.1114874E+00
         21   -1    0    0  502  501  0.00000000000E+00  0.00000000000E+00  0.10452628201E+04  0.10452628201E+04  0.00000000000E+00 0.  1.
         21   -1    0    0  501  502 -0.00000000000E+00 -0.00000000000E+00 -0.58619174466E+02  0.58619174466E+02  0.00000000000E+00 0.  1.
         25    1    1    2    0    0  0.14157803016E+02  0.15409956579E+02  0.10159785958E+03  0.16243471064E+03  0.12500000000E+03 0.  0.
         25    1    1    2    0    0 -0.10872146426E+02 -0.49448904560E+01  0.14933182386E+03  0.19510932609E+03  0.12500000000E+03 0.  0.
         25    1    1    2    0    0 -0.32856565897E+01 -0.10465066123E+02  0.73571396221E+03  0.74633795786E+03  0.12500000000E+03 0.  0.
</event>
<event>
 5    0  0.5547141E-005  0.2393321E+03  0.7546771E-02  0.1120239E+00
         21   -1    0    0  502  501  0.00000000000E+00  0.00000000000E+00  0.10644586173E+03  0.10644586173E+03  0.00000000000E+00 0. -1.
         21   -1    0    0  501  502 -0.00000000000E+00 -0.00000000000E+00 -0.53811257709E+03  0.53811257709E+03  0.00000000000E+00 0. -1.
         25    1    1    2    0    0 -0.91388590513E+02 -0.19968833914E+02 -0.25716538644E+03  0.30084824212E+03  0.12500000000E+03 0.  0.
         25    1    1    2    0    0  0.35114204511E+02 -0.35204797233E+02 -0.13537060883E+03  0.19084702471E+03  0.12500000000E+03 0.  0.
         25    1    1    2    0    0  0.56274386002E+02  0.55173631147E+02 -0.39130720093E+02  0.15286317198E+03  0.12500000000E+03 0.  0.
</event>
<event>
 5    0  0.5547141E-005  0.4331517E+03  0.7546771E-02  0.1032869E+00
         21   -1    0    0  502  501  0.00000000000E+00  0.00000000000E+00  0.46453972538E+03  0.46453972538E+03  0.00000000000E+00 0.  1.
         21   -1    0    0  501  502 -0.00000000000E+00 -0.00000000000E+00 -0.40388442599E+03  0.40388442599E+03  0.00000000000E+00 0.  1.
         25    1    1    2    0    0  0.45556031951E+02  0.16589368199E+03 -0.90326596491E+02  0.23104103489E+03  0.12500000000E+03 0.  0.
         25    1    1    2    0    0 -0.24258518884E+03 -0.22756707734E+03  0.50903387917E+01  0.35536637444E+03  0.12500000000E+03 0.  0.
         25    1    1    2    0    0  0.19702915689E+03  0.61673395350E+02  0.14589155708E+03  0.28201674203E+03  0.12500000000E+03 0.  0.
</event>
<event>
 5    0  0.5547141E-005  0.3203984E+03  0.7546771E-02  0.1075466E+00
         21   -1    0    0  502  501  0.00000000000E+00  0.00000000000E+00  0.11164165276E+04  0.11164165276E+04  0.00000000000E+00 0. -1.
         21   -1    0    0  501  502 -0.00000000000E+00 -0.00000000000E+00 -0.91950543504E+02  0.91950543504E+02  0.00000000000E+00 0. -1.
         25    1    1    2    0    0  0.35704852542E+00  0.51290744041E+02  0.47179795271E+03  0.49076386999E+03  0.12500000000E+03 0.  0.
         25    1    1    2    0    0  0.80067399111E+02 -0.17373656744E+03  0.15608540155E+03  0.27673604001E+03  0.12500000000E+03 0.  0.
         25    1    1    2    0    0 -0.80424447637E+02  0.12244582340E+03  0.39658262986E+03  0.44086716112E+03  0.12500000000E+03 0.  0.
</event>
<event>
 5    0  0.5547141E-005  0.2861101E+03  0.7546771E-02  0.1092398E+00
         21   -1    0    0  502  501  0.00000000000E+00  0.00000000000E+00  0.13729709505E+03  0.13729709505E+03  0.00000000000E+00 0. -1.
         21   -1    0    0  501  502 -0.00000000000E+00 -0.00000000000E+00 -0.59621774320E+03  0.59621774320E+03  0.00000000000E+00 0. -1.
         25    1    1    2    0    0  0.52138579868E+02 -0.19861234277E+03 -0.21539666583E+03  0.32277858953E+03  0.12500000000E+03 0.  0.
         25    1    1    2    0    0 -0.58143870451E+02  0.11219383606E+03 -0.14652235109E+03  0.23035183066E+03  0.12500000000E+03 0.  0.
         25    1    1    2    0    0  0.60052905829E+01  0.86418506716E+02 -0.97001631231E+02  0.18038441806E+03  0.12500000000E+03 0.  0.
</event>
<event>
 5    0  0.5547141E-005  0.2201217E+03  0.7546771E-02  0.1133792E+00
         21   -1    0    0  502  501  0.00000000000E+00  0.00000000000E+00  0.60371857311E+03  0.60371857311E+03  0.00000000000E+00 0. -1.
         21   -1    0    0  501  502 -0.00000000000E+00 -0.00000000000E+00 -0.80258529799E+02  0.80258529799E+02  0.00000000000E+00 0. -1.
         25    1    1    2    0    0 -0.12087561286E+02  0.57592935389E+02  0.74746795081E+02  0.15708322227E+03  0.12500000000E+03 0.  0.
         25    1    1    2    0    0  0.27248475818E+02 -0.55762386489E+02  0.16251023456E+03  0.21421134311E+03  0.12500000000E+03 0.  0.
         25    1    1    2    0    0 -0.15160914532E+02 -0.18305488992E+01  0.28620301367E+03  0.31268253752E+03  0.12500000000E+03 0.  0.
</event>
<event>
 5    0  0.5547141E-005  0.4474962E+03  0.7546771E-02  0.1028471E+00
         21   -1    0    0  502  501  0.00000000000E+00  0.00000000000E+00  0.51060130458E+03  0.51060130458E+03  0.00000000000E+00 0. -1.
         21   -1    0    0  501  502 -0.00000000000E+00 -0.00000000000E+00 -0.39219031138E+03  0.39219031138E+03  0.00000000000E+00 0. -1.
         25    1    1    2    0    0  0.20175459071E+03  0.22474072629E+03  0.25295471324E+03  0.41330908032E+03  0.12500000000E+03 0.  0.
         25    1    1    2    0    0 -0.19704353420E+03 -0.46657232390E+02 -0.87737432074E+01  0.23812818035E+03  0.12500000000E+03 0.  0.
         25    1    1    2    0    0 -0.47110565043E+01 -0.17808349390E+03 -0.12576997683E+03  0.25135435529E+03  0.12500000000E+03 0.  0.
</event>
<event>
 5    0  0.5547141E-005  0.5697905E+03  0.7546771E-02  0.9970142E-01
         21   -1    0    0  502  501  0.00000000000E+00  0.00000000000E+00  0.90241751578E+03  0.90241751578E+03  0.00000000000E+00 0. -1.
         21   -1    0    0  501  502 -0.00000000000E+00 -0.00000000000E+00 -0.35976825958E+03  0.35976825958E+03  0.00000000000E+00 0. -1.
         25    1    1    2    0    0 -0.27160958736E+03  0.12242476332E+02  0.30388186499E+03  0.42648661649E+03  0.12500000000E+03 0.  0.
         25    1    1    2    0    0 -0.11159747763E+03 -0.24906478666E+03  0.21186941813E+03  0.36742470699E+03  0.12500000000E+03 0.  0.
         25    1    1    2    0    0  0.38320706499E+03  0.23682231033E+03  0.26897973080E+02  0.46827445188E+03  0.12500000000E+03 0.  0.
</event>
<event>
 5    0  0.5547141E-005  0.5746690E+03  0.7546771E-02  0.9959400E-01
         21   -1    0    0  502  501  0.00000000000E+00  0.00000000000E+00  0.13735091954E+04  0.13735091954E+04  0.00000000000E+00 0.  1.
         21   -1    0    0  501  502 -0.00000000000E+00 -0.00000000000E+00 -0.24043846500E+03  0.24043846500E+03  0.00000000000E+00 0.  1.
         25    1    1    2    0    0 -0.26364154139E+03 -0.43953303689E+03  0.73327337566E+03  0.90333326979E+03  0.12500000000E+03 0.  0.
         25    1    1    2    0    0  0.14909475043E+03  0.31308897961E+03  0.30671193612E+03  0.47953223616E+03  0.12500000000E+03 0.  0.
         25    1    1    2    0    0  0.11454679096E+03  0.12644405727E+03  0.93085418607E+02  0.23108215443E+03  0.12500000000E+03 0.  0.
</event>
<event>
 5    0  0.5547141E-005  0.3311229E+03  0.7546771E-02  0.1070641E+00
         21   -1    0    0  502  501  0.00000000000E+00  0.00000000000E+00  0.41725339007E+02  0.41725339007E+02  0.00000000000E+00 0.  1.
         21   -1    0    0  501  502 -0.00000000000E+00 -0.00000000000E+00 -0.26277167171E+04  0.26277167171E+04  0.00000000000E+00 0.  1.
         25    1    1    2    0    0 -0.23110241801E+03 -0.51489967894E+02 -0.12797537612E+04  0.13074609874E+04  0.12500000000E+03 0.  0.
         25    1    1    2    0    0  0.10934565707E+03  0.39713980667E+02 -0.34482048670E+03  0.38478544805E+03  0.12500000000E+03 0.  0.
         25    1    1    2    0    0  0.12175676094E+03  0.11775987227E+02 -0.96141713025E+03  0.97719562066E+03  0.12500000000E+03 0.  0.
</event>
<event>
 5    0  0.5547141E-005  0.2530941E+03  0.7546771E-02  0.1111365E+00
         21   -1    0    0  502  501  0.00000000000E+00  0.00000000000E+00  0.37455332992E+02  0.37455332992E+02  0.00000000000E+00 0. -1.
         21   -1    0    0  501  502 -0.00000000000E+00 -0.00000000000E+00 -0.17102137422E+04  0.17102137422E+04  0.00000000000E+00 0. -1.
         25    1    1    2    0    0  0.29398460074E+02  0.75276627638E+02 -0.35461028863E+03  0.38458327697E+03  0.12500000000E+03 0.  0.
         25    1    1    2    0    0  0.72865380821E+02  0.11639145314E+02 -0.37182059719E+03  0.39914958339E+03  0.12500000000E+03 0.  0.
         25    1    1    2    0    0 -0.10226384090E+03 -0.86915772952E+02 -0.94632752340E+03  0.96393621485E+03  0.12500000000E+03 0.  0.
</event>
<event>
 5    0  0.5547141E-005  0.2942211E+03  0.7546771E-02  0.1088166E+00
         21   -1    0    0  502  501  0.00000000000E+00  0.00000000000E+00  0.10930483388E+03  0.10930483388E+03  0.00000000000E+00 0. -1.
         21   -1    0    0  501  502 -0.00000000000E+00 -0.00000000000E+00 -0.79196898146E+03  0.79196898146E+03  0.00000000000E+00 0. -1.
         25    1    1    2    0    0  0.73158716213E+01 -0.82678535435E+02 -0.30736463145E+03  0.34203403173E+03  0.12500000000E+03 0.  0.
         25    1    1    2    0    0  0.12348425206E+03  0.45654863210E+02 -0.31749044414E+03  0.36572928398E+03  0.12500000000E+03 0.  0.
         25    1    1    2    0    0 -0.13080012368E+03  0.37023672225E+02 -0.57809071991E+02  0.19351049962E+03  0.12500000000E+03 0.  0.
</event>
<event>
 5    0  0.5547141E-005  0.2702898E+03  0.7546771E-02  0.1101114E+00
         21   -1    0    0  502  501  0.00000000000E+00  0.00000000000E+00  0.29511065216E+03  0.29511065216E+03  0.00000000000E+00 0.  1.
         21   -1    0    0  501  502 -0.00000000000E+00 -0.00000000000E+00 -0.24755646636E+03  0.24755646636E+03  0.00000000000E+00 0.  1.
         25    1    1    2    0    0 -0.11055199082E+02  0.27947106267E+02  0.88365793186E+02  0.15600247300E+03  0.12500000000E+03 0.  0.
         25    1    1    2    0    0  0.27077062737E+02  0.27876630418E+02 -0.15839903288E+03  0.20548850933E+03  0.12500000000E+03 0.  0.
         25    1    1    2    0    0 -0.16021863655E+02 -0.55823736685E+02  0.11758742549E+03  0.18117613620E+03  0.12500000000E+03 0.  0.
</event>
<event>
 5    0  0.5547141E-005  0.3341128E+03  0.7546771E-02  0.1069331E+00
         21   -1    0    0  502  501  0.00000000000E+00  0.00000000000E+00  0.12771496634E+03  0.12771496634E+03  0.00000000000E+00 0.  1.
         21   -1    0    0  501  502 -0.00000000000E+00 -0.00000000000E+00 -0.87406643634E+03  0.87406643634E+03  0.00000000000E+00 0.  1.
         25    1    1    2    0    0 -0.16187379778E+03 -0.18952686371E+01 -0.70163472656E+02  0.21622819276E+03  0.12500000000E+03 0.  0.
         25    1    1    2    0    0  0.18055161582E+03 -0.88878330685E+02 -0.33233545488E+03  0.40813000160E+03  0.12500000000E+03 0.  0.
         25    1    1    2    0    0 -0.18677818042E+02  0.90773599322E+02 -0.34385254246E+03  0.37742320832E+03  0.12500000000E+03 0.  0.
</event>
<event>
 5    0  0.5547141E-005  0.4135902E+03  0.7546771E-02  0.1039173E+00
         21   -1    0    0  502  501  0.00000000000E+00  0.00000000000E+00  0.29680037988E+03  0.29680037988E+03  0.00000000000E+00 0.  1.
         21   -1    0    0  501  502 -0.00000000000E+00 -0.00000000000E+00 -0.57633628801E+03  0.57633628801E+03  0.00000000000E+00 0.  1.
         25    1    1    2    0    0 -0.18925574802E+03 -0.45443702999E+02 -0.10252112237E+03  0.25301867289E+03  0.12500000000E+03 0.  0.
         25    1    1    2    0    0  0.10230351430E+03  0.21205865957E+03 -0.26684934611E+03  0.37718491175E+03  0.12500000000E+03 0.  0.
         25    1    1    2    0    0  0.86952233718E+02 -0.16661495657E+03  0.89834560354E+02  0.24293308325E+03  0.12500000000E+03 0.  0.
</event>
<event>
 5    0  0.5547141E-005  0.2728564E+03  0.7546771E-02  0.1099656E+00
         21   -1    0    0  502  501  0.00000000000E+00  0.00000000000E+00  0.44221366931E+02  0.44221366931E+02  0.00000000000E+00 0. -1.
         21   -1    0    0  501  502 -0.00000000000E+00 -0.00000000000E+00 -0.16835891392E+04  0.16835891392E+04  0.00000000000E+00 0. -1.
         25    1    1    2    0    0  0.84137736061E+02  0.52652441494E+02 -0.41405671849E+03  0.44375601894E+03  0.12500000000E+03 0.  0.
         25    1    1    2    0    0 -0.38358984246E+02  0.78890100616E+02 -0.86150409856E+03  0.87493392406E+03  0.12500000000E+03 0.  0.
         25    1    1    2    0    0 -0.45778751814E+02 -0.13154254211E+03 -0.36380695525E+03  0.40912056315E+03  0.12500000000E+03 0.  0.
</event>
<event>
 5    0  0.5547141E-005  0.4001139E+03  0.7546771E-02  0.1043740E+00
         21   -1    0    0  502  501  0.00000000000E+00  0.00000000000E+00  0.29624521930E+03  0.29624521930E+03  0.00000000000E+00 0.  1.
         21   -1    0    0  501  502 -0.00000000000E+00 -0.00000000000E+00 -0.54040080050E+03  0.54040080050E+03  0.00000000000E+00 0.  1.
         25    1    1    2    0    0  0.17434043288E+03  0.26878153598E+03 -0.19784032756E+03  0.39674159831E+03  0.12500000000E+03 0.  0.
         25    1    1    2    0    0 -0.45945299469E+02 -0.67281876733E+02 -0.78054695834E+02  0.16839048970E+03  0.12500000000E+03 0.  0.
         25    1    1    2    0    0 -0.12839513341E+03 -0.20149965925E+03  0.31739442198E+02  0.27151393178E+03  0.12500000000E+03 0.  0.
</event>
<event>
 5    0  0.5547141E-005  0.2367529E+03  0.7546771E-02  0.1121975E+00
         21   -1    0    0  502  501  0.00000000000E+00  0.00000000000E+00  0.67722847777E+02  0.67722847777E+02  0.00000000000E+00 0.  1.
         21   -1    0    0  501  502 -0.00000000000E+00 -0.00000000000E+00 -0.82766677006E+03  0.82766677006E+03  0.00000000000E+00 0.  1.
         25    1    1    2    0    0 -0.72910654954E+02 -0.72955567489E+02 -0.20433493971E+03  0.26079924467E+03  0.12500000000E+03 0.  0.
         25    1    1    2    0    0  0.23918444537E+02 -0.33230905094E+02 -0.19237931244E+03  0.23304760221E+03  0.12500000000E+03 0.  0.
         25    1    1    2    0    0  0.48992210418E+02  0.10618647258E+03 -0.36322967014E+03  0.40154277097E+03  0.12500000000E+03 0.  0.
</event>
<event>
 5    0  0.5547141E-005  0.2580880E+03  0.7546771E-02  0.1108297E+00
         21   -1    0    0  502  501  0.00000000000E+00  0.00000000000E+00  0.43429238235E+03  0.43429238235E+03  0.00000000000E+00 0. -1.
         21   -1    0    0  501  502 -0.00000000000E+00 -0.00000000000E+00 -0.15337455817E+03  0.15337455817E+03  0.00000000000E+00 0. -1.
         25    1    1    2    0    0  0.18865930164E+02  0.75356072703E+02  0.32583853633E+00  0.14717189672E+03  0.12500000000E+03 0.  0.
         25    1    1    2    0    0  0.24358260132E+02  0.63197441868E+02  0.79981578652E+02  0.16312355568E+03  0.12500000000E+03 0.  0.
         25    1    1    2    0    0 -0.43224190295E+02 -0.13855351457E+03  0.20061040698E+03  0.27737148811E+03  0.12500000000E+03 0.  0.
</event>
<event>
 5    0  0.5547141E-005  0.2276472E+03  0.7546771E-02  0.1128307E+00
         21   -1    0    0  502  501  0.00000000000E+00  0.00000000000E+00  0.78516489546E+02  0.78516489546E+02  0.00000000000E+00 0.  1.
         21   -1    0    0  501  502 -0.00000000000E+00 -0.00000000000E+00 -0.66003024748E+03  0.66003024748E+03  0.00000000000E+00 0.  1.
         25    1    1    2    0    0 -0.45358558038E+02 -0.64431108725E+02 -0.19682507395E+03  0.24611760663E+03  0.12500000000E+03 0.  0.
         25    1    1    2    0    0  0.17392573525E+01  0.97210049706E+02 -0.27527933059E+03  0.31757916907E+03  0.12500000000E+03 0.  0.
         25    1    1    2    0    0  0.43619300686E+02 -0.32778940982E+02 -0.10940935340E+03  0.17484996133E+03  0.12500000000E+03 0.  0.
</event>
<event>
 5    0  0.5547141E-005  0.2797834E+03  0.7546771E-02  0.1095807E+00
         21   -1    0    0  502  501  0.00000000000E+00  0.00000000000E+00  0.16858930864E+04  0.16858930864E+04  0.00000000000E+00 0. -1.
         21   -1    0    0  501  502 -0.00000000000E+00 -0.00000000000E+00 -0.46431637317E+02  0.46431637317E+02  0.00000000000E+00 0. -1.
         25    1    1    2    0    0 -0.47840311405E+01  0.94465385075E+01  0.43687573901E+03  0.45453001593E+03  0.12500000000E+03 0.  0.
         25    1    1    2    0    0 -0.83654895898E+02 -0.15794046456E+03  0.57695923847E+03  0.61680652948E+03  0.12500000000E+03 0.  0.
         25    1    1    2    0    0  0.88438927038E+02  0.14849392606E+03  0.62562647156E+03  0.66098817826E+03  0.12500000000E+03 0.  0.
</event>
<event>
 5    0  0.5547141E-005  0.3582460E+03  0.7546771E-02  0.1059281E+00
         21   -1    0    0  502  501  0.00000000000E+00  0.00000000000E+00  0.10628364718E+03  0.10628364718E+03  0.00000000000E+00 0.  1.
         21   -1    0    0  501  502 -0.00000000000E+00 -0.00000000000E+00 -0.12075254543E+04  0.12075254543E+04  0.00000000000E+00 0.  1.
         25    1    1    2    0    0  0.62437416044E+02 -0.36840301899E+02  0.16298566158E+02  0.14541761250E+03  0.12500000000E+03 0.  0.
         25    1    1    2    0    0 -0.29320091487E+02  0.12570488576E+03 -0.68850201640E+03  0.71156265546E+03  0.12500000000E+03 0.  0.
         25    1    1    2    0    0 -0.33117324557E+02 -0.88864583858E+02 -0.42903835688E+03  0.45682883351E+03  0.12500000000E+03 0.  0.
</event>
<event>
 5    0  0.5547141E-005  0.2869259E+03  0.7546771E-02  0.1091965E+00
         21   -1    0    0  502  501  0.00000000000E+00  0.00000000000E+00  0.10163751076E+03  0.10163751076E+03  0.00000000000E+00 0.  1.
         21   -1    0    0  501  502 -0.00000000000E+00 -0.00000000000E+00 -0.81000113793E+03  0.81000113793E+03  0.00000000000E+00 0.  1.
         25    1    1    2    0    0 -0.66156616869E+02  0.46212693291E+02 -0.23683002760E+03  0.27968870723E+03  0.12500000000E+03 0.  0.
         25    1    1    2    0    0  0.11242534029E+03 -0.49949774186E+02 -0.39458249597E+02  0.17976760148E+03  0.12500000000E+03 0.  0.
         25    1    1    2    0    0 -0.46268723420E+02  0.37370808956E+01 -0.43207534997E+03  0.45218233998E+03  0.12500000000E+03 0.  0.
</event>
<event>
 5    0  0.5547141E-005  0.2723929E+03  0.7546771E-02  0.1099918E+00
         21   -1    0    0  502  501  0.00000000000E+00  0.00000000000E+00  0.27399013046E+04  0.27399013046E+04  0.00000000000E+00 0. -1.
         21   -1    0    0  501  502 -0.00000000000E+00 -0.00000000000E+00 -0.27080503526E+02  0.27080503526E+02  0.00000000000E+00 0. -1.
         25    1    1    2    0    0  0.12802959378E+03 -0.50361033518E+02  0.11269682267E+04  0.11421953399E+04  0.12500000000E+03 0.  0.
         25    1    1    2    0    0 -0.91215593475E+02 -0.73100508795E+01  0.37734918764E+03  0.40791068967E+03  0.12500000000E+03 0.  0.
         25    1    1    2    0    0 -0.36814000307E+02  0.57671084398E+02  0.12085033868E+04  0.12168757786E+04  0.12500000000E+03 0.  0.
</event>
<event>
 5    0  0.5547141E-005  0.2378577E+03  0.7546771E-02  0.1121228E+00
         21   -1    0    0  502  501  0.00000000000E+00  0.00000000000E+00  0.32900102821E+02  0.32900102821E+02  0.00000000000E+00 0. -1.
         21   -1    0    0  501  502 -0.00000000000E+00 -0.00000000000E+00 -0.17196384501E+04  0.17196384501E+04  0.00000000000E+00 0. -1.
         25    1    1    2    0    0  0.77576055227E+02 -0.81679224797E+02 -0.46109979015E+03  0.49084371910E+03  0.12500000000E+03 0.  0.
         25    1    1    2    0    0  0.16295130155E+02  0.66116024557E+02 -0.57326509075E+03  0.59067311116E+03  0.12500000000E+03 0.  0.
         25    1    1    2    0    0 -0.93871185382E+02  0.15563200240E+02 -0.65237346638E+03  0.67102172266E+03  0.12500000000E+03 0.  0.
</event>
<event>
 5    0  0.5547141E-005  0.4112665E+03  0.7546771E-02  0.1039947E+00
         21   -1    0    0  502  501  0.00000000000E+00  0.00000000000E+00  0.28299863327E+03  0.28299863327E+03  0.00000000000E+00 0. -1.
         21   -1    0    0  501  502 -0.00000000000E+00 -0.00000000000E+00 -0.59767133402E+03  0.59767133402E+03  0.00000000000E+00 0. -1.
         25    1    1    2    0    0 -0.16527972323E+03  0.10025440753E+03 -0.24033301698E+03  0.33279617214E+03  0.12500000000E+03 0.  0.
         25    1    1    2    0    0  0.23412305391E+03 -0.19045423316E+03 -0.15406458843E+03  0.36117491152E+03  0.12500000000E+03 0.  0.
         25    1    1    2    0    0 -0.68843330680E+02  0.90199825634E+02  0.79724904670E+02  0.18669888363E+03  0.12500000000E+03 0.  0.
</event>
<event>
 5    0  0.5547141E-005  0.2338198E+03  0.7546771E-02  0.1123980E+00
         21   -1    0    0  502  501  0.00000000000E+00  0.00000000000E+00  0.65129494273E+02  0.65129494273E+02  0.00000000000E+00 0. -1.
         21   -1    0    0  501  502 -0.00000000000E+00 -0.00000000000E+00 -0.83943053506E+03  0.83943053506E+03  0.00000000000E+00 0. -1.
         25    1    1    2    0    0  0.70320629963E+02 -0.79443314015E+01 -0.15030128335E+03  0.20790281185E+03  0.12500000000E+03 0.  0.
         25    1    1    2    0    0  0.14036084922E+02 -0.39687900134E+02 -0.40911501955E+03  0.42985141656E+03  0.12500000000E+03 0.  0.
         25    1    1    2    0    0 -0.84356714886E+02  0.47632231536E+02 -0.21488473788E+03  0.26680580092E+03  0.12500000000E+03 0.  0.
</event>
<event>
 5    0  0.5547141E-005  0.3058626E+03  0.7546771E-02  0.1082346E+00
         21   -1    0    0  502  501  0.00000000000E+00  0.00000000000E+00  0.95441248137E+03  0.95441248137E+03  0.00000000000E+00 0. -1.
         21   -1    0    0  501  502 -0.00000000000E+00 -0.00000000000E+00 -0.98020420252E+02  0.98020420252E+02  0.00000000000E+00 0. -1.
         25    1    1    2    0    0  0.40385190372E+02 -0.94410207549E+02  0.37485574644E+03  0.40827206803E+03  0.12500000000E+03 0.  0.
         25    1    1    2    0    0 -0.44898792372E+02  0.21330666523E+03  0.24139872632E+03  0.34844508901E+03  0.12500000000E+03 0.  0.
         25    1    1    2    0    0  0.45136019994E+01 -0.11889645768E+03  0.24013758835E+03  0.29571574458E+03  0.12500000000E+03 0.  0.
</event>
<event>
 5    0  0.5547141E-005  0.2975319E+03  0.7546771E-02  0.1086481E+00
         21   -1    0    0  502  501  0.00000000000E+00  0.00000000000E+00  0.96833439660E+02  0.96833439660E+02  0.00000000000E+00 0. -1.
         21   -1    0    0  501  502 -0.00000000000E+00 -0.00000000000E+00 -0.91420117566E+03  0.91420117566E+03  0.00000000000E+00 0. -1.
         25    1    1    2    0    0 -0.65520123191E+02  0.33516816761E+02 -0.17535866837E+03  0.22757839555E+03  0.12500000000E+03 0.  0.
         25    1    1    2    0    0  0.38607145217E+02  0.15523309642E+03 -0.19412430288E+03  0.28088622404E+03  0.12500000000E+03 0.  0.
         25    1    1    2    0    0  0.26912977975E+02 -0.18874991319E+03 -0.44788476475E+03  0.50256999573E+03  0.12500000000E+03 0.  0.
</event>
<event>
 5    0  0.5547141E-005  0.2605513E+03  0.7546771E-02  0.1106812E+00
         21   -1    0    0  502  501  0.00000000000E+00  0.00000000000E+00  0.19919528741E+03  0.19919528741E+03  0.00000000000E+00 0. -1.
         21   -1    0    0  501  502 -0.00000000000E+00 -0.00000000000E+00 -0.34080602872E+03  0.34080602872E+03  0.00000000000E+00 0. -1.
         25    1    1    2    0    0  0.24623819799E+02 -0.10893746395E+03 -0.56030260024E+02  0.17674301568E+03  0.12500000000E+03 0.  0.
         25    1    1    2    0    0  0.17224711923E+02 -0.58378866942E+02 -0.47187105315E+02  0.14682099889E+03  0.12500000000E+03 0.  0.
         25    1    1    2    0    0 -0.41848531722E+02  0.16731633089E+03 -0.38393375962E+02  0.21643730156E+03  0.12500000000E+03 0.  0.
</event>
<event>
 5    0  0.5547141E-005  0.4068432E+03  0.7546771E-02  0.1041436E+00
         21   -1    0    0  502  501  0.00000000000E+00  0.00000000000E+00  0.20086243728E+03  0.20086243728E+03  0.00000000000E+00 0. -1.
         21   -1    0    0  501  502 -0.00000000000E+00 -0.00000000000E+00 -0.82405351145E+03  0.82405351145E+03  0.00000000000E+00 0.  1.
         25    1    1    2    0    0 -0.30636485347E+03  0.10442734061E+03 -0.12530808932E+03  0.36890596384E+03  0.12500000000E+03 0.  0.
         25    1    1    2    0    0  0.10427286420E+03 -0.65028432226E+02 -0.13864020622E+03  0.22348967311E+03  0.12500000000E+03 0.  0.
         25    1    1    2    0    0  0.20209198927E+03 -0.39398908379E+02 -0.35924277864E+03  0.43252031179E+03  0.12500000000E+03 0.  0.
</event>
<event>
 5    0  0.5547141E-005  0.2561561E+03  0.7546771E-02  0.1109475E+00
         21   -1    0    0  502  501  0.00000000000E+00  0.00000000000E+00  0.11394309130E+03  0.11394309130E+03  0.00000000000E+00 0.  1.
         21   -1    0    0  501  502 -0.00000000000E+00 -0.00000000000E+00 -0.57586618015E+03  0.57586618015E+03  0.00000000000E+00 0.  1.
         25    1    1    2    0    0 -0.44826021905E+02  0.75680688243E+02 -0.20088297141E+03  0.25242010026E+03  0.12500000000E+03 0.  0.
         25    1    1    2    0    0 -0.15298302931E+02 -0.13196562994E+03 -0.71638016393E+02  0.19597441402E+03  0.12500000000E+03 0.  0.
         25    1    1    2    0    0  0.60124324836E+02  0.56284941692E+02 -0.18940210105E+03  0.24141475717E+03  0.12500000000E+03 0.  0.
</event>
<event>
 5    0  0.5547141E-005  0.2772039E+03  0.7546771E-02  0.1097226E+00
         21   -1    0    0  502  501  0.00000000000E+00  0.00000000000E+00  0.19057464966E+03  0.19057464966E+03  0.00000000000E+00 0. -1.
         21   -1    0    0  501  502 -0.00000000000E+00 -0.00000000000E+00 -0.40321210917E+03  0.40321210917E+03  0.00000000000E+00 0. -1.
         25    1    1    2    0    0 -0.44648782188E+02 -0.14534429179E+03  0.29896884763E+02  0.19909118671E+03  0.12500000000E+03 0.  0.
         25    1    1    2    0    0 -0.24473751638E+00  0.16569061440E+02 -0.89885272484E+02  0.15485139942E+03  0.12500000000E+03 0.  0.
         25    1    1    2    0    0  0.44893519704E+02  0.12877523035E+03 -0.15264907179E+03  0.23984417270E+03  0.12500000000E+03 0.  0.
</event>
<event>
 5    0  0.5547141E-005  0.6245234E+03  0.7546771E-02  0.9855795E-01
         21   -1    0    0  502  501  0.00000000000E+00  0.00000000000E+00  0.12095887110E+03  0.12095887110E+03  0.00000000000E+00 0. -1.
         21   -1    0    0  501  502 -0.00000000000E+00 -0.00000000000E+00 -0.32244803789E+04  0.32244803789E+04  0.00000000000E+00 0. -1.
         25    1    1    2    0    0  0.18745880661E+03  0.44176619328E+02 -0.12208071083E+04  0.12422106801E+04  0.12500000000E+03 0.  0.
         25    1    1    2    0    0  0.14448281481E+03 -0.11500832160E+02 -0.16850007251E+04  0.16958360760E+04  0.12500000000E+03 0.  0.
         25    1    1    2    0    0 -0.33194162142E+03 -0.32675787168E+02 -0.19771367428E+03  0.40739249391E+03  0.12500000000E+03 0.  0.
</event>
<event>
 5    0  0.5547141E-005  0.2875736E+03  0.7546771E-02  0.1091623E+00
         21   -1    0    0  502  501  0.00000000000E+00  0.00000000000E+00  0.22224714172E+04  0.22224714172E+04  0.00000000000E+00 0.  1.
         21   -1    0    0  501  502 -0.00000000000E+00 -0.00000000000E+00 -0.37210192610E+02  0.37210192610E+02  0.00000000000E+00 0.  1.
         25    1    1    2    0    0 -0.56427641586E+02  0.11782584293E+02  0.25093708479E+03  0.28621203425E+03  0.12500000000E+03 0.  0.
         25    1    1    2    0    0 -0.11719537907E+03 -0.58288886505E+01  0.69729735744E+03  0.71806499532E+03  0.12500000000E+03 0.  0.
         25    1    1    2    0    0  0.17362302066E+03 -0.59536956426E+01  0.12370267824E+04  0.12554045803E+04  0.12500000000E+03 0.  0.
</event>
<event>
 5    0  0.5547141E-005  0.3231880E+03  0.7546771E-02  0.1074191E+00
         21   -1    0    0  502  501  0.00000000000E+00  0.00000000000E+00  0.27527166730E+03  0.27527166730E+03  0.00000000000E+00 0.  1.
         21   -1    0    0  501  502 -0.00000000000E+00 -0.00000000000E+00 -0.37944507929E+03  0.37944507929E+03  0.00000000000E+00 0.  1.
         25    1    1    2    0    0 -0.20508313595E+02 -0.96229202935E+02  0.86376990742E+02  0.18101556550E+03  0.12500000000E+03 0.  0.
         25    1    1    2    0    0  0.16079609772E+03  0.69544932881E+02 -0.15924159915E+02  0.21580190361E+03  0.12500000000E+03 0.  0.
         25    1    1    2    0    0 -0.14028778412E+03  0.26684270055E+02 -0.17462624282E+03  0.25789927748E+03  0.12500000000E+03 0.  0.
</event>
<event>
 5    0  0.5547141E-005  0.2141661E+03  0.7546771E-02  0.1138309E+00
         21   -1    0    0  502  501  0.00000000000E+00  0.00000000000E+00  0.34047141444E+02  0.34047141444E+02  0.00000000000E+00 0.  1.
         21   -1    0    0  501  502 -0.00000000000E+00 -0.00000000000E+00 -0.13471655003E+04  0.13471655003E+04  0.00000000000E+00 0.  1.
         25    1    1    2    0    0 -0.20668220312E+02  0.53764008855E+02 -0.64925152206E+03  0.66367935246E+03  0.12500000000E+03 0.  0.
         25    1    1    2    0    0  0.19812558470E+02 -0.64986174063E+02 -0.41687762616E+03  0.44048574947E+03  0.12500000000E+03 0.  0.
         25    1    1    2    0    0  0.85566184185E+00  0.11222165207E+02 -0.24698921064E+03  0.27704753982E+03  0.12500000000E+03 0.  0.
</event>
<event>
 5    0  0.5547141E-005  0.2847526E+03  0.7546771E-02  0.1093121E+00
         21   -1    0    0  502  501  0.00000000000E+00  0.00000000000E+00  0.26083189882E+04  0.26083189882E+04  0.00000000000E+00 0. -1.
         21   -1    0    0  501  502 -0.00000000000E+00 -0.00000000000E+00 -0.31086703562E+02  0.31086703562E+02  0.00000000000E+00 0. -1.
         25    1    1    2    0    0  0.23913039938E+01  0.19075932937E+03  0.10241085048E+04  0.10491987751E+04  0.12500000000E+03 0.  0.
         25    1    1    2    0    0 -0.29812773547E+02 -0.23514320255E+02  0.62036691312E+03  0.63397305275E+03  0.12500000000E+03 0.  0.
         25    1    1    2    0    0  0.27421469553E+02 -0.16724500912E+03  0.93275686670E+03  0.95623386388E+03  0.12500000000E+03 0.  0.
</event>
<event>
 5    0  0.5547141E-005  0.4835071E+03  0.7546771E-02  0.1018176E+00
         21   -1    0    0  502  501  0.00000000000E+00  0.00000000000E+00  0.32702406908E+03  0.32702406908E+03  0.00000000000E+00 0.  1.
         21   -1    0    0  501  502 -0.00000000000E+00 -0.00000000000E+00 -0.71486830980E+03  0.71486830980E+03  0.00000000000E+00 0.  1.
         25    1    1    2    0    0 -0.33907667466E+03  0.13816347475E+03 -0.41539192475E+03  0.56765974685E+03  0.12500000000E+03 0.  0.
         25    1    1    2    0    0  0.10248542881E+03 -0.22175178240E+02  0.73583425638E+02  0.17898190461E+03  0.12500000000E+03 0.  0.
         25    1    1    2    0    0  0.23659124585E+03 -0.11598829651E+03 -0.46035741604E+02  0.29525072742E+03  0.12500000000E+03 0.  0.
</event>
<event>
 5    0  0.5547141E-005  0.4115930E+03  0.7546771E-02  0.1039838E+00
         21   -1    0    0  502  501  0.00000000000E+00  0.00000000000E+00  0.15074837590E+03  0.15074837590E+03  0.00000000000E+00 0.  1.
         21   -1    0    0  501  502 -0.00000000000E+00 -0.00000000000E+00 -0.11237854529E+04  0.11237854529E+04  0.00000000000E+00 0.  1.
         25    1    1    2    0    0 -0.98539873943E+02 -0.13247938216E+03 -0.10450798512E+03  0.23196511032E+03  0.12500000000E+03 0.  0.
         25    1    1    2    0    0 -0.31082218550E+02  0.54306292342E+02  0.12113885862E+02  0.14031045552E+03  0.12500000000E+03 0.  0.
         25    1    1    2    0    0  0.12962209249E+03  0.78173089814E+02 -0.88064297772E+03  0.90225826294E+03  0.12500000000E+03 0.  0.
</event>
<event>
 5    0  0.5547141E-005  0.2477916E+03  0.7546771E-02  0.1114709E+00
         21   -1    0    0  502  501  0.00000000000E+00  0.00000000000E+00  0.19682105458E+03  0.19682105458E+03  0.00000000000E+00 0.  1.
         21   -1    0    0  501  502 -0.00000000000E+00 -0.00000000000E+00 -0.31196181383E+03  0.31196181383E+03  0.00000000000E+00 0.  1.
         25    1    1    2    0    0  0.55778138679E+02  0.73654407436E+02 -0.44670122516E+02  0.16172999825E+03  0.12500000000E+03 0.  0.
         25    1    1    2    0    0 -0.38773940163E+02  0.18722164757E+02  0.58303823741E+02  0.14449316161E+03  0.12500000000E+03 0.  0.
         25    1    1    2    0    0 -0.17004198516E+02 -0.92376572193E+02 -0.12877446048E+03  0.20255970855E+03  0.12500000000E+03 0.  0.
</event>
<event>
 5    0  0.5547141E-005  0.3864962E+03  0.7546771E-02  0.1048559E+00
         21   -1    0    0  502  501  0.00000000000E+00  0.00000000000E+00  0.72067330179E+03  0.72067330179E+03  0.00000000000E+00 0.  1.
         21   -1    0    0  501  502 -0.00000000000E+00 -0.00000000000E+00 -0.20727741277E+03  0.20727741277E+03  0.00000000000E+00 0.  1.
         25    1    1    2    0    0  0.63948451141E+02  0.15063849359E+01  0.12620464634E+03  0.18879694477E+03  0.12500000000E+03 0.  0.
         25    1    1    2    0    0  0.11263050497E+03 -0.13483626275E+02 -0.10678992407E+03  0.19974114927E+03  0.12500000000E+03 0.  0.
         25    1    1    2    0    0 -0.17657895611E+03  0.11977241339E+02  0.49398116676E+03  0.53941262051E+03  0.12500000000E+03 0.  0.
</event>
<event>
 5    0  0.5547141E-005  0.2991719E+03  0.7546771E-02  0.1085655E+00
         21   -1    0    0  502  501  0.00000000000E+00  0.00000000000E+00  0.27049881461E+03  0.27049881461E+03  0.00000000000E+00 0.  1.
         21   -1    0    0  501  502 -0.00000000000E+00 -0.00000000000E+00 -0.33088429502E+03  0.33088429502E+03  0.00000000000E+00 0.  1.
         25    1    1    2    0    0  0.10633638327E+03 -0.42712476999E+02 -0.13167417943E+03  0.21469716260E+03  0.12500000000E+03 0.  0.
         25    1    1    2    0    0 -0.13079645222E+03  0.12770530753E+03  0.97772292715E+01  0.22166856272E+03  0.12500000000E+03 0.  0.
         25    1    1    2    0    0  0.24460068949E+02 -0.84992830536E+02  0.61511469745E+02  0.16501738431E+03  0.12500000000E+03 0.  0.
</event>
<event>
 5    0  0.6005096E-005  0.2834948E+03  0.7546771E-02  0.1093795E+00
         21   -1    0    0  502  501  0.00000000000E+00  0.00000000000E+00  0.58833758115E+03  0.58833758115E+03  0.00000000000E+00 0.  1.
         21   -1    0    0  501  502 -0.00000000000E+00 -0.00000000000E+00 -0.13660403152E+03  0.13660403152E+03  0.00000000000E+00 0.  1.
         25    1    1    2    0    0 -0.10956991587E+03  0.56765516425E+01  0.13684993502E+03  0.21538499116E+03  0.12500000000E+03 0.  0.
         25    1    1    2    0    0 -0.39985466557E+02  0.10652024245E+03  0.18177194792E+03  0.24821651967E+03  0.12500000000E+03 0.  0.
         25    1    1    2    0    0  0.14955538243E+03 -0.11219679409E+03  0.13311166670E+03  0.26134010184E+03  0.12500000000E+03 0.  0.
</event>
<event>
 5    0  0.5547141E-005  0.2522497E+03  0.7546771E-02  0.1111891E+00
         21   -1    0    0  502  501  0.00000000000E+00  0.00000000000E+00  0.83948656934E+02  0.83948656934E+02  0.00000000000E+00 0. -1.
         21   -1    0    0  501  502 -0.00000000000E+00 -0.00000000000E+00 -0.75796207608E+03  0.75796207608E+03  0.00000000000E+00 0. -1.
         25    1    1    2    0    0 -0.78419746594E+02  0.76674520417E+02 -0.21594654523E+03  0.27255558907E+03  0.12500000000E+03 0.  0.
         25    1    1    2    0    0 -0.14826989801E+02 -0.10761078109E+03 -0.15357169888E+03  0.22585213422E+03  0.12500000000E+03 0.  0.
         25    1    1    2    0    0  0.93246736395E+02  0.30936260670E+02 -0.30449517504E+03  0.34350300973E+03  0.12500000000E+03 0.  0.
</event>
<event>
 5    0  0.5547141E-005  0.3271729E+03  0.7546771E-02  0.1072395E+00
         21   -1    0    0  502  501  0.00000000000E+00  0.00000000000E+00  0.13985471991E+03  0.13985471991E+03  0.00000000000E+00 0. -1.
         21   -1    0    0  501  502 -0.00000000000E+00 -0.00000000000E+00 -0.76538077386E+03  0.76538077386E+03  0.00000000000E+00 0. -1.
         25    1    1    2    0    0 -0.12391415765E+03 -0.84315014916E+02 -0.19733806693E+03  0.27754468625E+03  0.12500000000E+03 0.  0.
         25    1    1    2    0    0  0.18326070510E+03 -0.51131929522E+02 -0.10445432031E+03  0.25046889085E+03  0.12500000000E+03 0.  0.
         25    1    1    2    0    0 -0.59346547449E+02  0.13544694444E+03 -0.32373366671E+03  0.37722191667E+03  0.12500000000E+03 0.  0.
</event>
<event>
 5    0  0.5547141E-005  0.3342176E+03  0.7546771E-02  0.1069286E+00
         21   -1    0    0  502  501  0.00000000000E+00  0.00000000000E+00  0.37350293829E+03  0.37350293829E+03  0.00000000000E+00 0.  1.
         21   -1    0    0  501  502 -0.00000000000E+00 -0.00000000000E+00 -0.29906430511E+03  0.29906430511E+03  0.00000000000E+00 0.  1.
         25    1    1    2    0    0 -0.19686659959E+03  0.46864372896E+02  0.87213800445E+02  0.25334556335E+03  0.12500000000E+03 0.  0.
         25    1    1    2    0    0  0.10607813574E+03  0.92382438385E+02  0.62112200154E+02  0.19816662487E+03  0.12500000000E+03 0.  0.
         25    1    1    2    0    0  0.90788463849E+02 -0.13924681128E+03 -0.74887367422E+02  0.22105505518E+03  0.12500000000E+03 0.  0.
</event>
<event>
 5    0  0.5547141E-005  0.2226158E+03  0.7546771E-02  0.1131948E+00
         21   -1    0    0  502  501  0.00000000000E+00  0.00000000000E+00  0.66415452340E+02  0.66415452340E+02  0.00000000000E+00 0. -1.
         21   -1    0    0  501  502 -0.00000000000E+00 -0.00000000000E+00 -0.74617892934E+03  0.74617892934E+03  0.00000000000E+00 0. -1.
         25    1    1    2    0    0 -0.67304324301E+02  0.56853268802E+02 -0.21909292870E+03  0.26718697133E+03  0.12500000000E+03 0.  0.
         25    1    1    2    0    0  0.91597508836E+02 -0.25085650773E+02 -0.20697290596E+03  0.25977331907E+03  0.12500000000E+03 0.  0.
         25    1    1    2    0    0 -0.24293184535E+02 -0.31767618028E+02 -0.25369764234E+03  0.28563409128E+03  0.12500000000E+03 0.  0.
</event>
<event>
 5    0  0.5547141E-005  0.2728070E+03  0.7546771E-02  0.1099684E+00
         21   -1    0    0  502  501  0.00000000000E+00  0.00000000000E+00  0.88036463113E+03  0.88036463113E+03  0.00000000000E+00 0. -1.
         21   -1    0    0  501  502 -0.00000000000E+00 -0.00000000000E+00 -0.84537295313E+02  0.84537295313E+02  0.00000000000E+00 0. -1.
         25    1    1    2    0    0 -0.13452655493E+03 -0.18879168027E+02  0.34808441215E+03  0.39400707475E+03  0.12500000000E+03 0.  0.
         25    1    1    2    0    0 -0.42407631736E+02 -0.21594764900E+02  0.16450278658E+03  0.21201629157E+03  0.12500000000E+03 0.  0.
         25    1    1    2    0    0  0.17693418667E+03  0.40473932927E+02  0.28324013709E+03  0.35887856012E+03  0.12500000000E+03 0.  0.
</event>
<event>
 5    0  0.5547141E-005  0.2543127E+03  0.7546771E-02  0.1110609E+00
         21   -1    0    0  502  501  0.00000000000E+00  0.00000000000E+00  0.22654378559E+03  0.22654378559E+03  0.00000000000E+00 0.  1.
         21   -1    0    0  501  502 -0.00000000000E+00 -0.00000000000E+00 -0.28548542416E+03  0.28548542416E+03  0.00000000000E+00 0.  1.
         25    1    1    2    0    0  0.21982952803E+02  0.37525953447E+02  0.64254732820E+02  0.14712279934E+03  0.12500000000E+03 0.  0.
         25    1    1    2    0    0  0.20509071368E+02 -0.45429212942E+02 -0.17680614376E+03  0.22219326693E+03  0.12500000000E+03 0.  0.
         25    1    1    2    0    0 -0.42492024171E+02  0.79032594949E+01  0.53609772374E+02  0.14271314348E+03  0.12500000000E+03 0.  0.
</event>
<event>
 5    0  0.5547141E-005  0.3043436E+03  0.7546771E-02  0.1083089E+00
         21   -1    0    0  502  501  0.00000000000E+00  0.00000000000E+00  0.67204577654E+02  0.67204577654E+02  0.00000000000E+00 0. -1.
         21   -1    0    0  501  502 -0.00000000000E+00 -0.00000000000E+00 -0.13782545381E+04  0.13782545381E+04  0.00000000000E+00 0. -1.
         25    1    1    2    0    0  0.69682380844E+02 -0.55059498973E+02 -0.76578116523E+03  0.78098205846E+03  0.12500000000E+03 0.  0.
         25    1    1    2    0    0  0.72039293193E+02  0.91279887082E+02 -0.35479302406E+03  0.39373184716E+03  0.12500000000E+03 0.  0.
         25    1    1    2    0    0 -0.14172167404E+03 -0.36220388108E+02 -0.19047577116E+03  0.27074521012E+03  0.12500000000E+03 0.  0.
</event>
<event>
 5    0  0.5547141E-005  0.4175007E+03  0.7546771E-02  0.1037883E+00
         21   -1    0    0  502  501  0.00000000000E+00  0.00000000000E+00  0.68298967288E+03  0.68298967288E+03  0.00000000000E+00 0.  1.
         21   -1    0    0  501  502 -0.00000000000E+00 -0.00000000000E+00 -0.25521157724E+03  0.25521157724E+03  0.00000000000E+00 0.  1.
         25    1    1    2    0    0  0.22630608241E+01 -0.13243132607E+03 -0.36091528593E+01  0.18215708483E+03  0.12500000000E+03 0.  0.
         25    1    1    2    0    0  0.20638779898E+02  0.31804004602E+03  0.10207761144E+03  0.35723979183E+03  0.12500000000E+03 0.  0.
         25    1    1    2    0    0 -0.22901840722E+02 -0.18560871995E+03  0.32930963707E+03  0.39880437347E+03  0.12500000000E+03 0.  0.
</event>
<event>
 5    0  0.5547141E-005  0.3498010E+03  0.7546771E-02  0.1062697E+00
         21   -1    0    0  502  501  0.00000000000E+00  0.00000000000E+00  0.19415319865E+03  0.19415319865E+03  0.00000000000E+00 0.  1.
         21   -1    0    0  501  502 -0.00000000000E+00 -0.00000000000E+00 -0.63022782674E+03  0.63022782674E+03  0.00000000000E+00 0.  1.
         25    1    1    2    0    0 -0.47662331622E+02 -0.93752060413E+02 -0.40042771541E+03  0.43246792015E+03  0.12500000000E+03 0.  0.
         25    1    1    2    0    0  0.15509563267E+03  0.10268105627E+03 -0.58609204528E+01  0.22418163391E+03  0.12500000000E+03 0.  0.
         25    1    1    2    0    0 -0.10743330105E+03 -0.89289958592E+01 -0.29785992222E+02  0.16773147133E+03  0.12500000000E+03 0.  0.
</event>
<event>
 5    0  0.5547141E-005  0.5507305E+03  0.7546771E-02  0.1001325E+00
         21   -1    0    0  502  501  0.00000000000E+00  0.00000000000E+00  0.51674844582E+03  0.51674844582E+03  0.00000000000E+00 0. -1.
         21   -1    0    0  501  502 -0.00000000000E+00 -0.00000000000E+00 -0.58694728063E+03  0.58694728063E+03  0.00000000000E+00 0. -1.
         25    1    1    2    0    0 -0.16425433875E+03  0.10358087840E+03 -0.32871470556E+03  0.40172981445E+03  0.12500000000E+03 0.  0.
         25    1    1    2    0    0  0.31924404508E+03  0.20393810727E+02  0.30905030293E+03  0.46202787532E+03  0.12500000000E+03 0.  0.
         25    1    1    2    0    0 -0.15498970633E+03 -0.12397468912E+03 -0.50534432184E+02  0.23993803668E+03  0.12500000000E+03 0.  0.
</event>
<event>
 5    0  0.5547141E-005  0.2288584E+03  0.7546771E-02  0.1127446E+00
         21   -1    0    0  502  501  0.00000000000E+00  0.00000000000E+00  0.26468008626E+03  0.26468008626E+03  0.00000000000E+00 0.  1.
         21   -1    0    0  501  502 -0.00000000000E+00 -0.00000000000E+00 -0.19788487758E+03  0.19788487758E+03  0.00000000000E+00 0.  1.
         25    1    1    2    0    0  0.60376965735E+02 -0.92368847446E+02  0.14349890995E+02  0.16735680847E+03  0.12500000000E+03 0.  0.
         25    1    1    2    0    0 -0.53295638979E+02  0.86720638812E+02  0.52445936605E+01  0.16128670154E+03  0.12500000000E+03 0.  0.
         25    1    1    2    0    0 -0.70813267567E+01  0.56482086342E+01  0.47200724027E+02  0.13392145384E+03  0.12500000000E+03 0.  0.
</event>
<event>
 5    0  0.5547141E-005  0.3635064E+03  0.7546771E-02  0.1057204E+00
         21   -1    0    0  502  501  0.00000000000E+00  0.00000000000E+00  0.90152299406E+03  0.90152299406E+03  0.00000000000E+00 0.  1.
         21   -1    0    0  501  502 -0.00000000000E+00 -0.00000000000E+00 -0.14657072330E+03  0.14657072330E+03  0.00000000000E+00 0.  1.
         25    1    1    2    0    0  0.11311023106E+03 -0.25169918374E+03  0.47977333792E+03  0.56740978071E+03  0.12500000000E+03 0.  0.
         25    1    1    2    0    0  0.81465875972E+00  0.78096840472E+02  0.13941608862E+03  0.20288328153E+03  0.12500000000E+03 0.  0.
         25    1    1    2    0    0 -0.11392488982E+03  0.17360234327E+03  0.13576284423E+03  0.27780065512E+03  0.12500000000E+03 0.  0.
</event>
<event>
 5    0  0.5547141E-005  0.3902142E+03  0.7546771E-02  0.1047222E+00
         21   -1    0    0  502  501  0.00000000000E+00  0.00000000000E+00  0.23849420775E+03  0.23849420775E+03  0.00000000000E+00 0. -1.
         21   -1    0    0  501  502 -0.00000000000E+00 -0.00000000000E+00 -0.63845193126E+03  0.63845193126E+03  0.00000000000E+00 0. -1.
         25    1    1    2    0    0 -0.33201339388E+02 -0.27151171042E+03 -0.82795220813E+00  0.30074345103E+03  0.12500000000E+03 0.  0.
         25    1    1    2    0    0 -0.60024282379E+02  0.99126588464E+02 -0.24052561201E+03  0.29479919445E+03  0.12500000000E+03 0.  0.
         25    1    1    2    0    0  0.93225621766E+02  0.17238512195E+03 -0.15860415929E+03  0.28140349353E+03  0.12500000000E+03 0.  0.
</event>
<event>
 5    0  0.5547141E-005  0.5239586E+03  0.7546771E-02  0.1007708E+00
         21   -1    0    0  502  501  0.00000000000E+00  0.00000000000E+00  0.42531060224E+03  0.42531060224E+03  0.00000000000E+00 0.  1.
         21   -1    0    0  501  502 -0.00000000000E+00 -0.00000000000E+00 -0.64548747410E+03  0.64548747410E+03  0.00000000000E+00 0.  1.
         25    1    1    2    0    0  0.18897160567E+03  0.11341966719E+03  0.73523458421E+02  0.26382757170E+03  0.12500000000E+03 0.  0.
         25    1    1    2    0    0  0.12273951078E+03 -0.13511689444E+03  0.13711925216E+03  0.26028494383E+03  0.12500000000E+03 0.  0.
         25    1    1    2    0    0 -0.31171111645E+03  0.21697227251E+02 -0.43081958244E+03  0.54668556081E+03  0.12500000000E+03 0.  0.
</event>
<event>
 5    0  0.5547141E-005  0.4705771E+03  0.7546771E-02  0.1021757E+00
         21   -1    0    0  502  501  0.00000000000E+00  0.00000000000E+00  0.17243609279E+04  0.17243609279E+04  0.00000000000E+00 0. -1.
         21   -1    0    0  501  502 -0.00000000000E+00 -0.00000000000E+00 -0.12842019299E+03  0.12842019299E+03  0.00000000000E+00 0. -1.
         25    1    1    2    0    0  0.32848863072E+03  0.59410344468E+02  0.62975566080E+03  0.72363772832E+03  0.12500000000E+03 0.  0.
         25    1    1    2    0    0  0.68461977877E+02 -0.15019967767E+02  0.40119541480E+03  0.42602277252E+03  0.12500000000E+03 0.  0.
         25    1    1    2    0    0 -0.39695060859E+03 -0.44390376701E+02  0.56498965926E+03  0.70312062001E+03  0.12500000000E+03 0.  0.
</event>
<event>
 5    0  0.5547141E-005  0.2404168E+03  0.7546771E-02  0.1119515E+00
         21   -1    0    0  502  501  0.00000000000E+00  0.00000000000E+00  0.14256394058E+03  0.14256394058E+03  0.00000000000E+00 0. -1.
         21   -1    0    0  501  502 -0.00000000000E+00 -0.00000000000E+00 -0.40543383255E+03  0.40543383255E+03  0.00000000000E+00 0. -1.
         25    1    1    2    0    0 -0.65672053113E+02 -0.87755104276E+02 -0.98654673173E+02  0.19331715243E+03  0.12500000000E+03 0.  0.
         25    1    1    2    0    0  0.36096911508E+02  0.56191311510E+02  0.26510871866E+01  0.14174794098E+03  0.12500000000E+03 0.  0.
         25    1    1    2    0    0  0.29575141604E+02  0.31563792766E+02 -0.16686630598E+03  0.21293267971E+03  0.12500000000E+03 0.  0.
</event>
<event>
 5    0  0.5547141E-005  0.2516954E+03  0.7546771E-02  0.1112238E+00
         21   -1    0    0  502  501  0.00000000000E+00  0.00000000000E+00  0.11091858132E+03  0.11091858132E+03  0.00000000000E+00 0.  1.
         21   -1    0    0  501  502 -0.00000000000E+00 -0.00000000000E+00 -0.57114476594E+03  0.57114476594E+03  0.00000000000E+00 0.  1.
         25    1    1    2    0    0 -0.21256590937E+02  0.24542722930E+02 -0.26448180231E+03  0.29432942711E+03  0.12500000000E+03 0.  0.
         25    1    1    2    0    0 -0.55924658077E+02 -0.35285986245E+02 -0.19444257930E+03  0.24042792028E+03  0.12500000000E+03 0.  0.
         25    1    1    2    0    0  0.77181249013E+02  0.10743263315E+02 -0.13018030104E+01  0.14730599987E+03  0.12500000000E+03 0.  0.
</event>
<event>
 5    0  0.5547141E-005  0.2726148E+03  0.7546771E-02  0.1099792E+00
         21   -1    0    0  502  501  0.00000000000E+00  0.00000000000E+00  0.19032074274E+03  0.19032074274E+03  0.00000000000E+00 0.  1.
         21   -1    0    0  501  502 -0.00000000000E+00 -0.00000000000E+00 -0.39049253661E+03  0.39049253661E+03  0.00000000000E+00 0.  1.
         25    1    1    2    0    0  0.58863917150E+01  0.16912612052E+02 -0.33788450192E+02  0.13071857336E+03  0.12500000000E+03 0.  0.
         25    1    1    2    0    0  0.12230526360E+03  0.10118660949E+03 -0.60593486587E+02  0.21093572021E+03  0.12500000000E+03 0.  0.
         25    1    1    2    0    0 -0.12819165531E+03 -0.11809922154E+03 -0.10578985709E+03  0.23915898579E+03  0.12500000000E+03 0.  0.
</event>
<event>
 5    0  0.5547141E-005  0.4314860E+03  0.7546771E-02  0.1033392E+00
         21   -1    0    0  502  501  0.00000000000E+00  0.00000000000E+00  0.23822976580E+04  0.23822976580E+04  0.00000000000E+00 0.  1.
         21   -1    0    0  501  502 -0.00000000000E+00 -0.00000000000E+00 -0.78151505417E+02  0.78151505417E+02  0.00000000000E+00 0.  1.
         25    1    1    2    0    0 -0.12489623444E+03 -0.68529028579E+02  0.38758869333E+03  0.43144558444E+03  0.12500000000E+03 0.  0.
         25    1    1    2    0    0  0.45901101976E+02  0.29918861957E+03  0.14622384600E+04  0.14984615628E+04  0.12500000000E+03 0.  0.
         25    1    1    2    0    0  0.78995132463E+02 -0.23065959099E+03  0.45431899926E+03  0.53054201620E+03  0.12500000000E+03 0.  0.
</event>
<event>
 5    0  0.5547141E-005  0.3515932E+03  0.7546771E-02  0.1061963E+00
         21   -1    0    0  502  501  0.00000000000E+00  0.00000000000E+00  0.77850015237E+02  0.77850015237E+02  0.00000000000E+00 0. -1.
         21   -1    0    0  501  502 -0.00000000000E+00 -0.00000000000E+00 -0.15878969021E+04  0.15878969021E+04  0.00000000000E+00 0. -1.
         25    1    1    2    0    0  0.10341049767E+03 -0.50431355672E+02 -0.50203084363E+03  0.52999718926E+03  0.12500000000E+03 0.  0.
         25    1    1    2    0    0  0.97597418819E+01  0.18996474835E+03 -0.21505391526E+03  0.31313742135E+03  0.12500000000E+03 0.  0.
         25    1    1    2    0    0 -0.11317023956E+03 -0.13953339268E+03 -0.79296212802E+03  0.82261230678E+03  0.12500000000E+03 0.  0.
</event>
<event>
 5    0  0.5547141E-005  0.2605481E+03  0.7546771E-02  0.1106814E+00
         21   -1    0    0  502  501  0.00000000000E+00  0.00000000000E+00  0.65417235613E+02  0.65417235613E+02  0.00000000000E+00 0.  1.
         21   -1    0    0  501  502 -0.00000000000E+00 -0.00000000000E+00 -0.10377280127E+04  0.10377280127E+04  0.00000000000E+00 0.  1.
         25    1    1    2    0    0 -0.60043604838E+02 -0.10423494330E+02 -0.29023270185E+03  0.32182899953E+03  0.12500000000E+03 0.  0.
         25    1    1    2    0    0 -0.30546137975E+02 -0.92425607718E+02 -0.15135427920E+03  0.21910882533E+03  0.12500000000E+03 0.  0.
         25    1    1    2    0    0  0.90589742812E+02  0.10284910205E+03 -0.53072379599E+03  0.56220742340E+03  0.12500000000E+03 0.  0.
</event>
<event>
 5    0  0.5547141E-005  0.3416867E+03  0.7546771E-02  0.1066080E+00
         21   -1    0    0  502  501  0.00000000000E+00  0.00000000000E+00  0.34715314452E+03  0.34715314452E+03  0.00000000000E+00 0. -1.
         21   -1    0    0  501  502 -0.00000000000E+00 -0.00000000000E+00 -0.33630635801E+03  0.33630635801E+03  0.00000000000E+00 0. -1.
         25    1    1    2    0    0 -0.16507524685E+03  0.40375264281E+02  0.90905569896E+02  0.22971465284E+03  0.12500000000E+03 0.  0.
         25    1    1    2    0    0  0.10688997165E+03 -0.74331791712E+02  0.11385585821E+03  0.21339830774E+03  0.12500000000E+03 0.  0.
         25    1    1    2    0    0  0.58185275202E+02  0.33956527431E+02 -0.19391464160E+03  0.24034654196E+03  0.12500000000E+03 0.  0.
</event>
<event>
 5    0  0.5547141E-005  0.4119346E+03  0.7546771E-02  0.1039724E+00
         21   -1    0    0  502  501  0.00000000000E+00  0.00000000000E+00  0.20369017241E+04  0.20369017241E+04  0.00000000000E+00 0.  1.
         21   -1    0    0  501  502 -0.00000000000E+00 -0.00000000000E+00 -0.83307958308E+02  0.83307958308E+02  0.00000000000E+00 0.  1.
         25    1    1    2    0    0  0.81479667595E+02 -0.69046282522E+02  0.14714188838E+04  0.14805758532E+04  0.12500000000E+03 0.  0.
         25    1    1    2    0    0 -0.48114941229E+02 -0.11253947718E+03  0.31730634817E+03  0.36233754992E+03  0.12500000000E+03 0.  0.
         25    1    1    2    0    0 -0.33364726366E+02  0.18158575970E+03  0.16486853385E+03  0.27729627936E+03  0.12500000000E+03 0.  0.
</event>
<event>
 5    0  0.5547141E-005  0.2726672E+03  0.7546771E-02  0.1099763E+00
         21   -1    0    0  502  501  0.00000000000E+00  0.00000000000E+00  0.24739462874E+03  0.24739462874E+03  0.00000000000E+00 0.  1.
         21   -1    0    0  501  502 -0.00000000000E+00 -0.00000000000E+00 -0.30052149236E+03  0.30052149236E+03  0.00000000000E+00 0.  1.
         25    1    1    2    0    0  0.34845716775E+02  0.34438312034E+02  0.15557812425E+03  0.20549884199E+03  0.12500000000E+03 0.  0.
         25    1    1    2    0    0  0.25670075243E+02 -0.15653053769E+01 -0.11414310326E+03  0.17121638638E+03  0.12500000000E+03 0.  0.
         25    1    1    2    0    0 -0.60515792018E+02 -0.32873006657E+02 -0.94561884613E+02  0.17120089273E+03  0.12500000000E+03 0.  0.
</event>
<event>
 5    0  0.5547141E-005  0.2537953E+03  0.7546771E-02  0.1110929E+00
         21   -1    0    0  502  501  0.00000000000E+00  0.00000000000E+00  0.33627002258E+03  0.33627002258E+03  0.00000000000E+00 0. -1.
         21   -1    0    0  501  502 -0.00000000000E+00 -0.00000000000E+00 -0.19154861782E+03  0.19154861782E+03  0.00000000000E+00 0. -1.
         25    1    1    2    0    0  0.24776631095E+02 -0.77380962563E+01 -0.53744499143E+02  0.13851797995E+03  0.12500000000E+03 0.  0.
         25    1    1    2    0    0 -0.31309265566E+02  0.97984652711E+02  0.16549546643E+03  0.23150596469E+03  0.12500000000E+03 0.  0.
         25    1    1    2    0    0  0.65326344711E+01 -0.90246556455E+02  0.32970437472E+02  0.15779469577E+03  0.12500000000E+03 0.  0.
</event>
<event>
 5    0  0.5547141E-005  0.3119955E+03  0.7546771E-02  0.1079393E+00
         21   -1    0    0  502  501  0.00000000000E+00  0.00000000000E+00  0.51666558894E+03  0.51666558894E+03  0.00000000000E+00 0. -1.
         21   -1    0    0  501  502 -0.00000000000E+00 -0.00000000000E+00 -0.18840270516E+03  0.18840270516E+03  0.00000000000E+00 0. -1.
         25    1    1    2    0    0  0.66241294038E+01  0.18285061293E+03  0.11309009287E+03  0.24878222373E+03  0.12500000000E+03 0.  0.
         25    1    1    2    0    0  0.75544336741E+02 -0.28266846665E+02  0.18758353747E+03  0.23941291728E+03  0.12500000000E+03 0.  0.
         25    1    1    2    0    0 -0.82168466145E+02 -0.15458376626E+03  0.27589253447E+02  0.21687315308E+03  0.12500000000E+03 0.  0.
</event>
<event>
 5    0  0.6732837E-005  0.3469310E+03  0.7546771E-02  0.1063882E+00
         21   -1    0    0  502  501  0.00000000000E+00  0.00000000000E+00  0.39152274084E+03  0.39152274084E+03  0.00000000000E+00 0.  1.
         21   -1    0    0  501  502 -0.00000000000E+00 -0.00000000000E+00 -0.30741797463E+03  0.30741797463E+03  0.00000000000E+00 0.  1.
         25    1    1    2    0    0  0.16749941786E+03 -0.66756255199E+02  0.17918132102E+03  0.28327265734E+03  0.12500000000E+03 0.  0.
         25    1    1    2    0    0 -0.23527774240E+02  0.55918056512E+01 -0.16063736437E+03  0.20497362583E+03  0.12500000000E+03 0.  0.
         25    1    1    2    0    0 -0.14397164362E+03  0.61164449548E+02  0.65560809560E+02  0.21069443231E+03  0.12500000000E+03 0.  0.
</event>
<event>
 5    0  0.5547141E-005  0.4133196E+03  0.7546771E-02  0.1039263E+00
         21   -1    0    0  502  501  0.00000000000E+00  0.00000000000E+00  0.14779075834E+04  0.14779075834E+04  0.00000000000E+00 0.  1.
         21   -1    0    0  501  502 -0.00000000000E+00 -0.00000000000E+00 -0.11559119624E+03  0.11559119624E+03  0.00000000000E+00 0.  1.
         25    1    1    2    0    0 -0.51522984528E+02 -0.14305348817E+03  0.12297849562E+04  0.12454376568E+04  0.12500000000E+03 0.  0.
         25    1    1    2    0    0  0.85662664340E+02  0.76854950810E+02  0.10568183940E+03  0.20009604370E+03  0.12500000000E+03 0.  0.
         25    1    1    2    0    0 -0.34139679812E+02  0.66198537358E+02  0.26849591561E+02  0.14796507917E+03  0.12500000000E+03 0.  0.
</event>
<event>
 5    0  0.5820665E-005  0.3148411E+03  0.7546771E-02  0.1078048E+00
         21   -1    0    0  502  501  0.00000000000E+00  0.00000000000E+00  0.13873912225E+03  0.13873912225E+03  0.00000000000E+00 0.  1.
         21   -1    0    0  501  502 -0.00000000000E+00 -0.00000000000E+00 -0.71446966189E+03  0.71446966189E+03  0.00000000000E+00 0.  1.
         25    1    1    2    0    0  0.24265708570E+02 -0.12335324222E+01 -0.40158230766E+03  0.42128813897E+03  0.12500000000E+03 0.  0.
         25    1    1    2    0    0 -0.11056711903E+02 -0.12983531164E+03 -0.36697987428E+00  0.18056742148E+03  0.12500000000E+03 0.  0.
         25    1    1    2    0    0 -0.13208996668E+02  0.13106884406E+03 -0.17378125210E+03  0.25135322369E+03  0.12500000000E+03 0.  0.
</event>
<event>
 5    0  0.5547141E-005  0.2360854E+03  0.7546771E-02  0.1122428E+00
         21   -1    0    0  502  501  0.00000000000E+00  0.00000000000E+00  0.27166312762E+03  0.27166312762E+03  0.00000000000E+00 0.  1.
         21   -1    0    0  501  502 -0.00000000000E+00 -0.00000000000E+00 -0.20516695716E+03  0.20516695716E+03  0.00000000000E+00 0.  1.
         25    1    1    2    0    0 -0.48739791176E+02 -0.52742660954E+01 -0.67657410358E+02  0.15035261987E+03  0.12500000000E+03 0.  0.
         25    1    1    2    0    0  0.67605462311E+01 -0.71909278176E+02  0.74499611420E+02  0.16245565972E+03  0.12500000000E+03 0.  0.
         25    1    1    2    0    0  0.41979244945E+02  0.77183544271E+02  0.59653969390E+02  0.16402180519E+03  0.12500000000E+03 0.  0.
</event>
<event>
 5    0  0.5547141E-005  0.2670298E+03  0.7546771E-02  0.1102992E+00
         21   -1    0    0  502  501  0.00000000000E+00  0.00000000000E+00  0.14343329824E+04  0.14343329824E+04  0.00000000000E+00 0.  1.
         21   -1    0    0  501  502 -0.00000000000E+00 -0.00000000000E+00 -0.49712957624E+02  0.49712957624E+02  0.00000000000E+00 0.  1.
         25    1    1    2    0    0 -0.55003429465E+02  0.62322195534E+02  0.29289899223E+03  0.32912649994E+03  0.12500000000E+03 0.  0.
         25    1    1    2    0    0 -0.63911512744E+02 -0.11475001041E+03  0.70945238684E+03  0.73225674154E+03  0.12500000000E+03 0.  0.
         25    1    1    2    0    0  0.11891494221E+03  0.52427814877E+02  0.38226864575E+03  0.42266269859E+03  0.12500000000E+03 0.  0.
</event>
<event>
 5    0  0.5547141E-005  0.3211730E+03  0.7546771E-02  0.1075111E+00
         21   -1    0    0  502  501  0.00000000000E+00  0.00000000000E+00  0.18329992697E+04  0.18329992697E+04  0.00000000000E+00 0.  1.
         21   -1    0    0  501  502 -0.00000000000E+00 -0.00000000000E+00 -0.56275032337E+02  0.56275032337E+02  0.00000000000E+00 0.  1.
         25    1    1    2    0    0  0.35291889781E+02 -0.19790032854E+03  0.88088957712E+03  0.91214116484E+03  0.12500000000E+03 0.  0.
         25    1    1    2    0    0 -0.68212302040E+02  0.58576465999E+02  0.18182902592E+03  0.23826647936E+03  0.12500000000E+03 0.  0.
         25    1    1    2    0    0  0.32920412259E+02  0.13932386254E+03  0.71400563429E+03  0.73886665780E+03  0.12500000000E+03 0.  0.
</event>
<event>
 5    0  0.5547141E-005  0.5590338E+03  0.7546771E-02  0.9994243E-01
         21   -1    0    0  502  501  0.00000000000E+00  0.00000000000E+00  0.65410988588E+03  0.65410988588E+03  0.00000000000E+00 0. -1.
         21   -1    0    0  501  502 -0.00000000000E+00 -0.00000000000E+00 -0.47777713128E+03  0.47777713128E+03  0.00000000000E+00 0. -1.
         25    1    1    2    0    0 -0.13672947569E+03  0.18668244572E+03  0.44435147369E+03  0.51635115690E+03  0.12500000000E+03 0.  0.
         25    1    1    2    0    0 -0.34486694866E+02 -0.20972248768E+02 -0.31600498185E+03  0.34221822847E+03  0.12500000000E+03 0.  0.
         25    1    1    2    0    0  0.17121617055E+03 -0.16571019695E+03  0.47986262763E+02  0.27331763179E+03  0.12500000000E+03 0.  0.
</event>
<event>
 5    0  0.5547141E-005  0.2639257E+03  0.7546771E-02  0.1104807E+00
         21   -1    0    0  502  501  0.00000000000E+00  0.00000000000E+00  0.11310818706E+03  0.11310818706E+03  0.00000000000E+00 0.  1.
         21   -1    0    0  501  502 -0.00000000000E+00 -0.00000000000E+00 -0.61584193187E+03  0.61584193187E+03  0.00000000000E+00 0.  1.
         25    1    1    2    0    0 -0.14943135014E+03 -0.27611482409E+02 -0.24862264202E+03  0.31706519912E+03  0.12500000000E+03 0.  0.
         25    1    1    2    0    0  0.13811237024E+03  0.57712841075E+02 -0.14870776116E+03  0.24524436195E+03  0.12500000000E+03 0.  0.
         25    1    1    2    0    0  0.11318979902E+02 -0.30101358666E+02 -0.10540334163E+03  0.16664055787E+03  0.12500000000E+03 0.  0.
</event>
<event>
 5    0  0.5547141E-005  0.2911393E+03  0.7546771E-02  0.1089756E+00
         21   -1    0    0  502  501  0.00000000000E+00  0.00000000000E+00  0.20880500895E+03  0.20880500895E+03  0.00000000000E+00 0.  1.
         21   -1    0    0  501  502 -0.00000000000E+00 -0.00000000000E+00 -0.40593900874E+03  0.40593900874E+03  0.00000000000E+00 0.  1.
         25    1    1    2    0    0  0.23321215543E+02 -0.33013154971E+02 -0.18229953461E+03  0.22470395594E+03  0.12500000000E+03 0.  0.
         25    1    1    2    0    0 -0.34636025002E+02  0.14410679339E+03  0.64856603370E+02  0.20444510542E+03  0.12500000000E+03 0.  0.
         25    1    1    2    0    0  0.11314809459E+02 -0.11109363842E+03 -0.79691068552E+02  0.18559495634E+03  0.12500000000E+03 0.  0.
</event>
<event>
 5    0  0.5547141E-005  0.4421247E+03  0.7546771E-02  0.1030097E+00
         21   -1    0    0  502  501  0.00000000000E+00  0.00000000000E+00  0.84374811552E+03  0.84374811552E+03  0.00000000000E+00 0. -1.
         21   -1    0    0  501  502 -0.00000000000E+00 -0.00000000000E+00 -0.23167373134E+03  0.23167373134E+03  0.00000000000E+00 0. -1.
         25    1    1    2    0    0  0.13758120735E+03 -0.33869281847E+03  0.28717524595E+03  0.48138969223E+03  0.12500000000E+03 0.  0.
         25    1    1    2    0    0 -0.77898888823E+02  0.90800006044E+02  0.14954060000E+02  0.17367067078E+03  0.12500000000E+03 0.  0.
         25    1    1    2    0    0 -0.59682318528E+02  0.24789281242E+03  0.30994507823E+03  0.42036148386E+03  0.12500000000E+03 0.  0.
</event>
<event>
 5    0  0.5547141E-005  0.3909137E+03  0.7546771E-02  0.1046972E+00
         21   -1    0    0  502  501  0.00000000000E+00  0.00000000000E+00  0.12721230743E+04  0.12721230743E+04  0.00000000000E+00 0.  1.
         21   -1    0    0  501  502 -0.00000000000E+00 -0.00000000000E+00 -0.12012480272E+03  0.12012480272E+03  0.00000000000E+00 0.  1.
         25    1    1    2    0    0  0.97447063128E+02  0.13654845791E+03  0.32688363485E+03  0.38809705256E+03  0.12500000000E+03 0.  0.
         25    1    1    2    0    0 -0.29400441807E+03 -0.93612019706E+02  0.52781896920E+03  0.62403499287E+03  0.12500000000E+03 0.  0.
         25    1    1    2    0    0  0.19655735494E+03 -0.42936438205E+02  0.29729566756E+03  0.38011583164E+03  0.12500000000E+03 0.  0.
</event>
<event>
 5    0  0.5547141E-005  0.5246574E+03  0.7546771E-02  0.1007536E+00
         21   -1    0    0  502  501  0.00000000000E+00  0.00000000000E+00  0.49795284630E+03  0.49795284630E+03  0.00000000000E+00 0. -1.
         21   -1    0    0  501  502 -0.00000000000E+00 -0.00000000000E+00 -0.55279418322E+03  0.55279418322E+03  0.00000000000E+00 0. -1.
         25    1    1    2    0    0  0.21789618601E+03 -0.21352877380E+02  0.77334373662E+02  0.26370494610E+03  0.12500000000E+03 0.  0.
         25    1    1    2    0    0 -0.38448656229E+03 -0.19843362311E+03 -0.17106654491E+03  0.48176195590E+03  0.12500000000E+03 0.  0.
         25    1    1    2    0    0  0.16659037629E+03  0.21978650049E+03  0.38890834325E+02  0.30528012752E+03  0.12500000000E+03 0.  0.
</event>
<event>
 5    0  0.5547141E-005  0.3199484E+03  0.7546771E-02  0.1075673E+00
         21   -1    0    0  502  501  0.00000000000E+00  0.00000000000E+00  0.36182509089E+03  0.36182509089E+03  0.00000000000E+00 0. -1.
         21   -1    0    0  501  502 -0.00000000000E+00 -0.00000000000E+00 -0.28291844012E+03  0.28291844012E+03  0.00000000000E+00 0. -1.
         25    1    1    2    0    0 -0.11388824277E+03  0.53689226517E+02 -0.51341237799E+02  0.18469972275E+03  0.12500000000E+03 0.  0.
         25    1    1    2    0    0  0.98298852679E+02 -0.15674567446E+03  0.18327348765E+03  0.28887028607E+03  0.12500000000E+03 0.  0.
         25    1    1    2    0    0  0.15589390087E+02  0.10305644794E+03 -0.53025599079E+02  0.17117352220E+03  0.12500000000E+03 0.  0.
</event>
<event>
 5    0  0.5547141E-005  0.2462594E+03  0.7546771E-02  0.1115692E+00
         21   -1    0    0  502  501  0.00000000000E+00  0.00000000000E+00  0.69758187858E+03  0.69758187858E+03  0.00000000000E+00 0. -1.
         21   -1    0    0  501  502 -0.00000000000E+00 -0.00000000000E+00 -0.86934162592E+02  0.86934162592E+02  0.00000000000E+00 0. -1.
         25    1    1    2    0    0  0.13810238825E+02  0.16007476435E+02  0.16654625198E+03  0.20930746773E+03  0.12500000000E+03 0.  0.
         25    1    1    2    0    0  0.47504441434E+02 -0.11500543058E+03  0.31522450361E+03  0.36121241493E+03  0.12500000000E+03 0.  0.
         25    1    1    2    0    0 -0.61314680259E+02  0.98997954144E+02  0.12887696040E+03  0.21399615852E+03  0.12500000000E+03 0.  0.
</event>
<event>
 5    0  0.5547141E-005  0.2327385E+03  0.7546771E-02  0.1124727E+00
         21   -1    0    0  502  501  0.00000000000E+00  0.00000000000E+00  0.53953809269E+03  0.53953809269E+03  0.00000000000E+00 0. -1.
         21   -1    0    0  501  502 -0.00000000000E+00 -0.00000000000E+00 -0.10039550966E+03  0.10039550966E+03  0.00000000000E+00 0. -1.
         25    1    1    2    0    0 -0.64570067597E+02 -0.46779790076E+02  0.12873157540E+03  0.19635289887E+03  0.12500000000E+03 0.  0.
         25    1    1    2    0    0  0.17637755706E+02  0.18474978596E+02  0.27411213685E+03  0.30234893555E+03  0.12500000000E+03 0.  0.
         25    1    1    2    0    0  0.46932311891E+02  0.28304811481E+02  0.36298870776E+02  0.14123176793E+03  0.12500000000E+03 0.  0.
</event>
<event>
 5    0  0.5547141E-005  0.2750760E+03  0.7546771E-02  0.1098409E+00
         21   -1    0    0  502  501  0.00000000000E+00  0.00000000000E+00  0.35912952524E+03  0.35912952524E+03  0.00000000000E+00 0.  1.
         21   -1    0    0  501  502 -0.00000000000E+00 -0.00000000000E+00 -0.21069509827E+03  0.21069509827E+03  0.00000000000E+00 0.  1.
         25    1    1    2    0    0  0.14402543472E+02  0.89874268702E+01  0.50907354750E+02  0.13603222364E+03  0.12500000000E+03 0.  0.
         25    1    1    2    0    0 -0.79897064310E+02 -0.12083175145E+03 -0.53612150053E+02  0.19870358748E+03  0.12500000000E+03 0.  0.
         25    1    1    2    0    0  0.65494520838E+02  0.11184432458E+03  0.15113922228E+03  0.23508881239E+03  0.12500000000E+03 0.  0.
</event>
<event>
 5    0  0.6394384E-005  0.3561213E+03  0.7546771E-02  0.1060130E+00
         21   -1    0    0  502  501  0.00000000000E+00  0.00000000000E+00  0.48910764820E+03  0.48910764820E+03  0.00000000000E+00 0. -1.
         21   -1    0    0  501  502 -0.00000000000E+00 -0.00000000000E+00 -0.25929334722E+03  0.25929334722E+03  0.00000000000E+00 0. -1.
         25    1    1    2    0    0  0.20026532661E+03  0.19317705659E+03  0.10680573965E+03  0.32319660001E+03  0.12500000000E+03 0.  0.
         25    1    1    2    0    0 -0.86705272796E+02 -0.84793662360E+02  0.14050699207E+03  0.22377440499E+03  0.12500000000E+03 0.  0.
         25    1    1    2    0    0 -0.11356005381E+03 -0.10838339423E+03 -0.17498430736E+02  0.20142999043E+03  0.12500000000E+03 0.  0.
</event>
<event>
 5    0  0.5547141E-005  0.2704183E+03  0.7546771E-02  0.1101040E+00
         21   -1    0    0  502  501  0.00000000000E+00  0.00000000000E+00  0.25710871559E+03  0.25710871559E+03  0.00000000000E+00 0. -1.
         21   -1    0    0  501  502 -0.00000000000E+00 -0.00000000000E+00 -0.28441686227E+03  0.28441686227E+03  0.00000000000E+00 0. -1.
         25    1    1    2    0    0  0.12553982628E+03 -0.87746670324E+02  0.95501102463E+00  0.19770088058E+03  0.12500000000E+03 0.  0.
         25    1    1    2    0    0 -0.70125711727E+02 -0.34407554274E+02 -0.57385578684E+02  0.15817585112E+03  0.12500000000E+03 0.  0.
         25    1    1    2    0    0 -0.55414114550E+02  0.12215422460E+03  0.29122420979E+02  0.18564884616E+03  0.12500000000E+03 0.  0.
</event>
<event>
 5    0  0.5547141E-005  0.3491346E+03  0.7546771E-02  0.1062971E+00
         21   -1    0    0  502  501  0.00000000000E+00  0.00000000000E+00  0.21847526889E+03  0.21847526889E+03  0.00000000000E+00 0.  1.
         21   -1    0    0  501  502 -0.00000000000E+00 -0.00000000000E+00 -0.55793489091E+03  0.55793489091E+03  0.00000000000E+00 0.  1.
         25    1    1    2    0    0 -0.21631062138E+03 -0.36497051922E+02 -0.29952949677E+03  0.39174639648E+03  0.12500000000E+03 0.  0.
         25    1    1    2    0    0  0.61466671963E+02 -0.38804486085E+02 -0.84210236086E+02  0.16733291297E+03  0.12500000000E+03 0.  0.
         25    1    1    2    0    0  0.15484394942E+03  0.75301538007E+02  0.44280110831E+02  0.21733085035E+03  0.12500000000E+03 0.  0.
</event>
<event>
 5    0  0.6755386E-005  0.3015412E+03  0.7546771E-02  0.1084473E+00
         21   -1    0    0  502  501  0.00000000000E+00  0.00000000000E+00  0.57304652703E+03  0.57304652703E+03  0.00000000000E+00 0.  1.
         21   -1    0    0  501  502 -0.00000000000E+00 -0.00000000000E+00 -0.15867309953E+03  0.15867309953E+03  0.00000000000E+00 0.  1.
         25    1    1    2    0    0 -0.18624831154E+03 -0.26935798466E+02  0.30215758451E+03  0.37727732064E+03  0.12500000000E+03 0.  0.
         25    1    1    2    0    0  0.15584307951E+03  0.19363659455E+02  0.10206390706E+03  0.22517561560E+03  0.12500000000E+03 0.  0.
         25    1    1    2    0    0  0.30405232031E+02  0.75721390108E+01  0.10151935939E+02  0.12926669032E+03  0.12500000000E+03 0.  0.
</event>
<event>
 5    0  0.5547141E-005  0.6434653E+03  0.7546771E-02  0.9819119E-01
         21   -1    0    0  502  501  0.00000000000E+00  0.00000000000E+00  0.68625425407E+03  0.68625425407E+03  0.00000000000E+00 0.  1.
         21   -1    0    0  501  502 -0.00000000000E+00 -0.00000000000E+00 -0.60334433500E+03  0.60334433500E+03  0.00000000000E+00 0.  1.
         25    1    1    2    0    0 -0.16071045462E+03  0.31941800977E+03 -0.22071123223E+03  0.43839954747E+03  0.12500000000E+03 0.  0.
         25    1    1    2    0    0 -0.39416875009E+02 -0.32759519646E+02 -0.19024683089E+03  0.23333609413E+03  0.12500000000E+03 0.  0.
         25    1    1    2    0    0  0.20012732963E+03 -0.28665849012E+03  0.49386798219E+03  0.61786294747E+03  0.12500000000E+03 0.  0.
</event>
<event>
 5    0  0.5547141E-005  0.5521422E+03  0.7546771E-02  0.1000999E+00
         21   -1    0    0  502  501  0.00000000000E+00  0.00000000000E+00  0.80323771930E+03  0.80323771930E+03  0.00000000000E+00 0. -1.
         21   -1    0    0  501  502 -0.00000000000E+00 -0.00000000000E+00 -0.37954021724E+03  0.37954021724E+03  0.00000000000E+00 0. -1.
         25    1    1    2    0    0  0.40847524094E+03  0.21465003582E+03  0.32163040725E+03  0.57619248451E+03  0.12500000000E+03 0.  0.
         25    1    1    2    0    0 -0.29259772697E+03 -0.28773592567E+02  0.14485835632E+03  0.35078525176E+03  0.12500000000E+03 0.  0.
         25    1    1    2    0    0 -0.11587751397E+03 -0.18587644325E+03 -0.42791261508E+02  0.25580020028E+03  0.12500000000E+03 0.  0.
</event>
<event>
 5    0  0.5547141E-005  0.3093413E+03  0.7546771E-02  0.1080662E+00
         21   -1    0    0  502  501  0.00000000000E+00  0.00000000000E+00  0.47518180962E+03  0.47518180962E+03  0.00000000000E+00 0. -1.
         21   -1    0    0  501  502 -0.00000000000E+00 -0.00000000000E+00 -0.20137990761E+03  0.20137990761E+03  0.00000000000E+00 0. -1.
         25    1    1    2    0    0 -0.16814575589E+02  0.96579533729E+01  0.10512132851E+03  0.16447340127E+03  0.12500000000E+03 0.  0.
         25    1    1    2    0    0 -0.10211220655E+02  0.16126607031E+03 -0.45923100234E+02  0.20939184701E+03  0.12500000000E+03 0.  0.
         25    1    1    2    0    0  0.27025796244E+02 -0.17092402368E+03  0.21460367374E+03  0.30269646895E+03  0.12500000000E+03 0.  0.
</event>
<event>
 5    0  0.5547141E-005  0.2937614E+03  0.7546771E-02  0.1088401E+00
         21   -1    0    0  502  501  0.00000000000E+00  0.00000000000E+00  0.27212171155E+03  0.27212171155E+03  0.00000000000E+00 0. -1.
         21   -1    0    0  501  502 -0.00000000000E+00 -0.00000000000E+00 -0.31712183341E+03  0.31712183341E+03  0.00000000000E+00 0. -1.
         25    1    1    2    0    0 -0.86338161808E+02  0.16859432365E+03 -0.65649141682E+01  0.22703837175E+03  0.12500000000E+03 0.  0.
         25    1    1    2    0    0 -0.42033778488E+02 -0.45672706335E+02  0.88077432941E+01  0.13984066283E+03  0.12500000000E+03 0.  0.
         25    1    1    2    0    0  0.12837194030E+03 -0.12292161731E+03 -0.47242950979E+02  0.22236451038E+03  0.12500000000E+03 0.  0.
</event>
<event>
 5    0  0.5547141E-005  0.2493330E+03  0.7546771E-02  0.1113727E+00
         21   -1    0    0  502  501  0.00000000000E+00  0.00000000000E+00  0.34124478888E+03  0.34124478888E+03  0.00000000000E+00 0. -1.
         21   -1    0    0  501  502 -0.00000000000E+00 -0.00000000000E+00 -0.18217694315E+03  0.18217694315E+03  0.00000000000E+00 0. -1.
         25    1    1    2    0    0 -0.69198104430E+02  0.29641275285E+01  0.55155211289E+02  0.15318048518E+03  0.12500000000E+03 0.  0.
         25    1    1    2    0    0 -0.29046149667E+02 -0.89588608439E+02  0.10625945076E+03  0.18917153181E+03  0.12500000000E+03 0.  0.
         25    1    1    2    0    0  0.98244254097E+02  0.86624480910E+02 -0.23468163140E+01  0.18106971504E+03  0.12500000000E+03 0.  0.
</event>
<event>
 5    0  0.5547141E-005  0.2649689E+03  0.7546771E-02  0.1104194E+00
         21   -1    0    0  502  501  0.00000000000E+00  0.00000000000E+00  0.10866903420E+03  0.10866903420E+03  0.00000000000E+00 0. -1.
         21   -1    0    0  501  502 -0.00000000000E+00 -0.00000000000E+00 -0.64607671763E+03  0.64607671763E+03  0.00000000000E+00 0. -1.
         25    1    1    2    0    0  0.78136041197E+02 -0.24327643824E+02 -0.49617470789E+02  0.15742924949E+03  0.12500000000E+03 0.  0.
         25    1    1    2    0    0  0.70892237740E+02 -0.15649823032E+02 -0.17735130311E+03  0.22879928114E+03  0.12500000000E+03 0.  0.
         25    1    1    2    0    0 -0.14902827894E+03  0.39977466856E+02 -0.31043890953E+03  0.36851722121E+03  0.12500000000E+03 0.  0.
</event>
<event>
 5    0  0.5547141E-005  0.2889761E+03  0.7546771E-02  0.1090885E+00
         21   -1    0    0  502  501  0.00000000000E+00  0.00000000000E+00  0.16500174930E+04  0.16500174930E+04  0.00000000000E+00 0.  1.
         21   -1    0    0  501  502 -0.00000000000E+00 -0.00000000000E+00 -0.50609887426E+02  0.50609887426E+02  0.00000000000E+00 0.  1.
         25    1    1    2    0    0  0.22445634435E+02  0.39832263829E+02  0.13183601049E+03  0.18733966320E+03  0.12500000000E+03 0.  0.
         25    1    1    2    0    0  0.99598686168E+02 -0.86278230316E+02  0.87956010854E+03  0.89811737310E+03  0.12500000000E+03 0.  0.
         25    1    1    2    0    0 -0.12204432060E+03  0.46445966487E+02  0.58801148657E+03  0.61517034415E+03  0.12500000000E+03 0.  0.
</event>
<event>
 5    0  0.5547141E-005  0.2572388E+03  0.7546771E-02  0.1108814E+00
         21   -1    0    0  502  501  0.00000000000E+00  0.00000000000E+00  0.28931044113E+04  0.28931044113E+04  0.00000000000E+00 0.  1.
         21   -1    0    0  501  502 -0.00000000000E+00 -0.00000000000E+00 -0.22872252551E+02  0.22872252551E+02  0.00000000000E+00 0.  1.
         25    1    1    2    0    0 -0.44910664587E+02 -0.10802495509E+03  0.61872835278E+03  0.64197829656E+03  0.12500000000E+03 0.  0.
         25    1    1    2    0    0  0.69968192275E+02  0.18389243427E+02  0.70365468150E+03  0.71832348075E+03  0.12500000000E+03 0.  0.
         25    1    1    2    0    0 -0.25057527688E+02  0.89635711660E+02  0.15478491244E+04  0.15556748865E+04  0.12500000000E+03 0.  0.
</event>
<event>
 5    0  0.5547141E-005  0.2844605E+03  0.7546771E-02  0.1093277E+00
         21   -1    0    0  502  501  0.00000000000E+00  0.00000000000E+00  0.17667970918E+03  0.17667970918E+03  0.00000000000E+00 0. -1.
         21   -1    0    0  501  502 -0.00000000000E+00 -0.00000000000E+00 -0.45799124625E+03  0.45799124625E+03  0.00000000000E+00 0. -1.
         25    1    1    2    0    0  0.20150891182E+03 -0.18821750069E+02 -0.11700319214E+03  0.26509403387E+03  0.12500000000E+03 0.  0.
         25    1    1    2    0    0 -0.11401492559E+03  0.47112830024E+02 -0.94242428701E+02  0.19931296340E+03  0.12500000000E+03 0.  0.
         25    1    1    2    0    0 -0.87493986231E+02 -0.28291079955E+02 -0.70065916228E+02  0.17026395816E+03  0.12500000000E+03 0.  0.
</event>
<event>
 5    0  0.8988210E-005  0.8604111E+03  0.7546771E-02  0.9476469E-01
         21   -1    0    0  502  501  0.00000000000E+00  0.00000000000E+00  0.45704611829E+03  0.45704611829E+03  0.00000000000E+00 0.  1.
         21   -1    0    0  501  502 -0.00000000000E+00 -0.00000000000E+00 -0.16197648585E+04  0.16197648585E+04  0.00000000000E+00 0.  1.
         25    1    1    2    0    0  0.32713646569E+03 -0.51342556813E+03 -0.11353118606E+03  0.63177401926E+03  0.12500000000E+03 0.  0.
         25    1    1    2    0    0  0.19859292860E+02  0.56878884158E+03 -0.82451489335E+03  0.10096360469E+04  0.12500000000E+03 0.  0.
         25    1    1    2    0    0 -0.34699575856E+03 -0.55363273444E+02 -0.22467266083E+03  0.43540091069E+03  0.12500000000E+03 0.  0.
</event>
<event>
 5    0  0.5547141E-005  0.3878945E+03  0.7546771E-02  0.1048054E+00
         21   -1    0    0  502  501  0.00000000000E+00  0.00000000000E+00  0.13190015142E+03  0.13190015142E+03  0.00000000000E+00 0. -1.
         21   -1    0    0  501  502 -0.00000000000E+00 -0.00000000000E+00 -0.11407275081E+04  0.11407275081E+04  0.00000000000E+00 0. -1.
         25    1    1    2    0    0  0.14866182335E+03 -0.90103792449E+02 -0.14138923923E+03  0.25658321867E+03  0.12500000000E+03 0.  0.
         25    1    1    2    0    0 -0.25996168742E+03 -0.12208466819E+01 -0.71805969785E+03  0.77383221636E+03  0.12500000000E+03 0.  0.
         25    1    1    2    0    0  0.11129986407E+03  0.91324639131E+02 -0.14937841963E+03  0.24221222452E+03  0.12500000000E+03 0.  0.
</event>
<event>
 5    0  0.5547141E-005  0.3419229E+03  0.7546771E-02  0.1065980E+00
         21   -1    0    0  502  501  0.00000000000E+00  0.00000000000E+00  0.16807391920E+04  0.16807391920E+04  0.00000000000E+00 0. -1.
         21   -1    0    0  501  502 -0.00000000000E+00 -0.00000000000E+00 -0.69559420695E+02  0.69559420695E+02  0.00000000000E+00 0. -1.
         25    1    1    2    0    0  0.72358355834E+02  0.45094857769E+01  0.14426393915E+03  0.20418900867E+03  0.12500000000E+03 0.  0.
         25    1    1    2    0    0  0.13935275334E+03 -0.91126383075E+02  0.44226826368E+03  0.48882453357E+03  0.12500000000E+03 0.  0.
         25    1    1    2    0    0 -0.21171110918E+03  0.86616897298E+02  0.10246475685E+04  0.10572850704E+04  0.12500000000E+03 0.  0.
</event>
<event>
 5    0  0.5547141E-005  0.1258865E+04  0.7546771E-02  0.9062837E-01
         21   -1    0    0  502  501  0.00000000000E+00  0.00000000000E+00  0.23415015322E+04  0.23415015322E+04  0.00000000000E+00 0. -1.
         21   -1    0    0  501  502 -0.00000000000E+00 -0.00000000000E+00 -0.67680574991E+03  0.67680574991E+03  0.00000000000E+00 0. -1.
         25    1    1    2    0    0 -0.32079461189E+03 -0.16703153030E+03  0.12020921259E+04  0.12615304968E+04  0.12500000000E+03 0.  0.
         25    1    1    2    0    0 -0.58758406926E+03  0.29354979586E+02  0.56338051033E+03  0.82409911582E+03  0.12500000000E+03 0.  0.
         25    1    1    2    0    0  0.90837868115E+03  0.13767655071E+03 -0.10077685391E+03  0.93267766955E+03  0.12500000000E+03 0.  0.
</event>
<event>
 5    0  0.5547141E-005  0.3637060E+03  0.7546771E-02  0.1057126E+00
         21   -1    0    0  502  501  0.00000000000E+00  0.00000000000E+00  0.77702378660E+02  0.77702378660E+02  0.00000000000E+00 0. -1.
         21   -1    0    0  501  502 -0.00000000000E+00 -0.00000000000E+00 -0.17024197270E+04  0.17024197270E+04  0.00000000000E+00 0. -1.
         25    1    1    2    0    0 -0.59816912397E+02 -0.29009694040E+02 -0.95961756558E+03  0.97000541108E+03  0.12500000000E+03 0.  0.
         25    1    1    2    0    0 -0.52780787892E+01 -0.13775391797E+03 -0.11620841360E+03  0.21939324379E+03  0.12500000000E+03 0.  0.
         25    1    1    2    0    0  0.65094991187E+02  0.16676361201E+03 -0.54889136918E+03  0.59072345080E+03  0.12500000000E+03 0.  0.
</event>
<event>
 5    0  0.5547141E-005  0.2965724E+03  0.7546771E-02  0.1086967E+00
         21   -1    0    0  502  501  0.00000000000E+00  0.00000000000E+00  0.13669946719E+04  0.13669946719E+04  0.00000000000E+00 0. -1.
         21   -1    0    0  501  502 -0.00000000000E+00 -0.00000000000E+00 -0.64342002486E+02  0.64342002486E+02  0.00000000000E+00 0. -1.
         25    1    1    2    0    0 -0.97987731272E+02 -0.27879518023E+02  0.64133067736E+03  0.66129335451E+03  0.12500000000E+03 0.  0.
         25    1    1    2    0    0 -0.79419139967E+02  0.11010869821E+02  0.13584417614E+03  0.20126420258E+03  0.12500000000E+03 0.  0.
         25    1    1    2    0    0  0.17740687124E+03  0.16868648203E+02  0.52547781596E+03  0.56877911734E+03  0.12500000000E+03 0.  0.
</event>
<event>
 5    0  0.5547141E-005  0.4065834E+03  0.7546771E-02  0.1041524E+00
         21   -1    0    0  502  501  0.00000000000E+00  0.00000000000E+00  0.11513232663E+04  0.11513232663E+04  0.00000000000E+00 0. -1.
         21   -1    0    0  501  502 -0.00000000000E+00 -0.00000000000E+00 -0.14358263237E+03  0.14358263237E+03  0.00000000000E+00 0. -1.
         25    1    1    2    0    0  0.10587832091E+03  0.53209103527E+02  0.61542721220E+03  0.63907517637E+03  0.12500000000E+03 0.  0.
         25    1    1    2    0    0 -0.18493605162E+03 -0.87795967158E+02  0.43613495463E+03  0.49774308000E+03  0.12500000000E+03 0.  0.
         25    1    1    2    0    0  0.79057730703E+02  0.34586863631E+02 -0.43821532851E+02  0.15808764234E+03  0.12500000000E+03 0.  0.
</event>
<event>
 5    0  0.5547141E-005  0.3025849E+03  0.7546771E-02  0.1083956E+00
         21   -1    0    0  502  501  0.00000000000E+00  0.00000000000E+00  0.35601229003E+04  0.35601229003E+04  0.00000000000E+00 0.  1.
         21   -1    0    0  501  502 -0.00000000000E+00 -0.00000000000E+00 -0.25717544947E+02  0.25717544947E+02  0.00000000000E+00 0. -1.
         25    1    1    2    0    0 -0.54161491430E+02 -0.19558722117E+03  0.19960954400E+04  0.20102760591E+04  0.12500000000E+03 0.  0.
         25    1    1    2    0    0  0.24055113551E+02  0.64100113268E+02  0.90280451292E+03  0.91398493508E+03  0.12500000000E+03 0.  0.
         25    1    1    2    0    0  0.30106377879E+02  0.13148710790E+03  0.63550540239E+03  0.66157945101E+03  0.12500000000E+03 0.  0.
</event>
<event>
 5    0  0.5547141E-005  0.4231019E+03  0.7546771E-02  0.1036061E+00
         21   -1    0    0  502  501  0.00000000000E+00  0.00000000000E+00  0.80385774212E+02  0.80385774212E+02  0.00000000000E+00 0. -1.
         21   -1    0    0  501  502 -0.00000000000E+00 -0.00000000000E+00 -0.22269510397E+04  0.22269510397E+04  0.00000000000E+00 0. -1.
         25    1    1    2    0    0  0.20691829793E+01  0.27377658511E+02 -0.13279080210E+04  0.13340609169E+04  0.12500000000E+03 0.  0.
         25    1    1    2    0    0 -0.11632018905E+03 -0.21265394789E+03 -0.47476568546E+03  0.54752127267E+03  0.12500000000E+03 0.  0.
         25    1    1    2    0    0  0.11425100607E+03  0.18527628938E+03 -0.34389155901E+03  0.42575462435E+03  0.12500000000E+03 0.  0.
</event>
<event>
 5    0  0.5547141E-005  0.2513423E+03  0.7546771E-02  0.1112459E+00
         21   -1    0    0  502  501  0.00000000000E+00  0.00000000000E+00  0.46622950171E+03  0.46622950171E+03  0.00000000000E+00 0.  1.
         21   -1    0    0  501  502 -0.00000000000E+00 -0.00000000000E+00 -0.13549752865E+03  0.13549752865E+03  0.00000000000E+00 0.  1.
         25    1    1    2    0    0  0.84193759734E+02 -0.12908646509E+02  0.11832728327E+03  0.19204574533E+03  0.12500000000E+03 0.  0.
         25    1    1    2    0    0  0.41382008647E+02  0.83093506557E+02  0.12662089887E+03  0.20068595741E+03  0.12500000000E+03 0.  0.
         25    1    1    2    0    0 -0.12557576838E+03 -0.70184860048E+02  0.85783790921E+02  0.20899532763E+03  0.12500000000E+03 0.  0.
</event>
<event>
 5    0  0.5547141E-005  0.2227100E+03  0.7546771E-02  0.1131879E+00
         21   -1    0    0  502  501  0.00000000000E+00  0.00000000000E+00  0.18610457058E+03  0.18610457058E+03  0.00000000000E+00 0. -1.
         21   -1    0    0  501  502 -0.00000000000E+00 -0.00000000000E+00 -0.26651536959E+03  0.26651536959E+03  0.00000000000E+00 0. -1.
         25    1    1    2    0    0 -0.60122532663E+02 -0.13131423747E+02 -0.23013240409E+02  0.14121530532E+03  0.12500000000E+03 0.  0.
         25    1    1    2    0    0  0.63907071502E+02 -0.42271552575E+02  0.29229204547E+02  0.14950031553E+03  0.12500000000E+03 0.  0.
         25    1    1    2    0    0 -0.37845388396E+01  0.55402976322E+02 -0.86626763144E+02  0.16190431931E+03  0.12500000000E+03 0.  0.
</event>
<event>
 5    0  0.5547141E-005  0.3549792E+03  0.7546771E-02  0.1060590E+00
         21   -1    0    0  502  501  0.00000000000E+00  0.00000000000E+00  0.50576389680E+03  0.50576389680E+03  0.00000000000E+00 0. -1.
         21   -1    0    0  501  502 -0.00000000000E+00 -0.00000000000E+00 -0.24914835693E+03  0.24914835693E+03  0.00000000000E+00 0. -1.
         25    1    1    2    0    0  0.83567639809E+02  0.38227977362E+02  0.10255766279E+03  0.18597850110E+03  0.12500000000E+03 0.  0.
         25    1    1    2    0    0 -0.15848496960E+03 -0.22393686023E+01 -0.13526377070E+03  0.24298927554E+03  0.12500000000E+03 0.  0.
         25    1    1    2    0    0  0.74917329794E+02 -0.35988608760E+02  0.28932164779E+03  0.32594447709E+03  0.12500000000E+03 0.  0.
</event>
<event>
 5    0  0.5547141E-005  0.2467915E+03  0.7546771E-02  0.1115349E+00
         21   -1    0    0  502  501  0.00000000000E+00  0.00000000000E+00  0.48016139083E+03  0.48016139083E+03  0.00000000000E+00 0.  1.
         21   -1    0    0  501  502 -0.00000000000E+00 -0.00000000000E+00 -0.12684497148E+03  0.12684497148E+03  0.00000000000E+00 0.  1.
         25    1    1    2    0    0 -0.25872886923E+02  0.11109856879E+03  0.18043193438E+03  0.24737215124E+03  0.12500000000E+03 0.  0.
         25    1    1    2    0    0 -0.46456276128E+02 -0.98043176503E+02  0.12326361375E+03  0.20637240253E+03  0.12500000000E+03 0.  0.
         25    1    1    2    0    0  0.72329163051E+02 -0.13055392292E+02  0.49620871221E+02  0.15326180854E+03  0.12500000000E+03 0.  0.
</event>
<event>
 5    0  0.5547141E-005  0.3526403E+03  0.7546771E-02  0.1061537E+00
         21   -1    0    0  502  501  0.00000000000E+00  0.00000000000E+00  0.15566390172E+03  0.15566390172E+03  0.00000000000E+00 0. -1.
         21   -1    0    0  501  502 -0.00000000000E+00 -0.00000000000E+00 -0.79886954397E+03  0.79886954397E+03  0.00000000000E+00 0. -1.
         25    1    1    2    0    0  0.11314744159E+03  0.42590016415E+02 -0.11555233537E+03  0.20879079301E+03  0.12500000000E+03 0.  0.
         25    1    1    2    0    0 -0.26988158442E+03  0.40081285451E+01 -0.19872424945E+03  0.35772679802E+03  0.12500000000E+03 0.  0.
         25    1    1    2    0    0  0.15673414283E+03 -0.46598144960E+02 -0.32892905743E+03  0.38801585465E+03  0.12500000000E+03 0.  0.
</event>
<event>
 5    0  0.5547141E-005  0.3385200E+03  0.7546771E-02  0.1067428E+00
         21   -1    0    0  502  501  0.00000000000E+00  0.00000000000E+00  0.26731896079E+03  0.26731896079E+03  0.00000000000E+00 0.  1.
         21   -1    0    0  501  502 -0.00000000000E+00 -0.00000000000E+00 -0.42868552729E+03  0.42868552729E+03  0.00000000000E+00 0.  1.
         25    1    1    2    0    0  0.16191242829E+03 -0.85733758617E+01  0.10994908066E+03  0.23238532128E+03  0.12500000000E+03 0.  0.
         25    1    1    2    0    0 -0.19403949402E+03  0.39739474789E+02 -0.12296283046E+03  0.26452865397E+03  0.12500000000E+03 0.  0.
         25    1    1    2    0    0  0.32127065726E+02 -0.31166098927E+02 -0.14835281671E+03  0.19909051283E+03  0.12500000000E+03 0.  0.
</event>
<event>
 5    0  0.5547141E-005  0.3342698E+03  0.7546771E-02  0.1069263E+00
         21   -1    0    0  502  501  0.00000000000E+00  0.00000000000E+00  0.48009214982E+03  0.48009214982E+03  0.00000000000E+00 0.  1.
         21   -1    0    0  501  502 -0.00000000000E+00 -0.00000000000E+00 -0.23273920956E+03  0.23273920956E+03  0.00000000000E+00 0.  1.
         25    1    1    2    0    0 -0.14426571107E+03  0.56715410141E+01  0.40465909668E+02  0.19521078764E+03  0.12500000000E+03 0.  0.
         25    1    1    2    0    0  0.11767498603E+03  0.80388678568E+02 -0.68913502733E+02  0.20170228763E+03  0.12500000000E+03 0.  0.
         25    1    1    2    0    0  0.26590725042E+02 -0.86060219582E+02  0.27580053332E+03  0.31591828411E+03  0.12500000000E+03 0.  0.
</event>
<event>
 5    0  0.5547141E-005  0.3878282E+03  0.7546771E-02  0.1048078E+00
         21   -1    0    0  502  501  0.00000000000E+00  0.00000000000E+00  0.26245726932E+03  0.26245726932E+03  0.00000000000E+00 0.  1.
         21   -1    0    0  501  502 -0.00000000000E+00 -0.00000000000E+00 -0.57308640242E+03  0.57308640242E+03  0.00000000000E+00 0.  1.
         25    1    1    2    0    0 -0.17113093897E+02 -0.12208744804E+03 -0.10278724411E+03  0.20344144245E+03  0.12500000000E+03 0.  0.
         25    1    1    2    0    0  0.19963485784E+03  0.16526032943E+03  0.47372554143E+02  0.29160626165E+03  0.12500000000E+03 0.  0.
         25    1    1    2    0    0 -0.18252176395E+03 -0.43172881383E+02 -0.25521444312E+03  0.34049596764E+03  0.12500000000E+03 0.  0.
</event>
<event>
 5    0  0.5547141E-005  0.3013794E+03  0.7546771E-02  0.1084553E+00
         21   -1    0    0  502  501  0.00000000000E+00  0.00000000000E+00  0.94589177900E+02  0.94589177900E+02  0.00000000000E+00 0.  1.
         21   -1    0    0  501  502 -0.00000000000E+00 -0.00000000000E+00 -0.96025280230E+03  0.96025280230E+03  0.00000000000E+00 0. -1.
         25    1    1    2    0    0  0.15932159818E+03  0.32206369765E+02 -0.12864785221E+03  0.24206588313E+03  0.12500000000E+03 0.  0.
         25    1    1    2    0    0 -0.17171741200E+02 -0.62868166641E+02 -0.21943064012E+03  0.26081043096E+03  0.12500000000E+03 0.  0.
         25    1    1    2    0    0 -0.14214985697E+03  0.30661796876E+02 -0.51758513207E+03  0.55196566611E+03  0.12500000000E+03 0.  0.
</event>
<event>
 5    0  0.5547141E-005  0.2804174E+03  0.7546771E-02  0.1095461E+00
         21   -1    0    0  502  501  0.00000000000E+00  0.00000000000E+00  0.12861855761E+03  0.12861855761E+03  0.00000000000E+00 0. -1.
         21   -1    0    0  501  502 -0.00000000000E+00 -0.00000000000E+00 -0.61137301757E+03  0.61137301757E+03  0.00000000000E+00 0. -1.
         25    1    1    2    0    0  0.10374631696E+03  0.87585690354E+02 -0.28785604043E+03  0.34193661905E+03  0.12500000000E+03 0.  0.
         25    1    1    2    0    0 -0.19665175543E+02  0.35490900170E+02 -0.13572027960E+02  0.13211935160E+03  0.12500000000E+03 0.  0.
         25    1    1    2    0    0 -0.84081141418E+02 -0.12307659052E+03 -0.18132639157E+03  0.26593560453E+03  0.12500000000E+03 0.  0.
</event>
<event>
 5    0  0.6493067E-005  0.2909764E+03  0.7546771E-02  0.1089840E+00
         21   -1    0    0  502  501  0.00000000000E+00  0.00000000000E+00  0.15008174462E+03  0.15008174462E+03  0.00000000000E+00 0. -1.
         21   -1    0    0  501  502 -0.00000000000E+00 -0.00000000000E+00 -0.56414082987E+03  0.56414082987E+03  0.00000000000E+00 0. -1.
         25    1    1    2    0    0 -0.43623794777E+02 -0.52474615159E+02  0.15340842726E+02  0.14323743283E+03  0.12500000000E+03 0.  0.
         25    1    1    2    0    0 -0.53848346440E+02  0.13888646133E+03 -0.24682220824E+03  0.31422173069E+03  0.12500000000E+03 0.  0.
         25    1    1    2    0    0  0.97472141217E+02 -0.86411846171E+02 -0.18257771974E+03  0.25676341098E+03  0.12500000000E+03 0.  0.
</event>
<event>
 5    0  0.5547141E-005  0.3229255E+03  0.7546771E-02  0.1074311E+00
         21   -1    0    0  502  501  0.00000000000E+00  0.00000000000E+00  0.46854713995E+02  0.46854713995E+02  0.00000000000E+00 0. -1.
         21   -1    0    0  501  502 -0.00000000000E+00 -0.00000000000E+00 -0.22256223226E+04  0.22256223226E+04  0.00000000000E+00 0. -1.
         25    1    1    2    0    0  0.13738331069E+03  0.17032813818E+03 -0.10370311271E+04  0.10672133842E+04  0.12500000000E+03 0.  0.
         25    1    1    2    0    0 -0.64549271408E+02 -0.18505119691E+03 -0.57601547593E+03  0.62115165816E+03  0.12500000000E+03 0.  0.
         25    1    1    2    0    0 -0.72834039284E+02  0.14723058726E+02 -0.56572100552E+03  0.58411199425E+03  0.12500000000E+03 0.  0.
</event>
<event>
 5    0  0.5547141E-005  0.2672869E+03  0.7546771E-02  0.1102842E+00
         21   -1    0    0  502  501  0.00000000000E+00  0.00000000000E+00  0.23750496714E+03  0.23750496714E+03  0.00000000000E+00 0. -1.
         21   -1    0    0  501  502 -0.00000000000E+00 -0.00000000000E+00 -0.30080333754E+03  0.30080333754E+03  0.00000000000E+00 0. -1.
         25    1    1    2    0    0 -0.41991881543E+02  0.22127869699E+01  0.63824985575E+02  0.14651567604E+03  0.12500000000E+03 0.  0.
         25    1    1    2    0    0  0.49077125757E+02 -0.10654387384E+03  0.19555483271E+02  0.17253283238E+03  0.12500000000E+03 0.  0.
         25    1    1    2    0    0 -0.70852442141E+01  0.10433108687E+03 -0.14667883925E+03  0.21925979626E+03  0.12500000000E+03 0.  0.
</event>
<event>
 5    0  0.5547141E-005  0.2051956E+03  0.7546771E-02  0.1145428E+00
         21   -1    0    0  502  501  0.00000000000E+00  0.00000000000E+00  0.65963857604E+02  0.65963857604E+02  0.00000000000E+00 0.  1.
         21   -1    0    0  501  502 -0.00000000000E+00 -0.00000000000E+00 -0.63830792701E+03  0.63830792701E+03  0.00000000000E+00 0.  1.
         25    1    1    2    0    0  0.12084009307E+01 -0.11815021002E+02 -0.17239388639E+03  0.21327378418E+03  0.12500000000E+03 0.  0.
         25    1    1    2    0    0  0.16570861296E+02 -0.53380126023E+02 -0.24566017107E+03  0.28124357939E+03  0.12500000000E+03 0.  0.
         25    1    1    2    0    0 -0.17779262227E+02  0.65195147025E+02 -0.15429001195E+03  0.20975442105E+03  0.12500000000E+03 0.  0.
</event>
<event>
 5    0  0.5547141E-005  0.6665777E+03  0.7546771E-02  0.9776160E-01
         21   -1    0    0  502  501  0.00000000000E+00  0.00000000000E+00  0.48017138523E+03  0.48017138523E+03  0.00000000000E+00 0. -1.
         21   -1    0    0  501  502 -0.00000000000E+00 -0.00000000000E+00 -0.92534842145E+03  0.92534842145E+03  0.00000000000E+00 0. -1.
         25    1    1    2    0    0  0.53560094419E+02  0.67199398330E+02  0.69913797706E+02  0.16702509380E+03  0.12500000000E+03 0.  0.
         25    1    1    2    0    0 -0.26657582493E+03 -0.30238823752E+02 -0.80391875891E+03  0.85667229897E+03  0.12500000000E+03 0.  0.
         25    1    1    2    0    0  0.21301573051E+03 -0.36960574579E+02  0.28882792498E+03  0.38182241391E+03  0.12500000000E+03 0.  0.
</event>
<event>
 5    0  0.5547141E-005  0.2437808E+03  0.7546771E-02  0.1117299E+00
         21   -1    0    0  502  501  0.00000000000E+00  0.00000000000E+00  0.60302369784E+02  0.60302369784E+02  0.00000000000E+00 0.  1.
         21   -1    0    0  501  502 -0.00000000000E+00 -0.00000000000E+00 -0.98551834386E+03  0.98551834386E+03  0.00000000000E+00 0.  1.
         25    1    1    2    0    0  0.50588448095E+01  0.64792644775E+02 -0.17568037528E+03  0.22519385646E+03  0.12500000000E+03 0.  0.
         25    1    1    2    0    0  0.56463323766E+02  0.42634921125E+02 -0.45928996508E+03  0.48122563882E+03  0.12500000000E+03 0.  0.
         25    1    1    2    0    0 -0.61522168575E+02 -0.10742756590E+03 -0.29024563371E+03  0.33940121837E+03  0.12500000000E+03 0.  0.
</event>
<event>
 5    0  0.5618633E-005  0.3130696E+03  0.7546771E-02  0.1078884E+00
         21   -1    0    0  502  501  0.00000000000E+00  0.00000000000E+00  0.27430077119E+03  0.27430077119E+03  0.00000000000E+00 0.  1.
         21   -1    0    0  501  502 -0.00000000000E+00 -0.00000000000E+00 -0.35731779359E+03  0.35731779359E+03  0.00000000000E+00 0.  1.
         25    1    1    2    0    0 -0.25053033712E+01 -0.10929591274E+03 -0.23052430022E+03  0.28410970782E+03  0.12500000000E+03 0.  0.
         25    1    1    2    0    0  0.27769326854E+01 -0.34909985824E+01  0.12640508019E+03  0.17782897043E+03  0.12500000000E+03 0.  0.
         25    1    1    2    0    0 -0.27162931420E+00  0.11278691132E+03  0.21102197623E+02  0.16967988653E+03  0.12500000000E+03 0.  0.
</event>
<event>
 5    0  0.5547141E-005  0.4943432E+03  0.7546771E-02  0.1015266E+00
         21   -1    0    0  502  501  0.00000000000E+00  0.00000000000E+00  0.53289083649E+03  0.53289083649E+03  0.00000000000E+00 0.  1.
         21   -1    0    0  501  502 -0.00000000000E+00 -0.00000000000E+00 -0.45858398936E+03  0.45858398936E+03  0.00000000000E+00 0.  1.
         25    1    1    2    0    0  0.28045470355E+03 -0.61289963487E+02 -0.46463121903E+02  0.31653613074E+03  0.12500000000E+03 0.  0.
         25    1    1    2    0    0  0.82317297335E+01 -0.21070972429E+03  0.76097509708E+02  0.25667524281E+03  0.12500000000E+03 0.  0.
         25    1    1    2    0    0 -0.28868643329E+03  0.27199968778E+03  0.44672459328E+02  0.41826345231E+03  0.12500000000E+03 0.  0.
</event>
<event>
 5    0  0.5547141E-005  0.3215442E+03  0.7546771E-02  0.1074941E+00
         21   -1    0    0  502  501  0.00000000000E+00  0.00000000000E+00  0.50619728342E+03  0.50619728342E+03  0.00000000000E+00 0.  1.
         21   -1    0    0  501  502 -0.00000000000E+00 -0.00000000000E+00 -0.20424973758E+03  0.20424973758E+03  0.00000000000E+00 0.  1.
         25    1    1    2    0    0  0.52883384690E+02  0.90899313581E+02 -0.11115995791E+03  0.19758763582E+03  0.12500000000E+03 0.  0.
         25    1    1    2    0    0  0.29944018236E+02 -0.19636357513E+02  0.12516062062E+03  0.18047828600E+03  0.12500000000E+03 0.  0.
         25    1    1    2    0    0 -0.82827402926E+02 -0.71262956067E+02  0.28794688314E+03  0.33238109918E+03  0.12500000000E+03 0.  0.
</event>
<event>
 5    0  0.5547141E-005  0.3340795E+03  0.7546771E-02  0.1069346E+00
         21   -1    0    0  502  501  0.00000000000E+00  0.00000000000E+00  0.10437564649E+04  0.10437564649E+04  0.00000000000E+00 0. -1.
         21   -1    0    0  501  502 -0.00000000000E+00 -0.00000000000E+00 -0.10693021727E+03  0.10693021727E+03  0.00000000000E+00 0. -1.
         25    1    1    2    0    0 -0.16800120581E+03  0.22032368777E+02  0.14956757658E+03  0.25827367344E+03  0.12500000000E+03 0.  0.
         25    1    1    2    0    0 -0.38017659289E+01  0.10862246397E+02  0.58124840557E+03  0.59464876255E+03  0.12500000000E+03 0.  0.
         25    1    1    2    0    0  0.17180297174E+03 -0.32894615175E+02  0.20601026544E+03  0.29776424613E+03  0.12500000000E+03 0.  0.
</event>
<event>
 5    0  0.5547141E-005  0.4121418E+03  0.7546771E-02  0.1039655E+00
         21   -1    0    0  502  501  0.00000000000E+00  0.00000000000E+00  0.11926705511E+03  0.11926705511E+03  0.00000000000E+00 0.  1.
         21   -1    0    0  501  502 -0.00000000000E+00 -0.00000000000E+00 -0.14242063925E+04  0.14242063925E+04  0.00000000000E+00 0.  1.
         25    1    1    2    0    0  0.17246895843E+03 -0.45164777678E+02 -0.41291727066E+03  0.46680945918E+03  0.12500000000E+03 0.  0.
         25    1    1    2    0    0  0.41102848599E+02 -0.73080355560E+02 -0.75541342803E+03  0.77026270179E+03  0.12500000000E+03 0.  0.
         25    1    1    2    0    0 -0.21357180703E+03  0.11824513324E+03 -0.13660863873E+03  0.30640128666E+03  0.12500000000E+03 0.  0.
</event>
<event>
 5    0  0.5547141E-005  0.3569407E+03  0.7546771E-02  0.1059802E+00
         21   -1    0    0  502  501  0.00000000000E+00  0.00000000000E+00  0.80901304432E+02  0.80901304432E+02  0.00000000000E+00 0. -1.
         21   -1    0    0  501  502 -0.00000000000E+00 -0.00000000000E+00 -0.15748409752E+04  0.15748409752E+04  0.00000000000E+00 0. -1.
         25    1    1    2    0    0  0.51733698312E+02 -0.71075292673E+02 -0.11454718577E+04  0.11556205474E+04  0.12500000000E+03 0.  0.
         25    1    1    2    0    0 -0.18668282450E+02 -0.21769306244E+02 -0.31126708575E+03  0.33665205500E+03  0.12500000000E+03 0.  0.
         25    1    1    2    0    0 -0.33065415862E+02  0.92844598917E+02 -0.37200727356E+02  0.16346967728E+03  0.12500000000E+03 0.  0.
</event>
<event>
 5    0  0.5547141E-005  0.2506113E+03  0.7546771E-02  0.1112919E+00
         21   -1    0    0  502  501  0.00000000000E+00  0.00000000000E+00  0.21304227300E+03  0.21304227300E+03  0.00000000000E+00 0.  1.
         21   -1    0    0  501  502 -0.00000000000E+00 -0.00000000000E+00 -0.29480556964E+03  0.29480556964E+03  0.00000000000E+00 0.  1.
         25    1    1    2    0    0  0.42224676800E+02  0.59255790806E+02 -0.36932289376E+02  0.14927547043E+03  0.12500000000E+03 0.  0.
         25    1    1    2    0    0  0.52376066122E+01  0.90025367750E+02 -0.34218023517E+02  0.15788563106E+03  0.12500000000E+03 0.  0.
         25    1    1    2    0    0 -0.47462283413E+02 -0.14928115856E+03 -0.10612983745E+02  0.20068674114E+03  0.12500000000E+03 0.  0.
</event>
<event>
 5    0  0.5547141E-005  0.4061344E+03  0.7546771E-02  0.1041676E+00
         21   -1    0    0  502  501  0.00000000000E+00  0.00000000000E+00  0.10023556253E+03  0.10023556253E+03  0.00000000000E+00 0. -1.
         21   -1    0    0  501  502 -0.00000000000E+00 -0.00000000000E+00 -0.16455749989E+04  0.16455749989E+04  0.00000000000E+00 0. -1.
         25    1    1    2    0    0 -0.15073793362E+02  0.84842570624E+02 -0.73903854866E+03  0.75447230396E+03  0.12500000000E+03 0.  0.
         25    1    1    2    0    0 -0.65750086062E+02  0.79279743563E+02 -0.74364479643E+03  0.76107879672E+03  0.12500000000E+03 0.  0.
         25    1    1    2    0    0  0.80823879424E+02 -0.16412231419E+03 -0.62656091295E+02  0.23025946077E+03  0.12500000000E+03 0.  0.
</event>
<event>
 5    0  0.5547141E-005  0.4397553E+03  0.7546771E-02  0.1030822E+00
         21   -1    0    0  502  501  0.00000000000E+00  0.00000000000E+00  0.10574439425E+04  0.10574439425E+04  0.00000000000E+00 0. -1.
         21   -1    0    0  501  502 -0.00000000000E+00 -0.00000000000E+00 -0.18287939597E+03  0.18287939597E+03  0.00000000000E+00 0. -1.
         25    1    1    2    0    0  0.23577340221E+03  0.19390099118E+03  0.48344061276E+03  0.58525765064E+03  0.12500000000E+03 0.  0.
         25    1    1    2    0    0 -0.20571750838E+03 -0.24454862939E+03  0.38644653495E+03  0.51680716884E+03  0.12500000000E+03 0.  0.
         25    1    1    2    0    0 -0.30055893829E+02  0.50647638210E+02  0.46773988145E+01  0.13825851898E+03  0.12500000000E+03 0.  0.
</event>
<event>
 5    0  0.5547141E-005  0.3455251E+03  0.7546771E-02  0.1064467E+00
         21   -1    0    0  502  501  0.00000000000E+00  0.00000000000E+00  0.14932831908E+04  0.14932831908E+04  0.00000000000E+00 0. -1.
         21   -1    0    0  501  502 -0.00000000000E+00 -0.00000000000E+00 -0.79949754024E+02  0.79949754024E+02  0.00000000000E+00 0. -1.
         25    1    1    2    0    0 -0.43031656728E+02  0.53214722318E+02  0.85826101895E+03  0.87001178544E+03  0.12500000000E+03 0.  0.
         25    1    1    2    0    0  0.14502831743E+03  0.93330962123E+02  0.25291326748E+03  0.33065692525E+03  0.12500000000E+03 0.  0.
         25    1    1    2    0    0 -0.10199666070E+03 -0.14654568444E+03  0.30215915035E+03  0.37256423414E+03  0.12500000000E+03 0.  0.
</event>
<event>
 5    0  0.5547141E-005  0.2742145E+03  0.7546771E-02  0.1098891E+00
         21   -1    0    0  502  501  0.00000000000E+00  0.00000000000E+00  0.91902690276E+03  0.91902690276E+03  0.00000000000E+00 0. -1.
         21   -1    0    0  501  502 -0.00000000000E+00 -0.00000000000E+00 -0.81818727742E+02  0.81818727742E+02  0.00000000000E+00 0. -1.
         25    1    1    2    0    0  0.13815320120E+03 -0.11286979368E+03  0.45133196195E+03  0.50115011444E+03  0.12500000000E+03 0.  0.
         25    1    1    2    0    0 -0.91954369225E+02  0.69707289581E+02  0.26375373115E+03  0.31385624566E+03  0.12500000000E+03 0.  0.
         25    1    1    2    0    0 -0.46198831972E+02  0.43162504100E+02  0.12212248192E+03  0.18583927041E+03  0.12500000000E+03 0.  0.
</event>
<event>
 5    0  0.5547141E-005  0.2522630E+03  0.7546771E-02  0.1111883E+00
         21   -1    0    0  502  501  0.00000000000E+00  0.00000000000E+00  0.84182883091E+02  0.84182883091E+02  0.00000000000E+00 0.  1.
         21   -1    0    0  501  502 -0.00000000000E+00 -0.00000000000E+00 -0.75593279941E+03  0.75593279941E+03  0.00000000000E+00 0.  1.
         25    1    1    2    0    0 -0.57793632303E+02  0.84512430877E+02 -0.10059501118E+03  0.19033342109E+03  0.12500000000E+03 0.  0.
         25    1    1    2    0    0 -0.24656704957E+02  0.59776556826E+01 -0.31232001286E+03  0.33736104680E+03  0.12500000000E+03 0.  0.
         25    1    1    2    0    0  0.82450337261E+02 -0.90490086560E+02 -0.25883489228E+03  0.31242121462E+03  0.12500000000E+03 0.  0.
</event>
<event>
 5    0  0.6838549E-005  0.2868174E+03  0.7546771E-02  0.1092023E+00
         21   -1    0    0  502  501  0.00000000000E+00  0.00000000000E+00  0.37482649767E+03  0.37482649767E+03  0.00000000000E+00 0.  1.
         21   -1    0    0  501  502 -0.00000000000E+00 -0.00000000000E+00 -0.21947278901E+03  0.21947278901E+03  0.00000000000E+00 0.  1.
         25    1    1    2    0    0  0.10568019126E+02 -0.25430932579E+02 -0.78530016888E+02  0.15016783581E+03  0.12500000000E+03 0.  0.
         25    1    1    2    0    0 -0.13647315555E+03  0.62008532653E+02  0.13917796098E+03  0.23971959688E+03  0.12500000000E+03 0.  0.
         25    1    1    2    0    0  0.12590513643E+03 -0.36577600075E+02  0.94705764576E+02  0.20441185399E+03  0.12500000000E+03 0.  0.
</event>
<event>
 5    0  0.5547141E-005  0.3443839E+03  0.7546771E-02  0.1064944E+00
         21   -1    0    0  502  501  0.00000000000E+00  0.00000000000E+00  0.16386601421E+03  0.16386601421E+03  0.00000000000E+00 0. -1.
         21   -1    0    0  501  502 -0.00000000000E+00 -0.00000000000E+00 -0.72376374291E+03  0.72376374291E+03  0.00000000000E+00 0. -1.
         25    1    1    2    0    0 -0.15713366857E+03  0.22375333664E+03 -0.17008667039E+03  0.34541427432E+03  0.12500000000E+03 0.  0.
         25    1    1    2    0    0  0.53634331471E+02 -0.12585161636E+03 -0.22094854713E+03  0.28837220971E+03  0.12500000000E+03 0.  0.
         25    1    1    2    0    0  0.10349933710E+03 -0.97901720279E+02 -0.16886251119E+03  0.25384327310E+03  0.12500000000E+03 0.  0.
</event>
<event>
 5    0  0.5547141E-005  0.4422876E+03  0.7546771E-02  0.1030047E+00
         21   -1    0    0  502  501  0.00000000000E+00  0.00000000000E+00  0.11869355842E+03  0.11869355842E+03  0.00000000000E+00 0. -1.
         21   -1    0    0  501  502 -0.00000000000E+00 -0.00000000000E+00 -0.16480956300E+04  0.16480956300E+04  0.00000000000E+00 0. -1.
         25    1    1    2    0    0  0.24891305220E+03 -0.28318274717E+03 -0.64708575517E+03  0.75927277733E+03  0.12500000000E+03 0.  0.
         25    1    1    2    0    0 -0.68637718641E+02  0.35680356728E+02 -0.18971492397E+03  0.24000203469E+03  0.12500000000E+03 0.  0.
         25    1    1    2    0    0 -0.18027533356E+03  0.24750239045E+03 -0.69260139246E+03  0.76751437642E+03  0.12500000000E+03 0.  0.
</event>
<event>
 5    0  0.5547141E-005  0.6026983E+03  0.7546771E-02  0.9899824E-01
         21   -1    0    0  502  501  0.00000000000E+00  0.00000000000E+00  0.59535533011E+03  0.59535533011E+03  0.00000000000E+00 0.  1.
         21   -1    0    0  501  502 -0.00000000000E+00 -0.00000000000E+00 -0.61013189536E+03  0.61013189536E+03  0.00000000000E+00 0.  1.
         25    1    1    2    0    0 -0.16180045323E+03 -0.20203801819E+03  0.49165431027E+03  0.56951532751E+03  0.12500000000E+03 0.  0.
         25    1    1    2    0    0  0.74763558373E+02  0.19538628084E+02 -0.19000877423E+03  0.24020758093E+03  0.12500000000E+03 0.  0.
         25    1    1    2    0    0  0.87036894853E+02  0.18249939010E+03 -0.31642210129E+03  0.39576431704E+03  0.12500000000E+03 0.  0.
</event>
<event>
 5    0  0.5547141E-005  0.2730121E+03  0.7546771E-02  0.1099568E+00
         21   -1    0    0  502  501  0.00000000000E+00  0.00000000000E+00  0.39476476822E+02  0.39476476822E+02  0.00000000000E+00 0. -1.
         21   -1    0    0  501  502 -0.00000000000E+00 -0.00000000000E+00 -0.18881011510E+04  0.18881011510E+04  0.00000000000E+00 0. -1.
         25    1    1    2    0    0  0.69792282495E+02 -0.18103218683E+02 -0.76134973344E+03  0.77490457854E+03  0.12500000000E+03 0.  0.
         25    1    1    2    0    0 -0.12922689004E+03 -0.39523326610E+02 -0.30568607720E+03  0.35683421957E+03  0.12500000000E+03 0.  0.
         25    1    1    2    0    0  0.59434607546E+02  0.57626545293E+02 -0.78158886354E+03  0.79583882973E+03  0.12500000000E+03 0.  0.
</event>
<event>
 5    0  0.5547141E-005  0.3394873E+03  0.7546771E-02  0.1067014E+00
         21   -1    0    0  502  501  0.00000000000E+00  0.00000000000E+00  0.29475806552E+03  0.29475806552E+03  0.00000000000E+00 0.  1.
         21   -1    0    0  501  502 -0.00000000000E+00 -0.00000000000E+00 -0.39100419563E+03  0.39100419563E+03  0.00000000000E+00 0.  1.
         25    1    1    2    0    0  0.84897223257E+02 -0.82169287497E+01 -0.44055092627E+02  0.15760998579E+03  0.12500000000E+03 0.  0.
         25    1    1    2    0    0 -0.10950033074E+03 -0.13709279453E+03 -0.19284595433E+03  0.28913546798E+03  0.12500000000E+03 0.  0.
         25    1    1    2    0    0  0.24603107479E+02  0.14530972328E+03  0.14065491685E+03  0.23901680738E+03  0.12500000000E+03 0.  0.
</event>
<event>
 5    0  0.5547141E-005  0.3450056E+03  0.7546771E-02  0.1064684E+00
         21   -1    0    0  502  501  0.00000000000E+00  0.00000000000E+00  0.81682691440E+03  0.81682691440E+03  0.00000000000E+00 0.  1.
         21   -1    0    0  501  502 -0.00000000000E+00 -0.00000000000E+00 -0.14572102215E+03  0.14572102215E+03  0.00000000000E+00 0.  1.
         25    1    1    2    0    0 -0.14566811217E+03  0.30716653017E+02  0.46229476542E+03  0.50150190609E+03  0.12500000000E+03 0.  0.
         25    1    1    2    0    0 -0.41327783868E+02 -0.25120961434E+01  0.19321765561E+03  0.23382121115E+03  0.12500000000E+03 0.  0.
         25    1    1    2    0    0  0.18699589603E+03 -0.28204556874E+02  0.15593471220E+02  0.22722481930E+03  0.12500000000E+03 0.  0.
</event>
<event>
 5    0  0.5547141E-005  0.2628239E+03  0.7546771E-02  0.1105458E+00
         21   -1    0    0  502  501  0.00000000000E+00  0.00000000000E+00  0.92865852399E+02  0.92865852399E+02  0.00000000000E+00 0.  1.
         21   -1    0    0  501  502 -0.00000000000E+00 -0.00000000000E+00 -0.74382991880E+03  0.74382991880E+03  0.00000000000E+00 0.  1.
         25    1    1    2    0    0  0.84373560454E+02  0.63986835182E+02 -0.18256959105E+03  0.24529547154E+03  0.12500000000E+03 0.  0.
         25    1    1    2    0    0  0.13518812858E+02 -0.57626901751E+00 -0.37726609551E+03  0.39766543376E+03  0.12500000000E+03 0.  0.
         25    1    1    2    0    0 -0.97892373312E+02 -0.63410566164E+02 -0.91128379844E+02  0.19373486590E+03  0.12500000000E+03 0.  0.
</event>
<event>
 5    0  0.5547141E-005  0.4122887E+03  0.7546771E-02  0.1039606E+00
         21   -1    0    0  502  501  0.00000000000E+00  0.00000000000E+00  0.71937352768E+03  0.71937352768E+03  0.00000000000E+00 0. -1.
         21   -1    0    0  501  502 -0.00000000000E+00 -0.00000000000E+00 -0.23629162047E+03  0.23629162047E+03  0.00000000000E+00 0. -1.
         25    1    1    2    0    0 -0.13471542271E+03 -0.92166693510E+02  0.23464655140E+03  0.31197267283E+03  0.12500000000E+03 0.  0.
         25    1    1    2    0    0 -0.11105557931E+03  0.63291315826E+02  0.31169205654E+03  0.35932724704E+03  0.12500000000E+03 0.  0.
         25    1    1    2    0    0  0.24577100201E+03  0.28875377684E+02 -0.63256700726E+02  0.28436522828E+03  0.12500000000E+03 0.  0.
</event>
<event>
 5    0  0.5547141E-005  0.2297680E+03  0.7546771E-02  0.1126803E+00
         21   -1    0    0  502  501  0.00000000000E+00  0.00000000000E+00  0.59697148441E+03  0.59697148441E+03  0.00000000000E+00 0. -1.
         21   -1    0    0  501  502 -0.00000000000E+00 -0.00000000000E+00 -0.88435241682E+02  0.88435241682E+02  0.00000000000E+00 0. -1.
         25    1    1    2    0    0  0.87019798245E+02  0.59832169097E+02  0.21952758578E+03  0.27380594344E+03  0.12500000000E+03 0.  0.
         25    1    1    2    0    0 -0.22623860507E+02 -0.61436896180E+02  0.20142800179E+03  0.24593611200E+03  0.12500000000E+03 0.  0.
         25    1    1    2    0    0 -0.64395937738E+02  0.16047270832E+01  0.87580655154E+02  0.16566467066E+03  0.12500000000E+03 0.  0.
</event>
<event>
 5    0  0.6165775E-005  0.3006005E+03  0.7546771E-02  0.1084941E+00
         21   -1    0    0  502  501  0.00000000000E+00  0.00000000000E+00  0.70867427001E+03  0.70867427001E+03  0.00000000000E+00 0. -1.
         21   -1    0    0  501  502 -0.00000000000E+00 -0.00000000000E+00 -0.12750665801E+03  0.12750665801E+03  0.00000000000E+00 0. -1.
         25    1    1    2    0    0 -0.12950661411E+03 -0.23607053161E+02  0.78057466043E+02  0.19760370458E+03  0.12500000000E+03 0.  0.
         25    1    1    2    0    0  0.64826018649E+02  0.50468504755E+02  0.41485993444E+02  0.15522747926E+03  0.12500000000E+03 0.  0.
         25    1    1    2    0    0  0.64680595461E+02 -0.26861451594E+02  0.46162415252E+03  0.48334974418E+03  0.12500000000E+03 0.  0.
</event>
<event>
 5    0  0.5547141E-005  0.2642368E+03  0.7546771E-02  0.1104624E+00
         21   -1    0    0  502  501  0.00000000000E+00  0.00000000000E+00  0.32864543201E+02  0.32864543201E+02  0.00000000000E+00 0. -1.
         21   -1    0    0  501  502 -0.00000000000E+00 -0.00000000000E+00 -0.21245111897E+04  0.21245111897E+04  0.00000000000E+00 0. -1.
         25    1    1    2    0    0 -0.59799366275E+02  0.18996122177E+02 -0.68767810694E+03  0.70175707736E+03  0.12500000000E+03 0.  0.
         25    1    1    2    0    0  0.13995233969E+03 -0.77092138927E+02 -0.10178930908E+04  0.10379119422E+04  0.12500000000E+03 0.  0.
         25    1    1    2    0    0 -0.80152973419E+02  0.58096016750E+02 -0.38607544873E+03  0.41770671341E+03  0.12500000000E+03 0.  0.
</event>
<event>
 5    0  0.5547141E-005  0.2997051E+03  0.7546771E-02  0.1085388E+00
         21   -1    0    0  502  501  0.00000000000E+00  0.00000000000E+00  0.34255249731E+03  0.34255249731E+03  0.00000000000E+00 0.  1.
         21   -1    0    0  501  502 -0.00000000000E+00 -0.00000000000E+00 -0.26221722757E+03  0.26221722757E+03  0.00000000000E+00 0.  1.
         25    1    1    2    0    0  0.45197190491E+02 -0.62149354768E+02 -0.80582863986E+02  0.16740348352E+03  0.12500000000E+03 0.  0.
         25    1    1    2    0    0 -0.17044077541E+03 -0.10151966587E+02  0.54183054643E+02  0.21843517061E+03  0.12500000000E+03 0.  0.
         25    1    1    2    0    0  0.12524358492E+03  0.72301321355E+02  0.10673507908E+03  0.21893107075E+03  0.12500000000E+03 0.  0.
</event>
<event>
 5    0  0.5547141E-005  0.4164061E+03  0.7546771E-02  0.1038242E+00
         21   -1    0    0  502  501  0.00000000000E+00  0.00000000000E+00  0.11487553821E+03  0.11487553821E+03  0.00000000000E+00 0. -1.
         21   -1    0    0  501  502 -0.00000000000E+00 -0.00000000000E+00 -0.15094080379E+04  0.15094080379E+04  0.00000000000E+00 0. -1.
         25    1    1    2    0    0  0.93922222104E+01  0.25902459130E+03 -0.99518927620E+03  0.10359578409E+04  0.12500000000E+03 0.  0.
         25    1    1    2    0    0  0.34581011749E+02 -0.25524814974E+03 -0.20122532283E+03  0.34994870319E+03  0.12500000000E+03 0.  0.
         25    1    1    2    0    0 -0.43973233960E+02 -0.37764415640E+01 -0.19811790068E+03  0.23837703200E+03  0.12500000000E+03 0.  0.
</event>
<event>
 5    0  0.5547141E-005  0.3473764E+03  0.7546771E-02  0.1063697E+00
         21   -1    0    0  502  501  0.00000000000E+00  0.00000000000E+00  0.53228466600E+03  0.53228466600E+03  0.00000000000E+00 0.  1.
         21   -1    0    0  501  502 -0.00000000000E+00 -0.00000000000E+00 -0.22670274568E+03  0.22670274568E+03  0.00000000000E+00 0.  1.
         25    1    1    2    0    0 -0.17013471051E+03  0.92505452668E+02  0.20180715433E+02  0.23137705108E+03  0.12500000000E+03 0.  0.
         25    1    1    2    0    0  0.13462795800E+03  0.99657165940E+02  0.10591452412E+03  0.23430562140E+03  0.12500000000E+03 0.  0.
         25    1    1    2    0    0  0.35506752511E+02 -0.19216261861E+03  0.17948668076E+03  0.29330473920E+03  0.12500000000E+03 0.  0.
</event>
<event>
 5    0  0.5547141E-005  0.2331320E+03  0.7546771E-02  0.1124455E+00
         21   -1    0    0  502  501  0.00000000000E+00  0.00000000000E+00  0.10276652245E+03  0.10276652245E+03  0.00000000000E+00 0. -1.
         21   -1    0    0  501  502 -0.00000000000E+00 -0.00000000000E+00 -0.52887394717E+03  0.52887394717E+03  0.00000000000E+00 0. -1.
         25    1    1    2    0    0 -0.71264119160E+02 -0.87268110038E+01 -0.17511593754E+03  0.22681561562E+03  0.12500000000E+03 0.  0.
         25    1    1    2    0    0  0.29004794074E+02 -0.49046611517E+02 -0.21699394915E+03  0.25682332867E+03  0.12500000000E+03 0.  0.
         25    1    1    2    0    0  0.42259325086E+02  0.57773422521E+02 -0.33997538035E+02  0.14800152533E+03  0.12500000000E+03 0.  0.
</event>
<event>
 5    0  0.5547141E-005  0.2835663E+03  0.7546771E-02  0.1093757E+00
         21   -1    0    0  502  501  0.00000000000E+00  0.00000000000E+00  0.81986606089E+03  0.81986606089E+03  0.00000000000E+00 0.  1.
         21   -1    0    0  501  502 -0.00000000000E+00 -0.00000000000E+00 -0.98076796562E+02  0.98076796562E+02  0.00000000000E+00 0.  1.
         25    1    1    2    0    0  0.14577993637E+03  0.58356636721E+02  0.18096516727E+03  0.27024188917E+03  0.12500000000E+03 0.  0.
         25    1    1    2    0    0 -0.17701941846E+03 -0.62929081568E+02  0.37492654305E+03  0.43759668247E+03  0.12500000000E+03 0.  0.
         25    1    1    2    0    0  0.31239482096E+02  0.45724448473E+01  0.16589755401E+03  0.21010428582E+03  0.12500000000E+03 0.  0.
</event>
<event>
 5    0  0.5547141E-005  0.2932299E+03  0.7546771E-02  0.1088675E+00
         21   -1    0    0  502  501  0.00000000000E+00  0.00000000000E+00  0.11109267635E+03  0.11109267635E+03  0.00000000000E+00 0.  1.
         21   -1    0    0  501  502 -0.00000000000E+00 -0.00000000000E+00 -0.77398245014E+03  0.77398245014E+03  0.00000000000E+00 0.  1.
         25    1    1    2    0    0 -0.10254018110E+03  0.47998809925E+02 -0.32650794365E+03  0.36749260096E+03  0.12500000000E+03 0.  0.
         25    1    1    2    0    0  0.16234352805E+03 -0.11926620333E+03 -0.19050157938E+03  0.30413105745E+03  0.12500000000E+03 0.  0.
         25    1    1    2    0    0 -0.59803346949E+02  0.71267393404E+02 -0.14588025075E+03  0.21345146809E+03  0.12500000000E+03 0.  0.
</event>
<event>
 5    0  0.5547141E-005  0.9806495E+03  0.7546771E-02  0.9330026E-01
         21   -1    0    0  502  501  0.00000000000E+00  0.00000000000E+00  0.67348333615E+03  0.67348333615E+03  0.00000000000E+00 0. -1.
         21   -1    0    0  501  502 -0.00000000000E+00 -0.00000000000E+00 -0.14279099081E+04  0.14279099081E+04  0.00000000000E+00 0. -1.
         25    1    1    2    0    0  0.26917558475E+03 -0.15066003598E+03  0.41036349986E+03  0.52837216419E+03  0.12500000000E+03 0.  0.
         25    1    1    2    0    0 -0.54713774998E+03  0.24871439536E+03 -0.10792645829E+04  0.12416342488E+04  0.12500000000E+03 0.  0.
         25    1    1    2    0    0  0.27796216523E+03 -0.98054359380E+02 -0.85525488949E+02  0.33138683129E+03  0.12500000000E+03 0.  0.
</event>
<event>
 5    0  0.5547141E-005  0.3806864E+03  0.7546771E-02  0.1050680E+00
         21   -1    0    0  502  501  0.00000000000E+00  0.00000000000E+00  0.51180826977E+02  0.51180826977E+02  0.00000000000E+00 0.  1.
         21   -1    0    0  501  502 -0.00000000000E+00 -0.00000000000E+00 -0.28315715170E+04  0.28315715170E+04  0.00000000000E+00 0.  1.
         25    1    1    2    0    0 -0.12414250731E+03 -0.12352767497E+02 -0.16538172022E+04  0.16632198565E+04  0.12500000000E+03 0.  0.
         25    1    1    2    0    0 -0.54168604336E+02 -0.30877411368E+02 -0.86605590999E+03  0.87724881959E+03  0.12500000000E+03 0.  0.
         25    1    1    2    0    0  0.17831111164E+03  0.43230178865E+02 -0.26051757782E+03  0.34228366782E+03  0.12500000000E+03 0.  0.
</event>
<event>
 5    0  0.5547141E-005  0.6445103E+03  0.7546771E-02  0.9817135E-01
         21   -1    0    0  502  501  0.00000000000E+00  0.00000000000E+00  0.18599036174E+04  0.18599036174E+04  0.00000000000E+00 0. -1.
         21   -1    0    0  501  502 -0.00000000000E+00 -0.00000000000E+00 -0.22334143602E+03  0.22334143602E+03  0.00000000000E+00 0. -1.
         25    1    1    2    0    0  0.46504934722E+02 -0.57751022137E+03  0.93060620140E+03  0.11033284492E+04  0.12500000000E+03 0.  0.
         25    1    1    2    0    0 -0.68281692740E+02  0.41743205934E+03  0.61377414810E+03  0.75581453982E+03  0.12500000000E+03 0.  0.
         25    1    1    2    0    0  0.21776758019E+02  0.16007816203E+03  0.92181831925E+02  0.22410206444E+03  0.12500000000E+03 0.  0.
</event>
<event>
 5    0  0.5547141E-005  0.4106351E+03  0.7546771E-02  0.1040158E+00
         21   -1    0    0  502  501  0.00000000000E+00  0.00000000000E+00  0.47982485299E+03  0.47982485299E+03  0.00000000000E+00 0. -1.
         21   -1    0    0  501  502 -0.00000000000E+00 -0.00000000000E+00 -0.35142237871E+03  0.35142237871E+03  0.00000000000E+00 0. -1.
         25    1    1    2    0    0  0.67057732628E+02  0.65656329169E+02 -0.72025817249E+02  0.17210523355E+03  0.12500000000E+03 0.  0.
         25    1    1    2    0    0 -0.66335126371E+01 -0.10312720482E+03  0.38931269846E+03  0.42174471075E+03  0.12500000000E+03 0.  0.
         25    1    1    2    0    0 -0.60424219991E+02  0.37470875650E+02 -0.18888440693E+03  0.23739728740E+03  0.12500000000E+03 0.  0.
</event>
<event>
 5    0  0.5547141E-005  0.2737902E+03  0.7546771E-02  0.1099130E+00
         21   -1    0    0  502  501  0.00000000000E+00  0.00000000000E+00  0.32814614698E+03  0.32814614698E+03  0.00000000000E+00 0. -1.
         21   -1    0    0  501  502 -0.00000000000E+00 -0.00000000000E+00 -0.22843804780E+03  0.22843804780E+03  0.00000000000E+00 0. -1.
         25    1    1    2    0    0 -0.48479550631E+02 -0.15961896169E+02  0.21694858153E+03  0.25553226017E+03  0.12500000000E+03 0.  0.
         25    1    1    2    0    0  0.60197619120E+01  0.42266075864E+02 -0.16915036110E+02  0.13316822875E+03  0.12500000000E+03 0.  0.
         25    1    1    2    0    0  0.42459788719E+02 -0.26304179695E+02 -0.10032544625E+03  0.16788370586E+03  0.12500000000E+03 0.  0.
</event>
<event>
 5    0  0.5547141E-005  0.3275905E+03  0.7546771E-02  0.1072208E+00
         21   -1    0    0  502  501  0.00000000000E+00  0.00000000000E+00  0.32732620435E+03  0.32732620435E+03  0.00000000000E+00 0.  1.
         21   -1    0    0  501  502 -0.00000000000E+00 -0.00000000000E+00 -0.32785491778E+03  0.32785491778E+03  0.00000000000E+00 0.  1.
         25    1    1    2    0    0  0.73285334408E+02  0.74688390960E+02  0.88537773391E+01  0.16325588919E+03  0.12500000000E+03 0.  0.
         25    1    1    2    0    0  0.98750026247E+02 -0.10298676207E+03 -0.14444111955E+03  0.23842415536E+03  0.12500000000E+03 0.  0.
         25    1    1    2    0    0 -0.17203536065E+03  0.28298371106E+02  0.13505862877E+03  0.25350107757E+03  0.12500000000E+03 0.  0.
</event>
<event>
 5    0  0.5547141E-005  0.3115453E+03  0.7546771E-02  0.1079608E+00
         21   -1    0    0  502  501  0.00000000000E+00  0.00000000000E+00  0.15077280171E+04  0.15077280171E+04  0.00000000000E+00 0.  1.
         21   -1    0    0  501  502 -0.00000000000E+00 -0.00000000000E+00 -0.64375304618E+02  0.64375304618E+02  0.00000000000E+00 0.  1.
         25    1    1    2    0    0  0.21063222766E+02  0.65796582830E+02  0.61123663969E+03  0.62770062878E+03  0.12500000000E+03 0.  0.
         25    1    1    2    0    0 -0.87377554930E+02  0.13289047410E+03  0.39769980971E+03  0.44618925789E+03  0.12500000000E+03 0.  0.
         25    1    1    2    0    0  0.66314332165E+02 -0.19868705693E+03  0.43441626313E+03  0.49821343510E+03  0.12500000000E+03 0.  0.
</event>
<event>
 5    0  0.5547141E-005  0.4753505E+03  0.7546771E-02  0.1020421E+00
         21   -1    0    0  502  501  0.00000000000E+00  0.00000000000E+00  0.16202053792E+04  0.16202053792E+04  0.00000000000E+00 0.  1.
         21   -1    0    0  501  502 -0.00000000000E+00 -0.00000000000E+00 -0.13946262992E+03  0.13946262992E+03  0.00000000000E+00 0.  1.
         25    1    1    2    0    0  0.17157865686E+02 -0.14971091082E+03  0.76975819442E+03  0.79426722648E+03  0.12500000000E+03 0.  0.
         25    1    1    2    0    0 -0.12050267140E+03  0.36104117767E+02 -0.45783437030E+02  0.18315437271E+03  0.12500000000E+03 0.  0.
         25    1    1    2    0    0  0.10334480572E+03  0.11360679305E+03  0.75676799184E+03  0.78224640988E+03  0.12500000000E+03 0.  0.
</event>
<event>
 5    0  0.5723862E-005  0.3249933E+03  0.7546771E-02  0.1073374E+00
         21   -1    0    0  502  501  0.00000000000E+00  0.00000000000E+00  0.47611367470E+03  0.47611367470E+03  0.00000000000E+00 0. -1.
         21   -1    0    0  501  502 -0.00000000000E+00 -0.00000000000E+00 -0.22183907341E+03  0.22183907341E+03  0.00000000000E+00 0. -1.
         25    1    1    2    0    0 -0.19792421793E+03 -0.82670062974E+02  0.41080335056E+02  0.25163650229E+03  0.12500000000E+03 0.  0.
         25    1    1    2    0    0  0.68737091784E+02  0.12174156954E+03  0.17890911074E+03  0.25918963607E+03  0.12500000000E+03 0.  0.
         25    1    1    2    0    0  0.12918712615E+03 -0.39071506565E+02  0.34285155488E+02  0.18712660974E+03  0.12500000000E+03 0.  0.
</event>
<event>
 5    0  0.5547141E-005  0.3250745E+03  0.7546771E-02  0.1073337E+00
         21   -1    0    0  502  501  0.00000000000E+00  0.00000000000E+00  0.29425189608E+03  0.29425189608E+03  0.00000000000E+00 0.  1.
         21   -1    0    0  501  502 -0.00000000000E+00 -0.00000000000E+00 -0.35912565906E+03  0.35912565906E+03  0.00000000000E+00 0.  1.
         25    1    1    2    0    0 -0.13402107926E+02  0.77119183112E+02 -0.21371525801E+03  0.25966554721E+03  0.12500000000E+03 0.  0.
         25    1    1    2    0    0 -0.86446252933E+02 -0.11748953422E+03  0.11918920736E+03  0.22607037056E+03  0.12500000000E+03 0.  0.
         25    1    1    2    0    0  0.99848360859E+02  0.40370351106E+02  0.29652287676E+02  0.16764163737E+03  0.12500000000E+03 0.  0.
</event>
<event>
 5    0  0.5547141E-005  0.2851066E+03  0.7546771E-02  0.1092932E+00
         21   -1    0    0  502  501  0.00000000000E+00  0.00000000000E+00  0.54812810909E+03  0.54812810909E+03  0.00000000000E+00 0.  1.
         21   -1    0    0  501  502 -0.00000000000E+00 -0.00000000000E+00 -0.14829703147E+03  0.14829703147E+03  0.00000000000E+00 0.  1.
         25    1    1    2    0    0 -0.10798109305E+03  0.19909737454E+02 -0.16399880606E+00  0.16637710479E+03  0.12500000000E+03 0.  0.
         25    1    1    2    0    0  0.25919906072E+02  0.94686866941E+02  0.19654809462E+03  0.25277182952E+03  0.12500000000E+03 0.  0.
         25    1    1    2    0    0  0.82061186982E+02 -0.11459660439E+03  0.20344698180E+03  0.27727620624E+03  0.12500000000E+03 0.  0.
</event>
<event>
 5    0  0.5547141E-005  0.2791825E+03  0.7546771E-02  0.1096136E+00
         21   -1    0    0  502  501  0.00000000000E+00  0.00000000000E+00  0.70829468107E+03  0.70829468107E+03  0.00000000000E+00 0. -1.
         21   -1    0    0  501  502 -0.00000000000E+00 -0.00000000000E+00 -0.11004298057E+03  0.11004298057E+03  0.00000000000E+00 0. -1.
         25    1    1    2    0    0  0.49085522425E+02  0.30771274125E+02  0.25837742255E+03  0.29281419417E+03  0.12500000000E+03 0.  0.
         25    1    1    2    0    0 -0.36260294542E+02 -0.16719633888E+03  0.21544054544E+03  0.30217387927E+03  0.12500000000E+03 0.  0.
         25    1    1    2    0    0 -0.12825227883E+02  0.13642506476E+03  0.12443373251E+03  0.22334958820E+03  0.12500000000E+03 0.  0.
</event>
<event>
 5    0  0.5547141E-005  0.3199376E+03  0.7546771E-02  0.1075678E+00
         21   -1    0    0  502  501  0.00000000000E+00  0.00000000000E+00  0.12476895314E+04  0.12476895314E+04  0.00000000000E+00 0. -1.
         21   -1    0    0  501  502 -0.00000000000E+00 -0.00000000000E+00 -0.82039686424E+02  0.82039686424E+02  0.00000000000E+00 0. -1.
         25    1    1    2    0    0  0.62382447865E+02  0.78579577326E+02  0.47071191923E+02  0.16705393406E+03  0.12500000000E+03 0.  0.
         25    1    1    2    0    0  0.37676930160E+02 -0.84435644860E+02  0.49513838766E+03  0.51897586854E+03  0.12500000000E+03 0.  0.
         25    1    1    2    0    0 -0.10005937803E+03  0.58560675340E+01  0.62344026540E+03  0.64369941524E+03  0.12500000000E+03 0.  0.
</event>
<event>
 5    0  0.5547141E-005  0.3169194E+03  0.7546771E-02  0.1077076E+00
         21   -1    0    0  502  501  0.00000000000E+00  0.00000000000E+00  0.14257277089E+03  0.14257277089E+03  0.00000000000E+00 0. -1.
         21   -1    0    0  501  502 -0.00000000000E+00 -0.00000000000E+00 -0.70446746294E+03  0.70446746294E+03  0.00000000000E+00 0. -1.
         25    1    1    2    0    0 -0.48835171472E+02 -0.54292550206E+02 -0.59523998406E+01  0.14488956499E+03  0.12500000000E+03 0.  0.
         25    1    1    2    0    0  0.15279373987E+03 -0.84180497434E+02 -0.25833608469E+03  0.33584939444E+03  0.12500000000E+03 0.  0.
         25    1    1    2    0    0 -0.10395856840E+03  0.13847304764E+03 -0.29760620752E+03  0.36630127439E+03  0.12500000000E+03 0.  0.
</event>
<event>
 5    0  0.5547141E-005  0.2468136E+03  0.7546771E-02  0.1115335E+00
         21   -1    0    0  502  501  0.00000000000E+00  0.00000000000E+00  0.56610341477E+03  0.56610341477E+03  0.00000000000E+00 0. -1.
         21   -1    0    0  501  502 -0.00000000000E+00 -0.00000000000E+00 -0.10760746424E+03  0.10760746424E+03  0.00000000000E+00 0. -1.
         25    1    1    2    0    0  0.55224460392E+02 -0.37403668756E+02  0.40742674341E+02  0.14742367847E+03  0.12500000000E+03 0.  0.
         25    1    1    2    0    0 -0.10852069630E+03  0.23013430738E+02  0.14517760264E+03  0.22137727035E+03  0.12500000000E+03 0.  0.
         25    1    1    2    0    0  0.53296235909E+02  0.14390238018E+02  0.27257567355E+03  0.30490993018E+03  0.12500000000E+03 0.  0.
</event>
<event>
 5    0  0.5547141E-005  0.3454522E+03  0.7546771E-02  0.1064497E+00
         21   -1    0    0  502  501  0.00000000000E+00  0.00000000000E+00  0.46952322031E+03  0.46952322031E+03  0.00000000000E+00 0. -1.
         21   -1    0    0  501  502 -0.00000000000E+00 -0.00000000000E+00 -0.25416688401E+03  0.25416688401E+03  0.00000000000E+00 0. -1.
         25    1    1    2    0    0 -0.20518305868E+03  0.12370322862E+03  0.23658732822E+03  0.35916728723E+03  0.12500000000E+03 0.  0.
         25    1    1    2    0    0  0.59812177333E+02 -0.61767187659E+02 -0.52685431994E+02  0.16060335231E+03  0.12500000000E+03 0.  0.
         25    1    1    2    0    0  0.14537088135E+03 -0.61936040958E+02  0.31454440069E+02  0.20391946477E+03  0.12500000000E+03 0.  0.
</event>
<event>
 5    0  0.5547141E-005  0.3632909E+03  0.7546771E-02  0.1057288E+00
         21   -1    0    0  502  501  0.00000000000E+00  0.00000000000E+00  0.28637133737E+03  0.28637133737E+03  0.00000000000E+00 0. -1.
         21   -1    0    0  501  502 -0.00000000000E+00 -0.00000000000E+00 -0.46087117620E+03  0.46087117620E+03  0.00000000000E+00 0. -1.
         25    1    1    2    0    0  0.21782205190E+03  0.34094772540E+02  0.36767626747E+01  0.25347074465E+03  0.12500000000E+03 0.  0.
         25    1    1    2    0    0 -0.15395588438E+02 -0.14496230370E+03 -0.36390406179E+02  0.19544911179E+03  0.12500000000E+03 0.  0.
         25    1    1    2    0    0 -0.20242646346E+03  0.11086753116E+03 -0.14178619533E+03  0.29832265713E+03  0.12500000000E+03 0.  0.
</event>
<event>
 5    0  0.5547141E-005  0.2820678E+03  0.7546771E-02  0.1094565E+00
         21   -1    0    0  502  501  0.00000000000E+00  0.00000000000E+00  0.29497587484E+03  0.29497587484E+03  0.00000000000E+00 0. -1.
         21   -1    0    0  501  502 -0.00000000000E+00 -0.00000000000E+00 -0.26972465572E+03  0.26972465572E+03  0.00000000000E+00 0. -1.
         25    1    1    2    0    0 -0.40441012941E+02 -0.26218700013E+02  0.42261188008E+02  0.14047741374E+03  0.12500000000E+03 0.  0.
         25    1    1    2    0    0 -0.10800157893E+03 -0.13653009629E+02 -0.11642778294E+03  0.20256153229E+03  0.12500000000E+03 0.  0.
         25    1    1    2    0    0  0.14844259187E+03  0.39871709642E+02  0.99417814048E+02  0.22166158454E+03  0.12500000000E+03 0.  0.
</event>
<event>
 5    0  0.5547141E-005  0.3865138E+03  0.7546771E-02  0.1048552E+00
         21   -1    0    0  502  501  0.00000000000E+00  0.00000000000E+00  0.90072261866E+03  0.90072261866E+03  0.00000000000E+00 0.  1.
         21   -1    0    0  501  502 -0.00000000000E+00 -0.00000000000E+00 -0.16585899227E+03  0.16585899227E+03  0.00000000000E+00 0.  1.
         25    1    1    2    0    0  0.22899054148E+03 -0.29594825813E+02  0.29616802599E+03  0.39579416547E+03  0.12500000000E+03 0.  0.
         25    1    1    2    0    0 -0.11792628347E+03  0.18660449428E+03  0.33196966060E+03  0.41779983386E+03  0.12500000000E+03 0.  0.
         25    1    1    2    0    0 -0.11106425801E+03 -0.15700966846E+03  0.10672593980E+03  0.25298761160E+03  0.12500000000E+03 0.  0.
</event>
<event>
 5    0  0.5547141E-005  0.2196421E+03  0.7546771E-02  0.1134150E+00
         21   -1    0    0  502  501  0.00000000000E+00  0.00000000000E+00  0.49333231296E+02  0.49333231296E+02  0.00000000000E+00 0. -1.
         21   -1    0    0  501  502 -0.00000000000E+00 -0.00000000000E+00 -0.97789391294E+03  0.97789391294E+03  0.00000000000E+00 0. -1.
         25    1    1    2    0    0 -0.21653348917E+02 -0.24543554309E+02 -0.25939846397E+03  0.28979961472E+03  0.12500000000E+03 0.  0.
         25    1    1    2    0    0  0.75916752228E+02 -0.46294957617E+02 -0.38462873053E+03  0.41409037264E+03  0.12500000000E+03 0.  0.
         25    1    1    2    0    0 -0.54263403311E+02  0.70838511926E+02 -0.28453348714E+03  0.32333715688E+03  0.12500000000E+03 0.  0.
</event>
<event>
 5    0  0.5547141E-005  0.3624165E+03  0.7546771E-02  0.1057631E+00
         21   -1    0    0  502  501  0.00000000000E+00  0.00000000000E+00  0.33192301360E+03  0.33192301360E+03  0.00000000000E+00 0.  1.
         21   -1    0    0  501  502 -0.00000000000E+00 -0.00000000000E+00 -0.39571136317E+03  0.39571136317E+03  0.00000000000E+00 0.  1.
         25    1    1    2    0    0 -0.20901445816E+03 -0.13345624665E+03  0.99438434798E+02  0.29497561900E+03  0.12500000000E+03 0.  0.
         25    1    1    2    0    0  0.67608244973E+02  0.94179907521E+02  0.13649118948E+02  0.17103224321E+03  0.12500000000E+03 0.  0.
         25    1    1    2    0    0  0.14140621319E+03  0.39276339129E+02 -0.17687590332E+03  0.26162651456E+03  0.12500000000E+03 0.  0.
</event>
<event>
 5    0  0.5547141E-005  0.2838801E+03  0.7546771E-02  0.1093588E+00
         21   -1    0    0  502  501  0.00000000000E+00  0.00000000000E+00  0.38805409414E+03  0.38805409414E+03  0.00000000000E+00 0.  1.
         21   -1    0    0  501  502 -0.00000000000E+00 -0.00000000000E+00 -0.20767180216E+03  0.20767180216E+03  0.00000000000E+00 0.  1.
         25    1    1    2    0    0 -0.62372457186E+02 -0.18122905917E+02  0.17629774161E+03  0.22566492158E+03  0.12500000000E+03 0.  0.
         25    1    1    2    0    0  0.11077884436E+03  0.63554409222E+02 -0.90017410653E+02  0.20009809972E+03  0.12500000000E+03 0.  0.
         25    1    1    2    0    0 -0.48406387172E+02 -0.45431503306E+02  0.94101961019E+02  0.16996287500E+03  0.12500000000E+03 0.  0.
</event>
<event>
 5    0  0.5547141E-005  0.4912448E+03  0.7546771E-02  0.1016090E+00
         21   -1    0    0  502  501  0.00000000000E+00  0.00000000000E+00  0.48131079877E+03  0.48131079877E+03  0.00000000000E+00 0. -1.
         21   -1    0    0  501  502 -0.00000000000E+00 -0.00000000000E+00 -0.50138391791E+03  0.50138391791E+03  0.00000000000E+00 0. -1.
         25    1    1    2    0    0 -0.40866178454E+02  0.54295806608E+02 -0.35750444868E+03  0.38477592178E+03  0.12500000000E+03 0.  0.
         25    1    1    2    0    0  0.73403874842E+02 -0.15323815956E+03 -0.13225259870E+02  0.21135271440E+03  0.12500000000E+03 0.  0.
         25    1    1    2    0    0 -0.32537696388E+02  0.98942352950E+02  0.35065658941E+03  0.38656608050E+03  0.12500000000E+03 0.  0.
</event>
<event>
 5    0  0.5547141E-005  0.2720092E+03  0.7546771E-02  0.1100135E+00
         21   -1    0    0  502  501  0.00000000000E+00  0.00000000000E+00  0.24602617480E+03  0.24602617480E+03  0.00000000000E+00 0.  1.
         21   -1    0    0  501  502 -0.00000000000E+00 -0.00000000000E+00 -0.30073630321E+03  0.30073630321E+03  0.00000000000E+00 0.  1.
         25    1    1    2    0    0 -0.30607809836E+02 -0.13477638488E+03 -0.10421593487E+03  0.21351223156E+03  0.12500000000E+03 0.  0.
         25    1    1    2    0    0  0.68147586392E+02  0.11212952547E+02  0.56018311641E+02  0.15340428636E+03  0.12500000000E+03 0.  0.
         25    1    1    2    0    0 -0.37539776556E+02  0.12356343234E+03 -0.65125051810E+01  0.17984596008E+03  0.12500000000E+03 0.  0.
</event>
<event>
 5    0  0.5547141E-005  0.2617617E+03  0.7546771E-02  0.1106089E+00
         21   -1    0    0  502  501  0.00000000000E+00  0.00000000000E+00  0.28163389931E+03  0.28163389931E+03  0.00000000000E+00 0. -1.
         21   -1    0    0  501  502 -0.00000000000E+00 -0.00000000000E+00 -0.24329177570E+03  0.24329177570E+03  0.00000000000E+00 0. -1.
         25    1    1    2    0    0  0.63005236022E+02  0.92857301823E+02  0.14512058937E+03  0.22198451236E+03  0.12500000000E+03 0.  0.
         25    1    1    2    0    0 -0.38043704634E+02 -0.83120991753E+02 -0.69785812399E+02  0.16985724107E+03  0.12500000000E+03 0.  0.
         25    1    1    2    0    0 -0.24961531388E+02 -0.97363100700E+01 -0.36992653354E+02  0.13308392159E+03  0.12500000000E+03 0.  0.
</event>
<event>
 5    0  0.5547141E-005  0.5925652E+03  0.7546771E-02  0.9920952E-01
         21   -1    0    0  502  501  0.00000000000E+00  0.00000000000E+00  0.19796979267E+03  0.19796979267E+03  0.00000000000E+00 0. -1.
         21   -1    0    0  501  502 -0.00000000000E+00 -0.00000000000E+00 -0.17736721028E+04  0.17736721028E+04  0.00000000000E+00 0. -1.
         25    1    1    2    0    0 -0.83202200484E+02 -0.36154400928E+03 -0.67024033378E+03  0.77619828771E+03  0.12500000000E+03 0.  0.
         25    1    1    2    0    0  0.10316144782E+02 -0.48293825296E+02 -0.70342359745E+03  0.71614836023E+03  0.12500000000E+03 0.  0.
         25    1    1    2    0    0  0.72886055702E+02  0.40983783458E+03 -0.20203837890E+03  0.47929524754E+03  0.12500000000E+03 0.  0.
</event>
<event>
 5    0  0.5547141E-005  0.3907822E+03  0.7546771E-02  0.1047019E+00
         21   -1    0    0  502  501  0.00000000000E+00  0.00000000000E+00  0.90403508053E+03  0.90403508053E+03  0.00000000000E+00 0.  1.
         21   -1    0    0  501  502 -0.00000000000E+00 -0.00000000000E+00 -0.16892122550E+03  0.16892122550E+03  0.00000000000E+00 0.  1.
         25    1    1    2    0    0  0.10930854676E+03  0.11074486114E+03  0.66140810690E+03  0.69086790817E+03  0.12500000000E+03 0.  0.
         25    1    1    2    0    0  0.72510681580E+01  0.21797293109E+01 -0.58565102221E+02  0.13824688209E+03  0.12500000000E+03 0.  0.
         25    1    1    2    0    0 -0.11655961492E+03 -0.11292459045E+03  0.13227085035E+03  0.24384151576E+03  0.12500000000E+03 0.  0.
</event>
<event>
 5    0  0.5547141E-005  0.3371379E+03  0.7546771E-02  0.1068021E+00
         21   -1    0    0  502  501  0.00000000000E+00  0.00000000000E+00  0.11461423708E+04  0.11461423708E+04  0.00000000000E+00 0. -1.
         21   -1    0    0  501  502 -0.00000000000E+00 -0.00000000000E+00 -0.99169176317E+02  0.99169176317E+02  0.00000000000E+00 0. -1.
         25    1    1    2    0    0  0.17224747463E+03  0.55386845864E+02  0.28918670862E+03  0.36330544677E+03  0.12500000000E+03 0.  0.
         25    1    1    2    0    0 -0.30946631918E+02 -0.15442860733E+03  0.54486262422E+03  0.58078065400E+03  0.12500000000E+03 0.  0.
         25    1    1    2    0    0 -0.14130084271E+03  0.99041761461E+02  0.21292386161E+03  0.30122544631E+03  0.12500000000E+03 0.  0.
</event>
<event>
 5    0  0.5547141E-005  0.2641757E+03  0.7546771E-02  0.1104660E+00
         21   -1    0    0  502  501  0.00000000000E+00  0.00000000000E+00  0.11115069439E+04  0.11115069439E+04  0.00000000000E+00 0. -1.
         21   -1    0    0  501  502 -0.00000000000E+00 -0.00000000000E+00 -0.62787560800E+02  0.62787560800E+02  0.00000000000E+00 0. -1.
         25    1    1    2    0    0  0.68493618551E+02 -0.67902670284E+02  0.37504183205E+03  0.40691955495E+03  0.12500000000E+03 0.  0.
         25    1    1    2    0    0 -0.56282318499E+00  0.59763618328E+02  0.86917326177E+02  0.16355925053E+03  0.12500000000E+03 0.  0.
         25    1    1    2    0    0 -0.67930795366E+02  0.81390519562E+01  0.58676022486E+03  0.60381569920E+03  0.12500000000E+03 0.  0.
</event>
<event>
 5    0  0.5547141E-005  0.2744209E+03  0.7546771E-02  0.1098776E+00
         21   -1    0    0  502  501  0.00000000000E+00  0.00000000000E+00  0.38150399741E+03  0.38150399741E+03  0.00000000000E+00 0.  1.
         21   -1    0    0  501  502 -0.00000000000E+00 -0.00000000000E+00 -0.19739456040E+03  0.19739456040E+03  0.00000000000E+00 0.  1.
         25    1    1    2    0    0 -0.22302354773E+01 -0.33839358310E+02  0.14019491561E+03  0.19086563463E+03  0.12500000000E+03 0.  0.
         25    1    1    2    0    0  0.12551854607E+03  0.21080904026E+02  0.98435703135E+02  0.20374959528E+03  0.12500000000E+03 0.  0.
         25    1    1    2    0    0 -0.12328831060E+03  0.12758454284E+02 -0.54521181726E+02  0.18428332790E+03  0.12500000000E+03 0.  0.
</event>
<event>
 5    0  0.5547141E-005  0.2853455E+03  0.7546771E-02  0.1092805E+00
         21   -1    0    0  502  501  0.00000000000E+00  0.00000000000E+00  0.94876840774E+03  0.94876840774E+03  0.00000000000E+00 0. -1.
         21   -1    0    0  501  502 -0.00000000000E+00 -0.00000000000E+00 -0.85818663523E+02  0.85818663523E+02  0.00000000000E+00 0. -1.
         25    1    1    2    0    0  0.14931198484E+03 -0.41685243234E+02  0.19084560216E+03  0.27582380642E+03  0.12500000000E+03 0.  0.
         25    1    1    2    0    0 -0.30684343607E+02  0.29256721750E+02  0.49112247654E+03  0.50855065792E+03  0.12500000000E+03 0.  0.
         25    1    1    2    0    0 -0.11862764124E+03  0.12428521484E+02  0.18098166552E+03  0.25021260693E+03  0.12500000000E+03 0.  0.
</event>
<event>
 5    0  0.5547141E-005  0.3771700E+03  0.7546771E-02  0.1051985E+00
         21   -1    0    0  502  501  0.00000000000E+00  0.00000000000E+00  0.28864131212E+03  0.28864131212E+03  0.00000000000E+00 0. -1.
         21   -1    0    0  501  502 -0.00000000000E+00 -0.00000000000E+00 -0.49285127409E+03  0.49285127409E+03  0.00000000000E+00 0. -1.
         25    1    1    2    0    0 -0.16799176110E+03 -0.18444029975E+03 -0.99542902086E+02  0.29626549803E+03  0.12500000000E+03 0.  0.
         25    1    1    2    0    0  0.19814877444E+03  0.22722173344E+03 -0.23393324496E+02  0.32720773309E+03  0.12500000000E+03 0.  0.
         25    1    1    2    0    0 -0.30157013347E+02 -0.42781433691E+02 -0.81273735385E+02  0.15801935510E+03  0.12500000000E+03 0.  0.
</event>
<event>
 5    0  0.5547141E-005  0.7939966E+03  0.7546771E-02  0.9568748E-01
         21   -1    0    0  502  501  0.00000000000E+00  0.00000000000E+00  0.22439506620E+04  0.22439506620E+04  0.00000000000E+00 0.  1.
         21   -1    0    0  501  502 -0.00000000000E+00 -0.00000000000E+00 -0.28094674161E+03  0.28094674161E+03  0.00000000000E+00 0.  1.
         25    1    1    2    0    0 -0.52009531731E+03  0.40079667761E+03  0.39500024116E+03  0.77639378307E+03  0.12500000000E+03 0.  0.
         25    1    1    2    0    0  0.36954922006E+03 -0.37562025578E+03  0.13495133670E+04  0.14541212227E+04  0.12500000000E+03 0.  0.
         25    1    1    2    0    0  0.15054609725E+03 -0.25176421831E+02  0.21849031221E+03  0.29438239781E+03  0.12500000000E+03 0.  0.
</event>
<event>
 5    0  0.5547141E-005  0.2609663E+03  0.7546771E-02  0.1106564E+00
         21   -1    0    0  502  501  0.00000000000E+00  0.00000000000E+00  0.56694866008E+03  0.56694866008E+03  0.00000000000E+00 0.  1.
         21   -1    0    0  501  502 -0.00000000000E+00 -0.00000000000E+00 -0.12012267505E+03  0.12012267505E+03  0.00000000000E+00 0.  1.
         25    1    1    2    0    0  0.98024149698E+01  0.11545730959E+03  0.98013154567E+02  0.19661652053E+03  0.12500000000E+03 0.  0.
         25    1    1    2    0    0 -0.62158819698E+02 -0.30625708261E+02  0.28399885710E+03  0.31793396123E+03  0.12500000000E+03 0.  0.
         25    1    1    2    0    0  0.52356404729E+02 -0.84831601331E+02  0.64813973365E+02  0.17252085336E+03  0.12500000000E+03 0.  0.
</event>
<event>
 5    0  0.5547141E-005  0.3239073E+03  0.7546771E-02  0.1073865E+00
         21   -1    0    0  502  501  0.00000000000E+00  0.00000000000E+00  0.15288042148E+04  0.15288042148E+04  0.00000000000E+00 0.  1.
         21   -1    0    0  501  502 -0.00000000000E+00 -0.00000000000E+00 -0.68626150267E+02  0.68626150267E+02  0.00000000000E+00 0.  1.
         25    1    1    2    0    0 -0.56777253039E+02  0.16724963483E+03  0.73962742007E+03  0.77062949420E+03  0.12500000000E+03 0.  0.
         25    1    1    2    0    0  0.13380676842E+03 -0.50025237393E+01  0.38264599099E+03  0.42423134130E+03  0.12500000000E+03 0.  0.
         25    1    1    2    0    0 -0.77029515383E+02 -0.16224711110E+03  0.33790465350E+03  0.40256952959E+03  0.12500000000E+03 0.  0.
</event>
<event>
 5    0  0.5547141E-005  0.2572429E+03  0.7546771E-02  0.1108811E+00
         21   -1    0    0  502  501  0.00000000000E+00  0.00000000000E+00  0.94215332563E+02  0.94215332563E+02  0.00000000000E+00 0. -1.
         21   -1    0    0  501  502 -0.00000000000E+00 -0.00000000000E+00 -0.70236885677E+03  0.70236885677E+03  0.00000000000E+00 0. -1.
         25    1    1    2    0    0 -0.11453189196E+03 -0.88144655168E+02 -0.22844015461E+03  0.29782031286E+03  0.12500000000E+03 0.  0.
         25    1    1    2    0    0  0.22672662835E+02 -0.18950092682E+02 -0.20399023234E+03  0.24106051220E+03  0.12500000000E+03 0.  0.
         25    1    1    2    0    0  0.91859229124E+02  0.10709474785E+03 -0.17572313726E+03  0.25770336428E+03  0.12500000000E+03 0.  0.
</event>
<event>
 5    0  0.5547141E-005  0.2226553E+03  0.7546771E-02  0.1131919E+00
         21   -1    0    0  502  501  0.00000000000E+00  0.00000000000E+00  0.67555172050E+02  0.67555172050E+02  0.00000000000E+00 0.  1.
         21   -1    0    0  501  502 -0.00000000000E+00 -0.00000000000E+00 -0.73385041109E+03  0.73385041109E+03  0.00000000000E+00 0.  1.
         25    1    1    2    0    0 -0.47970115962E+02 -0.20257508103E+02 -0.20460453039E+03  0.24535588951E+03  0.12500000000E+03 0.  0.
         25    1    1    2    0    0 -0.31689830112E+02  0.31055285802E+02 -0.33661062735E+03  0.36180159004E+03  0.12500000000E+03 0.  0.
         25    1    1    2    0    0  0.79659946074E+02 -0.10797777699E+02 -0.12508008130E+03  0.19424810359E+03  0.12500000000E+03 0.  0.
</event>
<event>
 5    0  0.5547141E-005  0.2358304E+03  0.7546771E-02  0.1122602E+00
         21   -1    0    0  502  501  0.00000000000E+00  0.00000000000E+00  0.45372693286E+03  0.45372693286E+03  0.00000000000E+00 0.  1.
         21   -1    0    0  501  502 -0.00000000000E+00 -0.00000000000E+00 -0.12257586068E+03  0.12257586068E+03  0.00000000000E+00 0.  1.
         25    1    1    2    0    0 -0.45940194910E+02 -0.28972782802E+02  0.49120055108E+02  0.14487133417E+03  0.12500000000E+03 0.  0.
         25    1    1    2    0    0  0.98890211114E+02 -0.11094765140E+02  0.65357973088E+02  0.17262396217E+03  0.12500000000E+03 0.  0.
         25    1    1    2    0    0 -0.52950016204E+02  0.40067547942E+02  0.21667304399E+03  0.25880749720E+03  0.12500000000E+03 0.  0.
</event>
<event>
 5    0  0.5547141E-005  0.3104522E+03  0.7546771E-02  0.1080129E+00
         21   -1    0    0  502  501  0.00000000000E+00  0.00000000000E+00  0.18241769663E+03  0.18241769663E+03  0.00000000000E+00 0. -1.
         21   -1    0    0  501  502 -0.00000000000E+00 -0.00000000000E+00 -0.52835113668E+03  0.52835113668E+03  0.00000000000E+00 0. -1.
         25    1    1    2    0    0  0.67365464260E+02  0.17781067890E+03 -0.14167188184E+03  0.26804974428E+03  0.12500000000E+03 0.  0.
         25    1    1    2    0    0  0.43936317636E+02 -0.11402744885E+03 -0.51259736460E+01  0.17488263122E+03  0.12500000000E+03 0.  0.
         25    1    1    2    0    0 -0.11130178190E+03 -0.63783230055E+02 -0.19913558456E+03  0.26783645780E+03  0.12500000000E+03 0.  0.
</event>
<event>
 5    0  0.5547141E-005  0.2874354E+03  0.7546771E-02  0.1091696E+00
         21   -1    0    0  502  501  0.00000000000E+00  0.00000000000E+00  0.22855824536E+04  0.22855824536E+04  0.00000000000E+00 0. -1.
         21   -1    0    0  501  502 -0.00000000000E+00 -0.00000000000E+00 -0.36147956516E+02  0.36147956516E+02  0.00000000000E+00 0. -1.
         25    1    1    2    0    0  0.62705680254E+02 -0.38882332167E+02  0.75058351581E+03  0.76448966788E+03  0.12500000000E+03 0.  0.
         25    1    1    2    0    0 -0.54402584160E+02  0.12003459346E+03  0.31185569999E+03  0.36089738487E+03  0.12500000000E+03 0.  0.
         25    1    1    2    0    0 -0.83030960939E+01 -0.81152261297E+02  0.11869952813E+04  0.11963433574E+04  0.12500000000E+03 0.  0.
</event>
<event>
 5    0  0.5547141E-005  0.3173685E+03  0.7546771E-02  0.1076867E+00
         21   -1    0    0  502  501  0.00000000000E+00  0.00000000000E+00  0.10060917119E+03  0.10060917119E+03  0.00000000000E+00 0.  1.
         21   -1    0    0  501  502 -0.00000000000E+00 -0.00000000000E+00 -0.10011292771E+04  0.10011292771E+04  0.00000000000E+00 0.  1.
         25    1    1    2    0    0 -0.13812121900E+03  0.11926291504E+02 -0.12358176853E+03  0.22386862460E+03  0.12500000000E+03 0.  0.
         25    1    1    2    0    0  0.42546341877E+02 -0.14602783120E+03 -0.31032389507E+03  0.36750542655E+03  0.12500000000E+03 0.  0.
         25    1    1    2    0    0  0.95574877123E+02  0.13410153970E+03 -0.46661444234E+03  0.51036439715E+03  0.12500000000E+03 0.  0.
</event>
<event>
 5    0  0.5547141E-005  0.3182872E+03  0.7546771E-02  0.1076440E+00
         21   -1    0    0  502  501  0.00000000000E+00  0.00000000000E+00  0.11279689441E+04  0.11279689441E+04  0.00000000000E+00 0.  1.
         21   -1    0    0  501  502 -0.00000000000E+00 -0.00000000000E+00 -0.89813436586E+02  0.89813436586E+02  0.00000000000E+00 0. -1.
         25    1    1    2    0    0 -0.14116852364E+02 -0.16981439990E+03  0.55168851169E+03  0.59078035670E+03  0.12500000000E+03 0.  0.
         25    1    1    2    0    0  0.14488680714E+02  0.18506271955E+03  0.15447439991E+03  0.27192916773E+03  0.12500000000E+03 0.  0.
         25    1    1    2    0    0 -0.37182834971E+00 -0.15248319650E+02  0.33199259591E+03  0.35507285625E+03  0.12500000000E+03 0.  0.
</event>
<event>
 5    0  0.5547141E-005  0.5571381E+03  0.7546771E-02  0.9998551E-01
         21   -1    0    0  502  501  0.00000000000E+00  0.00000000000E+00  0.38321595612E+03  0.38321595612E+03  0.00000000000E+00 0. -1.
         21   -1    0    0  501  502 -0.00000000000E+00 -0.00000000000E+00 -0.80999470783E+03  0.80999470783E+03  0.00000000000E+00 0. -1.
         25    1    1    2    0    0  0.41871933910E+03 -0.46320117168E+02 -0.28592252233E+03  0.52425959883E+03  0.12500000000E+03 0.  0.
         25    1    1    2    0    0 -0.79654280259E+02  0.18716516008E+03 -0.14824890608E+03  0.28103085180E+03  0.12500000000E+03 0.  0.
         25    1    1    2    0    0 -0.33906505884E+03 -0.14084504291E+03  0.73926766960E+01  0.38792021332E+03  0.12500000000E+03 0.  0.
</event>
<event>
 5    0  0.5914234E-005  0.4100176E+03  0.7546771E-02  0.1040365E+00
         21   -1    0    0  502  501  0.00000000000E+00  0.00000000000E+00  0.13204504263E+03  0.13204504263E+03  0.00000000000E+00 0. -1.
         21   -1    0    0  501  502 -0.00000000000E+00 -0.00000000000E+00 -0.12731596971E+04  0.12731596971E+04  0.00000000000E+00 0. -1.
         25    1    1    2    0    0  0.96479547838E+02 -0.12068827842E+03 -0.56562241201E+03  0.59952287418E+03  0.12500000000E+03 0.  0.
         25    1    1    2    0    0  0.92087150534E+01  0.25974088961E+03 -0.50150068734E+03  0.57851367276E+03  0.12500000000E+03 0.  0.
         25    1    1    2    0    0 -0.10568826289E+03 -0.13905261119E+03 -0.73991555133E+02  0.22716819281E+03  0.12500000000E+03 0.  0.
</event>
<event>
 5    0  0.5547141E-005  0.2416579E+03  0.7546771E-02  0.1118693E+00
         21   -1    0    0  502  501  0.00000000000E+00  0.00000000000E+00  0.48576638208E+03  0.48576638208E+03  0.00000000000E+00 0.  1.
         21   -1    0    0  501  502 -0.00000000000E+00 -0.00000000000E+00 -0.12021939947E+03  0.12021939947E+03  0.00000000000E+00 0.  1.
         25    1    1    2    0    0  0.87654276697E+02  0.18696320087E+02  0.44632082488E+02  0.16015569736E+03  0.12500000000E+03 0.  0.
         25    1    1    2    0    0 -0.11130579401E+03  0.29510357490E+02  0.14470773596E+03  0.22321552327E+03  0.12500000000E+03 0.  0.
         25    1    1    2    0    0  0.23651517317E+02 -0.48206677577E+02  0.17620716417E+03  0.22261456093E+03  0.12500000000E+03 0.  0.
</event>
<event>
 5    0  0.5547141E-005  0.2570264E+03  0.7546771E-02  0.1108943E+00
         21   -1    0    0  502  501  0.00000000000E+00  0.00000000000E+00  0.52243297611E+02  0.52243297611E+02  0.00000000000E+00 0. -1.
         21   -1    0    0  501  502 -0.00000000000E+00 -0.00000000000E+00 -0.12645172419E+04  0.12645172419E+04  0.00000000000E+00 0. -1.
         25    1    1    2    0    0  0.71735508079E+02  0.27086254403E+02 -0.46451193128E+03  0.48710982602E+03  0.12500000000E+03 0.  0.
         25    1    1    2    0    0 -0.31793324907E+02  0.86525477572E+02 -0.18943618006E+03  0.24496640605E+03  0.12500000000E+03 0.  0.
         25    1    1    2    0    0 -0.39942183172E+02 -0.11361173198E+03 -0.55832583299E+03  0.58468430749E+03  0.12500000000E+03 0.  0.
</event>
<event>
 5    0  0.5547141E-005  0.2509654E+03  0.7546771E-02  0.1112696E+00
         21   -1    0    0  502  501  0.00000000000E+00  0.00000000000E+00  0.19917148592E+03  0.19917148592E+03  0.00000000000E+00 0.  1.
         21   -1    0    0  501  502 -0.00000000000E+00 -0.00000000000E+00 -0.31622822993E+03  0.31622822993E+03  0.00000000000E+00 0.  1.
         25    1    1    2    0    0 -0.63043609056E+02  0.13918195035E+03 -0.34361229930E+02  0.20037915577E+03  0.12500000000E+03 0.  0.
         25    1    1    2    0    0  0.57262364236E+02 -0.10813264982E+03 -0.52075055589E+02  0.18250605395E+03  0.12500000000E+03 0.  0.
         25    1    1    2    0    0  0.57812448196E+01 -0.31049300529E+02 -0.30620458490E+02  0.13251450612E+03  0.12500000000E+03 0.  0.
</event>
<event>
 5    0  0.5547141E-005  0.2528955E+03  0.7546771E-02  0.1111489E+00
         21   -1    0    0  502  501  0.00000000000E+00  0.00000000000E+00  0.32427401033E+02  0.32427401033E+02  0.00000000000E+00 0.  1.
         21   -1    0    0  501  502 -0.00000000000E+00 -0.00000000000E+00 -0.19722863337E+04  0.19722863337E+04  0.00000000000E+00 0.  1.
         25    1    1    2    0    0  0.17053035179E+02  0.13695521546E+03 -0.83375837887E+03  0.85429829181E+03  0.12500000000E+03 0.  0.
         25    1    1    2    0    0  0.36330465226E+02 -0.28357792147E+02 -0.61907938211E+03  0.63325219970E+03  0.12500000000E+03 0.  0.
         25    1    1    2    0    0 -0.53383500405E+02 -0.10859742331E+03 -0.48702117170E+03  0.51716324323E+03  0.12500000000E+03 0.  0.
</event>
<event>
 5    0  0.5547141E-005  0.2277947E+03  0.7546771E-02  0.1128202E+00
         21   -1    0    0  502  501  0.00000000000E+00  0.00000000000E+00  0.67425558797E+02  0.67425558797E+02  0.00000000000E+00 0. -1.
         21   -1    0    0  501  502 -0.00000000000E+00 -0.00000000000E+00 -0.76959588606E+03  0.76959588606E+03  0.00000000000E+00 0. -1.
         25    1    1    2    0    0 -0.30769989147E+02 -0.10612050092E+03 -0.23306007589E+03  0.28661882688E+03  0.12500000000E+03 0.  0.
         25    1    1    2    0    0 -0.86689186821E+01  0.78617685527E+02 -0.30170983270E+03  0.33602040678E+03  0.12500000000E+03 0.  0.
         25    1    1    2    0    0  0.39438907829E+02  0.27502815388E+02 -0.16740041868E+03  0.21438221120E+03  0.12500000000E+03 0.  0.
</event>
<event>
 5    0  0.5547141E-005  0.2561658E+03  0.7546771E-02  0.1109469E+00
         21   -1    0    0  502  501  0.00000000000E+00  0.00000000000E+00  0.26392136702E+03  0.26392136702E+03  0.00000000000E+00 0. -1.
         21   -1    0    0  501  502 -0.00000000000E+00 -0.00000000000E+00 -0.24863823248E+03  0.24863823248E+03  0.00000000000E+00 0. -1.
         25    1    1    2    0    0  0.18235114749E+02  0.83544278258E+02 -0.48484942117E+02  0.15902187098E+03  0.12500000000E+03 0.  0.
         25    1    1    2    0    0  0.83406023285E+02 -0.35870690379E+01 -0.25960049598E+02  0.15253968651E+03  0.12500000000E+03 0.  0.
         25    1    1    2    0    0 -0.10164113803E+03 -0.79957209220E+02  0.89728126260E+02  0.20099804200E+03  0.12500000000E+03 0.  0.
</event>
<event>
 5    0  0.5547141E-005  0.2845885E+03  0.7546771E-02  0.1093209E+00
         21   -1    0    0  502  501  0.00000000000E+00  0.00000000000E+00  0.19832082295E+03  0.19832082295E+03  0.00000000000E+00 0.  1.
         21   -1    0    0  501  502 -0.00000000000E+00 -0.00000000000E+00 -0.40838188711E+03  0.40838188711E+03  0.00000000000E+00 0.  1.
         25    1    1    2    0    0 -0.96805364887E+00  0.40891197661E+01  0.78006536642E+02  0.14740311322E+03  0.12500000000E+03 0.  0.
         25    1    1    2    0    0  0.90508149581E+02  0.88717139241E+02 -0.13730693607E+03  0.22481247881E+03  0.12500000000E+03 0.  0.
         25    1    1    2    0    0 -0.89540095932E+02 -0.92806259007E+02 -0.15076066473E+03  0.23448711803E+03  0.12500000000E+03 0.  0.
</event>
<event>
 5    0  0.5547141E-005  0.2841404E+03  0.7546771E-02  0.1093449E+00
         21   -1    0    0  502  501  0.00000000000E+00  0.00000000000E+00  0.38939107237E+02  0.38939107237E+02  0.00000000000E+00 0. -1.
         21   -1    0    0  501  502 -0.00000000000E+00 -0.00000000000E+00 -0.20733848060E+04  0.20733848060E+04  0.00000000000E+00 0. -1.
         25    1    1    2    0    0  0.48768307645E+01  0.25279149978E+02 -0.13400977042E+04  0.13461610883E+04  0.12500000000E+03 0.  0.
         25    1    1    2    0    0  0.93212475452E+02 -0.98134881861E+01 -0.25908862589E+03  0.30255046884E+03  0.12500000000E+03 0.  0.
         25    1    1    2    0    0 -0.98089306217E+02 -0.15465661792E+02 -0.43525936865E+03  0.46361235606E+03  0.12500000000E+03 0.  0.
</event>
<event>
 5    0  0.5547141E-005  0.3092317E+03  0.7546771E-02  0.1080715E+00
         21   -1    0    0  502  501  0.00000000000E+00  0.00000000000E+00  0.29427940504E+03  0.29427940504E+03  0.00000000000E+00 0.  1.
         21   -1    0    0  501  502 -0.00000000000E+00 -0.00000000000E+00 -0.32494362182E+03  0.32494362182E+03  0.00000000000E+00 0.  1.
         25    1    1    2    0    0 -0.13157849771E+03  0.94054066419E+02 -0.67295093228E+02  0.21520385229E+03  0.12500000000E+03 0.  0.
         25    1    1    2    0    0  0.12867085778E+03 -0.15741681528E+03  0.88517491865E+02  0.25455174276E+03  0.12500000000E+03 0.  0.
         25    1    1    2    0    0  0.29076399304E+01  0.63362748864E+02 -0.51886615416E+02  0.14946743181E+03  0.12500000000E+03 0.  0.
</event>
<event>
 5    0  0.5547141E-005  0.2175648E+03  0.7546771E-02  0.1135712E+00
         21   -1    0    0  502  501  0.00000000000E+00  0.00000000000E+00  0.75369265914E+03  0.75369265914E+03  0.00000000000E+00 0.  1.
         21   -1    0    0  501  502 -0.00000000000E+00 -0.00000000000E+00 -0.62803399432E+02  0.62803399432E+02  0.00000000000E+00 0.  1.
         25    1    1    2    0    0  0.76578214903E+02  0.22094465933E+02  0.29400989442E+03  0.32927071907E+03  0.12500000000E+03 0.  0.
         25    1    1    2    0    0 -0.80806129295E+02  0.19962882852E+02  0.19687819811E+03  0.24761698673E+03  0.12500000000E+03 0.  0.
         25    1    1    2    0    0  0.42279143924E+01 -0.42057348785E+02  0.20000116718E+03  0.23960835278E+03  0.12500000000E+03 0.  0.
</event>
<event>
 5    0  0.5547141E-005  0.2368950E+03  0.7546771E-02  0.1121879E+00
         21   -1    0    0  502  501  0.00000000000E+00  0.00000000000E+00  0.15839877255E+04  0.15839877255E+04  0.00000000000E+00 0. -1.
         21   -1    0    0  501  502 -0.00000000000E+00 -0.00000000000E+00 -0.35429101182E+02  0.35429101182E+02  0.00000000000E+00 0. -1.
         25    1    1    2    0    0  0.18464578794E+02  0.39826261440E+01  0.40757634965E+03  0.42673209719E+03  0.12500000000E+03 0.  0.
         25    1    1    2    0    0  0.43256367774E+02 -0.29710123009E+01  0.18993648740E+03  0.23147528921E+03  0.12500000000E+03 0.  0.
         25    1    1    2    0    0 -0.61720946568E+02 -0.10116138431E+01  0.95104578730E+03  0.96120944031E+03  0.12500000000E+03 0.  0.
</event>
<event>
 5    0  0.5547141E-005  0.2598701E+03  0.7546771E-02  0.1107221E+00
         21   -1    0    0  502  501  0.00000000000E+00  0.00000000000E+00  0.10117691454E+04  0.10117691454E+04  0.00000000000E+00 0. -1.
         21   -1    0    0  501  502 -0.00000000000E+00 -0.00000000000E+00 -0.66746930005E+02  0.66746930005E+02  0.00000000000E+00 0. -1.
         25    1    1    2    0    0 -0.64840390707E+02 -0.19884998612E+02  0.14759144512E+03  0.20495834726E+03  0.12500000000E+03 0.  0.
         25    1    1    2    0    0  0.11331761353E+03  0.27306024663E+02  0.65859756592E+03  0.68041329672E+03  0.12500000000E+03 0.  0.
         25    1    1    2    0    0 -0.48477222827E+02 -0.74210260513E+01  0.13883320435E+03  0.19314443143E+03  0.12500000000E+03 0.  0.
</event>
<event>
 5    0  0.5547141E-005  0.4421728E+03  0.7546771E-02  0.1030082E+00
         21   -1    0    0  502  501  0.00000000000E+00  0.00000000000E+00  0.96420430885E+03  0.96420430885E+03  0.00000000000E+00 0.  1.
         21   -1    0    0  501  502 -0.00000000000E+00 -0.00000000000E+00 -0.20277526779E+03  0.20277526779E+03  0.00000000000E+00 0.  1.
         25    1    1    2    0    0  0.22236362707E+03  0.27555584210E+03  0.37732405037E+03  0.53232982609E+03  0.12500000000E+03 0.  0.
         25    1    1    2    0    0 -0.18358287095E+03 -0.27436849102E+02  0.15161871497E+03  0.27031220084E+03  0.12500000000E+03 0.  0.
         25    1    1    2    0    0 -0.38780756121E+02 -0.24811899299E+03  0.23248627572E+03  0.36433754971E+03  0.12500000000E+03 0.  0.
</event>
<event>
 5    0  0.5547141E-005  0.3866171E+03  0.7546771E-02  0.1048515E+00
         21   -1    0    0  502  501  0.00000000000E+00  0.00000000000E+00  0.33021847219E+03  0.33021847219E+03  0.00000000000E+00 0. -1.
         21   -1    0    0  501  502 -0.00000000000E+00 -0.00000000000E+00 -0.45264814872E+03  0.45264814872E+03  0.00000000000E+00 0. -1.
         25    1    1    2    0    0  0.67174946984E+02 -0.11316271436E+03 -0.81559214616E+02  0.19898537361E+03  0.12500000000E+03 0.  0.
         25    1    1    2    0    0 -0.24565561116E+03 -0.54566481228E+02  0.66402575173E+02  0.28871869035E+03  0.12500000000E+03 0.  0.
         25    1    1    2    0    0  0.17848066417E+03  0.16772919559E+03 -0.10727303709E+03  0.29516255694E+03  0.12500000000E+03 0.  0.
</event>
<event>
 5    0  0.5547141E-005  0.8938205E+03  0.7546771E-02  0.9433339E-01
         21   -1    0    0  502  501  0.00000000000E+00  0.00000000000E+00  0.95521262020E+03  0.95521262020E+03  0.00000000000E+00 0.  1.
         21   -1    0    0  501  502 -0.00000000000E+00 -0.00000000000E+00 -0.83637402474E+03  0.83637402474E+03  0.00000000000E+00 0.  1.
         25    1    1    2    0    0  0.70824136639E+03 -0.90639142645E+02  0.51421156569E+03  0.88874058168E+03  0.12500000000E+03 0.  0.
         25    1    1    2    0    0 -0.56958209812E+03 -0.23020751373E+02 -0.22398522638E+03  0.62509847475E+03  0.12500000000E+03 0.  0.
         25    1    1    2    0    0 -0.13865926827E+03  0.11365989402E+03 -0.17138774384E+03  0.27774758851E+03  0.12500000000E+03 0.  0.
</event>
<event>
 5    0  0.5547141E-005  0.2740748E+03  0.7546771E-02  0.1098970E+00
         21   -1    0    0  502  501  0.00000000000E+00  0.00000000000E+00  0.25221332527E+03  0.25221332527E+03  0.00000000000E+00 0. -1.
         21   -1    0    0  501  502 -0.00000000000E+00 -0.00000000000E+00 -0.29783114873E+03  0.29783114873E+03  0.00000000000E+00 0. -1.
         25    1    1    2    0    0 -0.93950200080E+02  0.13183336233E+03 -0.40048183942E+02  0.20841192997E+03  0.12500000000E+03 0.  0.
         25    1    1    2    0    0  0.12998117281E+03 -0.65884554308E+02  0.21834629883E+02  0.19322947716E+03  0.12500000000E+03 0.  0.
         25    1    1    2    0    0 -0.36030972730E+02 -0.65948808022E+02 -0.27404269398E+02  0.14840306687E+03  0.12500000000E+03 0.  0.
</event>
<event>
 5    0  0.5547141E-005  0.3225135E+03  0.7546771E-02  0.1074498E+00
         21   -1    0    0  502  501  0.00000000000E+00  0.00000000000E+00  0.46038145679E+03  0.46038145679E+03  0.00000000000E+00 0.  1.
         21   -1    0    0  501  502 -0.00000000000E+00 -0.00000000000E+00 -0.22593213056E+03  0.22593213056E+03  0.00000000000E+00 0.  1.
         25    1    1    2    0    0 -0.44249928713E+02 -0.18366628943E+03  0.82585427882E+02  0.24111556350E+03  0.12500000000E+03 0.  0.
         25    1    1    2    0    0  0.57234570371E+02  0.45768498096E+02  0.20515326190E+03  0.25116411434E+03  0.12500000000E+03 0.  0.
         25    1    1    2    0    0 -0.12984641658E+02  0.13789779133E+03 -0.53289363543E+02  0.19403390951E+03  0.12500000000E+03 0.  0.
</event>
<event>
 5    0  0.5547141E-005  0.5041497E+03  0.7546771E-02  0.1012701E+00
         21   -1    0    0  502  501  0.00000000000E+00  0.00000000000E+00  0.81653678710E+03  0.81653678710E+03  0.00000000000E+00 0.  1.
         21   -1    0    0  501  502 -0.00000000000E+00 -0.00000000000E+00 -0.31127431342E+03  0.31127431342E+03  0.00000000000E+00 0.  1.
         25    1    1    2    0    0 -0.12154288548E+02 -0.27764683843E+03 -0.86692195559E+02  0.31682176439E+03  0.12500000000E+03 0.  0.
         25    1    1    2    0    0  0.13660043453E+03  0.74053906778E+02  0.47907102821E+03  0.51891975284E+03  0.12500000000E+03 0.  0.
         25    1    1    2    0    0 -0.12444614598E+03  0.20359293166E+03  0.11288364104E+03  0.29206958329E+03  0.12500000000E+03 0.  0.
</event>
<event>
 5    0  0.7152645E-005  0.3617405E+03  0.7546771E-02  0.1057897E+00
         21   -1    0    0  502  501  0.00000000000E+00  0.00000000000E+00  0.73133877636E+03  0.73133877636E+03  0.00000000000E+00 0. -1.
         21   -1    0    0  501  502 -0.00000000000E+00 -0.00000000000E+00 -0.17892691008E+03  0.17892691008E+03  0.00000000000E+00 0. -1.
         25    1    1    2    0    0  0.20456759060E+02 -0.58053501476E+02 -0.48396675362E+02  0.14749890241E+03  0.12500000000E+03 0.  0.
         25    1    1    2    0    0 -0.11289130732E+03  0.97308152895E+02  0.67538239497E+02  0.20591196586E+03  0.12500000000E+03 0.  0.
         25    1    1    2    0    0  0.92434548263E+02 -0.39254651420E+02  0.53327030215E+03  0.55685481818E+03  0.12500000000E+03 0.  0.
</event>
<event>
 5    0  0.5547141E-005  0.2446675E+03  0.7546771E-02  0.1116722E+00
         21   -1    0    0  502  501  0.00000000000E+00  0.00000000000E+00  0.14024638019E+03  0.14024638019E+03  0.00000000000E+00 0.  1.
         21   -1    0    0  501  502 -0.00000000000E+00 -0.00000000000E+00 -0.42683598341E+03  0.42683598341E+03  0.00000000000E+00 0.  1.
         25    1    1    2    0    0 -0.60465836320E+02 -0.24998961589E+02 -0.22180277914E+03  0.26287361654E+03  0.12500000000E+03 0.  0.
         25    1    1    2    0    0 -0.59269266444E+01 -0.51306192974E+02 -0.16107859780E+02  0.13620542223E+03  0.12500000000E+03 0.  0.
         25    1    1    2    0    0  0.66392762964E+02  0.76305154563E+02 -0.48678964302E+02  0.16800332483E+03  0.12500000000E+03 0.  0.
</event>
<event>
 5    0  0.5547141E-005  0.3601667E+03  0.7546771E-02  0.1058518E+00
         21   -1    0    0  502  501  0.00000000000E+00  0.00000000000E+00  0.77767487217E+03  0.77767487217E+03  0.00000000000E+00 0. -1.
         21   -1    0    0  501  502 -0.00000000000E+00 -0.00000000000E+00 -0.16680495818E+03  0.16680495818E+03  0.00000000000E+00 0. -1.
         25    1    1    2    0    0  0.13478657101E+03  0.29664908070E+02 -0.22692692086E+02  0.18758300768E+03  0.12500000000E+03 0.  0.
         25    1    1    2    0    0 -0.21718439236E+03  0.96090799274E+01  0.31421343975E+03  0.40201552262E+03  0.12500000000E+03 0.  0.
         25    1    1    2    0    0  0.82397821350E+02 -0.39273987997E+02  0.31934916632E+03  0.35488130005E+03  0.12500000000E+03 0.  0.
</event>
<event>
 5    0  0.5547141E-005  0.2986932E+03  0.7546771E-02  0.1085896E+00
         21   -1    0    0  502  501  0.00000000000E+00  0.00000000000E+00  0.39958283406E+03  0.39958283406E+03  0.00000000000E+00 0.  1.
         21   -1    0    0  501  502 -0.00000000000E+00 -0.00000000000E+00 -0.22327690107E+03  0.22327690107E+03  0.00000000000E+00 0.  1.
         25    1    1    2    0    0  0.11257957179E+03 -0.11774041906E+03 -0.44704286013E+02  0.21014385419E+03  0.12500000000E+03 0.  0.
         25    1    1    2    0    0 -0.40703173587E+01 -0.13735151684E+02  0.33634705212E+02  0.13023638228E+03  0.12500000000E+03 0.  0.
         25    1    1    2    0    0 -0.10850925443E+03  0.13147557074E+03  0.18737551378E+03  0.28247949866E+03  0.12500000000E+03 0.  0.
</event>
<event>
 5    0  0.5547141E-005  0.3607650E+03  0.7546771E-02  0.1058281E+00
         21   -1    0    0  502  501  0.00000000000E+00  0.00000000000E+00  0.49719802588E+03  0.49719802588E+03  0.00000000000E+00 0.  1.
         21   -1    0    0  501  502 -0.00000000000E+00 -0.00000000000E+00 -0.26176977918E+03  0.26176977918E+03  0.00000000000E+00 0.  1.
         25    1    1    2    0    0  0.23114970591E+03 -0.44804037881E+01  0.16397090264E+03  0.30977688337E+03  0.12500000000E+03 0.  0.
         25    1    1    2    0    0 -0.27660342173E+03 -0.31097693752E+02  0.60553833212E+02  0.31107601352E+03  0.12500000000E+03 0.  0.
         25    1    1    2    0    0  0.45453715825E+02  0.35578097540E+02  0.10903510851E+02  0.13811490816E+03  0.12500000000E+03 0.  0.
</event>
<event>
 5    0  0.5547141E-005  0.4905384E+03  0.7546771E-02  0.1016278E+00
         21   -1    0    0  502  501  0.00000000000E+00  0.00000000000E+00  0.12854295434E+04  0.12854295434E+04  0.00000000000E+00 0. -1.
         21   -1    0    0  501  502 -0.00000000000E+00 -0.00000000000E+00 -0.18719650732E+03  0.18719650732E+03  0.00000000000E+00 0. -1.
         25    1    1    2    0    0  0.19036244463E+01 -0.32279593363E+03  0.62338079231E+03  0.71304239058E+03  0.12500000000E+03 0.  0.
         25    1    1    2    0    0  0.87865473857E+02  0.18885834543E+03  0.18101143692E+00  0.24292560363E+03  0.12500000000E+03 0.  0.
         25    1    1    2    0    0 -0.89769098304E+02  0.13393758820E+03  0.47467123238E+03  0.51665805654E+03  0.12500000000E+03 0.  0.
</event>
<event>
 5    0  0.5547141E-005  0.2585194E+03  0.7546771E-02  0.1108036E+00
         21   -1    0    0  502  501  0.00000000000E+00  0.00000000000E+00  0.12063800516E+03  0.12063800516E+03  0.00000000000E+00 0.  1.
         21   -1    0    0  501  502 -0.00000000000E+00 -0.00000000000E+00 -0.55399008209E+03  0.55399008209E+03  0.00000000000E+00 0.  1.
         25    1    1    2    0    0  0.57200605505E+02 -0.24718362418E+02 -0.30482907076E+03  0.33530384592E+03  0.12500000000E+03 0.  0.
         25    1    1    2    0    0 -0.89605136531E+02  0.43363721018E+02 -0.53318293635E+01  0.15988408676E+03  0.12500000000E+03 0.  0.
         25    1    1    2    0    0  0.32404531026E+02 -0.18645358600E+02 -0.12319117682E+03  0.17944015457E+03  0.12500000000E+03 0.  0.
</event>
<event>
 5    0  0.5547141E-005  0.2440271E+03  0.7546771E-02  0.1117139E+00
         21   -1    0    0  502  501  0.00000000000E+00  0.00000000000E+00  0.85670275025E+03  0.85670275025E+03  0.00000000000E+00 0. -1.
         21   -1    0    0  501  502 -0.00000000000E+00 -0.00000000000E+00 -0.69509791715E+02  0.69509791715E+02  0.00000000000E+00 0. -1.
         25    1    1    2    0    0  0.98163571673E+01 -0.47458708911E+02  0.13948885048E+03  0.19347048697E+03  0.12500000000E+03 0.  0.
         25    1    1    2    0    0 -0.89142581410E+02  0.84877582457E+02  0.23923474115E+03  0.29666288139E+03  0.12500000000E+03 0.  0.
         25    1    1    2    0    0  0.79326224242E+02 -0.37418873546E+02  0.40846936690E+03  0.43607917360E+03  0.12500000000E+03 0.  0.
</event>
<event>
 5    0  0.5736193E-005  0.4385936E+03  0.7546771E-02  0.1031179E+00
         21   -1    0    0  502  501  0.00000000000E+00  0.00000000000E+00  0.30873907974E+03  0.30873907974E+03  0.00000000000E+00 0.  1.
         21   -1    0    0  501  502 -0.00000000000E+00 -0.00000000000E+00 -0.62306441915E+03  0.62306441915E+03  0.00000000000E+00 0.  1.
         25    1    1    2    0    0 -0.66362018080E+02  0.22783924784E+02 -0.33432395609E+03  0.36375889307E+03  0.12500000000E+03 0.  0.
         25    1    1    2    0    0 -0.21732757316E+03 -0.44242601033E+02  0.34745454415E+02  0.25694538019E+03  0.12500000000E+03 0.  0.
         25    1    1    2    0    0  0.28368959124E+03  0.21458676249E+02 -0.14746837739E+02  0.31109922563E+03  0.12500000000E+03 0.  0.
</event>
<event>
 5    0  0.5547141E-005  0.3973220E+03  0.7546771E-02  0.1044711E+00
         21   -1    0    0  502  501  0.00000000000E+00  0.00000000000E+00  0.63977385298E+03  0.63977385298E+03  0.00000000000E+00 0. -1.
         21   -1    0    0  501  502 -0.00000000000E+00 -0.00000000000E+00 -0.24675089155E+03  0.24675089155E+03  0.00000000000E+00 0. -1.
         25    1    1    2    0    0 -0.66212039383E+02  0.21455255843E+03  0.13496702859E+03  0.29027217107E+03  0.12500000000E+03 0.  0.
         25    1    1    2    0    0  0.14354242422E+03 -0.72765896596E+02  0.32303584492E+03  0.38193777027E+03  0.12500000000E+03 0.  0.
         25    1    1    2    0    0 -0.77330384837E+02 -0.14178666184E+03 -0.64979912085E+02  0.21431480319E+03  0.12500000000E+03 0.  0.
</event>
<event>
 5    0  0.5547141E-005  0.3173666E+03  0.7546771E-02  0.1076868E+00
         21   -1    0    0  502  501  0.00000000000E+00  0.00000000000E+00  0.17112075504E+03  0.17112075504E+03  0.00000000000E+00 0.  1.
         21   -1    0    0  501  502 -0.00000000000E+00 -0.00000000000E+00 -0.58859916876E+03  0.58859916876E+03  0.00000000000E+00 0.  1.
         25    1    1    2    0    0  0.17350326524E+03 -0.76924987141E+02 -0.31448544956E+03  0.38800378178E+03  0.12500000000E+03 0.  0.
         25    1    1    2    0    0 -0.30178620493E+02  0.10296176916E+03 -0.37973073952E+02  0.16905274144E+03  0.12500000000E+03 0.  0.
         25    1    1    2    0    0 -0.14332464475E+03 -0.26036782019E+02 -0.65019890212E+02  0.20266340058E+03  0.12500000000E+03 0.  0.
</event>
<event>
 5    0  0.5547141E-005  0.4029925E+03  0.7546771E-02  0.1042748E+00
         21   -1    0    0  502  501  0.00000000000E+00  0.00000000000E+00  0.15942090027E+04  0.15942090027E+04  0.00000000000E+00 0.  1.
         21   -1    0    0  501  502 -0.00000000000E+00 -0.00000000000E+00 -0.10187057084E+03  0.10187057084E+03  0.00000000000E+00 0.  1.
         25    1    1    2    0    0  0.99737938147E+02 -0.34919330021E+02  0.66668433604E+03  0.68648380887E+03  0.12500000000E+03 0.  0.
         25    1    1    2    0    0  0.41549688110E+01 -0.16122021986E+03  0.69295206376E+03  0.72236887096E+03  0.12500000000E+03 0.  0.
         25    1    1    2    0    0 -0.10389290696E+03  0.19613954989E+03  0.13270203201E+03  0.28722689367E+03  0.12500000000E+03 0.  0.
</event>
<event>
 5    0  0.5547141E-005  0.2127559E+03  0.7546771E-02  0.1139402E+00
         21   -1    0    0  502  501  0.00000000000E+00  0.00000000000E+00  0.35478959379E+02  0.35478959379E+02  0.00000000000E+00 0. -1.
         21   -1    0    0  501  502 -0.00000000000E+00 -0.00000000000E+00 -0.12758285161E+04  0.12758285161E+04  0.00000000000E+00 0. -1.
         25    1    1    2    0    0  0.73872790147E+02 -0.20230180088E+02 -0.58043927070E+03  0.59866618101E+03  0.12500000000E+03 0.  0.
         25    1    1    2    0    0 -0.33108390919E+02  0.14997479829E+01 -0.40597703467E+03  0.42607601138E+03  0.12500000000E+03 0.  0.
         25    1    1    2    0    0 -0.40764399228E+02  0.18730432105E+02 -0.25393325133E+03  0.28656528307E+03  0.12500000000E+03 0.  0.
</event>
<event>
 5    0  0.5547141E-005  0.1982422E+03  0.7546771E-02  0.1151231E+00
         21   -1    0    0  502  501  0.00000000000E+00  0.00000000000E+00  0.14624055220E+03  0.14624055220E+03  0.00000000000E+00 0.  1.
         21   -1    0    0  501  502 -0.00000000000E+00 -0.00000000000E+00 -0.26873519722E+03  0.26873519722E+03  0.00000000000E+00 0.  1.
         25    1    1    2    0    0 -0.29325728770E+02  0.46459484986E+02 -0.28460719772E+02  0.13947578529E+03  0.12500000000E+03 0.  0.
         25    1    1    2    0    0  0.31193685888E+02 -0.33550528063E+02 -0.43741329956E+02  0.14013203745E+03  0.12500000000E+03 0.  0.
         25    1    1    2    0    0 -0.18679571173E+01 -0.12908956923E+02 -0.50292595288E+02  0.13536792668E+03  0.12500000000E+03 0.  0.
</event>
<event>
 5    0  0.5547141E-005  0.3847951E+03  0.7546771E-02  0.1049176E+00
         21   -1    0    0  502  501  0.00000000000E+00  0.00000000000E+00  0.25722226311E+03  0.25722226311E+03  0.00000000000E+00 0.  1.
         21   -1    0    0  501  502 -0.00000000000E+00 -0.00000000000E+00 -0.57563949262E+03  0.57563949262E+03  0.00000000000E+00 0.  1.
         25    1    1    2    0    0  0.18488295319E+03  0.11399195883E+03 -0.93072235434E+02  0.26732623154E+03  0.12500000000E+03 0.  0.
         25    1    1    2    0    0 -0.48904370460E+02 -0.16102190849E+03 -0.29561425159E+03  0.36239823152E+03  0.12500000000E+03 0.  0.
         25    1    1    2    0    0 -0.13597858273E+03  0.47029949660E+02  0.70269257517E+02  0.20313729268E+03  0.12500000000E+03 0.  0.
</event>
<event>
 5    0  0.5547141E-005  0.3976996E+03  0.7546771E-02  0.1044579E+00
         21   -1    0    0  502  501  0.00000000000E+00  0.00000000000E+00  0.40618994750E+03  0.40618994750E+03  0.00000000000E+00 0.  1.
         21   -1    0    0  501  502 -0.00000000000E+00 -0.00000000000E+00 -0.38938663123E+03  0.38938663123E+03  0.00000000000E+00 0.  1.
         25    1    1    2    0    0 -0.17598213863E+03  0.88278725265E+02 -0.20805315298E+03  0.31252833618E+03  0.12500000000E+03 0.  0.
         25    1    1    2    0    0  0.22295544029E+02 -0.35743428875E+00 -0.46979136251E+02  0.13538559113E+03  0.12500000000E+03 0.  0.
         25    1    1    2    0    0  0.15368659460E+03 -0.87921290976E+02  0.27183560550E+03  0.34766265141E+03  0.12500000000E+03 0.  0.
</event>
<event>
 5    0  0.5547141E-005  0.6451450E+03  0.7546771E-02  0.9815932E-01
         21   -1    0    0  502  501  0.00000000000E+00  0.00000000000E+00  0.15284478288E+04  0.15284478288E+04  0.00000000000E+00 0.  1.
         21   -1    0    0  501  502 -0.00000000000E+00 -0.00000000000E+00 -0.27231031110E+03  0.27231031110E+03  0.00000000000E+00 0.  1.
         25    1    1    2    0    0 -0.84486860488E+02 -0.22738096546E+03  0.39018460855E+03  0.47613985529E+03  0.12500000000E+03 0.  0.
         25    1    1    2    0    0 -0.62917346466E+02  0.56890739714E+03  0.37293942295E+03  0.69449480358E+03  0.12500000000E+03 0.  0.
         25    1    1    2    0    0  0.14740420695E+03 -0.34152643168E+03  0.49301348617E+03  0.63012348100E+03  0.12500000000E+03 0.  0.
</event>
<event>
 5    0  0.5547141E-005  0.3509046E+03  0.7546771E-02  0.1062244E+00
         21   -1    0    0  502  501  0.00000000000E+00  0.00000000000E+00  0.39678411615E+03  0.39678411615E+03  0.00000000000E+00 0. -1.
         21   -1    0    0  501  502 -0.00000000000E+00 -0.00000000000E+00 -0.31032997984E+03  0.31032997984E+03  0.00000000000E+00 0. -1.
         25    1    1    2    0    0  0.63154048654E+02 -0.83215406859E+02 -0.17694718272E+03  0.24051724112E+03  0.12500000000E+03 0.  0.
         25    1    1    2    0    0  0.47456583794E+02 -0.63084326928E+02  0.43386579376E+02  0.15407515997E+03  0.12500000000E+03 0.  0.
         25    1    1    2    0    0 -0.11061063245E+03  0.14629973379E+03  0.22001473966E+03  0.31252169490E+03  0.12500000000E+03 0.  0.
</event>
<event>
 5    0  0.5547141E-005  0.4019779E+03  0.7546771E-02  0.1043097E+00
         21   -1    0    0  502  501  0.00000000000E+00  0.00000000000E+00  0.40244690082E+03  0.40244690082E+03  0.00000000000E+00 0. -1.
         21   -1    0    0  501  502 -0.00000000000E+00 -0.00000000000E+00 -0.40150935715E+03  0.40150935715E+03  0.00000000000E+00 0. -1.
         25    1    1    2    0    0 -0.10726666168E+03 -0.17640816462E+02  0.26970242953E+03  0.31651498481E+03  0.12500000000E+03 0.  0.
         25    1    1    2    0    0 -0.65731974745E+01  0.14441988558E+03 -0.92832842744E+02  0.21246940243E+03  0.12500000000E+03 0.  0.
         25    1    1    2    0    0  0.11383985916E+03 -0.12677906912E+03 -0.17593204312E+03  0.27497187073E+03  0.12500000000E+03 0.  0.
</event>
<event>
 5    0  0.5547141E-005  0.3579583E+03  0.7546771E-02  0.1059395E+00
         21   -1    0    0  502  501  0.00000000000E+00  0.00000000000E+00  0.15654279825E+03  0.15654279825E+03  0.00000000000E+00 0.  1.
         21   -1    0    0  501  502 -0.00000000000E+00 -0.00000000000E+00 -0.81852477727E+03  0.81852477727E+03  0.00000000000E+00 0.  1.
         25    1    1    2    0    0  0.22335955561E+02  0.20395547357E+03 -0.58977521118E+02  0.24738649540E+03  0.12500000000E+03 0.  0.
         25    1    1    2    0    0  0.31861093770E+02  0.83704233342E+01 -0.94797492902E+02  0.16030208340E+03  0.12500000000E+03 0.  0.
         25    1    1    2    0    0 -0.54197049331E+02 -0.21232589690E+03 -0.50820696500E+03  0.56737899672E+03  0.12500000000E+03 0.  0.
</event>
<event>
 5    0  0.5547141E-005  0.2572939E+03  0.7546771E-02  0.1108780E+00
         21   -1    0    0  502  501  0.00000000000E+00  0.00000000000E+00  0.29184450440E+03  0.29184450440E+03  0.00000000000E+00 0. -1.
         21   -1    0    0  501  502 -0.00000000000E+00 -0.00000000000E+00 -0.22683360180E+03  0.22683360180E+03  0.00000000000E+00 0. -1.
         25    1    1    2    0    0 -0.11158238907E+02  0.14440210832E+02 -0.13850575629E+03  0.18746165077E+03  0.12500000000E+03 0.  0.
         25    1    1    2    0    0 -0.77412026864E+01  0.27127530090E+02  0.95452740086E+02  0.15978752986E+03  0.12500000000E+03 0.  0.
         25    1    1    2    0    0  0.18899441593E+02 -0.41567740923E+02  0.10806391880E+03  0.17142892557E+03  0.12500000000E+03 0.  0.
</event>
<event>
 5    0  0.5547141E-005  0.4151811E+03  0.7546771E-02  0.1038646E+00
         21   -1    0    0  502  501  0.00000000000E+00  0.00000000000E+00  0.23530131853E+03  0.23530131853E+03  0.00000000000E+00 0. -1.
         21   -1    0    0  501  502 -0.00000000000E+00 -0.00000000000E+00 -0.73257275439E+03  0.73257275439E+03  0.00000000000E+00 0. -1.
         25    1    1    2    0    0  0.26169736247E+03 -0.43306179904E+02 -0.11088835170E-01  0.29323358414E+03  0.12500000000E+03 0.  0.
         25    1    1    2    0    0  0.18256271873E+02 -0.50710412073E+01 -0.64084607837E+02  0.14174217398E+03  0.12500000000E+03 0.  0.
         25    1    1    2    0    0 -0.27995363435E+03  0.48377221111E+02 -0.43317573919E+03  0.53289831481E+03  0.12500000000E+03 0.  0.
</event>
<event>
 5    0  0.5547141E-005  0.3430282E+03  0.7546771E-02  0.1065513E+00
         21   -1    0    0  502  501  0.00000000000E+00  0.00000000000E+00  0.22823875921E+04  0.22823875921E+04  0.00000000000E+00 0.  1.
         21   -1    0    0  501  502 -0.00000000000E+00 -0.00000000000E+00 -0.51554922699E+02  0.51554922699E+02  0.00000000000E+00 0.  1.
         25    1    1    2    0    0 -0.55757916918E+02  0.15052752311E+03  0.84624481054E+03  0.87035783439E+03  0.12500000000E+03 0.  0.
         25    1    1    2    0    0  0.46491939576E+02 -0.10692692150E+03  0.12883807609E+04  0.12996710553E+04  0.12500000000E+03 0.  0.
         25    1    1    2    0    0  0.92659773414E+01 -0.43600601606E+02  0.96207097997E+02  0.16391362512E+03  0.12500000000E+03 0.  0.
</event>
<event>
 5    0  0.5547141E-005  0.3165700E+03  0.7546771E-02  0.1077239E+00
         21   -1    0    0  502  501  0.00000000000E+00  0.00000000000E+00  0.96779360361E+02  0.96779360361E+02  0.00000000000E+00 0.  1.
         21   -1    0    0  501  502 -0.00000000000E+00 -0.00000000000E+00 -0.10355157498E+04  0.10355157498E+04  0.00000000000E+00 0.  1.
         25    1    1    2    0    0  0.51499076800E+02 -0.13481431286E+03 -0.21123145078E+03  0.28472930945E+03  0.12500000000E+03 0.  0.
         25    1    1    2    0    0 -0.14804465563E+03  0.18593026573E+03 -0.43377347290E+03  0.51016831493E+03  0.12500000000E+03 0.  0.
         25    1    1    2    0    0  0.96545578832E+02 -0.51115952869E+02 -0.29373146578E+03  0.33739748579E+03  0.12500000000E+03 0.  0.
</event>
<event>
 5    0  0.5547141E-005  0.3960465E+03  0.7546771E-02  0.1045157E+00
         21   -1    0    0  502  501  0.00000000000E+00  0.00000000000E+00  0.63194000360E+03  0.63194000360E+03  0.00000000000E+00 0.  1.
         21   -1    0    0  501  502 -0.00000000000E+00 -0.00000000000E+00 -0.24820838942E+03  0.24820838942E+03  0.00000000000E+00 0.  1.
         25    1    1    2    0    0 -0.32147033800E+03  0.93021088477E+02  0.12726839872E+03  0.37923389409E+03  0.12500000000E+03 0.  0.
         25    1    1    2    0    0  0.10982420227E+03 -0.20161368772E+01  0.77713282984E+02  0.18365667580E+03  0.12500000000E+03 0.  0.
         25    1    1    2    0    0  0.21164613573E+03 -0.91004951599E+02  0.17874993248E+03  0.31725782314E+03  0.12500000000E+03 0.  0.
</event>
<event>
 5    0  0.5547141E-005  0.3062222E+03  0.7546771E-02  0.1082171E+00
         21   -1    0    0  502  501  0.00000000000E+00  0.00000000000E+00  0.63137769520E+03  0.63137769520E+03  0.00000000000E+00 0.  1.
         21   -1    0    0  501  502 -0.00000000000E+00 -0.00000000000E+00 -0.14851973878E+03  0.14851973878E+03  0.00000000000E+00 0.  1.
         25    1    1    2    0    0  0.21571395636E+01 -0.92021276089E+02  0.13826510039E+02  0.15584845487E+03  0.12500000000E+03 0.  0.
         25    1    1    2    0    0  0.28471297451E+02  0.72899784666E+02  0.10991349621E+02  0.14788780595E+03  0.12500000000E+03 0.  0.
         25    1    1    2    0    0 -0.30628437015E+02  0.19121491422E+02  0.45804009676E+03  0.47616117316E+03  0.12500000000E+03 0.  0.
</event>
<event>
 5    0  0.5787055E-005  0.2549740E+03  0.7546771E-02  0.1110201E+00
         21   -1    0    0  502  501  0.00000000000E+00  0.00000000000E+00  0.43307169197E+03  0.43307169197E+03  0.00000000000E+00 0.  1.
         21   -1    0    0  501  502 -0.00000000000E+00 -0.00000000000E+00 -0.15011771171E+03  0.15011771171E+03  0.00000000000E+00 0.  1.
         25    1    1    2    0    0 -0.67517109974E+02  0.43580681722E+02  0.10874845608E+03  0.18414413555E+03  0.12500000000E+03 0.  0.
         25    1    1    2    0    0  0.39486049035E+02  0.70187520814E+02  0.17245217928E+03  0.22770636856E+03  0.12500000000E+03 0.  0.
         25    1    1    2    0    0  0.28031060938E+02 -0.11376820254E+03  0.17533449009E+01  0.17133889956E+03  0.12500000000E+03 0.  0.
</event>
<event>
 5    0  0.5547141E-005  0.2619501E+03  0.7546771E-02  0.1105977E+00
         21   -1    0    0  502  501  0.00000000000E+00  0.00000000000E+00  0.31161130228E+03  0.31161130228E+03  0.00000000000E+00 0. -1.
         21   -1    0    0  501  502 -0.00000000000E+00 -0.00000000000E+00 -0.22020331158E+03  0.22020331158E+03  0.00000000000E+00 0. -1.
         25    1    1    2    0    0  0.21326056765E+02 -0.32574481951E+02  0.39070393795E+02  0.13662866918E+03  0.12500000000E+03 0.  0.
         25    1    1    2    0    0  0.29860476848E+02  0.10412028834E+03 -0.88284298540E+02  0.18748813267E+03  0.12500000000E+03 0.  0.
         25    1    1    2    0    0 -0.51186533613E+02 -0.71545806390E+02  0.14062189544E+03  0.20769781201E+03  0.12500000000E+03 0.  0.
</event>
<event>
 5    0  0.5547141E-005  0.4173043E+03  0.7546771E-02  0.1037947E+00
         21   -1    0    0  502  501  0.00000000000E+00  0.00000000000E+00  0.22607646901E+03  0.22607646901E+03  0.00000000000E+00 0. -1.
         21   -1    0    0  501  502 -0.00000000000E+00 -0.00000000000E+00 -0.77028317598E+03  0.77028317598E+03  0.00000000000E+00 0. -1.
         25    1    1    2    0    0 -0.53822705901E+02  0.70442535288E+01 -0.80297231883E+02  0.15817443101E+03  0.12500000000E+03 0.  0.
         25    1    1    2    0    0 -0.94199183820E+02 -0.30457998397E+03 -0.24517092807E+03  0.42116058320E+03  0.12500000000E+03 0.  0.
         25    1    1    2    0    0  0.14802188972E+03  0.29753573044E+03 -0.21873854702E+03  0.41702463078E+03  0.12500000000E+03 0.  0.
</event>
<event>
 5    0  0.5547141E-005  0.4862901E+03  0.7546771E-02  0.1017421E+00
         21   -1    0    0  502  501  0.00000000000E+00  0.00000000000E+00  0.15352181537E+03  0.15352181537E+03  0.00000000000E+00 0. -1.
         21   -1    0    0  501  502 -0.00000000000E+00 -0.00000000000E+00 -0.15403549858E+04  0.15403549858E+04  0.00000000000E+00 0. -1.
         25    1    1    2    0    0  0.16478524569E+03 -0.11286194072E+03 -0.13858029713E+02  0.23602762518E+03  0.12500000000E+03 0.  0.
         25    1    1    2    0    0 -0.11343729553E+03  0.12404993182E+03 -0.24756258437E+03  0.32429714581E+03  0.12500000000E+03 0.  0.
         25    1    1    2    0    0 -0.51347950162E+02 -0.11187991103E+02 -0.11254125564E+04  0.11335520302E+04  0.12500000000E+03 0.  0.
</event>
<event>
 5    0  0.5583136E-005  0.4300994E+03  0.7546771E-02  0.1033829E+00
         21   -1    0    0  502  501  0.00000000000E+00  0.00000000000E+00  0.59627292434E+03  0.59627292434E+03  0.00000000000E+00 0.  1.
         21   -1    0    0  501  502 -0.00000000000E+00 -0.00000000000E+00 -0.31023631780E+03  0.31023631780E+03  0.00000000000E+00 0.  1.
         25    1    1    2    0    0 -0.25191449942E+03 -0.11034688531E+03  0.12940070077E+03  0.32864401938E+03  0.12500000000E+03 0.  0.
         25    1    1    2    0    0  0.94173240486E+02  0.17713577459E+03  0.25186450378E+03  0.34540759999E+03  0.12500000000E+03 0.  0.
         25    1    1    2    0    0  0.15774125894E+03 -0.66788889285E+02 -0.95228598015E+02  0.23245762277E+03  0.12500000000E+03 0.  0.
</event>
<event>
 5    0  0.5547141E-005  0.5213871E+03  0.7546771E-02  0.1008343E+00
         21   -1    0    0  502  501  0.00000000000E+00  0.00000000000E+00  0.22295304741E+03  0.22295304741E+03  0.00000000000E+00 0. -1.
         21   -1    0    0  501  502 -0.00000000000E+00 -0.00000000000E+00 -0.12192905249E+04  0.12192905249E+04  0.00000000000E+00 0. -1.
         25    1    1    2    0    0  0.15368573576E+03  0.37970799533E+03 -0.49030524367E+03  0.65101589770E+03  0.12500000000E+03 0.  0.
         25    1    1    2    0    0  0.56200988764E+02  0.20167558261E+02 -0.13625160757E+03  0.19430589829E+03  0.12500000000E+03 0.  0.
         25    1    1    2    0    0 -0.20988672452E+03 -0.39987555359E+03 -0.36978062623E+03  0.59692177630E+03  0.12500000000E+03 0.  0.
</event>
<event>
 5    0  0.5547141E-005  0.4039022E+03  0.7546771E-02  0.1042437E+00
         21   -1    0    0  502  501  0.00000000000E+00  0.00000000000E+00  0.22799855436E+03  0.22799855436E+03  0.00000000000E+00 0. -1.
         21   -1    0    0  501  502 -0.00000000000E+00 -0.00000000000E+00 -0.71551770000E+03  0.71551770000E+03  0.00000000000E+00 0. -1.
         25    1    1    2    0    0  0.80901540861E+02  0.13260473578E+03 -0.58628943287E+02  0.20782547547E+03  0.12500000000E+03 0.  0.
         25    1    1    2    0    0 -0.28795447022E+03 -0.61543274062E+02 -0.34387148291E+03  0.46965726681E+03  0.12500000000E+03 0.  0.
         25    1    1    2    0    0  0.20705292936E+03 -0.71061461716E+02 -0.85018719430E+02  0.26603351208E+03  0.12500000000E+03 0.  0.
</event>
<event>
 5    0  0.5547141E-005  0.4123772E+03  0.7546771E-02  0.1039576E+00
         21   -1    0    0  502  501  0.00000000000E+00  0.00000000000E+00  0.86012809701E+03  0.86012809701E+03  0.00000000000E+00 0. -1.
         21   -1    0    0  501  502 -0.00000000000E+00 -0.00000000000E+00 -0.19770891097E+03  0.19770891097E+03  0.00000000000E+00 0. -1.
         25    1    1    2    0    0 -0.80734992317E+02  0.35875085381E+00 -0.13262136112E+03  0.19932810417E+03  0.12500000000E+03 0.  0.
         25    1    1    2    0    0  0.11229177541E+03  0.45626116768E+02  0.56080597838E+03  0.58721336050E+03  0.12500000000E+03 0.  0.
         25    1    1    2    0    0 -0.31556783097E+02 -0.45984867622E+02  0.23423456878E+03  0.27129554332E+03  0.12500000000E+03 0.  0.
</event>
<event>
 5    0  0.5547141E-005  0.3005598E+03  0.7546771E-02  0.1084961E+00
         21   -1    0    0  502  501  0.00000000000E+00  0.00000000000E+00  0.46784895510E+03  0.46784895510E+03  0.00000000000E+00 0.  1.
         21   -1    0    0  501  502 -0.00000000000E+00 -0.00000000000E+00 -0.19308843362E+03  0.19308843362E+03  0.00000000000E+00 0.  1.
         25    1    1    2    0    0 -0.35406444027E+02 -0.10701243371E+03  0.96271260620E+02  0.19390315332E+03  0.12500000000E+03 0.  0.
         25    1    1    2    0    0  0.16377365277E+03  0.32230907329E+01  0.21467797881E+02  0.20716675410E+03  0.12500000000E+03 0.  0.
         25    1    1    2    0    0 -0.12836720875E+03  0.10378934298E+03  0.15702146298E+03  0.25986748129E+03  0.12500000000E+03 0.  0.
</event>
<event>
 5    0  0.5547141E-005  0.2816786E+03  0.7546771E-02  0.1094776E+00
         21   -1    0    0  502  501  0.00000000000E+00  0.00000000000E+00  0.13073541096E+03  0.13073541096E+03  0.00000000000E+00 0. -1.
         21   -1    0    0  501  502 -0.00000000000E+00 -0.00000000000E+00 -0.60689648692E+03  0.60689648692E+03  0.00000000000E+00 0. -1.
         25    1    1    2    0    0  0.11166860699E+03 -0.67015982766E+02 -0.31844412431E+02  0.18330326330E+03  0.12500000000E+03 0.  0.
         25    1    1    2    0    0 -0.13785801369E+03  0.13796555053E+02 -0.19984017551E+03  0.27341593336E+03  0.12500000000E+03 0.  0.
         25    1    1    2    0    0  0.26189406698E+02  0.53219427713E+02 -0.24447648802E+03  0.28091270122E+03  0.12500000000E+03 0.  0.
</event>
<event>
 5    0  0.5547141E-005  0.4109348E+03  0.7546771E-02  0.1040058E+00
         21   -1    0    0  502  501  0.00000000000E+00  0.00000000000E+00  0.70337466120E+03  0.70337466120E+03  0.00000000000E+00 0. -1.
         21   -1    0    0  501  502 -0.00000000000E+00 -0.00000000000E+00 -0.24008178820E+03  0.24008178820E+03  0.00000000000E+00 0. -1.
         25    1    1    2    0    0  0.91397934780E+01  0.21763835262E+01 -0.47573769932E+02  0.13407660518E+03  0.12500000000E+03 0.  0.
         25    1    1    2    0    0  0.90025079358E+02 -0.10153739230E+03  0.58035873692E+03  0.60897916259E+03  0.12500000000E+03 0.  0.
         25    1    1    2    0    0 -0.99164872836E+02  0.99361008772E+02 -0.69492093989E+02  0.20040068162E+03  0.12500000000E+03 0.  0.
</event>
<event>
 5    0  0.5547141E-005  0.2548896E+03  0.7546771E-02  0.1110253E+00
         21   -1    0    0  502  501  0.00000000000E+00  0.00000000000E+00  0.28857394088E+03  0.28857394088E+03  0.00000000000E+00 0. -1.
         21   -1    0    0  501  502 -0.00000000000E+00 -0.00000000000E+00 -0.22513717111E+03  0.22513717111E+03  0.00000000000E+00 0. -1.
         25    1    1    2    0    0 -0.10218254292E+02  0.10625536174E+03  0.47440604896E+02  0.17108543367E+03  0.12500000000E+03 0.  0.
         25    1    1    2    0    0  0.79422866508E+02 -0.85481512203E+02 -0.57769877464E+02  0.18049221422E+03  0.12500000000E+03 0.  0.
         25    1    1    2    0    0 -0.69204612216E+02 -0.20773849541E+02  0.73766042341E+02  0.16213346409E+03  0.12500000000E+03 0.  0.
</event>
<event>
 5    0  0.5547141E-005  0.2730258E+03  0.7546771E-02  0.1099560E+00
         21   -1    0    0  502  501  0.00000000000E+00  0.00000000000E+00  0.14667160737E+03  0.14667160737E+03  0.00000000000E+00 0.  1.
         21   -1    0    0  501  502 -0.00000000000E+00 -0.00000000000E+00 -0.50823135417E+03  0.50823135417E+03  0.00000000000E+00 0.  1.
         25    1    1    2    0    0 -0.14594218185E+03 -0.47521271944E+01 -0.10543371231E+03  0.21923268654E+03  0.12500000000E+03 0.  0.
         25    1    1    2    0    0  0.13390240722E+03 -0.56027490076E+02 -0.71961039055E+02  0.20462728422E+03  0.12500000000E+03 0.  0.
         25    1    1    2    0    0  0.12039774625E+02  0.60779617270E+02 -0.18416499544E+03  0.23104299079E+03  0.12500000000E+03 0.  0.
</event>
<event>
 5    0  0.5547141E-005  0.2944144E+03  0.7546771E-02  0.1088067E+00
         21   -1    0    0  502  501  0.00000000000E+00  0.00000000000E+00  0.48532454044E+03  0.48532454044E+03  0.00000000000E+00 0. -1.
         21   -1    0    0  501  502 -0.00000000000E+00 -0.00000000000E+00 -0.17860179951E+03  0.17860179951E+03  0.00000000000E+00 0. -1.
         25    1    1    2    0    0 -0.23948209861E+02  0.44013050753E+02 -0.74764952024E+02  0.15403072240E+03  0.12500000000E+03 0.  0.
         25    1    1    2    0    0 -0.67007234694E+01 -0.41031517232E+02  0.35473918578E+03  0.37840900495E+03  0.12500000000E+03 0.  0.
         25    1    1    2    0    0  0.30648933330E+02 -0.29815335217E+01  0.26748507182E+02  0.13148661260E+03  0.12500000000E+03 0.  0.
</event>
<event>
 5    0  0.5547141E-005  0.4563101E+03  0.7546771E-02  0.1025857E+00
         21   -1    0    0  502  501  0.00000000000E+00  0.00000000000E+00  0.33656831836E+03  0.33656831836E+03  0.00000000000E+00 0. -1.
         21   -1    0    0  501  502 -0.00000000000E+00 -0.00000000000E+00 -0.61865273208E+03  0.61865273208E+03  0.00000000000E+00 0. -1.
         25    1    1    2    0    0  0.27199810869E+03  0.14385300358E+03 -0.30774504701E+03  0.45277883313E+03  0.12500000000E+03 0.  0.
         25    1    1    2    0    0 -0.29565173153E+03 -0.18362353842E+02 -0.25943773220E+01  0.32152582041E+03  0.12500000000E+03 0.  0.
         25    1    1    2    0    0  0.23653622842E+02 -0.12549064974E+03  0.28255010618E+02  0.18091639691E+03  0.12500000000E+03 0.  0.
</event>
<event>
 5    0  0.5547141E-005  0.2606309E+03  0.7546771E-02  0.1106765E+00
         21   -1    0    0  502  501  0.00000000000E+00  0.00000000000E+00  0.61684681266E+03  0.61684681266E+03  0.00000000000E+00 0. -1.
         21   -1    0    0  501  502 -0.00000000000E+00 -0.00000000000E+00 -0.11012210323E+03  0.11012210323E+03  0.00000000000E+00 0. -1.
         25    1    1    2    0    0  0.40740557762E+02 -0.49748133036E+02  0.20943217373E+03  0.25223303745E+03  0.12500000000E+03 0.  0.
         25    1    1    2    0    0  0.85215074411E+02  0.85732419126E+02  0.78631346096E+02  0.19083905571E+03  0.12500000000E+03 0.  0.
         25    1    1    2    0    0 -0.12595563217E+03 -0.35984286090E+02  0.21866118959E+03  0.28389682273E+03  0.12500000000E+03 0.  0.
</event>
<event>
 5    0  0.5547141E-005  0.4811656E+03  0.7546771E-02  0.1018815E+00
         21   -1    0    0  502  501  0.00000000000E+00  0.00000000000E+00  0.11008204672E+03  0.11008204672E+03  0.00000000000E+00 0.  1.
         21   -1    0    0  501  502 -0.00000000000E+00 -0.00000000000E+00 -0.21031613629E+04  0.21031613629E+04  0.00000000000E+00 0.  1.
         25    1    1    2    0    0 -0.58907787651E+02  0.23645467715E+03 -0.12510400914E+04  0.12806667217E+04  0.12500000000E+03 0.  0.
         25    1    1    2    0    0  0.13044003295E+03  0.92009512179E+02 -0.21962098169E+03  0.29889584829E+03  0.12500000000E+03 0.  0.
         25    1    1    2    0    0 -0.71532245294E+02 -0.32846418933E+03 -0.52241824309E+03  0.63368083962E+03  0.12500000000E+03 0.  0.
</event>
<event>
 5    0  0.5547141E-005  0.2987817E+03  0.7546771E-02  0.1085851E+00
         21   -1    0    0  502  501  0.00000000000E+00  0.00000000000E+00  0.20659865957E+04  0.20659865957E+04  0.00000000000E+00 0. -1.
         21   -1    0    0  501  502 -0.00000000000E+00 -0.00000000000E+00 -0.43209618544E+02  0.43209618544E+02  0.00000000000E+00 0. -1.
         25    1    1    2    0    0 -0.30709314173E+02  0.17173973949E+03  0.67159216281E+03  0.70505222022E+03  0.12500000000E+03 0.  0.
         25    1    1    2    0    0  0.79410647626E+02 -0.29493697069E+02  0.31073151478E+03  0.34547793475E+03  0.12500000000E+03 0.  0.
         25    1    1    2    0    0 -0.48701333453E+02 -0.14224604242E+03  0.10404532995E+04  0.10586660592E+04  0.12500000000E+03 0.  0.
</event>
<event>
 5    0  0.5547141E-005  0.2361634E+03  0.7546771E-02  0.1122375E+00
         21   -1    0    0  502  501  0.00000000000E+00  0.00000000000E+00  0.93585183134E+03  0.93585183134E+03  0.00000000000E+00 0.  1.
         21   -1    0    0  501  502 -0.00000000000E+00 -0.00000000000E+00 -0.59596112797E+02  0.59596112797E+02  0.00000000000E+00 0.  1.
         25    1    1    2    0    0 -0.21665218272E+02 -0.54027735863E+02  0.34211048591E+03  0.36885357866E+03  0.12500000000E+03 0.  0.
         25    1    1    2    0    0  0.11142624257E+03  0.43248147360E+02  0.26751045322E+03  0.31854835169E+03  0.12500000000E+03 0.  0.
         25    1    1    2    0    0 -0.89761024302E+02  0.10779588503E+02  0.26663477941E+03  0.30804601378E+03  0.12500000000E+03 0.  0.
</event>
<event>
 5    0  0.5547141E-005  0.2398357E+03  0.7546771E-02  0.1119902E+00
         21   -1    0    0  502  501  0.00000000000E+00  0.00000000000E+00  0.34348798481E+03  0.34348798481E+03  0.00000000000E+00 0.  1.
         21   -1    0    0  501  502 -0.00000000000E+00 -0.00000000000E+00 -0.16746193372E+03  0.16746193372E+03  0.00000000000E+00 0.  1.
         25    1    1    2    0    0 -0.73002807393E+02 -0.11365731813E+03  0.67839380090E+02  0.19614937507E+03  0.12500000000E+03 0.  0.
         25    1    1    2    0    0  0.59333657938E+02  0.33834588004E+02  0.26361393136E+02  0.14486264307E+03  0.12500000000E+03 0.  0.
         25    1    1    2    0    0  0.13669149455E+02  0.79822730122E+02  0.81825277863E+02  0.16993790039E+03  0.12500000000E+03 0.  0.
</event>
<event>
 5    0  0.5547141E-005  0.2705919E+03  0.7546771E-02  0.1100941E+00
         21   -1    0    0  502  501  0.00000000000E+00  0.00000000000E+00  0.96088151469E+03  0.96088151469E+03  0.00000000000E+00 0. -1.
         21   -1    0    0  501  502 -0.00000000000E+00 -0.00000000000E+00 -0.76200845370E+02  0.76200845370E+02  0.00000000000E+00 0. -1.
         25    1    1    2    0    0 -0.62054338223E+02  0.12764132589E+03  0.22561517733E+03  0.29439812705E+03  0.12500000000E+03 0.  0.
         25    1    1    2    0    0 -0.30570408331E+01  0.21926496067E+01  0.13185429382E+03  0.18172701508E+03  0.12500000000E+03 0.  0.
         25    1    1    2    0    0  0.65111379056E+02 -0.12983397550E+03  0.52721119817E+03  0.56095721793E+03  0.12500000000E+03 0.  0.
</event>
<event>
 5    0  0.5547141E-005  0.2618230E+03  0.7546771E-02  0.1106053E+00
         21   -1    0    0  502  501  0.00000000000E+00  0.00000000000E+00  0.47849984034E+03  0.47849984034E+03  0.00000000000E+00 0.  1.
         21   -1    0    0  501  502 -0.00000000000E+00 -0.00000000000E+00 -0.14326296028E+03  0.14326296028E+03  0.00000000000E+00 0.  1.
         25    1    1    2    0    0 -0.24054735030E+02  0.29169403460E+02  0.69402808394E+02  0.14788926326E+03  0.12500000000E+03 0.  0.
         25    1    1    2    0    0  0.49875069830E+02 -0.77234245921E+02 -0.20691025831E+02  0.15654318856E+03  0.12500000000E+03 0.  0.
         25    1    1    2    0    0 -0.25820334800E+02  0.48064842461E+02  0.28652509750E+03  0.31733034880E+03  0.12500000000E+03 0.  0.
</event>
<event>
 5    0  0.5547141E-005  0.3275013E+03  0.7546771E-02  0.1072248E+00
         21   -1    0    0  502  501  0.00000000000E+00  0.00000000000E+00  0.21872098384E+03  0.21872098384E+03  0.00000000000E+00 0.  1.
         21   -1    0    0  501  502 -0.00000000000E+00 -0.00000000000E+00 -0.49038334215E+03  0.49038334215E+03  0.00000000000E+00 0.  1.
         25    1    1    2    0    0  0.22376935301E+03 -0.46082713064E+01 -0.74728677748E+02  0.26702684283E+03  0.12500000000E+03 0.  0.
         25    1    1    2    0    0 -0.62283261515E+02  0.98458220500E+02 -0.91476988191E+02  0.19382018785E+03  0.12500000000E+03 0.  0.
         25    1    1    2    0    0 -0.16148609150E+03 -0.93849949193E+02 -0.10545669238E+03  0.24825729532E+03  0.12500000000E+03 0.  0.
</event>
<event>
 5    0  0.5547141E-005  0.2936009E+03  0.7546771E-02  0.1088484E+00
         21   -1    0    0  502  501  0.00000000000E+00  0.00000000000E+00  0.19823305503E+03  0.19823305503E+03  0.00000000000E+00 0. -1.
         21   -1    0    0  501  502 -0.00000000000E+00 -0.00000000000E+00 -0.43484923732E+03  0.43484923732E+03  0.00000000000E+00 0. -1.
         25    1    1    2    0    0 -0.10947999296E+02  0.19738362571E+03 -0.17733824613E+02  0.23456266310E+03  0.12500000000E+03 0.  0.
         25    1    1    2    0    0  0.22936944194E+02 -0.13218172550E+03 -0.16638433204E+03  0.24760221711E+03  0.12500000000E+03 0.  0.
         25    1    1    2    0    0 -0.11988944898E+02 -0.65201900208E+02 -0.52498025629E+02  0.15091741213E+03  0.12500000000E+03 0.  0.
</event>
<event>
 5    0  0.5547141E-005  0.4413090E+03  0.7546771E-02  0.1030346E+00
         21   -1    0    0  502  501  0.00000000000E+00  0.00000000000E+00  0.17554407855E+03  0.17554407855E+03  0.00000000000E+00 0. -1.
         21   -1    0    0  501  502 -0.00000000000E+00 -0.00000000000E+00 -0.11094288377E+04  0.11094288377E+04  0.00000000000E+00 0. -1.
         25    1    1    2    0    0  0.14654578019E+03  0.78112070117E+02  0.13007495280E+02  0.20825790771E+03  0.12500000000E+03 0.  0.
         25    1    1    2    0    0  0.29079558953E+02  0.14323308811E+03 -0.25876534968E+03  0.32240633442E+03  0.12500000000E+03 0.  0.
         25    1    1    2    0    0 -0.17562533914E+03 -0.22134515822E+03 -0.68812690477E+03  0.75430867414E+03  0.12500000000E+03 0.  0.
</event>
<event>
 5    0  0.5547141E-005  0.3613752E+03  0.7546771E-02  0.1058041E+00
         21   -1    0    0  502  501  0.00000000000E+00  0.00000000000E+00  0.50731441193E+03  0.50731441193E+03  0.00000000000E+00 0.  1.
         21   -1    0    0  501  502 -0.00000000000E+00 -0.00000000000E+00 -0.25741830358E+03  0.25741830358E+03  0.00000000000E+00 0.  1.
         25    1    1    2    0    0 -0.23972433175E+02  0.76063743561E+02  0.35832640126E+03  0.38779270297E+03  0.12500000000E+03 0.  0.
         25    1    1    2    0    0  0.53858553906E+02 -0.14203189835E+03 -0.12257753327E+03  0.23178450259E+03  0.12500000000E+03 0.  0.
         25    1    1    2    0    0 -0.29886120731E+02  0.65968154791E+02  0.14147240363E+02  0.14515550995E+03  0.12500000000E+03 0.  0.
</event>
<event>
 5    0  0.5547141E-005  0.3791602E+03  0.7546771E-02  0.1051245E+00
         21   -1    0    0  502  501  0.00000000000E+00  0.00000000000E+00  0.31359457457E+04  0.31359457457E+04  0.00000000000E+00 0.  1.
         21   -1    0    0  501  502 -0.00000000000E+00 -0.00000000000E+00 -0.45843401976E+02  0.45843401976E+02  0.00000000000E+00 0.  1.
         25    1    1    2    0    0 -0.61128361539E+02 -0.16452945759E+03  0.10923520276E+04  0.11134022504E+04  0.12500000000E+03 0.  0.
         25    1    1    2    0    0  0.30609245946E+02  0.83335847504E+02  0.18498736052E+04  0.18562163518E+04  0.12500000000E+03 0.  0.
         25    1    1    2    0    0  0.30519115593E+02  0.81193610087E+02  0.14787671090E+03  0.21217054546E+03  0.12500000000E+03 0.  0.
</event>
<event>
 5    0  0.5547141E-005  0.3514524E+03  0.7546771E-02  0.1062021E+00
         21   -1    0    0  502  501  0.00000000000E+00  0.00000000000E+00  0.54963434640E+02  0.54963434640E+02  0.00000000000E+00 0. -1.
         21   -1    0    0  501  502 -0.00000000000E+00 -0.00000000000E+00 -0.22472900547E+04  0.22472900547E+04  0.00000000000E+00 0. -1.
         25    1    1    2    0    0 -0.13922626783E+03  0.44075200586E+02 -0.10432104721E+04  0.10607731454E+04  0.12500000000E+03 0.  0.
         25    1    1    2    0    0  0.24364066380E+03  0.50939851333E+02 -0.61743560515E+03  0.67735320773E+03  0.12500000000E+03 0.  0.
         25    1    1    2    0    0 -0.10441439597E+03 -0.95015051919E+02 -0.53168054283E+03  0.56412713621E+03  0.12500000000E+03 0.  0.
</event>
<event>
 5    0  0.5547141E-005  0.5436154E+03  0.7546771E-02  0.1002983E+00
         21   -1    0    0  502  501  0.00000000000E+00  0.00000000000E+00  0.13310722164E+04  0.13310722164E+04  0.00000000000E+00 0. -1.
         21   -1    0    0  501  502 -0.00000000000E+00 -0.00000000000E+00 -0.22201476394E+03  0.22201476394E+03  0.00000000000E+00 0. -1.
         25    1    1    2    0    0  0.58674702424E+02 -0.22327523203E+03  0.11098084281E+04  0.11404360118E+04  0.12500000000E+03 0.  0.
         25    1    1    2    0    0 -0.51676594015E+01  0.11411429283E+03  0.11380169600E+03  0.20402108358E+03  0.12500000000E+03 0.  0.
         25    1    1    2    0    0 -0.53507043023E+02  0.10916093920E+03 -0.11455267167E+03  0.20862988493E+03  0.12500000000E+03 0.  0.
</event>
<event>
 5    0  0.5547141E-005  0.3177605E+03  0.7546771E-02  0.1076685E+00
         21   -1    0    0  502  501  0.00000000000E+00  0.00000000000E+00  0.30841631560E+03  0.30841631560E+03  0.00000000000E+00 0.  1.
         21   -1    0    0  501  502 -0.00000000000E+00 -0.00000000000E+00 -0.32738775036E+03  0.32738775036E+03  0.00000000000E+00 0.  1.
         25    1    1    2    0    0 -0.37461364538E+02 -0.20834251321E+03 -0.79759388946E+02  0.25845022106E+03  0.12500000000E+03 0.  0.
         25    1    1    2    0    0  0.10237445384E+03  0.13988159705E+03  0.15218872179E+02  0.21425219733E+03  0.12500000000E+03 0.  0.
         25    1    1    2    0    0 -0.64913089301E+02  0.68460916161E+02  0.45569082000E+02  0.16310164757E+03  0.12500000000E+03 0.  0.
</event>
<event>
 5    0  0.5547141E-005  0.3425531E+03  0.7546771E-02  0.1065714E+00
         21   -1    0    0  502  501  0.00000000000E+00  0.00000000000E+00  0.90814327085E+02  0.90814327085E+02  0.00000000000E+00 0. -1.
         21   -1    0    0  501  502 -0.00000000000E+00 -0.00000000000E+00 -0.12921156758E+04  0.12921156758E+04  0.00000000000E+00 0. -1.
         25    1    1    2    0    0 -0.19064398610E+03 -0.19915480379E+02 -0.36986655404E+03  0.43493450495E+03  0.12500000000E+03 0.  0.
         25    1    1    2    0    0  0.14440768712E+03 -0.66374466514E+02 -0.15943811073E+03  0.25749691465E+03  0.12500000000E+03 0.  0.
         25    1    1    2    0    0  0.46236298983E+02  0.86289946893E+02 -0.67199668395E+03  0.69049858328E+03  0.12500000000E+03 0.  0.
</event>
<event>
 5    0  0.5547141E-005  0.2155783E+03  0.7546771E-02  0.1137223E+00
         21   -1    0    0  502  501  0.00000000000E+00  0.00000000000E+00  0.20872470011E+03  0.20872470011E+03  0.00000000000E+00 0.  1.
         21   -1    0    0  501  502 -0.00000000000E+00 -0.00000000000E+00 -0.22265703266E+03  0.22265703266E+03  0.00000000000E+00 0.  1.
         25    1    1    2    0    0  0.66835424225E+01 -0.37133786504E+02 -0.48668858108E+02  0.13934577708E+03  0.12500000000E+03 0.  0.
         25    1    1    2    0    0 -0.11490415563E+02 -0.15095626828E+01 -0.51038951026E+02  0.13551488092E+03  0.12500000000E+03 0.  0.
         25    1    1    2    0    0  0.48068731400E+01  0.38643349186E+02  0.85775476588E+02  0.15652107478E+03  0.12500000000E+03 0.  0.
</event>
<event>
 5    0  0.5547141E-005  0.2319321E+03  0.7546771E-02  0.1125287E+00
         21   -1    0    0  502  501  0.00000000000E+00  0.00000000000E+00  0.86270947364E+03  0.86270947364E+03  0.00000000000E+00 0. -1.
         21   -1    0    0  501  502 -0.00000000000E+00 -0.00000000000E+00 -0.62352986741E+02  0.62352986741E+02  0.00000000000E+00 0. -1.
         25    1    1    2    0    0 -0.62037594041E+02  0.25636495415E+02  0.39860617798E+03  0.42310492563E+03  0.12500000000E+03 0.  0.
         25    1    1    2    0    0 -0.25445900723E+02 -0.50704031162E+02  0.25059459010E+03  0.28572896463E+03  0.12500000000E+03 0.  0.
         25    1    1    2    0    0  0.87483494764E+02  0.25067535747E+02  0.15115571882E+03  0.21622857012E+03  0.12500000000E+03 0.  0.
</event>
<event>
 5    0  0.5547141E-005  0.2818781E+03  0.7546771E-02  0.1094668E+00
         21   -1    0    0  502  501  0.00000000000E+00  0.00000000000E+00  0.39271933893E+03  0.39271933893E+03  0.00000000000E+00 0.  1.
         21   -1    0    0  501  502 -0.00000000000E+00 -0.00000000000E+00 -0.20232072523E+03  0.20232072523E+03  0.00000000000E+00 0.  1.
         25    1    1    2    0    0 -0.27744832313E+02 -0.76301028502E+02 -0.91911029152E+01  0.14933552505E+03  0.12500000000E+03 0.  0.
         25    1    1    2    0    0  0.59300830159E+02  0.18267486047E+03  0.13845331403E+03  0.26773310081E+03  0.12500000000E+03 0.  0.
         25    1    1    2    0    0 -0.31555997846E+02 -0.10637383197E+03  0.61136402594E+02  0.17797143830E+03  0.12500000000E+03 0.  0.
</event>
<event>
 5    0  0.7067269E-005  0.4516336E+03  0.7546771E-02  0.1027236E+00
         21   -1    0    0  502  501  0.00000000000E+00  0.00000000000E+00  0.43328679968E+03  0.43328679968E+03  0.00000000000E+00 0. -1.
         21   -1    0    0  501  502 -0.00000000000E+00 -0.00000000000E+00 -0.47075717511E+03  0.47075717511E+03  0.00000000000E+00 0. -1.
         25    1    1    2    0    0  0.27612608137E+03 -0.89562725677E+02 -0.16984999386E+03  0.35880512128E+03  0.12500000000E+03 0.  0.
         25    1    1    2    0    0 -0.56454527477E+02  0.50140188239E+02  0.22916402602E+03  0.27173940268E+03  0.12500000000E+03 0.  0.
         25    1    1    2    0    0 -0.21967155389E+03  0.39422537438E+02 -0.96784407586E+02  0.27349945082E+03  0.12500000000E+03 0.  0.
</event>
<event>
 5    0  0.5547141E-005  0.2549993E+03  0.7546771E-02  0.1110186E+00
         21   -1    0    0  502  501  0.00000000000E+00  0.00000000000E+00  0.52388136744E+03  0.52388136744E+03  0.00000000000E+00 0. -1.
         21   -1    0    0  501  502 -0.00000000000E+00 -0.00000000000E+00 -0.12412091918E+03  0.12412091918E+03  0.00000000000E+00 0. -1.
         25    1    1    2    0    0  0.69135501404E+02 -0.78865720597E+02  0.27496477043E+03  0.31973449050E+03  0.12500000000E+03 0.  0.
         25    1    1    2    0    0  0.25346769411E+02  0.15665462401E+02  0.21644796235E+02  0.13031255748E+03  0.12500000000E+03 0.  0.
         25    1    1    2    0    0 -0.94482270815E+02  0.63200258196E+02  0.10315088159E+03  0.19795523864E+03  0.12500000000E+03 0.  0.
</event>
<event>
 5    0  0.5547141E-005  0.3169562E+03  0.7546771E-02  0.1077059E+00
         21   -1    0    0  502  501  0.00000000000E+00  0.00000000000E+00  0.41515387170E+03  0.41515387170E+03  0.00000000000E+00 0. -1.
         21   -1    0    0  501  502 -0.00000000000E+00 -0.00000000000E+00 -0.24198549002E+03  0.24198549002E+03  0.00000000000E+00 0. -1.
         25    1    1    2    0    0 -0.33753446716E+02 -0.11282621041E+03 -0.38821226942E+02  0.17607139626E+03  0.12500000000E+03 0.  0.
         25    1    1    2    0    0 -0.71219377514E+02  0.13015150667E+03  0.24614238890E+03  0.31340499364E+03  0.12500000000E+03 0.  0.
         25    1    1    2    0    0  0.10497282423E+03 -0.17325296262E+02 -0.34152780286E+02  0.16766297182E+03  0.12500000000E+03 0.  0.
</event>
<event>
 5    0  0.5888906E-005  0.4792296E+03  0.7546771E-02  0.1019347E+00
         21   -1    0    0  502  501  0.00000000000E+00  0.00000000000E+00  0.65868403897E+03  0.65868403897E+03  0.00000000000E+00 0.  1.
         21   -1    0    0  501  502 -0.00000000000E+00 -0.00000000000E+00 -0.34866641508E+03  0.34866641508E+03  0.00000000000E+00 0.  1.
         25    1    1    2    0    0 -0.61046868139E+02  0.10359111116E+03 -0.22146193280E+03  0.28129739797E+03  0.12500000000E+03 0.  0.
         25    1    1    2    0    0  0.11702923919E+03 -0.23996789793E+03  0.26181237612E+03  0.39427294499E+03  0.12500000000E+03 0.  0.
         25    1    1    2    0    0 -0.55982371056E+02  0.13637678677E+03  0.26966718058E+03  0.33178011110E+03  0.12500000000E+03 0.  0.
</event>
<event>
 5    0  0.5547141E-005  0.2324990E+03  0.7546771E-02  0.1124893E+00
         21   -1    0    0  502  501  0.00000000000E+00  0.00000000000E+00  0.29527885418E+03  0.29527885418E+03  0.00000000000E+00 0.  1.
         21   -1    0    0  501  502 -0.00000000000E+00 -0.00000000000E+00 -0.18306688348E+03  0.18306688348E+03  0.00000000000E+00 0.  1.
         25    1    1    2    0    0  0.32062184425E+02  0.73039622557E+02  0.85348020445E+02  0.17109077920E+03  0.12500000000E+03 0.  0.
         25    1    1    2    0    0 -0.70388582646E+01 -0.54807319270E+01 -0.59902463184E+02  0.13889884464E+03  0.12500000000E+03 0.  0.
         25    1    1    2    0    0 -0.25023326160E+02 -0.67558890630E+02  0.86766413441E+02  0.16835611381E+03  0.12500000000E+03 0.  0.
</event>
<event>
 5    0  0.5547141E-005  0.4067658E+03  0.7546771E-02  0.1041462E+00
         21   -1    0    0  502  501  0.00000000000E+00  0.00000000000E+00  0.80599329800E+02  0.80599329800E+02  0.00000000000E+00 0.  1.
         21   -1    0    0  501  502 -0.00000000000E+00 -0.00000000000E+00 -0.20528514973E+04  0.20528514973E+04  0.00000000000E+00 0.  1.
         25    1    1    2    0    0  0.15536609770E+03 -0.11217810723E+03 -0.12048801901E+04  0.12264109526E+04  0.12500000000E+03 0.  0.
         25    1    1    2    0    0 -0.16697624425E+03  0.22078403948E+03 -0.59318696531E+03  0.66642511511E+03  0.12500000000E+03 0.  0.
         25    1    1    2    0    0  0.11610146543E+02 -0.10860593224E+03 -0.17418501208E+03  0.24061475943E+03  0.12500000000E+03 0.  0.
</event>
<event>
 5    0  0.5547141E-005  0.4677657E+03  0.7546771E-02  0.1022553E+00
         21   -1    0    0  502  501  0.00000000000E+00  0.00000000000E+00  0.38216251770E+03  0.38216251770E+03  0.00000000000E+00 0. -1.
         21   -1    0    0  501  502 -0.00000000000E+00 -0.00000000000E+00 -0.57254370251E+03  0.57254370251E+03  0.00000000000E+00 0. -1.
         25    1    1    2    0    0  0.36692489591E+01 -0.13925840082E+01  0.99589167552E+02  0.15986996269E+03  0.12500000000E+03 0.  0.
         25    1    1    2    0    0  0.30997954439E+03  0.12780439902E+03 -0.48958884224E+02  0.36116928814E+03  0.12500000000E+03 0.  0.
         25    1    1    2    0    0 -0.31364879335E+03 -0.12641181501E+03 -0.24101146814E+03  0.43366696937E+03  0.12500000000E+03 0.  0.
</event>
<event>
 5    0  0.5547141E-005  0.2930451E+03  0.7546771E-02  0.1088770E+00
         21   -1    0    0  502  501  0.00000000000E+00  0.00000000000E+00  0.18155476129E+03  0.18155476129E+03  0.00000000000E+00 0.  1.
         21   -1    0    0  501  502 -0.00000000000E+00 -0.00000000000E+00 -0.47300027251E+03  0.47300027251E+03  0.00000000000E+00 0.  1.
         25    1    1    2    0    0 -0.17511880819E+03 -0.59596072256E+02 -0.28428318177E+02  0.22505878806E+03  0.12500000000E+03 0.  0.
         25    1    1    2    0    0  0.16516335910E+03  0.42152972001E+02 -0.18410737606E+03  0.28031470557E+03  0.12500000000E+03 0.  0.
         25    1    1    2    0    0  0.99554490858E+01  0.17443100255E+02 -0.78909816984E+02  0.14918154018E+03  0.12500000000E+03 0.  0.
</event>
<event>
 5    0  0.5547141E-005  0.3046123E+03  0.7546771E-02  0.1082957E+00
         21   -1    0    0  502  501  0.00000000000E+00  0.00000000000E+00  0.49461633907E+03  0.49461633907E+03  0.00000000000E+00 0. -1.
         21   -1    0    0  501  502 -0.00000000000E+00 -0.00000000000E+00 -0.18759720544E+03  0.18759720544E+03  0.00000000000E+00 0. -1.
         25    1    1    2    0    0  0.55958239696E+02 -0.18154050084E+03  0.91022791087E+02  0.24494576243E+03  0.12500000000E+03 0.  0.
         25    1    1    2    0    0  0.24871605696E+01  0.20285562490E+03  0.11275973776E+03  0.26362160189E+03  0.12500000000E+03 0.  0.
         25    1    1    2    0    0 -0.58445400266E+02 -0.21315124059E+02  0.10323660479E+03  0.17364618019E+03  0.12500000000E+03 0.  0.
</event>
<event>
 5    0  0.5547141E-005  0.3947046E+03  0.7546771E-02  0.1045629E+00
         21   -1    0    0  502  501  0.00000000000E+00  0.00000000000E+00  0.12686751768E+04  0.12686751768E+04  0.00000000000E+00 0. -1.
         21   -1    0    0  501  502 -0.00000000000E+00 -0.00000000000E+00 -0.12279875668E+03  0.12279875668E+03  0.00000000000E+00 0. -1.
         25    1    1    2    0    0 -0.12996284943E+03  0.62189312033E+02  0.21395478356E+03  0.28663478884E+03  0.12500000000E+03 0.  0.
         25    1    1    2    0    0  0.22683991808E+03 -0.23839702025E+03  0.48785782837E+03  0.60159766322E+03  0.12500000000E+03 0.  0.
         25    1    1    2    0    0 -0.96877068651E+02  0.17620770821E+03  0.44406380817E+03  0.50324148138E+03  0.12500000000E+03 0.  0.
</event>
<event>
 5    0  0.5547141E-005  0.3175377E+03  0.7546771E-02  0.1076788E+00
         21   -1    0    0  502  501  0.00000000000E+00  0.00000000000E+00  0.47681969949E+03  0.47681969949E+03  0.00000000000E+00 0.  1.
         21   -1    0    0  501  502 -0.00000000000E+00 -0.00000000000E+00 -0.21146392366E+03  0.21146392366E+03  0.00000000000E+00 0.  1.
         25    1    1    2    0    0 -0.84331134356E+02 -0.36871941792E+02  0.12371655064E+03  0.19849953455E+03  0.12500000000E+03 0.  0.
         25    1    1    2    0    0  0.22436801613E+03  0.43366663684E+02  0.10454235847E+02  0.26068364971E+03  0.12500000000E+03 0.  0.
         25    1    1    2    0    0 -0.14003688177E+03 -0.64947218918E+01  0.13118498935E+03  0.22910043889E+03  0.12500000000E+03 0.  0.
</event>
<event>
 5    0  0.5547141E-005  0.4094858E+03  0.7546771E-02  0.1040544E+00
         21   -1    0    0  502  501  0.00000000000E+00  0.00000000000E+00  0.22557113527E+03  0.22557113527E+03  0.00000000000E+00 0.  1.
         21   -1    0    0  501  502 -0.00000000000E+00 -0.00000000000E+00 -0.74335135278E+03  0.74335135278E+03  0.00000000000E+00 0.  1.
         25    1    1    2    0    0 -0.16731838347E+03 -0.87877990404E+02 -0.27856575212E+03  0.35908475448E+03  0.12500000000E+03 0.  0.
         25    1    1    2    0    0  0.26247199922E+03  0.19023940295E+03 -0.64128276558E+02  0.35329876403E+03  0.12500000000E+03 0.  0.
         25    1    1    2    0    0 -0.95153615751E+02 -0.10236141255E+03 -0.17508618883E+03  0.25653896953E+03  0.12500000000E+03 0.  0.
</event>
<event>
 5    0  0.5547141E-005  0.2418083E+03  0.7546771E-02  0.1118594E+00
         21   -1    0    0  502  501  0.00000000000E+00  0.00000000000E+00  0.89502676355E+02  0.89502676355E+02  0.00000000000E+00 0.  1.
         21   -1    0    0  501  502 -0.00000000000E+00 -0.00000000000E+00 -0.65329045717E+03  0.65329045717E+03  0.00000000000E+00 0.  1.
         25    1    1    2    0    0  0.17974880010E+02 -0.77510599503E+02 -0.10569659122E+03  0.18201032592E+03  0.12500000000E+03 0.  0.
         25    1    1    2    0    0  0.47296320638E+01  0.97476866027E+02 -0.37635464816E+03  0.40840167730E+03  0.12500000000E+03 0.  0.
         25    1    1    2    0    0 -0.22704512073E+02 -0.19966266524E+02 -0.81736541435E+02  0.15238113031E+03  0.12500000000E+03 0.  0.
</event>
<event>
 5    0  0.5547141E-005  0.4750037E+03  0.7546771E-02  0.1020517E+00
         21   -1    0    0  502  501  0.00000000000E+00  0.00000000000E+00  0.69684070803E+03  0.69684070803E+03  0.00000000000E+00 0.  1.
         21   -1    0    0  501  502 -0.00000000000E+00 -0.00000000000E+00 -0.32378778373E+03  0.32378778373E+03  0.00000000000E+00 0.  1.
         25    1    1    2    0    0  0.12027395388E+03  0.93469205630E+02  0.35682396679E+02  0.20025121677E+03  0.12500000000E+03 0.  0.
         25    1    1    2    0    0 -0.34141962480E+03  0.12468280565E+03  0.67348232145E+02  0.39022294474E+03  0.12500000000E+03 0.  0.
         25    1    1    2    0    0  0.22114567092E+03 -0.21815201128E+03  0.27002229547E+03  0.43015433026E+03  0.12500000000E+03 0.  0.
</event>
<event>
 5    0  0.5547141E-005  0.3407686E+03  0.7546771E-02  0.1066469E+00
         21   -1    0    0  502  501  0.00000000000E+00  0.00000000000E+00  0.18745319193E+04  0.18745319193E+04  0.00000000000E+00 0.  1.
         21   -1    0    0  501  502 -0.00000000000E+00 -0.00000000000E+00 -0.61947851671E+02  0.61947851671E+02  0.00000000000E+00 0.  1.
         25    1    1    2    0    0 -0.70389545348E+02 -0.17696450516E+02  0.86626789442E+02  0.16851425193E+03  0.12500000000E+03 0.  0.
         25    1    1    2    0    0 -0.41410293858E+01  0.49663978473E+02  0.14328879279E+04  0.14391929936E+04  0.12500000000E+03 0.  0.
         25    1    1    2    0    0  0.74530574733E+02 -0.31967527957E+02  0.29306935032E+03  0.32877252548E+03  0.12500000000E+03 0.  0.
</event>
<event>
 5    0  0.5547141E-005  0.3572627E+03  0.7546771E-02  0.1059673E+00
         21   -1    0    0  502  501  0.00000000000E+00  0.00000000000E+00  0.98244465450E+03  0.98244465450E+03  0.00000000000E+00 0.  1.
         21   -1    0    0  501  502 -0.00000000000E+00 -0.00000000000E+00 -0.12991734773E+03  0.12991734773E+03  0.00000000000E+00 0.  1.
         25    1    1    2    0    0 -0.18168196054E+03  0.15139136885E+03  0.52047596073E+03  0.58519048783E+03  0.12500000000E+03 0.  0.
         25    1    1    2    0    0 -0.10895194337E+02 -0.56139378555E+02  0.20813952496E+03  0.24943415350E+03  0.12500000000E+03 0.  0.
         25    1    1    2    0    0  0.19257715488E+03 -0.95251990293E+02  0.12391182108E+03  0.27773736090E+03  0.12500000000E+03 0.  0.
</event>
<event>
 5    0  0.5547141E-005  0.4047397E+03  0.7546771E-02  0.1042151E+00
         21   -1    0    0  502  501  0.00000000000E+00  0.00000000000E+00  0.12436371403E+04  0.12436371403E+04  0.00000000000E+00 0. -1.
         21   -1    0    0  501  502 -0.00000000000E+00 -0.00000000000E+00 -0.13172185555E+03  0.13172185555E+03  0.00000000000E+00 0. -1.
         25    1    1    2    0    0 -0.98704366093E+00 -0.19500825710E+01  0.11790030105E+03  0.17184370243E+03  0.12500000000E+03 0.  0.
         25    1    1    2    0    0  0.18211274650E+03 -0.34695136876E+02  0.95019904709E+03  0.97615164500E+03  0.12500000000E+03 0.  0.
         25    1    1    2    0    0 -0.18112570284E+03  0.36645219447E+02  0.43815936665E+02  0.22736364847E+03  0.12500000000E+03 0.  0.
</event>
<event>
 5    0  0.5547141E-005  0.2940924E+03  0.7546771E-02  0.1088232E+00
         21   -1    0    0  502  501  0.00000000000E+00  0.00000000000E+00  0.77840769949E+02  0.77840769949E+02  0.00000000000E+00 0. -1.
         21   -1    0    0  501  502 -0.00000000000E+00 -0.00000000000E+00 -0.11111186139E+04  0.11111186139E+04  0.00000000000E+00 0. -1.
         25    1    1    2    0    0 -0.19124419631E+03 -0.57909418519E+02 -0.59344560085E+03  0.63853780197E+03  0.12500000000E+03 0.  0.
         25    1    1    2    0    0  0.12388837256E+03  0.35122339235E+02 -0.18455867788E+03  0.25742729682E+03  0.12500000000E+03 0.  0.
         25    1    1    2    0    0  0.67355823753E+02  0.22787079285E+02 -0.25527356524E+03  0.29299428507E+03  0.12500000000E+03 0.  0.
</event>
<event>
 5    0  0.5720423E-005  0.2726366E+03  0.7546771E-02  0.1099780E+00
         21   -1    0    0  502  501  0.00000000000E+00  0.00000000000E+00  0.19705446177E+03  0.19705446177E+03  0.00000000000E+00 0. -1.
         21   -1    0    0  501  502 -0.00000000000E+00 -0.00000000000E+00 -0.37720903900E+03  0.37720903900E+03  0.00000000000E+00 0. -1.
         25    1    1    2    0    0 -0.34596021004E+02  0.43940283139E+02 -0.15525529427E+02  0.13781754321E+03  0.12500000000E+03 0.  0.
         25    1    1    2    0    0  0.63326852414E+02 -0.10579328366E+03  0.46642878417E+02  0.18166746327E+03  0.12500000000E+03 0.  0.
         25    1    1    2    0    0 -0.28730831410E+02  0.61853000517E+02 -0.21127192622E+03  0.25477849429E+03  0.12500000000E+03 0.  0.
</event>
<event>
 5    0  0.5547141E-005  0.3643879E+03  0.7546771E-02  0.1056860E+00
         21   -1    0    0  502  501  0.00000000000E+00  0.00000000000E+00  0.38899030840E+03  0.38899030840E+03  0.00000000000E+00 0.  1.
         21   -1    0    0  501  502 -0.00000000000E+00 -0.00000000000E+00 -0.34134146059E+03  0.34134146059E+03  0.00000000000E+00 0.  1.
         25    1    1    2    0    0 -0.78130344499E+02 -0.15071674809E+03  0.24446579606E+03  0.32281328091E+03  0.12500000000E+03 0.  0.
         25    1    1    2    0    0  0.17934360256E+02  0.28726952816E+02 -0.18036558635E+03  0.22204419343E+03  0.12500000000E+03 0.  0.
         25    1    1    2    0    0  0.60195984242E+02  0.12198979528E+03 -0.16451361904E+02  0.18547429466E+03  0.12500000000E+03 0.  0.
</event>
<event>
 5    0  0.5547141E-005  0.3550373E+03  0.7546771E-02  0.1060566E+00
         21   -1    0    0  502  501  0.00000000000E+00  0.00000000000E+00  0.18006341140E+04  0.18006341140E+04  0.00000000000E+00 0. -1.
         21   -1    0    0  501  502 -0.00000000000E+00 -0.00000000000E+00 -0.70003951564E+02  0.70003951564E+02  0.00000000000E+00 0. -1.
         25    1    1    2    0    0  0.66852935340E+02 -0.20742511822E+02  0.87316040133E+03  0.88483538199E+03  0.12500000000E+03 0.  0.
         25    1    1    2    0    0 -0.10135278678E+03 -0.18368270721E+03  0.42190051503E+03  0.48748001898E+03  0.12500000000E+03 0.  0.
         25    1    1    2    0    0  0.34499851445E+02  0.20442521903E+03  0.43556924603E+03  0.49832266456E+03  0.12500000000E+03 0.  0.
</event>
<event>
 5    0  0.5547141E-005  0.4698558E+03  0.7546771E-02  0.1021961E+00
         21   -1    0    0  502  501  0.00000000000E+00  0.00000000000E+00  0.11035824626E+04  0.11035824626E+04  0.00000000000E+00 0. -1.
         21   -1    0    0  501  502 -0.00000000000E+00 -0.00000000000E+00 -0.20004351638E+03  0.20004351638E+03  0.00000000000E+00 0. -1.
         25    1    1    2    0    0  0.33154239876E+03 -0.17845895716E+03  0.68548052980E+03  0.79200790293E+03  0.12500000000E+03 0.  0.
         25    1    1    2    0    0 -0.20400341863E+03  0.11696640611E+03  0.17259243446E+03  0.31735104128E+03  0.12500000000E+03 0.  0.
         25    1    1    2    0    0 -0.12753898013E+03  0.61492551054E+02  0.45465981989E+02  0.19426703479E+03  0.12500000000E+03 0.  0.
</event>
<event>
 5    0  0.5547141E-005  0.4936587E+03  0.7546771E-02  0.1015447E+00
         21   -1    0    0  502  501  0.00000000000E+00  0.00000000000E+00  0.35980923387E+03  0.35980923387E+03  0.00000000000E+00 0.  1.
         21   -1    0    0  501  502 -0.00000000000E+00 -0.00000000000E+00 -0.67730044966E+03  0.67730044966E+03  0.00000000000E+00 0.  1.
         25    1    1    2    0    0  0.12266986282E+03 -0.28570949392E+03 -0.38529232746E+03  0.51063978278E+03  0.12500000000E+03 0.  0.
         25    1    1    2    0    0  0.24704707539E+02  0.14851761865E+03 -0.11517160564E+03  0.22706233587E+03  0.12500000000E+03 0.  0.
         25    1    1    2    0    0 -0.14737457036E+03  0.13719187527E+03  0.18297271731E+03  0.29940756488E+03  0.12500000000E+03 0.  0.
</event>
<event>
 5    0  0.6043899E-005  0.2836914E+03  0.7546771E-02  0.1093690E+00
         21   -1    0    0  502  501  0.00000000000E+00  0.00000000000E+00  0.34410079036E+03  0.34410079036E+03  0.00000000000E+00 0.  1.
         21   -1    0    0  501  502 -0.00000000000E+00 -0.00000000000E+00 -0.23388737887E+03  0.23388737887E+03  0.00000000000E+00 0.  1.
         25    1    1    2    0    0 -0.54381444837E+02  0.17716768519E+03 -0.44276711076E+02  0.22788408755E+03  0.12500000000E+03 0.  0.
         25    1    1    2    0    0  0.10858769198E+02 -0.88901466690E+02  0.59981484250E+02  0.16505805676E+03  0.12500000000E+03 0.  0.
         25    1    1    2    0    0  0.43522675639E+02 -0.88266218496E+02  0.94508638319E+02  0.18504602492E+03  0.12500000000E+03 0.  0.
</event>
<event>
 5    0  0.5547141E-005  0.2901823E+03  0.7546771E-02  0.1090254E+00
         21   -1    0    0  502  501  0.00000000000E+00  0.00000000000E+00  0.66762186899E+03  0.66762186899E+03  0.00000000000E+00 0. -1.
         21   -1    0    0  501  502 -0.00000000000E+00 -0.00000000000E+00 -0.12612789544E+03  0.12612789544E+03  0.00000000000E+00 0. -1.
         25    1    1    2    0    0  0.21111558928E+03 -0.75726694612E-01  0.20959095774E+03  0.32268121628E+03  0.12500000000E+03 0.  0.
         25    1    1    2    0    0 -0.11381091888E+03 -0.19457239798E+02  0.13258182793E+03  0.21571845201E+03  0.12500000000E+03 0.  0.
         25    1    1    2    0    0 -0.97304670403E+02  0.19532966492E+02  0.19932118788E+03  0.25535009614E+03  0.12500000000E+03 0.  0.
</event>
<event>
 5    0  0.5547141E-005  0.2796652E+03  0.7546771E-02  0.1095872E+00
         21   -1    0    0  502  501  0.00000000000E+00  0.00000000000E+00  0.20112037902E+03  0.20112037902E+03  0.00000000000E+00 0.  1.
         21   -1    0    0  501  502 -0.00000000000E+00 -0.00000000000E+00 -0.38888460699E+03  0.38888460699E+03  0.00000000000E+00 0. -1.
         25    1    1    2    0    0 -0.51933885214E+02  0.76503961990E+02  0.87730229541E+02  0.17852612640E+03  0.12500000000E+03 0.  0.
         25    1    1    2    0    0  0.10643050217E+02 -0.11175614308E+03 -0.17119866683E+03  0.23986807532E+03  0.12500000000E+03 0.  0.
         25    1    1    2    0    0  0.41290834997E+02  0.35252181092E+02 -0.10429579068E+03  0.17161078428E+03  0.12500000000E+03 0.  0.
</event>
<event>
 5    0  0.5547141E-005  0.2958702E+03  0.7546771E-02  0.1087323E+00
         21   -1    0    0  502  501  0.00000000000E+00  0.00000000000E+00  0.95304709701E+02  0.95304709701E+02  0.00000000000E+00 0. -1.
         21   -1    0    0  501  502 -0.00000000000E+00 -0.00000000000E+00 -0.91851915077E+03  0.91851915077E+03  0.00000000000E+00 0. -1.
         25    1    1    2    0    0 -0.10299912435E+03 -0.15063374129E+02 -0.30417076939E+03  0.34493561980E+03  0.12500000000E+03 0.  0.
         25    1    1    2    0    0  0.13707371689E+03  0.10957948929E+03 -0.44038084527E+03  0.49026233510E+03  0.12500000000E+03 0.  0.
         25    1    1    2    0    0 -0.34074592541E+02 -0.94516115157E+02 -0.78662826401E+02  0.17862590556E+03  0.12500000000E+03 0.  0.
</event>
<event>
 5    0  0.5547141E-005  0.2596315E+03  0.7546771E-02  0.1107365E+00
         21   -1    0    0  502  501  0.00000000000E+00  0.00000000000E+00  0.11499334099E+03  0.11499334099E+03  0.00000000000E+00 0.  1.
         21   -1    0    0  501  502 -0.00000000000E+00 -0.00000000000E+00 -0.58619484011E+03  0.58619484011E+03  0.00000000000E+00 0.  1.
         25    1    1    2    0    0  0.51648200797E+02  0.10412983898E+03 -0.95115326297E+02  0.19540339124E+03  0.12500000000E+03 0.  0.
         25    1    1    2    0    0  0.24182451347E+01 -0.12037980942E+03 -0.30591566686E+03  0.35171940756E+03  0.12500000000E+03 0.  0.
         25    1    1    2    0    0 -0.54066445932E+02  0.16249970448E+02 -0.70170505966E+02  0.15406538230E+03  0.12500000000E+03 0.  0.
</event>
<event>
 5    0  0.5547141E-005  0.2613859E+03  0.7546771E-02  0.1106313E+00
         21   -1    0    0  502  501  0.00000000000E+00  0.00000000000E+00  0.46165842768E+03  0.46165842768E+03  0.00000000000E+00 0.  1.
         21   -1    0    0  501  502 -0.00000000000E+00 -0.00000000000E+00 -0.14799386041E+03  0.14799386041E+03  0.00000000000E+00 0.  1.
         25    1    1    2    0    0 -0.70127510267E+02  0.27507420187E+02 -0.24566254158E+02  0.14799671180E+03  0.12500000000E+03 0.  0.
         25    1    1    2    0    0  0.96718501628E+01 -0.71086593011E+02  0.78967894036E+02  0.16434042923E+03  0.12500000000E+03 0.  0.
         25    1    1    2    0    0  0.60455660104E+02  0.43579172824E+02  0.25926292739E+03  0.29731514705E+03  0.12500000000E+03 0.  0.
</event>
<event>
 5    0  0.5547141E-005  0.2795642E+03  0.7546771E-02  0.1095927E+00
         21   -1    0    0  502  501  0.00000000000E+00  0.00000000000E+00  0.52613411204E+03  0.52613411204E+03  0.00000000000E+00 0. -1.
         21   -1    0    0  501  502 -0.00000000000E+00 -0.00000000000E+00 -0.14854792505E+03  0.14854792505E+03  0.00000000000E+00 0. -1.
         25    1    1    2    0    0  0.49578192478E+01  0.12929275934E+03  0.78051337549E+02  0.19610764616E+03  0.12500000000E+03 0.  0.
         25    1    1    2    0    0 -0.38599659489E+02 -0.18930907456E+03  0.19618615692E+03  0.30239356407E+03  0.12500000000E+03 0.  0.
         25    1    1    2    0    0  0.33641840242E+02  0.60016315216E+02  0.10334869252E+03  0.17618082686E+03  0.12500000000E+03 0.  0.
</event>
<event>
 5    0  0.5547141E-005  0.2211358E+03  0.7546771E-02  0.1133039E+00
         21   -1    0    0  502  501  0.00000000000E+00  0.00000000000E+00  0.32047554314E+02  0.32047554314E+02  0.00000000000E+00 0. -1.
         21   -1    0    0  501  502 -0.00000000000E+00 -0.00000000000E+00 -0.15258895478E+04  0.15258895478E+04  0.00000000000E+00 0. -1.
         25    1    1    2    0    0  0.44240555949E+02  0.38959525630E+02 -0.28630574534E+03  0.31791673634E+03  0.12500000000E+03 0.  0.
         25    1    1    2    0    0 -0.26810491645E+02  0.11389552946E+01 -0.83318101173E+03  0.84293279565E+03  0.12500000000E+03 0.  0.
         25    1    1    2    0    0 -0.17430064304E+02 -0.40098480924E+02 -0.37435523641E+03  0.39708757011E+03  0.12500000000E+03 0.  0.
</event>
<event>
 5    0  0.5547141E-005  0.2737746E+03  0.7546771E-02  0.1099139E+00
         21   -1    0    0  502  501  0.00000000000E+00  0.00000000000E+00  0.13181425733E+04  0.13181425733E+04  0.00000000000E+00 0. -1.
         21   -1    0    0  501  502 -0.00000000000E+00 -0.00000000000E+00 -0.56862220006E+02  0.56862220006E+02  0.00000000000E+00 0. -1.
         25    1    1    2    0    0 -0.11896846431E+03  0.26217297291E+02  0.49384367594E+03  0.52378184242E+03  0.12500000000E+03 0.  0.
         25    1    1    2    0    0  0.12900566558E+03  0.65495005405E+02  0.27557433636E+03  0.33540762118E+03  0.12500000000E+03 0.  0.
         25    1    1    2    0    0 -0.10037201270E+02 -0.91712302696E+02  0.49186234095E+03  0.51581532967E+03  0.12500000000E+03 0.  0.
</event>
<event>
 5    0  0.5547141E-005  0.2499364E+03  0.7546771E-02  0.1113345E+00
         21   -1    0    0  502  501  0.00000000000E+00  0.00000000000E+00  0.10976319385E+04  0.10976319385E+04  0.00000000000E+00 0. -1.
         21   -1    0    0  501  502 -0.00000000000E+00 -0.00000000000E+00 -0.56911806852E+02  0.56911806852E+02  0.00000000000E+00 0. -1.
         25    1    1    2    0    0  0.57465475832E+02 -0.55027744307E+02  0.21987752568E+03  0.26514422463E+03  0.12500000000E+03 0.  0.
         25    1    1    2    0    0  0.15922225149E+02  0.19964410514E+02  0.65096528942E+03  0.66334975915E+03  0.12500000000E+03 0.  0.
         25    1    1    2    0    0 -0.73387700981E+02  0.35063333792E+02  0.16987731659E+03  0.22604976161E+03  0.12500000000E+03 0.  0.
</event>
<event>
 5    0  0.5547141E-005  0.3468388E+03  0.7546771E-02  0.1063920E+00
         21   -1    0    0  502  501  0.00000000000E+00  0.00000000000E+00  0.60100499184E+03  0.60100499184E+03  0.00000000000E+00 0.  1.
         21   -1    0    0  501  502 -0.00000000000E+00 -0.00000000000E+00 -0.20015998599E+03  0.20015998599E+03  0.00000000000E+00 0.  1.
         25    1    1    2    0    0  0.65896080540E+02 -0.55544695402E+02 -0.11620401548E+03  0.19119592002E+03  0.12500000000E+03 0.  0.
         25    1    1    2    0    0 -0.12467166864E+02 -0.63555729568E+02  0.19245243903E+03  0.23844853176E+03  0.12500000000E+03 0.  0.
         25    1    1    2    0    0 -0.53428913675E+02  0.11910042497E+03  0.32459658230E+03  0.37152052606E+03  0.12500000000E+03 0.  0.
</event>
<event>
 5    0  0.5547141E-005  0.4262441E+03  0.7546771E-02  0.1035053E+00
         21   -1    0    0  502  501  0.00000000000E+00  0.00000000000E+00  0.20685463066E+03  0.20685463066E+03  0.00000000000E+00 0.  1.
         21   -1    0    0  501  502 -0.00000000000E+00 -0.00000000000E+00 -0.87831728592E+03  0.87831728592E+03  0.00000000000E+00 0.  1.
         25    1    1    2    0    0  0.76193907779E+02  0.15418560190E+03  0.10546115041E+03  0.23733049880E+03  0.12500000000E+03 0.  0.
         25    1    1    2    0    0 -0.57345096870E+02 -0.12790853860E+03 -0.60072183792E+03  0.62939715675E+03  0.12500000000E+03 0.  0.
         25    1    1    2    0    0 -0.18848810910E+02 -0.26277063306E+02 -0.17620196776E+03  0.21844426101E+03  0.12500000000E+03 0.  0.
</event>
<event>
 5    0  0.5547141E-005  0.2829494E+03  0.7546771E-02  0.1094089E+00
         21   -1    0    0  502  501  0.00000000000E+00  0.00000000000E+00  0.73358803808E+03  0.73358803808E+03  0.00000000000E+00 0. -1.
         21   -1    0    0  501  502 -0.00000000000E+00 -0.00000000000E+00 -0.10913529785E+03  0.10913529785E+03  0.00000000000E+00 0. -1.
         25    1    1    2    0    0 -0.23767964984E+02  0.73958556483E+02  0.35470629459E+03  0.38402648302E+03  0.12500000000E+03 0.  0.
         25    1    1    2    0    0  0.60491655303E+02  0.83144172727E+02  0.82268295715E+02  0.18156339471E+03  0.12500000000E+03 0.  0.
         25    1    1    2    0    0 -0.36723690319E+02 -0.15710272921E+03  0.18747814992E+03  0.27713345820E+03  0.12500000000E+03 0.  0.
</event>
<event>
 5    0  0.5547141E-005  0.2862728E+03  0.7546771E-02  0.1092311E+00
         21   -1    0    0  502  501  0.00000000000E+00  0.00000000000E+00  0.10754924348E+04  0.10754924348E+04  0.00000000000E+00 0.  1.
         21   -1    0    0  501  502 -0.00000000000E+00 -0.00000000000E+00 -0.76199636303E+02  0.76199636303E+02  0.00000000000E+00 0.  1.
         25    1    1    2    0    0  0.56679928341E+02 -0.13646001226E+03  0.12779814906E+03  0.23192954992E+03  0.12500000000E+03 0.  0.
         25    1    1    2    0    0 -0.15258725939E+02  0.45704828645E+02  0.41176371339E+03  0.43300821672E+03  0.12500000000E+03 0.  0.
         25    1    1    2    0    0 -0.41421202401E+02  0.90755183612E+02  0.45973093604E+03  0.48675430447E+03  0.12500000000E+03 0.  0.
</event>
<event>
 5    0  0.5547141E-005  0.2891773E+03  0.7546771E-02  0.1090779E+00
         21   -1    0    0  502  501  0.00000000000E+00  0.00000000000E+00  0.13951590143E+04  0.13951590143E+04  0.00000000000E+00 0.  1.
         21   -1    0    0  501  502 -0.00000000000E+00 -0.00000000000E+00 -0.59938343991E+02  0.59938343991E+02  0.00000000000E+00 0.  1.
         25    1    1    2    0    0  0.46068083346E+02 -0.19690128526E+03  0.43705151018E+03  0.49752528277E+03  0.12500000000E+03 0.  0.
         25    1    1    2    0    0 -0.10312552354E+02  0.63803928703E+02  0.47264366361E+03  0.49314736419E+03  0.12500000000E+03 0.  0.
         25    1    1    2    0    0 -0.35755530992E+02  0.13309735655E+03  0.42552549655E+03  0.46442471137E+03  0.12500000000E+03 0.  0.
</event>
<event>
 5    0  0.5547141E-005  0.3081131E+03  0.7546771E-02  0.1081254E+00
         21   -1    0    0  502  501  0.00000000000E+00  0.00000000000E+00  0.13389821651E+04  0.13389821651E+04  0.00000000000E+00 0. -1.
         21   -1    0    0  501  502 -0.00000000000E+00 -0.00000000000E+00 -0.70899904804E+02  0.70899904804E+02  0.00000000000E+00 0. -1.
         25    1    1    2    0    0  0.84764923340E+02 -0.13249251794E+03  0.21303851430E+03  0.29283061335E+03  0.12500000000E+03 0.  0.
         25    1    1    2    0    0  0.22757373257E+02  0.13102274155E+03  0.37162782770E+03  0.41402548129E+03  0.12500000000E+03 0.  0.
         25    1    1    2    0    0 -0.10752229660E+03  0.14697763959E+01  0.68341591833E+03  0.70302597529E+03  0.12500000000E+03 0.  0.
</event>
<event>
 5    0  0.5547141E-005  0.3959274E+03  0.7546771E-02  0.1045199E+00
         21   -1    0    0  502  501  0.00000000000E+00  0.00000000000E+00  0.34144023347E+03  0.34144023347E+03  0.00000000000E+00 0.  1.
         21   -1    0    0  501  502 -0.00000000000E+00 -0.00000000000E+00 -0.45910974527E+03  0.45910974527E+03  0.00000000000E+00 0.  1.
         25    1    1    2    0    0  0.29959479537E+02  0.43085496453E+02  0.35502301340E+02  0.14014044320E+03  0.12500000000E+03 0.  0.
         25    1    1    2    0    0  0.80236730958E+02 -0.74515920315E+02 -0.35788408206E+03  0.39458404880E+03  0.12500000000E+03 0.  0.
         25    1    1    2    0    0 -0.11019621049E+03  0.31430423862E+02  0.20471226892E+03  0.26582548674E+03  0.12500000000E+03 0.  0.
</event>
<event>
 5    0  0.5547141E-005  0.5167060E+03  0.7546771E-02  0.1009508E+00
         21   -1    0    0  502  501  0.00000000000E+00  0.00000000000E+00  0.26684908662E+03  0.26684908662E+03  0.00000000000E+00 0. -1.
         21   -1    0    0  501  502 -0.00000000000E+00 -0.00000000000E+00 -0.10005098270E+04  0.10005098270E+04  0.00000000000E+00 0. -1.
         25    1    1    2    0    0 -0.24870741031E+03 -0.29927203315E+03 -0.38007588890E+03  0.55812346939E+03  0.12500000000E+03 0.  0.
         25    1    1    2    0    0  0.32164188528E+03  0.24164170965E+03 -0.13807479301E+03  0.44332140336E+03  0.12500000000E+03 0.  0.
         25    1    1    2    0    0 -0.72934474972E+02  0.57630323501E+02 -0.21551005846E+03  0.26591404085E+03  0.12500000000E+03 0.  0.
</event>
<event>
 5    0  0.5547141E-005  0.2526527E+03  0.7546771E-02  0.1111640E+00
         21   -1    0    0  502  501  0.00000000000E+00  0.00000000000E+00  0.71341029293E+03  0.71341029293E+03  0.00000000000E+00 0.  1.
         21   -1    0    0  501  502 -0.00000000000E+00 -0.00000000000E+00 -0.89476429871E+02  0.89476429871E+02  0.00000000000E+00 0.  1.
         25    1    1    2    0    0 -0.11019479150E+03  0.81179429094E+02  0.26129437368E+03  0.32036345218E+03  0.12500000000E+03 0.  0.
         25    1    1    2    0    0  0.16668375472E+02 -0.43269203195E+02  0.74766531476E+02  0.15285644545E+03  0.12500000000E+03 0.  0.
         25    1    1    2    0    0  0.93526416024E+02 -0.37910225899E+02  0.28787295791E+03  0.32966682517E+03  0.12500000000E+03 0.  0.
</event>
<event>
 5    0  0.5547141E-005  0.3706860E+03  0.7546771E-02  0.1054431E+00
         21   -1    0    0  502  501  0.00000000000E+00  0.00000000000E+00  0.12885735506E+03  0.12885735506E+03  0.00000000000E+00 0. -1.
         21   -1    0    0  501  502 -0.00000000000E+00 -0.00000000000E+00 -0.10663582883E+04  0.10663582883E+04  0.00000000000E+00 0. -1.
         25    1    1    2    0    0  0.13975255946E+03 -0.20721210068E+03 -0.29790330021E+03  0.40845931109E+03  0.12500000000E+03 0.  0.
         25    1    1    2    0    0 -0.16818798643E+03  0.18000758292E+03 -0.58074067440E+03  0.64309770610E+03  0.12500000000E+03 0.  0.
         25    1    1    2    0    0  0.28435426969E+02  0.27204517754E+02 -0.58856958622E+02  0.14365862616E+03  0.12500000000E+03 0.  0.
</event>
<event>
 5    0  0.5547141E-005  0.2630883E+03  0.7546771E-02  0.1105302E+00
         21   -1    0    0  502  501  0.00000000000E+00  0.00000000000E+00  0.25193054920E+03  0.25193054920E+03  0.00000000000E+00 0. -1.
         21   -1    0    0  501  502 -0.00000000000E+00 -0.00000000000E+00 -0.27474027516E+03  0.27474027516E+03  0.00000000000E+00 0. -1.
         25    1    1    2    0    0 -0.17605245368E+02 -0.10512082530E+03 -0.14496973662E+03  0.21909257658E+03  0.12500000000E+03 0.  0.
         25    1    1    2    0    0 -0.19991672170E+02  0.26936122546E+02  0.66964713027E+02  0.14572060405E+03  0.12500000000E+03 0.  0.
         25    1    1    2    0    0  0.37596917538E+02  0.78184702755E+02  0.55195297633E+02  0.16185764373E+03  0.12500000000E+03 0.  0.
</event>
<event>
 5    0  0.5547141E-005  0.2440472E+03  0.7546771E-02  0.1117126E+00
         21   -1    0    0  502  501  0.00000000000E+00  0.00000000000E+00  0.12208537164E+04  0.12208537164E+04  0.00000000000E+00 0. -1.
         21   -1    0    0  501  502 -0.00000000000E+00 -0.00000000000E+00 -0.48784734679E+02  0.48784734679E+02  0.00000000000E+00 0. -1.
         25    1    1    2    0    0  0.65431597648E+02 -0.14076670577E+00  0.32032052886E+03  0.35001650675E+03  0.12500000000E+03 0.  0.
         25    1    1    2    0    0  0.83382121801E+02 -0.16930279185E+02  0.39492800949E+03  0.42288573547E+03  0.12500000000E+03 0.  0.
         25    1    1    2    0    0 -0.14881371945E+03  0.17071045891E+02  0.45682044332E+03  0.49673620881E+03  0.12500000000E+03 0.  0.
</event>
<event>
 5    0  0.5547141E-005  0.4060580E+03  0.7546771E-02  0.1041702E+00
         21   -1    0    0  502  501  0.00000000000E+00  0.00000000000E+00  0.41979633051E+03  0.41979633051E+03  0.00000000000E+00 0. -1.
         21   -1    0    0  501  502 -0.00000000000E+00 -0.00000000000E+00 -0.39276921036E+03  0.39276921036E+03  0.00000000000E+00 0. -1.
         25    1    1    2    0    0 -0.12126492468E+03  0.11870803950E+03  0.65744052925E+01  0.21086726490E+03  0.12500000000E+03 0.  0.
         25    1    1    2    0    0  0.40375730280E+02  0.12449770153E+03 -0.17833796169E+03  0.25408523346E+03  0.12500000000E+03 0.  0.
         25    1    1    2    0    0  0.80889194403E+02 -0.24320574103E+03  0.19879067655E+03  0.34761304251E+03  0.12500000000E+03 0.  0.
</event>
<event>
 5    0  0.5547141E-005  0.2509306E+03  0.7546771E-02  0.1112718E+00
         21   -1    0    0  502  501  0.00000000000E+00  0.00000000000E+00  0.22344464131E+03  0.22344464131E+03  0.00000000000E+00 0.  1.
         21   -1    0    0  501  502 -0.00000000000E+00 -0.00000000000E+00 -0.28179766164E+03  0.28179766164E+03  0.00000000000E+00 0.  1.
         25    1    1    2    0    0  0.48755904681E+02  0.20419764804E+02  0.10160535655E+02  0.13609680937E+03  0.12500000000E+03 0.  0.
         25    1    1    2    0    0  0.55274363601E+02  0.92236828203E+02 -0.29857223614E+02  0.16756891582E+03  0.12500000000E+03 0.  0.
         25    1    1    2    0    0 -0.10403026828E+03 -0.11265659301E+03 -0.38656332377E+02  0.20157657776E+03  0.12500000000E+03 0.  0.
</event>
<event>
 5    0  0.5547141E-005  0.3300171E+03  0.7546771E-02  0.1071129E+00
         21   -1    0    0  502  501  0.00000000000E+00  0.00000000000E+00  0.84601511398E+03  0.84601511398E+03  0.00000000000E+00 0. -1.
         21   -1    0    0  501  502 -0.00000000000E+00 -0.00000000000E+00 -0.12873440942E+03  0.12873440942E+03  0.00000000000E+00 0. -1.
         25    1    1    2    0    0 -0.71677636422E+02 -0.74391319701E+02  0.44125865370E+03  0.47011270083E+03  0.12500000000E+03 0.  0.
         25    1    1    2    0    0  0.16725110269E+03  0.24902323235E+02  0.26641988828E+03  0.33940773993E+03  0.12500000000E+03 0.  0.
         25    1    1    2    0    0 -0.95573466270E+02  0.49488996466E+02  0.96021625720E+01  0.16522908265E+03  0.12500000000E+03 0.  0.
</event>
<event>
 5    0  0.6447048E-005  0.2832805E+03  0.7546771E-02  0.1093911E+00
         21   -1    0    0  502  501  0.00000000000E+00  0.00000000000E+00  0.13671253245E+03  0.13671253245E+03  0.00000000000E+00 0.  1.
         21   -1    0    0  501  502 -0.00000000000E+00 -0.00000000000E+00 -0.58698254246E+03  0.58698254246E+03  0.00000000000E+00 0.  1.
         25    1    1    2    0    0 -0.96751569105E+02  0.78451924090E+02 -0.18774620000E+03  0.25766102952E+03  0.12500000000E+03 0.  0.
         25    1    1    2    0    0  0.28766389710E+02  0.39513435616E+02  0.12364942576E+02  0.13478393293E+03  0.12500000000E+03 0.  0.
         25    1    1    2    0    0  0.67985179394E+02 -0.11796535971E+03 -0.27488875258E+03  0.33125011246E+03  0.12500000000E+03 0.  0.
</event>
<event>
 5    0  0.5547141E-005  0.2419684E+03  0.7546771E-02  0.1118488E+00
         21   -1    0    0  502  501  0.00000000000E+00  0.00000000000E+00  0.68271641585E+02  0.68271641585E+02  0.00000000000E+00 0. -1.
         21   -1    0    0  501  502 -0.00000000000E+00 -0.00000000000E+00 -0.85758490513E+03  0.85758490513E+03  0.00000000000E+00 0. -1.
         25    1    1    2    0    0  0.31254867825E+01 -0.21248834476E+02 -0.26444197089E+03  0.29328456762E+03  0.12500000000E+03 0.  0.
         25    1    1    2    0    0 -0.12548977790E+03  0.12362522444E+02 -0.24982728442E+03  0.30649500544E+03  0.12500000000E+03 0.  0.
         25    1    1    2    0    0  0.12236429112E+03  0.88863120321E+01 -0.27504400824E+03  0.32607697366E+03  0.12500000000E+03 0.  0.
</event>
<event>
 5    0  0.5547141E-005  0.2497399E+03  0.7546771E-02  0.1113469E+00
         21   -1    0    0  502  501  0.00000000000E+00  0.00000000000E+00  0.12271237101E+03  0.12271237101E+03  0.00000000000E+00 0.  1.
         21   -1    0    0  501  502 -0.00000000000E+00 -0.00000000000E+00 -0.50826176050E+03  0.50826176050E+03  0.00000000000E+00 0.  1.
         25    1    1    2    0    0 -0.15506287061E+02  0.25062275758E+02 -0.16448171132E+03  0.20868108674E+03  0.12500000000E+03 0.  0.
         25    1    1    2    0    0  0.10982875693E+03  0.10406740920E+02 -0.19996856599E+03  0.26035184557E+03  0.12500000000E+03 0.  0.
         25    1    1    2    0    0 -0.94322469864E+02 -0.35469016678E+02 -0.21099112180E+02  0.16194119921E+03  0.12500000000E+03 0.  0.
</event>
<event>
 5    0  0.5547141E-005  0.4062336E+03  0.7546771E-02  0.1041642E+00
         21   -1    0    0  502  501  0.00000000000E+00  0.00000000000E+00  0.10658339107E+04  0.10658339107E+04  0.00000000000E+00 0. -1.
         21   -1    0    0  501  502 -0.00000000000E+00 -0.00000000000E+00 -0.15483248189E+03  0.15483248189E+03  0.00000000000E+00 0. -1.
         25    1    1    2    0    0 -0.18974503651E+03  0.11719139605E+03  0.53763616493E+03  0.59532734527E+03  0.12500000000E+03 0.  0.
         25    1    1    2    0    0  0.43240475005E+02  0.13038358230E+03  0.16794367028E+03  0.25039906869E+03  0.12500000000E+03 0.  0.
         25    1    1    2    0    0  0.14650456150E+03 -0.24757497835E+03  0.20542159357E+03  0.37493997860E+03  0.12500000000E+03 0.  0.
</event>
<event>
 5    0  0.5547141E-005  0.2364982E+03  0.7546771E-02  0.1122148E+00
         21   -1    0    0  502  501  0.00000000000E+00  0.00000000000E+00  0.63379521469E+02  0.63379521469E+02  0.00000000000E+00 0.  1.
         21   -1    0    0  501  502 -0.00000000000E+00 -0.00000000000E+00 -0.88248391712E+03  0.88248391712E+03  0.00000000000E+00 0.  1.
         25    1    1    2    0    0 -0.80600342005E+02  0.35287944999E+02 -0.24213776573E+03  0.28635179725E+03  0.12500000000E+03 0.  0.
         25    1    1    2    0    0 -0.40277313515E+02  0.25208428887E+02 -0.21026225863E+03  0.24918455866E+03  0.12500000000E+03 0.  0.
         25    1    1    2    0    0  0.12087765552E+03 -0.60496373886E+02 -0.36670437129E+03  0.41032708268E+03  0.12500000000E+03 0.  0.
</event>
<event>
 5    0  0.5547141E-005  0.3419935E+03  0.7546771E-02  0.1065950E+00
         21   -1    0    0  502  501  0.00000000000E+00  0.00000000000E+00  0.58265914799E+03  0.58265914799E+03  0.00000000000E+00 0.  1.
         21   -1    0    0  501  502 -0.00000000000E+00 -0.00000000000E+00 -0.20073410515E+03  0.20073410515E+03  0.00000000000E+00 0. -1.
         25    1    1    2    0    0 -0.19507453117E+03 -0.13212892292E+03  0.24831185346E+03  0.36441171983E+03  0.12500000000E+03 0.  0.
         25    1    1    2    0    0  0.20819114334E+03  0.11466428916E+03  0.10845012215E+03  0.28961678192E+03  0.12500000000E+03 0.  0.
         25    1    1    2    0    0 -0.13116612177E+02  0.17464633757E+02  0.25163067230E+02  0.12936475138E+03  0.12500000000E+03 0.  0.
</event>
<event>
 5    0  0.5547141E-005  0.3364682E+03  0.7546771E-02  0.1068310E+00
         21   -1    0    0  502  501  0.00000000000E+00  0.00000000000E+00  0.17091707204E+04  0.17091707204E+04  0.00000000000E+00 0. -1.
         21   -1    0    0  501  502 -0.00000000000E+00 -0.00000000000E+00 -0.66237301289E+02  0.66237301289E+02  0.00000000000E+00 0. -1.
         25    1    1    2    0    0  0.10771976613E+03 -0.16008891822E+03  0.97568238187E+03  0.10024036712E+04  0.12500000000E+03 0.  0.
         25    1    1    2    0    0  0.20088620244E+02  0.85382450720E+02  0.47940977271E+03  0.50314256997E+03  0.12500000000E+03 0.  0.
         25    1    1    2    0    0 -0.12780838637E+03  0.74706467505E+02  0.18784126451E+03  0.26986178049E+03  0.12500000000E+03 0.  0.
</event>
<event>
 5    0  0.5547141E-005  0.4530001E+03  0.7546771E-02  0.1026831E+00
         21   -1    0    0  502  501  0.00000000000E+00  0.00000000000E+00  0.13484080268E+04  0.13484080268E+04  0.00000000000E+00 0.  1.
         21   -1    0    0  501  502 -0.00000000000E+00 -0.00000000000E+00 -0.15218621505E+03  0.15218621505E+03  0.00000000000E+00 0.  1.
         25    1    1    2    0    0  0.21273410849E+02 -0.22050813714E+02 -0.32125910715E+02  0.13264942719E+03  0.12500000000E+03 0.  0.
         25    1    1    2    0    0 -0.20049766148E+03 -0.11014874287E+03  0.97099489991E+03  0.10053796066E+04  0.12500000000E+03 0.  0.
         25    1    1    2    0    0  0.17922425063E+03  0.13219955658E+03  0.25735282254E+03  0.36256520799E+03  0.12500000000E+03 0.  0.
</event>
<event>
 5    0  0.5547141E-005  0.2815274E+03  0.7546771E-02  0.1094858E+00
         21   -1    0    0  502  501  0.00000000000E+00  0.00000000000E+00  0.16072349854E+03  0.16072349854E+03  0.00000000000E+00 0. -1.
         21   -1    0    0  501  502 -0.00000000000E+00 -0.00000000000E+00 -0.49313065922E+03  0.49313065922E+03  0.00000000000E+00 0. -1.
         25    1    1    2    0    0 -0.75242410774E+02  0.14190224940E+03 -0.27814086944E+03  0.34465201583E+03  0.12500000000E+03 0.  0.
         25    1    1    2    0    0  0.47539750235E+02 -0.94090436699E+02 -0.39508108312E+01  0.16356542127E+03  0.12500000000E+03 0.  0.
         25    1    1    2    0    0  0.27702660539E+02 -0.47811812701E+02 -0.50315480410E+02  0.14563672066E+03  0.12500000000E+03 0.  0.
</event>
<event>
 5    0  0.5547141E-005  0.2916422E+03  0.7546771E-02  0.1089495E+00
         21   -1    0    0  502  501  0.00000000000E+00  0.00000000000E+00  0.94984902611E+03  0.94984902611E+03  0.00000000000E+00 0.  1.
         21   -1    0    0  501  502 -0.00000000000E+00 -0.00000000000E+00 -0.89545986972E+02  0.89545986972E+02  0.00000000000E+00 0.  1.
         25    1    1    2    0    0  0.28910046695E+02 -0.28161734876E+02  0.35707492945E+02  0.13612089907E+03  0.12500000000E+03 0.  0.
         25    1    1    2    0    0 -0.30307900178E+02  0.11433909770E+03  0.64760131929E+03  0.67007795578E+03  0.12500000000E+03 0.  0.
         25    1    1    2    0    0  0.13978534831E+01 -0.86177362821E+02  0.17699422690E+03  0.23319615823E+03  0.12500000000E+03 0.  0.
</event>
<event>
 5    0  0.5547141E-005  0.3037046E+03  0.7546771E-02  0.1083403E+00
         21   -1    0    0  502  501  0.00000000000E+00  0.00000000000E+00  0.14964548528E+03  0.14964548528E+03  0.00000000000E+00 0. -1.
         21   -1    0    0  501  502 -0.00000000000E+00 -0.00000000000E+00 -0.61636664244E+03  0.61636664244E+03  0.00000000000E+00 0. -1.
         25    1    1    2    0    0  0.54366085562E+02  0.24646685658E+02 -0.67337869273E+02  0.15402116417E+03  0.12500000000E+03 0.  0.
         25    1    1    2    0    0  0.74295662840E+02 -0.17649167492E+03 -0.19529512948E+03  0.30072303609E+03  0.12500000000E+03 0.  0.
         25    1    1    2    0    0 -0.12866174840E+03  0.15184498927E+03 -0.20408815840E+03  0.31126792746E+03  0.12500000000E+03 0.  0.
</event>
<event>
 5    0  0.5547141E-005  0.3048319E+03  0.7546771E-02  0.1082850E+00
         21   -1    0    0  502  501  0.00000000000E+00  0.00000000000E+00  0.26500153544E+04  0.26500153544E+04  0.00000000000E+00 0. -1.
         21   -1    0    0  501  502 -0.00000000000E+00 -0.00000000000E+00 -0.35064889259E+02  0.35064889259E+02  0.00000000000E+00 0. -1.
         25    1    1    2    0    0  0.13281923432E+03 -0.21736119053E+02  0.12871397816E+04  0.13001796896E+04  0.12500000000E+03 0.  0.
         25    1    1    2    0    0 -0.13172825931E+02  0.69947371536E+02  0.22154073189E+03  0.26414286667E+03  0.12500000000E+03 0.  0.
         25    1    1    2    0    0 -0.11964640839E+03 -0.48211252483E+02  0.11062699517E+04  0.11207576875E+04  0.12500000000E+03 0.  0.
</event>
<event>
 5    0  0.5547141E-005  0.2565773E+03  0.7546771E-02  0.1109217E+00
         21   -1    0    0  502  501  0.00000000000E+00  0.00000000000E+00  0.65726366900E+02  0.65726366900E+02  0.00000000000E+00 0.  1.
         21   -1    0    0  501  502 -0.00000000000E+00 -0.00000000000E+00 -0.10016061797E+04  0.10016061797E+04  0.00000000000E+00 0.  1.
         25    1    1    2    0    0  0.77917383942E+02  0.10054443171E+03 -0.21839785522E+03  0.28196262986E+03  0.12500000000E+03 0.  0.
         25    1    1    2    0    0 -0.30486969378E+02 -0.40137213031E+02 -0.53239494907E+03  0.54919016103E+03  0.12500000000E+03 0.  0.
         25    1    1    2    0    0 -0.47430414564E+02 -0.60407218680E+02 -0.18508700851E+03  0.23617975572E+03  0.12500000000E+03 0.  0.
</event>
<event>
 5    0  0.5547141E-005  0.3429222E+03  0.7546771E-02  0.1065558E+00
         21   -1    0    0  502  501  0.00000000000E+00  0.00000000000E+00  0.19777084450E+03  0.19777084450E+03  0.00000000000E+00 0.  1.
         21   -1    0    0  501  502 -0.00000000000E+00 -0.00000000000E+00 -0.59460541456E+03  0.59460541456E+03  0.00000000000E+00 0.  1.
         25    1    1    2    0    0  0.43546331353E+02  0.12606670536E+03 -0.39727913681E+03  0.43731545790E+03  0.12500000000E+03 0.  0.
         25    1    1    2    0    0 -0.31504877651E+02 -0.12287297238E+03  0.91205316558E+02  0.20008431829E+03  0.12500000000E+03 0.  0.
         25    1    1    2    0    0 -0.12041453702E+02 -0.31937329800E+01 -0.90760749806E+02  0.15497648287E+03  0.12500000000E+03 0.  0.
</event>
<event>
 5    0  0.5547141E-005  0.2676535E+03  0.7546771E-02  0.1102630E+00
         21   -1    0    0  502  501  0.00000000000E+00  0.00000000000E+00  0.14745408530E+03  0.14745408530E+03  0.00000000000E+00 0.  1.
         21   -1    0    0  501  502 -0.00000000000E+00 -0.00000000000E+00 -0.48583510657E+03  0.48583510657E+03  0.00000000000E+00 0.  1.
         25    1    1    2    0    0  0.11732695236E+03 -0.54886329118E+02 -0.11240459436E+02  0.18035928255E+03  0.12500000000E+03 0.  0.
         25    1    1    2    0    0 -0.10969176412E+03  0.80612881325E+02 -0.20689304472E+03  0.27741746827E+03  0.12500000000E+03 0.  0.
         25    1    1    2    0    0 -0.76351882438E+01 -0.25726552207E+02 -0.12024751712E+03  0.17551244105E+03  0.12500000000E+03 0.  0.
</event>
<event>
 5    0  0.5547141E-005  0.3945323E+03  0.7546771E-02  0.1045690E+00
         21   -1    0    0  502  501  0.00000000000E+00  0.00000000000E+00  0.73544055010E+02  0.73544055010E+02  0.00000000000E+00 0. -1.
         21   -1    0    0  501  502 -0.00000000000E+00 -0.00000000000E+00 -0.21164959777E+04  0.21164959777E+04  0.00000000000E+00 0. -1.
         25    1    1    2    0    0 -0.98853321188E+02 -0.94120531431E+02 -0.16344266609E+03  0.24691933631E+03  0.12500000000E+03 0.  0.
         25    1    1    2    0    0  0.20992036255E+03  0.17173500917E+03 -0.13436491565E+04  0.13764365324E+04  0.12500000000E+03 0.  0.
         25    1    1    2    0    0 -0.11106704136E+03 -0.77614477738E+02 -0.53586010003E+03  0.56668416392E+03  0.12500000000E+03 0.  0.
</event>
<event>
 5    0  0.5547141E-005  0.4293240E+03  0.7546771E-02  0.1034074E+00
         21   -1    0    0  502  501  0.00000000000E+00  0.00000000000E+00  0.20878156183E+03  0.20878156183E+03  0.00000000000E+00 0. -1.
         21   -1    0    0  501  502 -0.00000000000E+00 -0.00000000000E+00 -0.88283238936E+03  0.88283238936E+03  0.00000000000E+00 0. -1.
         25    1    1    2    0    0  0.65143870421E+02  0.46270847790E+01 -0.60252206651E+02  0.15336382290E+03  0.12500000000E+03 0.  0.
         25    1    1    2    0    0 -0.22586509347E+03 -0.13730971387E+03 -0.63014387925E+03  0.69467640418E+03  0.12500000000E+03 0.  0.
         25    1    1    2    0    0  0.16072122305E+03  0.13268262909E+03  0.16345258367E+02  0.24357372410E+03  0.12500000000E+03 0.  0.
</event>
<event>
 5    0  0.5547141E-005  0.2945423E+03  0.7546771E-02  0.1088001E+00
         21   -1    0    0  502  501  0.00000000000E+00  0.00000000000E+00  0.68873444006E+02  0.68873444006E+02  0.00000000000E+00 0. -1.
         21   -1    0    0  501  502 -0.00000000000E+00 -0.00000000000E+00 -0.12596319945E+04  0.12596319945E+04  0.00000000000E+00 0. -1.
         25    1    1    2    0    0  0.91555934717E+02  0.32171248344E+02 -0.42846889095E+03  0.45675821712E+03  0.12500000000E+03 0.  0.
         25    1    1    2    0    0  0.73917737355E+02  0.48424305518E+02 -0.52326458332E+03  0.54519681714E+03  0.12500000000E+03 0.  0.
         25    1    1    2    0    0 -0.16547367207E+03 -0.80595553862E+02 -0.23902507626E+03  0.32655040427E+03  0.12500000000E+03 0.  0.
</event>
<event>
 5    0  0.5547141E-005  0.3987976E+03  0.7546771E-02  0.1044197E+00
         21   -1    0    0  502  501  0.00000000000E+00  0.00000000000E+00  0.31188871513E+03  0.31188871513E+03  0.00000000000E+00 0. -1.
         21   -1    0    0  501  502 -0.00000000000E+00 -0.00000000000E+00 -0.50992385625E+03  0.50992385625E+03  0.00000000000E+00 0. -1.
         25    1    1    2    0    0 -0.12920768463E+03  0.10037031347E+03 -0.25248548535E+03  0.32579555845E+03  0.12500000000E+03 0.  0.
         25    1    1    2    0    0 -0.56219148688E+02 -0.19415789830E+03 -0.29312411808E+02  0.23946210480E+03  0.12500000000E+03 0.  0.
         25    1    1    2    0    0  0.18542683332E+03  0.93787584828E+02  0.83762756049E+02  0.25655490813E+03  0.12500000000E+03 0.  0.
</event>
<event>
 5    0  0.5547141E-005  0.3132569E+03  0.7546771E-02  0.1078795E+00
         21   -1    0    0  502  501  0.00000000000E+00  0.00000000000E+00  0.69721747401E+03  0.69721747401E+03  0.00000000000E+00 0.  1.
         21   -1    0    0  501  502 -0.00000000000E+00 -0.00000000000E+00 -0.14074501752E+03  0.14074501752E+03  0.00000000000E+00 0.  1.
         25    1    1    2    0    0 -0.79252387073E+02  0.22026549709E+03  0.20278804901E+03  0.33398476445E+03  0.12500000000E+03 0.  0.
         25    1    1    2    0    0  0.89265664670E+01 -0.89552195586E+02  0.21909544319E+03  0.26781914149E+03  0.12500000000E+03 0.  0.
         25    1    1    2    0    0  0.70325820607E+02 -0.13071330151E+03  0.13458896429E+03  0.23615858558E+03  0.12500000000E+03 0.  0.
</event>
<event>
 5    0  0.5547141E-005  0.3337082E+03  0.7546771E-02  0.1069508E+00
         21   -1    0    0  502  501  0.00000000000E+00  0.00000000000E+00  0.44832676311E+03  0.44832676311E+03  0.00000000000E+00 0.  1.
         21   -1    0    0  501  502 -0.00000000000E+00 -0.00000000000E+00 -0.24839278489E+03  0.24839278489E+03  0.00000000000E+00 0.  1.
         25    1    1    2    0    0  0.13526183014E+03  0.26430938881E+02 -0.35516794346E+02  0.18942227932E+03  0.12500000000E+03 0.  0.
         25    1    1    2    0    0 -0.74515412958E+02  0.15736482562E+03  0.77442453304E+02  0.22790034815E+03  0.12500000000E+03 0.  0.
         25    1    1    2    0    0 -0.60746417181E+02 -0.18379576450E+03  0.15800831926E+03  0.27939692054E+03  0.12500000000E+03 0.  0.
</event>
<event>
 5    0  0.5547141E-005  0.3374976E+03  0.7546771E-02  0.1067867E+00
         21   -1    0    0  502  501  0.00000000000E+00  0.00000000000E+00  0.18438228755E+03  0.18438228755E+03  0.00000000000E+00 0. -1.
         21   -1    0    0  501  502 -0.00000000000E+00 -0.00000000000E+00 -0.61776358340E+03  0.61776358340E+03  0.00000000000E+00 0. -1.
         25    1    1    2    0    0 -0.15108765424E+03 -0.13602658120E+03 -0.22763360904E+02  0.23973710738E+03  0.12500000000E+03 0.  0.
         25    1    1    2    0    0  0.16858344316E+03  0.44765656234E+02 -0.30983366744E+03  0.37689022641E+03  0.12500000000E+03 0.  0.
         25    1    1    2    0    0 -0.17495788922E+02  0.91260924962E+02 -0.10078426750E+03  0.18551853716E+03  0.12500000000E+03 0.  0.
</event>
<event>
 5    0  0.5547141E-005  0.4213547E+03  0.7546771E-02  0.1036626E+00
         21   -1    0    0  502  501  0.00000000000E+00  0.00000000000E+00  0.11577621682E+04  0.11577621682E+04  0.00000000000E+00 0. -1.
         21   -1    0    0  501  502 -0.00000000000E+00 -0.00000000000E+00 -0.15334736609E+03  0.15334736609E+03  0.00000000000E+00 0. -1.
         25    1    1    2    0    0 -0.81721110252E+02  0.94367600587E+02  0.28011853508E+03  0.33117212684E+03  0.12500000000E+03 0.  0.
         25    1    1    2    0    0  0.27298574007E+03 -0.16040518848E+03  0.64484311449E+03  0.72917671458E+03  0.12500000000E+03 0.  0.
         25    1    1    2    0    0 -0.19126462982E+03  0.66037587893E+02  0.79453152534E+02  0.25076069286E+03  0.12500000000E+03 0.  0.
</event>
<event>
 5    0  0.5547141E-005  0.2646001E+03  0.7546771E-02  0.1104410E+00
         21   -1    0    0  502  501  0.00000000000E+00  0.00000000000E+00  0.10806685808E+03  0.10806685808E+03  0.00000000000E+00 0. -1.
         21   -1    0    0  501  502 -0.00000000000E+00 -0.00000000000E+00 -0.64786951792E+03  0.64786951792E+03  0.00000000000E+00 0. -1.
         25    1    1    2    0    0  0.52564624887E+02 -0.10613439989E+03 -0.30873071613E+03  0.35350700943E+03  0.12500000000E+03 0.  0.
         25    1    1    2    0    0  0.36212644569E+02  0.11783414281E+03 -0.11704646673E+03  0.21100027538E+03  0.12500000000E+03 0.  0.
         25    1    1    2    0    0 -0.88777269457E+02 -0.11699742919E+02 -0.11402547697E+03  0.19142909119E+03  0.12500000000E+03 0.  0.
</event>
<event>
 5    0  0.5547141E-005  0.1108785E+04  0.7546771E-02  0.9196672E-01
         21   -1    0    0  502  501  0.00000000000E+00  0.00000000000E+00  0.30022163784E+04  0.30022163784E+04  0.00000000000E+00 0.  1.
         21   -1    0    0  501  502 -0.00000000000E+00 -0.00000000000E+00 -0.40949869303E+03  0.40949869303E+03  0.00000000000E+00 0.  1.
         25    1    1    2    0    0  0.58692268303E+03  0.43045672968E+00  0.23119468001E+02  0.60053137383E+03  0.12500000000E+03 0.  0.
         25    1    1    2    0    0  0.25075845489E+03  0.30834008615E+02  0.48634874548E+03  0.56213044840E+03  0.12500000000E+03 0.  0.
         25    1    1    2    0    0 -0.83768113792E+03 -0.31264465345E+02  0.20832494719E+04  0.22490532492E+04  0.12500000000E+03 0.  0.
</event>
<event>
 5    0  0.5547141E-005  0.8299747E+03  0.7546771E-02  0.9517615E-01
         21   -1    0    0  502  501  0.00000000000E+00  0.00000000000E+00  0.52442022950E+03  0.52442022950E+03  0.00000000000E+00 0. -1.
         21   -1    0    0  501  502 -0.00000000000E+00 -0.00000000000E+00 -0.13135611260E+04  0.13135611260E+04  0.00000000000E+00 0. -1.
         25    1    1    2    0    0  0.74411911198E+02  0.15488525309E+02 -0.50742587643E+03  0.52809378620E+03  0.12500000000E+03 0.  0.
         25    1    1    2    0    0  0.81817686167E+01  0.16315023323E+03 -0.75487838232E+03  0.78240099185E+03  0.12500000000E+03 0.  0.
         25    1    1    2    0    0 -0.82593679814E+02 -0.17863875854E+03  0.47316336227E+03  0.52748657745E+03  0.12500000000E+03 0.  0.
</event>
<event>
 5    0  0.5547141E-005  0.5211104E+03  0.7546771E-02  0.1008411E+00
         21   -1    0    0  502  501  0.00000000000E+00  0.00000000000E+00  0.48425961777E+03  0.48425961777E+03  0.00000000000E+00 0.  1.
         21   -1    0    0  501  502 -0.00000000000E+00 -0.00000000000E+00 -0.56076539492E+03  0.56076539492E+03  0.00000000000E+00 0.  1.
         25    1    1    2    0    0 -0.31868926202E+03 -0.16216279888E+02 -0.31579389524E+03  0.46602210004E+03  0.12500000000E+03 0.  0.
         25    1    1    2    0    0 -0.38292501427E+02 -0.44973742443E+02  0.26638165899E+02  0.14079611166E+03  0.12500000000E+03 0.  0.
         25    1    1    2    0    0  0.35698176345E+03  0.61190022331E+02  0.21264995219E+03  0.43820680099E+03  0.12500000000E+03 0.  0.
</event>
<event>
 5    0  0.5547141E-005  0.5380161E+03  0.7546771E-02  0.1004306E+00
         21   -1    0    0  502  501  0.00000000000E+00  0.00000000000E+00  0.37337319793E+03  0.37337319793E+03  0.00000000000E+00 0. -1.
         21   -1    0    0  501  502 -0.00000000000E+00 -0.00000000000E+00 -0.77525992996E+03  0.77525992996E+03  0.00000000000E+00 0. -1.
         25    1    1    2    0    0  0.12304608249E+03  0.22134174362E+03  0.19784306861E+03  0.34481790221E+03  0.12500000000E+03 0.  0.
         25    1    1    2    0    0 -0.22192282518E+03 -0.15758166460E+03 -0.54803793642E+03  0.62454167284E+03  0.12500000000E+03 0.  0.
         25    1    1    2    0    0  0.98876742691E+02 -0.63760079018E+02 -0.51691864229E+02  0.17927355284E+03  0.12500000000E+03 0.  0.
</event>
<event>
 5    0  0.5547141E-005  0.3251475E+03  0.7546771E-02  0.1073304E+00
         21   -1    0    0  502  501  0.00000000000E+00  0.00000000000E+00  0.27963825383E+04  0.27963825383E+04  0.00000000000E+00 0.  1.
         21   -1    0    0  501  502 -0.00000000000E+00 -0.00000000000E+00 -0.37806312455E+02  0.37806312455E+02  0.00000000000E+00 0.  1.
         25    1    1    2    0    0  0.33640956580E+02  0.22490105419E+03  0.89986109700E+03  0.93652933324E+03  0.12500000000E+03 0.  0.
         25    1    1    2    0    0 -0.88088261872E+02 -0.88457546973E+02  0.64688003885E+03  0.67056920907E+03  0.12500000000E+03 0.  0.
         25    1    1    2    0    0  0.54447305293E+02 -0.13644350721E+03  0.12118350900E+04  0.12270903085E+04  0.12500000000E+03 0.  0.
</event>
<event>
 5    0  0.5735777E-005  0.2803511E+03  0.7546771E-02  0.1095497E+00
         21   -1    0    0  502  501  0.00000000000E+00  0.00000000000E+00  0.27582599003E+03  0.27582599003E+03  0.00000000000E+00 0. -1.
         21   -1    0    0  501  502 -0.00000000000E+00 -0.00000000000E+00 -0.28495036996E+03  0.28495036996E+03  0.00000000000E+00 0. -1.
         25    1    1    2    0    0  0.89073905743E+02  0.19985632038E+01  0.76850217773E+02  0.17166569521E+03  0.12500000000E+03 0.  0.
         25    1    1    2    0    0  0.87377921471E+02  0.27506553148E+02 -0.11944627657E+01  0.15497721887E+03  0.12500000000E+03 0.  0.
         25    1    1    2    0    0 -0.17645182721E+03 -0.29505116351E+02 -0.84780134936E+02  0.23413344592E+03  0.12500000000E+03 0.  0.
</event>
<event>
 5    0  0.5547141E-005  0.4188590E+03  0.7546771E-02  0.1037438E+00
         21   -1    0    0  502  501  0.00000000000E+00  0.00000000000E+00  0.15848583986E+04  0.15848583986E+04  0.00000000000E+00 0.  1.
         21   -1    0    0  501  502 -0.00000000000E+00 -0.00000000000E+00 -0.11069937263E+03  0.11069937263E+03  0.00000000000E+00 0.  1.
         25    1    1    2    0    0 -0.50467637890E+01 -0.34113618500E+01  0.74021430307E+03  0.75071920295E+03  0.12500000000E+03 0.  0.
         25    1    1    2    0    0 -0.36676425478E+02 -0.24909912566E+03  0.21890345036E+03  0.35628535638E+03  0.12500000000E+03 0.  0.
         25    1    1    2    0    0  0.41723189267E+02  0.25251048751E+03  0.51504127257E+03  0.58855321194E+03  0.12500000000E+03 0.  0.
</event>
<event>
 5    0  0.5547141E-005  0.3898554E+03  0.7546771E-02  0.1047350E+00
         21   -1    0    0  502  501  0.00000000000E+00  0.00000000000E+00  0.19444137105E+03  0.19444137105E+03  0.00000000000E+00 0.  1.
         21   -1    0    0  501  502 -0.00000000000E+00 -0.00000000000E+00 -0.78166085338E+03  0.78166085338E+03  0.00000000000E+00 0.  1.
         25    1    1    2    0    0 -0.85679564564E+02 -0.31212145839E+01 -0.17940787576E+03  0.23486786849E+03  0.12500000000E+03 0.  0.
         25    1    1    2    0    0  0.13232247525E+03 -0.69481418840E+02 -0.51809949005E+03  0.55352415179E+03  0.12500000000E+03 0.  0.
         25    1    1    2    0    0 -0.46642910686E+02  0.72602633424E+02  0.11028788348E+03  0.18771020415E+03  0.12500000000E+03 0.  0.
</event>
<event>
 5    0  0.5547141E-005  0.3082703E+03  0.7546771E-02  0.1081178E+00
         21   -1    0    0  502  501  0.00000000000E+00  0.00000000000E+00  0.51487801202E+03  0.51487801202E+03  0.00000000000E+00 0.  1.
         21   -1    0    0  501  502 -0.00000000000E+00 -0.00000000000E+00 -0.18456911426E+03  0.18456911426E+03  0.00000000000E+00 0.  1.
         25    1    1    2    0    0  0.71301109706E+02  0.89421316873E+02  0.33734252862E+03  0.37749834671E+03  0.12500000000E+03 0.  0.
         25    1    1    2    0    0 -0.86196282574E+02 -0.98141463732E+02  0.43609744259E+02  0.18597945001E+03  0.12500000000E+03 0.  0.
         25    1    1    2    0    0  0.14895172868E+02  0.87201468587E+01 -0.50643375120E+02  0.13596932955E+03  0.12500000000E+03 0.  0.
</event>
<event>
 5    0  0.5547141E-005  0.3862393E+03  0.7546771E-02  0.1048651E+00
         21   -1    0    0  502  501  0.00000000000E+00  0.00000000000E+00  0.27312405642E+03  0.27312405642E+03  0.00000000000E+00 0.  1.
         21   -1    0    0  501  502 -0.00000000000E+00 -0.00000000000E+00 -0.54620153806E+03  0.54620153806E+03  0.00000000000E+00 0.  1.
         25    1    1    2    0    0  0.29068123641E+02  0.36457979034E+02 -0.32472558303E+03  0.35106387499E+03  0.12500000000E+03 0.  0.
         25    1    1    2    0    0  0.14109645923E+03  0.35614257422E+02  0.13007103847E+03  0.23177588569E+03  0.12500000000E+03 0.  0.
         25    1    1    2    0    0 -0.17016458287E+03 -0.72072236456E+02 -0.78422937075E+02  0.23648583380E+03  0.12500000000E+03 0.  0.
</event>
<event>
 5    0  0.5547141E-005  0.4273540E+03  0.7546771E-02  0.1034699E+00
         21   -1    0    0  502  501  0.00000000000E+00  0.00000000000E+00  0.14046370689E+03  0.14046370689E+03  0.00000000000E+00 0. -1.
         21   -1    0    0  501  502 -0.00000000000E+00 -0.00000000000E+00 -0.13002038986E+04  0.13002038986E+04  0.00000000000E+00 0. -1.
         25    1    1    2    0    0  0.44843907417E+02  0.13642410420E+02 -0.14946293483E+02  0.13433347715E+03  0.12500000000E+03 0.  0.
         25    1    1    2    0    0 -0.33092461436E+02 -0.17010381462E+03 -0.88690716365E+02  0.23134705946E+03  0.12500000000E+03 0.  0.
         25    1    1    2    0    0 -0.11751445981E+02  0.15646140420E+03 -0.10561031819E+04  0.10749870689E+04  0.12500000000E+03 0.  0.
</event>
<event>
 5    0  0.5547141E-005  0.2594780E+03  0.7546771E-02  0.1107457E+00
         21   -1    0    0  502  501  0.00000000000E+00  0.00000000000E+00  0.76143114614E+03  0.76143114614E+03  0.00000000000E+00 0. -1.
         21   -1    0    0  501  502 -0.00000000000E+00 -0.00000000000E+00 -0.88424078352E+02  0.88424078352E+02  0.00000000000E+00 0. -1.
         25    1    1    2    0    0  0.49724591070E+02  0.48343138504E+01  0.26240003230E+03  0.29491470377E+03  0.12500000000E+03 0.  0.
         25    1    1    2    0    0 -0.96565758452E+02 -0.99393525638E+02  0.31309419340E+03  0.36449553164E+03  0.12500000000E+03 0.  0.
         25    1    1    2    0    0  0.46841167382E+02  0.94559211788E+02  0.97512842089E+02  0.19044498909E+03  0.12500000000E+03 0.  0.
</event>
<event>
 5    0  0.5547141E-005  0.2975040E+03  0.7546771E-02  0.1086495E+00
         21   -1    0    0  502  501  0.00000000000E+00  0.00000000000E+00  0.81705489152E+03  0.81705489152E+03  0.00000000000E+00 0.  1.
         21   -1    0    0  501  502 -0.00000000000E+00 -0.00000000000E+00 -0.10832641022E+03  0.10832641022E+03  0.00000000000E+00 0.  1.
         25    1    1    2    0    0  0.11003884631E+03 -0.17230305799E+03  0.19089494415E+03  0.30637031709E+03  0.12500000000E+03 0.  0.
         25    1    1    2    0    0 -0.15911719975E+02  0.12008288038E+03  0.25740346079E+03  0.31073239712E+03  0.12500000000E+03 0.  0.
         25    1    1    2    0    0 -0.94127126337E+02  0.52220177610E+02  0.26043007635E+03  0.30827858753E+03  0.12500000000E+03 0.  0.
</event>
<event>
 5    0  0.5547141E-005  0.2671117E+03  0.7546771E-02  0.1102944E+00
         21   -1    0    0  502  501  0.00000000000E+00  0.00000000000E+00  0.33422993913E+03  0.33422993913E+03  0.00000000000E+00 0.  1.
         21   -1    0    0  501  502 -0.00000000000E+00 -0.00000000000E+00 -0.21347181557E+03  0.21347181557E+03  0.00000000000E+00 0.  1.
         25    1    1    2    0    0  0.52896717144E+02  0.60860068849E+02  0.12654960522E+03  0.19529929146E+03  0.12500000000E+03 0.  0.
         25    1    1    2    0    0  0.36802095774E+02  0.70516316114E+02  0.15507359777E+02  0.14897121634E+03  0.12500000000E+03 0.  0.
         25    1    1    2    0    0 -0.89698812918E+02 -0.13137638496E+03 -0.21298841443E+02  0.20343124689E+03  0.12500000000E+03 0.  0.
</event>
<event>
 5    0  0.5547141E-005  0.3247065E+03  0.7546771E-02  0.1073503E+00
         21   -1    0    0  502  501  0.00000000000E+00  0.00000000000E+00  0.24214228377E+03  0.24214228377E+03  0.00000000000E+00 0.  1.
         21   -1    0    0  501  502 -0.00000000000E+00 -0.00000000000E+00 -0.43542289116E+03  0.43542289116E+03  0.00000000000E+00 0.  1.
         25    1    1    2    0    0  0.98739939886E+02 -0.10828523653E+03 -0.15235339383E+03  0.24558465911E+03  0.12500000000E+03 0.  0.
         25    1    1    2    0    0  0.26370601527E+02  0.79843568023E+02 -0.15774655497E+03  0.21812698041E+03  0.12500000000E+03 0.  0.
         25    1    1    2    0    0 -0.12511054141E+03  0.28441668504E+02  0.11681934141E+03  0.21385353541E+03  0.12500000000E+03 0.  0.
</event>
<event>
 5    0  0.5547141E-005  0.2742861E+03  0.7546771E-02  0.1098851E+00
         21   -1    0    0  502  501  0.00000000000E+00  0.00000000000E+00  0.35656113043E+03  0.35656113043E+03  0.00000000000E+00 0. -1.
         21   -1    0    0  501  502 -0.00000000000E+00 -0.00000000000E+00 -0.21099569279E+03  0.21099569279E+03  0.00000000000E+00 0. -1.
         25    1    1    2    0    0  0.14200195158E+03 -0.65656643984E+02  0.10743420998E+03  0.22724977145E+03  0.12500000000E+03 0.  0.
         25    1    1    2    0    0 -0.22364985314E+02  0.84900332459E+02 -0.25664773890E+02  0.15489331696E+03  0.12500000000E+03 0.  0.
         25    1    1    2    0    0 -0.11963696626E+03 -0.19243688475E+02  0.63796001549E+02  0.18541373481E+03  0.12500000000E+03 0.  0.
</event>
<event>
 5    0  0.5547141E-005  0.3822254E+03  0.7546771E-02  0.1050114E+00
         21   -1    0    0  502  501  0.00000000000E+00  0.00000000000E+00  0.13478433242E+03  0.13478433242E+03  0.00000000000E+00 0. -1.
         21   -1    0    0  501  502 -0.00000000000E+00 -0.00000000000E+00 -0.10839260218E+04  0.10839260218E+04  0.00000000000E+00 0. -1.
         25    1    1    2    0    0 -0.22832601706E+02  0.64370544360E+02 -0.18625506717E+03  0.23447994526E+03  0.12500000000E+03 0.  0.
         25    1    1    2    0    0 -0.17106434861E+03  0.75382039457E+02 -0.62050829128E+02  0.23328259393E+03  0.12500000000E+03 0.  0.
         25    1    1    2    0    0  0.19389695031E+03 -0.13975258382E+03 -0.70083579314E+03  0.75094781507E+03  0.12500000000E+03 0.  0.
</event>
<event>
 5    0  0.5547141E-005  0.2847930E+03  0.7546771E-02  0.1093100E+00
         21   -1    0    0  502  501  0.00000000000E+00  0.00000000000E+00  0.12879783914E+04  0.12879783914E+04  0.00000000000E+00 0.  1.
         21   -1    0    0  501  502 -0.00000000000E+00 -0.00000000000E+00 -0.62972380548E+02  0.62972380548E+02  0.00000000000E+00 0.  1.
         25    1    1    2    0    0  0.18121862208E+02 -0.15186824511E+03  0.24861457601E+03  0.31753200337E+03  0.12500000000E+03 0.  0.
         25    1    1    2    0    0 -0.88212178584E+02  0.66171910047E+02  0.40036181348E+03  0.43367579114E+03  0.12500000000E+03 0.  0.
         25    1    1    2    0    0  0.70090316376E+02  0.85696335062E+02  0.57602962141E+03  0.59974297747E+03  0.12500000000E+03 0.  0.
</event>
<event>
 5    0  0.5547141E-005  0.4864008E+03  0.7546771E-02  0.1017391E+00
         21   -1    0    0  502  501  0.00000000000E+00  0.00000000000E+00  0.67092553559E+03  0.67092553559E+03  0.00000000000E+00 0.  1.
         21   -1    0    0  501  502 -0.00000000000E+00 -0.00000000000E+00 -0.35262597932E+03  0.35262597932E+03  0.00000000000E+00 0.  1.
         25    1    1    2    0    0 -0.49278913934E+02  0.29483365485E+03  0.19802401490E+03  0.37972859501E+03  0.12500000000E+03 0.  0.
         25    1    1    2    0    0  0.38022725407E+02 -0.42859455679E+03  0.10169060705E+03  0.45946164292E+03  0.12500000000E+03 0.  0.
         25    1    1    2    0    0  0.11256188527E+02  0.13376090194E+03  0.18584934315E+02  0.18436127698E+03  0.12500000000E+03 0.  0.
</event>
<event>
 5    0  0.5547141E-005  0.2590411E+03  0.7546771E-02  0.1107721E+00
         21   -1    0    0  502  501  0.00000000000E+00  0.00000000000E+00  0.10570930047E+04  0.10570930047E+04  0.00000000000E+00 0. -1.
         21   -1    0    0  501  502 -0.00000000000E+00 -0.00000000000E+00 -0.63478125613E+02  0.63478125613E+02  0.00000000000E+00 0. -1.
         25    1    1    2    0    0 -0.50211748695E+02  0.36393280858E+02  0.11403930681E+03  0.18021002774E+03  0.12500000000E+03 0.  0.
         25    1    1    2    0    0 -0.73875961432E+02 -0.33869410504E+01  0.29296948898E+03  0.32699426680E+03  0.12500000000E+03 0.  0.
         25    1    1    2    0    0  0.12408771013E+03 -0.33006339807E+02  0.58660608331E+03  0.61336683579E+03  0.12500000000E+03 0.  0.
</event>
<event>
 5    0  0.5547141E-005  0.3866328E+03  0.7546771E-02  0.1048509E+00
         21   -1    0    0  502  501  0.00000000000E+00  0.00000000000E+00  0.33025274875E+03  0.33025274875E+03  0.00000000000E+00 0.  1.
         21   -1    0    0  501  502 -0.00000000000E+00 -0.00000000000E+00 -0.45263797756E+03  0.45263797756E+03  0.00000000000E+00 0.  1.
         25    1    1    2    0    0  0.19379182652E+03  0.13960208343E+03 -0.90016853282E+02  0.28420423571E+03  0.12500000000E+03 0.  0.
         25    1    1    2    0    0 -0.12981796321E+03 -0.24253032395E+03 -0.90028622035E+02  0.31528370461E+03  0.12500000000E+03 0.  0.
         25    1    1    2    0    0 -0.63973863306E+02  0.10292824052E+03  0.57660246510E+02  0.18340278599E+03  0.12500000000E+03 0.  0.
</event>
<event>
 5    0  0.5547141E-005  0.2596706E+03  0.7546771E-02  0.1107341E+00
         21   -1    0    0  502  501  0.00000000000E+00  0.00000000000E+00  0.20091784320E+04  0.20091784320E+04  0.00000000000E+00 0. -1.
         21   -1    0    0  501  502 -0.00000000000E+00 -0.00000000000E+00 -0.33560392780E+02  0.33560392780E+02  0.00000000000E+00 0. -1.
         25    1    1    2    0    0 -0.16371086722E+02  0.62252912847E+02  0.64936376473E+03  0.66441081913E+03  0.12500000000E+03 0.  0.
         25    1    1    2    0    0 -0.11209807813E+01 -0.91171023409E+02  0.24785434075E+03  0.29218176934E+03  0.12500000000E+03 0.  0.
         25    1    1    2    0    0  0.17492067503E+02  0.28918110562E+02  0.10783999338E+04  0.10861462363E+04  0.12500000000E+03 0.  0.
</event>
<event>
 5    0  0.5547141E-005  0.2990323E+03  0.7546771E-02  0.1085725E+00
         21   -1    0    0  502  501  0.00000000000E+00  0.00000000000E+00  0.17165518703E+04  0.17165518703E+04  0.00000000000E+00 0.  1.
         21   -1    0    0  501  502 -0.00000000000E+00 -0.00000000000E+00 -0.52093000575E+02  0.52093000575E+02  0.00000000000E+00 0.  1.
         25    1    1    2    0    0 -0.54670545821E+02 -0.42882701048E+02  0.71144776514E+03  0.72567948652E+03  0.12500000000E+03 0.  0.
         25    1    1    2    0    0  0.11715406240E+03  0.14394148208E+03  0.34697808042E+03  0.41287166637E+03  0.12500000000E+03 0.  0.
         25    1    1    2    0    0 -0.62483516583E+02 -0.10105878103E+03  0.60603302421E+03  0.63009371803E+03  0.12500000000E+03 0.  0.
</event>
<event>
 5    0  0.5547141E-005  0.2462794E+03  0.7546771E-02  0.1115679E+00
         21   -1    0    0  502  501  0.00000000000E+00  0.00000000000E+00  0.19100480029E+04  0.19100480029E+04  0.00000000000E+00 0. -1.
         21   -1    0    0  501  502 -0.00000000000E+00 -0.00000000000E+00 -0.31754972669E+02  0.31754972669E+02  0.00000000000E+00 0. -1.
         25    1    1    2    0    0  0.69786679592E+01 -0.11737850319E+03  0.59472957843E+03  0.61899490004E+03  0.12500000000E+03 0.  0.
         25    1    1    2    0    0  0.43502950316E+02  0.23578009598E+02  0.35043333446E+03  0.37533578449E+03  0.12500000000E+03 0.  0.
         25    1    1    2    0    0 -0.50481618275E+02  0.93800493596E+02  0.93313011735E+03  0.94747229104E+03  0.12500000000E+03 0.  0.
</event>
<event>
 5    0  0.5547141E-005  0.7950266E+03  0.7546771E-02  0.9567244E-01
         21   -1    0    0  502  501  0.00000000000E+00  0.00000000000E+00  0.22093999764E+04  0.22093999764E+04  0.00000000000E+00 0.  1.
         21   -1    0    0  501  502 -0.00000000000E+00 -0.00000000000E+00 -0.28608098768E+03  0.28608098768E+03  0.00000000000E+00 0.  1.
         25    1    1    2    0    0 -0.65176072403E+02 -0.76709347480E+03  0.97875028771E+03  0.12515020756E+04  0.12500000000E+03 0.  0.
         25    1    1    2    0    0  0.35732148272E+02  0.39735892231E+03  0.48663629510E+03  0.64156900118E+03  0.12500000000E+03 0.  0.
         25    1    1    2    0    0  0.29443924131E+02  0.36973455249E+03  0.45793240592E+03  0.60240988734E+03  0.12500000000E+03 0.  0.
</event>
<event>
 5    0  0.5547141E-005  0.2632627E+03  0.7546771E-02  0.1105199E+00
         21   -1    0    0  502  501  0.00000000000E+00  0.00000000000E+00  0.39755136712E+02  0.39755136712E+02  0.00000000000E+00 0. -1.
         21   -1    0    0  501  502 -0.00000000000E+00 -0.00000000000E+00 -0.17433530620E+04  0.17433530620E+04  0.00000000000E+00 0. -1.
         25    1    1    2    0    0 -0.44306991944E+01  0.12936975308E+03 -0.93938309446E+03  0.95646315260E+03  0.12500000000E+03 0.  0.
         25    1    1    2    0    0  0.44801415635E+02 -0.29518432479E+01 -0.31751228433E+03  0.34417282130E+03  0.12500000000E+03 0.  0.
         25    1    1    2    0    0 -0.40370716440E+02 -0.12641790983E+03 -0.44670254644E+03  0.48247222477E+03  0.12500000000E+03 0.  0.
</event>
<event>
 5    0  0.5547141E-005  0.2786398E+03  0.7546771E-02  0.1096434E+00
         21   -1    0    0  502  501  0.00000000000E+00  0.00000000000E+00  0.31644937973E+04  0.31644937973E+04  0.00000000000E+00 0. -1.
         21   -1    0    0  501  502 -0.00000000000E+00 -0.00000000000E+00 -0.24534766789E+02  0.24534766789E+02  0.00000000000E+00 0. -1.
         25    1    1    2    0    0  0.29723587071E+02 -0.14500029073E+03  0.66727877943E+03  0.69483418556E+03  0.12500000000E+03 0.  0.
         25    1    1    2    0    0 -0.42895226392E+02  0.86776070168E+02  0.78034569210E+03  0.79620002888E+03  0.12500000000E+03 0.  0.
         25    1    1    2    0    0  0.13171639321E+02  0.58224220567E+02  0.16923345590E+04  0.16979943497E+04  0.12500000000E+03 0.  0.
</event>
<event>
 5    0  0.5547141E-005  0.2520973E+03  0.7546771E-02  0.1111987E+00
         21   -1    0    0  502  501  0.00000000000E+00  0.00000000000E+00  0.85501266066E+02  0.85501266066E+02  0.00000000000E+00 0.  1.
         21   -1    0    0  501  502 -0.00000000000E+00 -0.00000000000E+00 -0.74329936851E+03  0.74329936851E+03  0.00000000000E+00 0.  1.
         25    1    1    2    0    0  0.28351876040E+02 -0.80649076071E+01 -0.29311897964E+02  0.13173100991E+03  0.12500000000E+03 0.  0.
         25    1    1    2    0    0 -0.36265313967E+02  0.83296882965E+02 -0.34959351611E+03  0.38222267098E+03  0.12500000000E+03 0.  0.
         25    1    1    2    0    0  0.79134379264E+01 -0.75231975358E+02 -0.27889268837E+03  0.31484695368E+03  0.12500000000E+03 0.  0.
</event>
<event>
 5    0  0.5547141E-005  0.2810846E+03  0.7546771E-02  0.1095098E+00
         21   -1    0    0  502  501  0.00000000000E+00  0.00000000000E+00  0.44629397079E+02  0.44629397079E+02  0.00000000000E+00 0. -1.
         21   -1    0    0  501  502 -0.00000000000E+00 -0.00000000000E+00 -0.17703250479E+04  0.17703250479E+04  0.00000000000E+00 0. -1.
         25    1    1    2    0    0  0.13014713492E+03  0.84174183363E+01 -0.75463963597E+03  0.77596076565E+03  0.12500000000E+03 0.  0.
         25    1    1    2    0    0 -0.11750358874E+03 -0.11334284886E+03 -0.52235662539E+03  0.56136898636E+03  0.12500000000E+03 0.  0.
         25    1    1    2    0    0 -0.12643546181E+02  0.10492543052E+03 -0.44869938949E+03  0.47762469300E+03  0.12500000000E+03 0.  0.
</event>
<event>
 5    0  0.5547141E-005  0.3813613E+03  0.7546771E-02  0.1050432E+00
         21   -1    0    0  502  501  0.00000000000E+00  0.00000000000E+00  0.15187012536E+03  0.15187012536E+03  0.00000000000E+00 0.  1.
         21   -1    0    0  501  502 -0.00000000000E+00 -0.00000000000E+00 -0.95763697594E+03  0.95763697594E+03  0.00000000000E+00 0.  1.
         25    1    1    2    0    0  0.16315989269E+03  0.25604255253E+03 -0.32394200955E+03  0.46124002953E+03  0.12500000000E+03 0.  0.
         25    1    1    2    0    0 -0.11675334771E+03 -0.36193558776E+02 -0.16687265638E+03  0.24168740419E+03  0.12500000000E+03 0.  0.
         25    1    1    2    0    0 -0.46406544982E+02 -0.21984899375E+03 -0.31495218466E+03  0.40657966758E+03  0.12500000000E+03 0.  0.
</event>
<event>
 5    0  0.5547141E-005  0.2469102E+03  0.7546771E-02  0.1115273E+00
         21   -1    0    0  502  501  0.00000000000E+00  0.00000000000E+00  0.30639459518E+02  0.30639459518E+02  0.00000000000E+00 0. -1.
         21   -1    0    0  501  502 -0.00000000000E+00 -0.00000000000E+00 -0.19897436187E+04  0.19897436187E+04  0.00000000000E+00 0. -1.
         25    1    1    2    0    0  0.38195128732E+02  0.43150519047E+00 -0.23938744505E+03  0.27274604104E+03  0.12500000000E+03 0.  0.
         25    1    1    2    0    0 -0.52401701849E+02 -0.77240023179E+02 -0.68941994856E+03  0.70684993103E+03  0.12500000000E+03 0.  0.
         25    1    1    2    0    0  0.14206573117E+02  0.76808517988E+02 -0.10302967655E+04  0.10407871061E+04  0.12500000000E+03 0.  0.
</event>
<event>
 5    0  0.5547141E-005  0.3220226E+03  0.7546771E-02  0.1074722E+00
         21   -1    0    0  502  501  0.00000000000E+00  0.00000000000E+00  0.16361333811E+03  0.16361333811E+03  0.00000000000E+00 0.  1.
         21   -1    0    0  501  502 -0.00000000000E+00 -0.00000000000E+00 -0.63380272300E+03  0.63380272300E+03  0.00000000000E+00 0.  1.
         25    1    1    2    0    0  0.15196732898E+02  0.11046565897E+03 -0.17908014467E+03  0.24521072716E+03  0.12500000000E+03 0.  0.
         25    1    1    2    0    0 -0.15648079255E+03  0.64519180755E+02 -0.10895399497E+03  0.23694922693E+03  0.12500000000E+03 0.  0.
         25    1    1    2    0    0  0.14128405965E+03 -0.17498483972E+03 -0.18215524525E+03  0.31525610703E+03  0.12500000000E+03 0.  0.
</event>
<event>
 5    0  0.5547141E-005  0.3078021E+03  0.7546771E-02  0.1081404E+00
         21   -1    0    0  502  501  0.00000000000E+00  0.00000000000E+00  0.10523293468E+04  0.10523293468E+04  0.00000000000E+00 0. -1.
         21   -1    0    0  501  502 -0.00000000000E+00 -0.00000000000E+00 -0.90030863298E+02  0.90030863298E+02  0.00000000000E+00 0. -1.
         25    1    1    2    0    0  0.72663392484E+02  0.12063454594E+03  0.30193779689E+03  0.35584279601E+03  0.12500000000E+03 0.  0.
         25    1    1    2    0    0 -0.89900359707E+02 -0.17394711947E+03  0.20107476045E+03  0.30723888806E+03  0.12500000000E+03 0.  0.
         25    1    1    2    0    0  0.17236967223E+02  0.53312573537E+02  0.45928592615E+03  0.47927852601E+03  0.12500000000E+03 0.  0.
</event>
<event>
 5    0  0.5547141E-005  0.2495414E+03  0.7546771E-02  0.1113595E+00
         21   -1    0    0  502  501  0.00000000000E+00  0.00000000000E+00  0.77829684644E+02  0.77829684644E+02  0.00000000000E+00 0. -1.
         21   -1    0    0  501  502 -0.00000000000E+00 -0.00000000000E+00 -0.80009190285E+03  0.80009190285E+03  0.00000000000E+00 0. -1.
         25    1    1    2    0    0 -0.27586044810E+02  0.52406162384E+02 -0.39247814216E+03  0.41613878430E+03  0.12500000000E+03 0.  0.
         25    1    1    2    0    0  0.16271053823E+01 -0.11569230850E+03 -0.12069799513E+03  0.20875910458E+03  0.12500000000E+03 0.  0.
         25    1    1    2    0    0  0.25958939427E+02  0.63286146117E+02 -0.20908608091E+03  0.25302369861E+03  0.12500000000E+03 0.  0.
</event>
<event>
 5    0  0.5547141E-005  0.3156381E+03  0.7546771E-02  0.1077674E+00
         21   -1    0    0  502  501  0.00000000000E+00  0.00000000000E+00  0.33295384934E+03  0.33295384934E+03  0.00000000000E+00 0.  1.
         21   -1    0    0  501  502 -0.00000000000E+00 -0.00000000000E+00 -0.29922285555E+03  0.29922285555E+03  0.00000000000E+00 0.  1.
         25    1    1    2    0    0 -0.19317161119E+01  0.19964945272E+03  0.15287426262E+03  0.28081875947E+03  0.12500000000E+03 0.  0.
         25    1    1    2    0    0  0.20920726299E+02 -0.14265922587E+03 -0.55250000002E+02  0.19866276454E+03  0.12500000000E+03 0.  0.
         25    1    1    2    0    0 -0.18989010187E+02 -0.56990226847E+02 -0.63893268828E+02  0.15269518089E+03  0.12500000000E+03 0.  0.
</event>
<event>
 5    0  0.5547141E-005  0.3113599E+03  0.7546771E-02  0.1079696E+00
         21   -1    0    0  502  501  0.00000000000E+00  0.00000000000E+00  0.15624977951E+03  0.15624977951E+03  0.00000000000E+00 0.  1.
         21   -1    0    0  501  502 -0.00000000000E+00 -0.00000000000E+00 -0.62044885930E+03  0.62044885930E+03  0.00000000000E+00 0.  1.
         25    1    1    2    0    0 -0.95943341101E+02 -0.29685124208E+02 -0.99792052247E+02  0.18886446196E+03  0.12500000000E+03 0.  0.
         25    1    1    2    0    0  0.17231211649E+03  0.54131660767E+02 -0.37958064709E+03  0.43855235701E+03  0.12500000000E+03 0.  0.
         25    1    1    2    0    0 -0.76368775393E+02 -0.24446536559E+02  0.15173619558E+02  0.14928181984E+03  0.12500000000E+03 0.  0.
</event>
<event>
 5    0  0.5547141E-005  0.3474949E+03  0.7546771E-02  0.1063648E+00
         21   -1    0    0  502  501  0.00000000000E+00  0.00000000000E+00  0.44500472979E+03  0.44500472979E+03  0.00000000000E+00 0. -1.
         21   -1    0    0  501  502 -0.00000000000E+00 -0.00000000000E+00 -0.27135154305E+03  0.27135154305E+03  0.00000000000E+00 0. -1.
         25    1    1    2    0    0 -0.69522666403E+02  0.12476362826E+03  0.12753048008E+03  0.22866654200E+03  0.12500000000E+03 0.  0.
         25    1    1    2    0    0 -0.26060420565E+02  0.12844022488E+02  0.19331119674E+03  0.23203088850E+03  0.12500000000E+03 0.  0.
         25    1    1    2    0    0  0.95583086968E+02 -0.13760765075E+03 -0.14718849008E+03  0.25565884235E+03  0.12500000000E+03 0.  0.
</event>
<event>
 5    0  0.5547141E-005  0.2760194E+03  0.7546771E-02  0.1097883E+00
         21   -1    0    0  502  501  0.00000000000E+00  0.00000000000E+00  0.32981255480E+03  0.32981255480E+03  0.00000000000E+00 0. -1.
         21   -1    0    0  501  502 -0.00000000000E+00 -0.00000000000E+00 -0.23099994789E+03  0.23099994789E+03  0.00000000000E+00 0. -1.
         25    1    1    2    0    0  0.18468994565E+02 -0.28490161198E+02  0.93659642522E+02  0.15984342865E+03  0.12500000000E+03 0.  0.
         25    1    1    2    0    0 -0.13634780111E+03  0.23231685824E+02  0.92544140684E+02  0.20813421648E+03  0.12500000000E+03 0.  0.
         25    1    1    2    0    0  0.11787880654E+03  0.52584753745E+01 -0.87391176295E+02  0.19283485756E+03  0.12500000000E+03 0.  0.
</event>
<event>
 5    0  0.5547141E-005  0.2449691E+03  0.7546771E-02  0.1116526E+00
         21   -1    0    0  502  501  0.00000000000E+00  0.00000000000E+00  0.94576638174E+02  0.94576638174E+02  0.00000000000E+00 0.  1.
         21   -1    0    0  501  502 -0.00000000000E+00 -0.00000000000E+00 -0.63451024587E+03  0.63451024587E+03  0.00000000000E+00 0.  1.
         25    1    1    2    0    0 -0.11058507698E+02 -0.58915195740E+02 -0.10190320721E+03  0.17205392911E+03  0.12500000000E+03 0.  0.
         25    1    1    2    0    0 -0.49003796874E+02  0.34339694806E+02 -0.38039773540E+03  0.40485555924E+03  0.12500000000E+03 0.  0.
         25    1    1    2    0    0  0.60062304572E+02  0.24575500934E+02 -0.57632665080E+02  0.15217739570E+03  0.12500000000E+03 0.  0.
</event>
<event>
 5    0  0.5547141E-005  0.2099831E+03  0.7546771E-02  0.1141579E+00
         21   -1    0    0  502  501  0.00000000000E+00  0.00000000000E+00  0.18224052679E+03  0.18224052679E+03  0.00000000000E+00 0.  1.
         21   -1    0    0  501  502 -0.00000000000E+00 -0.00000000000E+00 -0.24194896108E+03  0.24194896108E+03  0.00000000000E+00 0.  1.
         25    1    1    2    0    0 -0.35216446349E+02  0.24188195445E+01 -0.12480050141E+02  0.13048678260E+03  0.12500000000E+03 0.  0.
         25    1    1    2    0    0  0.55309785072E+02  0.43807198247E+02 -0.65342011895E+02  0.15771119637E+03  0.12500000000E+03 0.  0.
         25    1    1    2    0    0 -0.20093338723E+02 -0.46226017791E+02  0.18113627752E+02  0.13599150890E+03  0.12500000000E+03 0.  0.
</event>
<event>
 5    0  0.5547141E-005  0.2932792E+03  0.7546771E-02  0.1088649E+00
         21   -1    0    0  502  501  0.00000000000E+00  0.00000000000E+00  0.21078888814E+03  0.21078888814E+03  0.00000000000E+00 0. -1.
         21   -1    0    0  501  502 -0.00000000000E+00 -0.00000000000E+00 -0.40805131141E+03  0.40805131141E+03  0.00000000000E+00 0. -1.
         25    1    1    2    0    0  0.94471109733E+02 -0.60145666942E+02 -0.26558313120E+02  0.16991949806E+03  0.12500000000E+03 0.  0.
         25    1    1    2    0    0 -0.14902871062E+03  0.15450224921E+03 -0.87433924969E+02  0.26334424778E+03  0.12500000000E+03 0.  0.
         25    1    1    2    0    0  0.54557600891E+02 -0.94356582270E+02 -0.83270185184E+02  0.18557645371E+03  0.12500000000E+03 0.  0.
</event>
<event>
 5    0  0.5547141E-005  0.3035585E+03  0.7546771E-02  0.1083475E+00
         21   -1    0    0  502  501  0.00000000000E+00  0.00000000000E+00  0.51547125321E+02  0.51547125321E+02  0.00000000000E+00 0.  1.
         21   -1    0    0  501  502 -0.00000000000E+00 -0.00000000000E+00 -0.17876414904E+04  0.17876414904E+04  0.00000000000E+00 0.  1.
         25    1    1    2    0    0  0.18897768006E+03  0.38989000816E+02 -0.60835080929E+03  0.65034484153E+03  0.12500000000E+03 0.  0.
         25    1    1    2    0    0 -0.16253465025E+03 -0.90972513901E+02 -0.84471461278E+03  0.87399158340E+03  0.12500000000E+03 0.  0.
         25    1    1    2    0    0 -0.26443029809E+02  0.51983513085E+02 -0.28302894297E+03  0.31485219074E+03  0.12500000000E+03 0.  0.
</event>
<event>
 5    0  0.5547141E-005  0.2595549E+03  0.7546771E-02  0.1107411E+00
         21   -1    0    0  502  501  0.00000000000E+00  0.00000000000E+00  0.27220485237E+03  0.27220485237E+03  0.00000000000E+00 0. -1.
         21   -1    0    0  501  502 -0.00000000000E+00 -0.00000000000E+00 -0.24749281519E+03  0.24749281519E+03  0.00000000000E+00 0. -1.
         25    1    1    2    0    0 -0.31312263515E+02  0.60850547870E+02 -0.16965511970E+02  0.14351332906E+03  0.12500000000E+03 0.  0.
         25    1    1    2    0    0 -0.74993552809E+02 -0.74077767780E+02 -0.69358030174E+02  0.17761499090E+03  0.12500000000E+03 0.  0.
         25    1    1    2    0    0  0.10630581632E+03  0.13227219910E+02  0.11103557932E+03  0.19856934760E+03  0.12500000000E+03 0.  0.
</event>
<event>
 5    0  0.5547141E-005  0.3069584E+03  0.7546771E-02  0.1081813E+00
         21   -1    0    0  502  501  0.00000000000E+00  0.00000000000E+00  0.38747624280E+02  0.38747624280E+02  0.00000000000E+00 0.  1.
         21   -1    0    0  501  502 -0.00000000000E+00 -0.00000000000E+00 -0.24317221426E+04  0.24317221426E+04  0.00000000000E+00 0.  1.
         25    1    1    2    0    0  0.13816989909E+03 -0.11294723681E+03 -0.12148714073E+04  0.12342550529E+04  0.12500000000E+03 0.  0.
         25    1    1    2    0    0 -0.88570539862E+02 -0.33011668443E+02 -0.33174392291E+03  0.36689718066E+03  0.12500000000E+03 0.  0.
         25    1    1    2    0    0 -0.49599359226E+02  0.14595890525E+03 -0.84635918810E+03  0.86931753332E+03  0.12500000000E+03 0.  0.
</event>
<event>
 5    0  0.5547141E-005  0.3294754E+03  0.7546771E-02  0.1071369E+00
         21   -1    0    0  502  501  0.00000000000E+00  0.00000000000E+00  0.38589413939E+03  0.38589413939E+03  0.00000000000E+00 0. -1.
         21   -1    0    0  501  502 -0.00000000000E+00 -0.00000000000E+00 -0.28130521493E+03  0.28130521493E+03  0.00000000000E+00 0. -1.
         25    1    1    2    0    0 -0.19131982160E+03 -0.72276336420E+02  0.16943333921E+02  0.24028986560E+03  0.12500000000E+03 0.  0.
         25    1    1    2    0    0  0.87737870107E+02  0.16943518029E+03  0.37309092820E+02  0.23113455514E+03  0.12500000000E+03 0.  0.
         25    1    1    2    0    0  0.10358195149E+03 -0.97158843871E+02  0.50336497722E+02  0.19577493359E+03  0.12500000000E+03 0.  0.
</event>
<event>
 5    0  0.5547141E-005  0.3390360E+03  0.7546771E-02  0.1067207E+00
         21   -1    0    0  502  501  0.00000000000E+00  0.00000000000E+00  0.13929339910E+03  0.13929339910E+03  0.00000000000E+00 0.  1.
         21   -1    0    0  501  502 -0.00000000000E+00 -0.00000000000E+00 -0.82520369467E+03  0.82520369467E+03  0.00000000000E+00 0.  1.
         25    1    1    2    0    0 -0.62268688997E+02  0.19725582948E+03 -0.20416636569E+03  0.31637976670E+03  0.12500000000E+03 0.  0.
         25    1    1    2    0    0  0.11213254747E+03 -0.35379869758E+02 -0.69336555646E+02  0.18508917130E+03  0.12500000000E+03 0.  0.
         25    1    1    2    0    0 -0.49863858468E+02 -0.16187595973E+03 -0.41240737422E+03  0.46302815577E+03  0.12500000000E+03 0.  0.
</event>
<event>
 5    0  0.5547141E-005  0.2105395E+03  0.7546771E-02  0.1141139E+00
         21   -1    0    0  502  501  0.00000000000E+00  0.00000000000E+00  0.23895067327E+03  0.23895067327E+03  0.00000000000E+00 0. -1.
         21   -1    0    0  501  502 -0.00000000000E+00 -0.00000000000E+00 -0.18550647180E+03  0.18550647180E+03  0.00000000000E+00 0. -1.
         25    1    1    2    0    0  0.34093763545E+02 -0.47834189973E+02  0.49239711753E+02  0.14662893185E+03  0.12500000000E+03 0.  0.
         25    1    1    2    0    0 -0.10361136724E+02 -0.58931211891E+01  0.45688446470E+02  0.13362079244E+03  0.12500000000E+03 0.  0.
         25    1    1    2    0    0 -0.23732626821E+02  0.53727311162E+02 -0.41483956751E+02  0.14420742078E+03  0.12500000000E+03 0.  0.
</event>
<event>
 5    0  0.5547141E-005  0.4845086E+03  0.7546771E-02  0.1017903E+00
         21   -1    0    0  502  501  0.00000000000E+00  0.00000000000E+00  0.36041603056E+03  0.36041603056E+03  0.00000000000E+00 0.  1.
         21   -1    0    0  501  502 -0.00000000000E+00 -0.00000000000E+00 -0.65132657048E+03  0.65132657048E+03  0.00000000000E+00 0.  1.
         25    1    1    2    0    0  0.14704238638E+02  0.31858964099E+02  0.11062719779E+03  0.17057134906E+03  0.12500000000E+03 0.  0.
         25    1    1    2    0    0  0.13344146739E+03 -0.25367971174E+03 -0.44450104897E+03  0.54347603802E+03  0.12500000000E+03 0.  0.
         25    1    1    2    0    0 -0.14814570602E+03  0.22182074764E+03  0.42963311260E+02  0.29769521396E+03  0.12500000000E+03 0.  0.
</event>
<event>
 5    0  0.5547141E-005  0.2182585E+03  0.7546771E-02  0.1135188E+00
         21   -1    0    0  502  501  0.00000000000E+00  0.00000000000E+00  0.33637349139E+02  0.33637349139E+02  0.00000000000E+00 0.  1.
         21   -1    0    0  501  502 -0.00000000000E+00 -0.00000000000E+00 -0.14161862739E+04  0.14161862739E+04  0.00000000000E+00 0.  1.
         25    1    1    2    0    0  0.28911387881E+02 -0.13792808748E+00 -0.83727608154E+03  0.84704906829E+03  0.12500000000E+03 0.  0.
         25    1    1    2    0    0 -0.12475945711E+02 -0.14025103805E+02 -0.22143893104E+03  0.25497559283E+03  0.12500000000E+03 0.  0.
         25    1    1    2    0    0 -0.16435442170E+02  0.14163031893E+02 -0.32383391213E+03  0.34779896187E+03  0.12500000000E+03 0.  0.
</event>
<event>
 5    0  0.5547141E-005  0.3343245E+03  0.7546771E-02  0.1069239E+00
         21   -1    0    0  502  501  0.00000000000E+00  0.00000000000E+00  0.83584301144E+03  0.83584301144E+03  0.00000000000E+00 0.  1.
         21   -1    0    0  501  502 -0.00000000000E+00 -0.00000000000E+00 -0.13372472843E+03  0.13372472843E+03  0.00000000000E+00 0.  1.
         25    1    1    2    0    0  0.12016068701E+02 -0.46562161899E+02  0.52424407157E+02  0.14382537778E+03  0.12500000000E+03 0.  0.
         25    1    1    2    0    0  0.85618890740E+02  0.21017166807E+03  0.22225967828E+03  0.34136064375E+03  0.12500000000E+03 0.  0.
         25    1    1    2    0    0 -0.97634959441E+02 -0.16360950617E+03  0.42743419757E+03  0.48438171835E+03  0.12500000000E+03 0.  0.
</event>
<event>
 5    0  0.5547141E-005  0.5064193E+03  0.7546771E-02  0.1012117E+00
         21   -1    0    0  502  501  0.00000000000E+00  0.00000000000E+00  0.35283804486E+03  0.35283804486E+03  0.00000000000E+00 0. -1.
         21   -1    0    0  501  502 -0.00000000000E+00 -0.00000000000E+00 -0.72685040333E+03  0.72685040333E+03  0.00000000000E+00 0. -1.
         25    1    1    2    0    0  0.13009777993E+03 -0.27080364498E+03 -0.31411216722E+03  0.45227370040E+03  0.12500000000E+03 0.  0.
         25    1    1    2    0    0 -0.92728216729E+02 -0.12209849381E+03  0.39336281875E+02  0.20169012728E+03  0.12500000000E+03 0.  0.
         25    1    1    2    0    0 -0.37369563203E+02  0.39290213879E+03 -0.99236473130E+02  0.42572462052E+03  0.12500000000E+03 0.  0.
</event>
<event>
 5    0  0.5759669E-005  0.3680253E+03  0.7546771E-02  0.1055451E+00
         21   -1    0    0  502  501  0.00000000000E+00  0.00000000000E+00  0.62048469567E+03  0.62048469567E+03  0.00000000000E+00 0.  1.
         21   -1    0    0  501  502 -0.00000000000E+00 -0.00000000000E+00 -0.21828523775E+03  0.21828523775E+03  0.00000000000E+00 0.  1.
         25    1    1    2    0    0 -0.52433053527E+02  0.20297162852E+03  0.10222640505E+03  0.26461659996E+03  0.12500000000E+03 0.  0.
         25    1    1    2    0    0 -0.65552204340E+02  0.25174240557E+02  0.24409818560E+03  0.28308966441E+03  0.12500000000E+03 0.  0.
         25    1    1    2    0    0  0.11798525787E+03 -0.22814586907E+03  0.55874867264E+02  0.29106366905E+03  0.12500000000E+03 0.  0.
</event>
<event>
 5    0  0.5547141E-005  0.2351069E+03  0.7546771E-02  0.1123096E+00
         21   -1    0    0  502  501  0.00000000000E+00  0.00000000000E+00  0.13006065618E+03  0.13006065618E+03  0.00000000000E+00 0. -1.
         21   -1    0    0  501  502 -0.00000000000E+00 -0.00000000000E+00 -0.42499587520E+03  0.42499587520E+03  0.00000000000E+00 0. -1.
         25    1    1    2    0    0 -0.76433693773E+02 -0.20042557841E+02 -0.19143948902E+03  0.24190471600E+03  0.12500000000E+03 0.  0.
         25    1    1    2    0    0 -0.18964290982E+02  0.45136824880E+02 -0.28949441409E+02  0.13733188796E+03  0.12500000000E+03 0.  0.
         25    1    1    2    0    0  0.95397984755E+02 -0.25094267039E+02 -0.74546288601E+02  0.17581992742E+03  0.12500000000E+03 0.  0.
</event>
<event>
 5    0  0.5547141E-005  0.4421582E+03  0.7546771E-02  0.1030087E+00
         21   -1    0    0  502  501  0.00000000000E+00  0.00000000000E+00  0.13387840345E+04  0.13387840345E+04  0.00000000000E+00 0.  1.
         21   -1    0    0  501  502 -0.00000000000E+00 -0.00000000000E+00 -0.14603090370E+03  0.14603090370E+03  0.00000000000E+00 0.  1.
         25    1    1    2    0    0  0.30563256295E+03  0.10069528782E+03  0.51236423805E+03  0.61781301133E+03  0.12500000000E+03 0.  0.
         25    1    1    2    0    0 -0.57970966447E+02 -0.51321375740E+02  0.19212674664E+02  0.14828568180E+03  0.12500000000E+03 0.  0.
         25    1    1    2    0    0 -0.24766159651E+03 -0.49373912083E+02  0.66117621812E+03  0.71871624511E+03  0.12500000000E+03 0.  0.
</event>
<event>
 5    0  0.5547141E-005  0.3504027E+03  0.7546771E-02  0.1062450E+00
         21   -1    0    0  502  501  0.00000000000E+00  0.00000000000E+00  0.58801376456E+02  0.58801376456E+02  0.00000000000E+00 0. -1.
         21   -1    0    0  501  502 -0.00000000000E+00 -0.00000000000E+00 -0.20880814311E+04  0.20880814311E+04  0.00000000000E+00 0. -1.
         25    1    1    2    0    0  0.41311282913E+02 -0.15186695364E+02 -0.67412538649E+03  0.68702787026E+03  0.12500000000E+03 0.  0.
         25    1    1    2    0    0 -0.48242708232E+02  0.21204857669E+03 -0.10272199615E+04  0.10574014409E+04  0.12500000000E+03 0.  0.
         25    1    1    2    0    0  0.69314253195E+01 -0.19686188132E+03 -0.32793470661E+03  0.40245349641E+03  0.12500000000E+03 0.  0.
</event>
<event>
 5    0  0.5547141E-005  0.3135086E+03  0.7546771E-02  0.1078676E+00
         21   -1    0    0  502  501  0.00000000000E+00  0.00000000000E+00  0.44995968820E+03  0.44995968820E+03  0.00000000000E+00 0.  1.
         21   -1    0    0  501  502 -0.00000000000E+00 -0.00000000000E+00 -0.21843654958E+03  0.21843654958E+03  0.00000000000E+00 0.  1.
         25    1    1    2    0    0 -0.41211161950E+01 -0.36727471451E+02  0.66063730627E+02  0.14613455191E+03  0.12500000000E+03 0.  0.
         25    1    1    2    0    0  0.86957442673E+02  0.20553045317E+03  0.26555903643E+02  0.25716644423E+03  0.12500000000E+03 0.  0.
         25    1    1    2    0    0 -0.82836326478E+02 -0.16880298172E+03  0.13890350435E+03  0.26509524165E+03  0.12500000000E+03 0.  0.
</event>
<event>
 5    0  0.5547141E-005  0.2489978E+03  0.7546771E-02  0.1113940E+00
         21   -1    0    0  502  501  0.00000000000E+00  0.00000000000E+00  0.10880631484E+03  0.10880631484E+03  0.00000000000E+00 0. -1.
         21   -1    0    0  501  502 -0.00000000000E+00 -0.00000000000E+00 -0.56981876552E+03  0.56981876552E+03  0.00000000000E+00 0. -1.
         25    1    1    2    0    0  0.31743669676E+02  0.48190306060E+02 -0.10546504989E+03  0.17342964830E+03  0.12500000000E+03 0.  0.
         25    1    1    2    0    0  0.30650430831E+02  0.38806276416E+02 -0.26114131725E+02  0.13693912471E+03  0.12500000000E+03 0.  0.
         25    1    1    2    0    0 -0.62394100507E+02 -0.86996582476E+02 -0.32943326907E+03  0.36825630736E+03  0.12500000000E+03 0.  0.
</event>
<event>
 5    0  0.5547141E-005  0.2551743E+03  0.7546771E-02  0.1110078E+00
         21   -1    0    0  502  501  0.00000000000E+00  0.00000000000E+00  0.69843096597E+02  0.69843096597E+02  0.00000000000E+00 0.  1.
         21   -1    0    0  501  502 -0.00000000000E+00 -0.00000000000E+00 -0.93228856637E+03  0.93228856637E+03  0.00000000000E+00 0.  1.
         25    1    1    2    0    0 -0.33189475566E+02  0.24513024402E+02 -0.15376327645E+03  0.20241189402E+03  0.12500000000E+03 0.  0.
         25    1    1    2    0    0  0.10172436058E+03  0.84254998160E+02 -0.44620790880E+03  0.48184359301E+03  0.12500000000E+03 0.  0.
         25    1    1    2    0    0 -0.68534885010E+02 -0.10876802256E+03 -0.26247428452E+03  0.31787617594E+03  0.12500000000E+03 0.  0.
</event>
<event>
 5    0  0.5547141E-005  0.2569250E+03  0.7546771E-02  0.1109005E+00
         21   -1    0    0  502  501  0.00000000000E+00  0.00000000000E+00  0.48791585516E+03  0.48791585516E+03  0.00000000000E+00 0. -1.
         21   -1    0    0  501  502 -0.00000000000E+00 -0.00000000000E+00 -0.13529064639E+03  0.13529064639E+03  0.00000000000E+00 0. -1.
         25    1    1    2    0    0 -0.11226232061E+03  0.26613248490E+02  0.25932032929E+03  0.31013404651E+03  0.12500000000E+03 0.  0.
         25    1    1    2    0    0  0.11344715196E+02 -0.40686995645E+02  0.72265892300E+02  0.15043767270E+03  0.12500000000E+03 0.  0.
         25    1    1    2    0    0  0.10091760542E+03  0.14073747155E+02  0.21038987178E+02  0.16263478233E+03  0.12500000000E+03 0.  0.
</event>
<event>
 5    0  0.5547141E-005  0.3956723E+03  0.7546771E-02  0.1045289E+00
         21   -1    0    0  502  501  0.00000000000E+00  0.00000000000E+00  0.42589988848E+03  0.42589988848E+03  0.00000000000E+00 0. -1.
         21   -1    0    0  501  502 -0.00000000000E+00 -0.00000000000E+00 -0.36759008588E+03  0.36759008588E+03  0.00000000000E+00 0. -1.
         25    1    1    2    0    0  0.15844746035E+02  0.11058112431E+03 -0.17696922286E+03  0.24376699299E+03  0.12500000000E+03 0.  0.
         25    1    1    2    0    0 -0.24097499608E+02 -0.26432647126E+03  0.10126553616E+03  0.31036894450E+03  0.12500000000E+03 0.  0.
         25    1    1    2    0    0  0.82527535728E+01  0.15374534695E+03  0.13401348930E+03  0.23935403686E+03  0.12500000000E+03 0.  0.
</event>
<event>
 5    0  0.5547141E-005  0.2335967E+03  0.7546771E-02  0.1124134E+00
         21   -1    0    0  502  501  0.00000000000E+00  0.00000000000E+00  0.16264676314E+04  0.16264676314E+04  0.00000000000E+00 0. -1.
         21   -1    0    0  501  502 -0.00000000000E+00 -0.00000000000E+00 -0.33549653008E+02  0.33549653008E+02  0.00000000000E+00 0. -1.
         25    1    1    2    0    0 -0.84557115612E+02 -0.54012471093E+02  0.80075504930E+03  0.81664000748E+03  0.12500000000E+03 0.  0.
         25    1    1    2    0    0  0.25112959381E+02 -0.18819408752E+02  0.42963189617E+03  0.44854586954E+03  0.12500000000E+03 0.  0.
         25    1    1    2    0    0  0.59444156231E+02  0.72831879845E+02  0.36253103294E+03  0.39483140741E+03  0.12500000000E+03 0.  0.
</event>
<event>
 5    0  0.5547141E-005  0.2951865E+03  0.7546771E-02  0.1087672E+00
         21   -1    0    0  502  501  0.00000000000E+00  0.00000000000E+00  0.94952824044E+02  0.94952824044E+02  0.00000000000E+00 0. -1.
         21   -1    0    0  501  502 -0.00000000000E+00 -0.00000000000E+00 -0.91766707436E+03  0.91766707436E+03  0.00000000000E+00 0. -1.
         25    1    1    2    0    0 -0.80136707296E+02  0.16285308625E+03 -0.21646144018E+03  0.30890706473E+03  0.12500000000E+03 0.  0.
         25    1    1    2    0    0  0.61122143183E+02 -0.10201215521E+03 -0.49634690308E+03  0.52547849090E+03  0.12500000000E+03 0.  0.
         25    1    1    2    0    0  0.19014564113E+02 -0.60840931042E+02 -0.10990590705E+03  0.17823434277E+03  0.12500000000E+03 0.  0.
</event>
<event>
 5    0  0.5547141E-005  0.2728052E+03  0.7546771E-02  0.1099685E+00
         21   -1    0    0  502  501  0.00000000000E+00  0.00000000000E+00  0.12677341030E+03  0.12677341030E+03  0.00000000000E+00 0.  1.
         21   -1    0    0  501  502 -0.00000000000E+00 -0.00000000000E+00 -0.58705255348E+03  0.58705255348E+03  0.00000000000E+00 0.  1.
         25    1    1    2    0    0 -0.50227607186E+02 -0.97250947419E+02 -0.19812198772E+03  0.25856891019E+03  0.12500000000E+03 0.  0.
         25    1    1    2    0    0  0.36067194619E+02 -0.80031536671E+02 -0.84810330175E+02  0.17471027873E+03  0.12500000000E+03 0.  0.
         25    1    1    2    0    0  0.14160412567E+02  0.17728248409E+03 -0.17734682528E+03  0.28054677486E+03  0.12500000000E+03 0.  0.
</event>
<event>
 5    0  0.5547141E-005  0.2786983E+03  0.7546771E-02  0.1096402E+00
         21   -1    0    0  502  501  0.00000000000E+00  0.00000000000E+00  0.38956083965E+02  0.38956083965E+02  0.00000000000E+00 0. -1.
         21   -1    0    0  501  502 -0.00000000000E+00 -0.00000000000E+00 -0.19938536457E+04  0.19938536457E+04  0.00000000000E+00 0. -1.
         25    1    1    2    0    0 -0.89868472739E+02 -0.73910022501E+01 -0.74926203628E+03  0.76495069665E+03  0.12500000000E+03 0.  0.
         25    1    1    2    0    0 -0.48593787300E+02  0.34160123259E+02 -0.88649248923E+03  0.89723029577E+03  0.12500000000E+03 0.  0.
         25    1    1    2    0    0  0.13846226004E+03 -0.26769121009E+02 -0.31914303621E+03  0.37062873722E+03  0.12500000000E+03 0.  0.
</event>
<event>
 5    0  0.5547141E-005  0.2844084E+03  0.7546771E-02  0.1093305E+00
         21   -1    0    0  502  501  0.00000000000E+00  0.00000000000E+00  0.64232894255E+02  0.64232894255E+02  0.00000000000E+00 0. -1.
         21   -1    0    0  501  502 -0.00000000000E+00 -0.00000000000E+00 -0.12592943223E+04  0.12592943223E+04  0.00000000000E+00 0. -1.
         25    1    1    2    0    0 -0.45840021066E+02  0.10955190008E+03 -0.57458673240E+03  0.59989819085E+03  0.12500000000E+03 0.  0.
         25    1    1    2    0    0 -0.97336827609E+02 -0.30046855571E+02 -0.21430405881E+03  0.26819489399E+03  0.12500000000E+03 0.  0.
         25    1    1    2    0    0  0.14317684868E+03 -0.79505044508E+02 -0.40617063682E+03  0.45543413170E+03  0.12500000000E+03 0.  0.
</event>
<event>
 5    0  0.5547141E-005  0.3771645E+03  0.7546771E-02  0.1051987E+00
         21   -1    0    0  502  501  0.00000000000E+00  0.00000000000E+00  0.70831211115E+03  0.70831211115E+03  0.00000000000E+00 0. -1.
         21   -1    0    0  501  502 -0.00000000000E+00 -0.00000000000E+00 -0.20083384168E+03  0.20083384168E+03  0.00000000000E+00 0. -1.
         25    1    1    2    0    0  0.15995568637E+02 -0.29425309724E+03  0.13110213270E+03  0.34590968858E+03  0.12500000000E+03 0.  0.
         25    1    1    2    0    0 -0.70991986387E+02  0.11439354282E+03  0.22894746754E+03  0.29354333183E+03  0.12500000000E+03 0.  0.
         25    1    1    2    0    0  0.54996417751E+02  0.17985955442E+03  0.14742866923E+03  0.26969293241E+03  0.12500000000E+03 0.  0.
</event>
<event>
 5    0  0.5547141E-005  0.2442981E+03  0.7546771E-02  0.1116962E+00
         21   -1    0    0  502  501  0.00000000000E+00  0.00000000000E+00  0.39740006720E+02  0.39740006720E+02  0.00000000000E+00 0.  1.
         21   -1    0    0  501  502 -0.00000000000E+00 -0.00000000000E+00 -0.15018009014E+04  0.15018009014E+04  0.00000000000E+00 0.  1.
         25    1    1    2    0    0  0.45762607424E+02 -0.84649434725E+02 -0.26713125262E+03  0.31023192802E+03  0.12500000000E+03 0.  0.
         25    1    1    2    0    0  0.31007711994E+02  0.75657707133E+02 -0.64626052193E+03  0.66329724035E+03  0.12500000000E+03 0.  0.
         25    1    1    2    0    0 -0.76770319418E+02  0.89917275918E+01 -0.54866912017E+03  0.56801173979E+03  0.12500000000E+03 0.  0.
</event>
<event>
 5    0  0.5547141E-005  0.2546673E+03  0.7546771E-02  0.1110390E+00
         21   -1    0    0  502  501  0.00000000000E+00  0.00000000000E+00  0.14010681113E+04  0.14010681113E+04  0.00000000000E+00 0. -1.
         21   -1    0    0  501  502 -0.00000000000E+00 -0.00000000000E+00 -0.46290000572E+02  0.46290000572E+02  0.00000000000E+00 0. -1.
         25    1    1    2    0    0 -0.41229106947E+01 -0.39387833067E+01  0.18081188701E+03  0.21988735955E+03  0.12500000000E+03 0.  0.
         25    1    1    2    0    0  0.12532113987E+02  0.84014789671E+02  0.92669945820E+03  0.93894218384E+03  0.12500000000E+03 0.  0.
         25    1    1    2    0    0 -0.84092032926E+01 -0.80076006365E+02  0.24726676547E+03  0.28852856843E+03  0.12500000000E+03 0.  0.
</event>
<event>
 5    0  0.5547141E-005  0.2575932E+03  0.7546771E-02  0.1108598E+00
         21   -1    0    0  502  501  0.00000000000E+00  0.00000000000E+00  0.11240640927E+03  0.11240640927E+03  0.00000000000E+00 0. -1.
         21   -1    0    0  501  502 -0.00000000000E+00 -0.00000000000E+00 -0.59030683327E+03  0.59030683327E+03  0.00000000000E+00 0. -1.
         25    1    1    2    0    0 -0.11538209736E+03  0.30645315697E+02 -0.78482757705E+02  0.18983336646E+03  0.12500000000E+03 0.  0.
         25    1    1    2    0    0  0.12296827440E+03 -0.38414623915E+02 -0.15098281209E+03  0.23455849886E+03  0.12500000000E+03 0.  0.
         25    1    1    2    0    0 -0.75861770367E+01  0.77693082187E+01 -0.24843485420E+03  0.27832137722E+03  0.12500000000E+03 0.  0.
</event>
<event>
 5    0  0.5547141E-005  0.2626414E+03  0.7546771E-02  0.1105567E+00
         21   -1    0    0  502  501  0.00000000000E+00  0.00000000000E+00  0.20579837694E+03  0.20579837694E+03  0.00000000000E+00 0. -1.
         21   -1    0    0  501  502 -0.00000000000E+00 -0.00000000000E+00 -0.33518478607E+03  0.33518478607E+03  0.00000000000E+00 0. -1.
         25    1    1    2    0    0  0.31746523007E+02  0.10522767965E+03 -0.55074885507E+02  0.17532526715E+03  0.12500000000E+03 0.  0.
         25    1    1    2    0    0  0.98861717434E+02 -0.58709209469E+02 -0.52188178052E+02  0.17767671873E+03  0.12500000000E+03 0.  0.
         25    1    1    2    0    0 -0.13060824044E+03 -0.46518470179E+02 -0.22123345570E+02  0.18798117714E+03  0.12500000000E+03 0.  0.
</event>
<event>
 5    0  0.5547141E-005  0.3615430E+03  0.7546771E-02  0.1057975E+00
         21   -1    0    0  502  501  0.00000000000E+00  0.00000000000E+00  0.37014787870E+03  0.37014787870E+03  0.00000000000E+00 0.  1.
         21   -1    0    0  501  502 -0.00000000000E+00 -0.00000000000E+00 -0.35313822694E+03  0.35313822694E+03  0.00000000000E+00 0.  1.
         25    1    1    2    0    0  0.56335194705E+02 -0.71902397064E+02  0.11629563184E+02  0.15525416454E+03  0.12500000000E+03 0.  0.
         25    1    1    2    0    0 -0.17202670023E+03  0.11132424811E+03 -0.18980342733E+03  0.30600100463E+03  0.12500000000E+03 0.  0.
         25    1    1    2    0    0  0.11569150553E+03 -0.39421851044E+02  0.19518351590E+03  0.26203093648E+03  0.12500000000E+03 0.  0.
</event>
<event>
 5    0  0.5547141E-005  0.4534601E+03  0.7546771E-02  0.1026695E+00
         21   -1    0    0  502  501  0.00000000000E+00  0.00000000000E+00  0.10505550039E+04  0.10505550039E+04  0.00000000000E+00 0. -1.
         21   -1    0    0  501  502 -0.00000000000E+00 -0.00000000000E+00 -0.19573091489E+03  0.19573091489E+03  0.00000000000E+00 0. -1.
         25    1    1    2    0    0 -0.81721227387E+02  0.76041002340E+02  0.50982070447E+03  0.53665887093E+03  0.12500000000E+03 0.  0.
         25    1    1    2    0    0  0.18899638836E+03 -0.24833127493E+03  0.65867634449E+02  0.34256620118E+03  0.12500000000E+03 0.  0.
         25    1    1    2    0    0 -0.10727516098E+03  0.17229027259E+03  0.27913575013E+03  0.36706084671E+03  0.12500000000E+03 0.  0.
</event>
<event>
 5    0  0.5547141E-005  0.2148498E+03  0.7546771E-02  0.1137782E+00
         21   -1    0    0  502  501  0.00000000000E+00  0.00000000000E+00  0.10375486059E+03  0.10375486059E+03  0.00000000000E+00 0. -1.
         21   -1    0    0  501  502 -0.00000000000E+00 -0.00000000000E+00 -0.44489904002E+03  0.44489904002E+03  0.00000000000E+00 0. -1.
         25    1    1    2    0    0  0.34047239810E+02  0.19509418014E+02 -0.36406097310E+02  0.13597880663E+03  0.12500000000E+03 0.  0.
         25    1    1    2    0    0 -0.39616180246E+02 -0.18628241678E+02 -0.23414541331E+03  0.26900841566E+03  0.12500000000E+03 0.  0.
         25    1    1    2    0    0  0.55689404356E+01 -0.88117633582E+00 -0.70592668812E+02  0.14366667832E+03  0.12500000000E+03 0.  0.
</event>
<event>
 5    0  0.5547141E-005  0.3471795E+03  0.7546771E-02  0.1063779E+00
         21   -1    0    0  502  501  0.00000000000E+00  0.00000000000E+00  0.27961285583E+03  0.27961285583E+03  0.00000000000E+00 0.  1.
         21   -1    0    0  501  502 -0.00000000000E+00 -0.00000000000E+00 -0.43107309719E+03  0.43107309719E+03  0.00000000000E+00 0.  1.
         25    1    1    2    0    0 -0.17998889582E+02 -0.33746446373E+02  0.11793626848E+03  0.17605892790E+03  0.12500000000E+03 0.  0.
         25    1    1    2    0    0 -0.65602559818E+02 -0.16175428333E+03 -0.11359647169E+03  0.24289360307E+03  0.12500000000E+03 0.  0.
         25    1    1    2    0    0  0.83601449400E+02  0.19550072970E+03 -0.15580003815E+03  0.29173342205E+03  0.12500000000E+03 0.  0.
</event>
<event>
 5    0  0.5547141E-005  0.2987472E+03  0.7546771E-02  0.1085869E+00
         21   -1    0    0  502  501  0.00000000000E+00  0.00000000000E+00  0.24983877193E+04  0.24983877193E+04  0.00000000000E+00 0. -1.
         21   -1    0    0  501  502 -0.00000000000E+00 -0.00000000000E+00 -0.35723005575E+02  0.35723005575E+02  0.00000000000E+00 0. -1.
         25    1    1    2    0    0  0.16718682135E+02  0.39143982782E+02  0.41845267498E+03  0.43879312542E+03  0.12500000000E+03 0.  0.
         25    1    1    2    0    0  0.69471395311E+02  0.52668778243E+02  0.17113018669E+04  0.17180743159E+04  0.12500000000E+03 0.  0.
         25    1    1    2    0    0 -0.86190077446E+02 -0.91812761025E+02  0.33291017181E+03  0.37724328362E+03  0.12500000000E+03 0.  0.
</event>
<event>
 5    0  0.5547141E-005  0.3484387E+03  0.7546771E-02  0.1063258E+00
         21   -1    0    0  502  501  0.00000000000E+00  0.00000000000E+00  0.48778045331E+03  0.48778045331E+03  0.00000000000E+00 0.  1.
         21   -1    0    0  501  502 -0.00000000000E+00 -0.00000000000E+00 -0.24890202284E+03  0.24890202284E+03  0.00000000000E+00 0.  1.
         25    1    1    2    0    0 -0.10648013576E+03  0.26286996413E+02  0.15394837547E+03  0.22661449160E+03  0.12500000000E+03 0.  0.
         25    1    1    2    0    0  0.24355630976E+03  0.83450316702E+02  0.65931868911E+02  0.29369310976E+03  0.12500000000E+03 0.  0.
         25    1    1    2    0    0 -0.13707617400E+03 -0.10973731311E+03  0.18998186092E+02  0.21637487480E+03  0.12500000000E+03 0.  0.
</event>
<event>
 5    0  0.5547141E-005  0.3812467E+03  0.7546771E-02  0.1050474E+00
         21   -1    0    0  502  501  0.00000000000E+00  0.00000000000E+00  0.10559423683E+03  0.10559423683E+03  0.00000000000E+00 0.  1.
         21   -1    0    0  501  502 -0.00000000000E+00 -0.00000000000E+00 -0.13764866320E+04  0.13764866320E+04  0.00000000000E+00 0.  1.
         25    1    1    2    0    0  0.10163173656E+03 -0.16267451552E+03 -0.26902718576E+03  0.35326000984E+03  0.12500000000E+03 0.  0.
         25    1    1    2    0    0 -0.59643355347E+01  0.29100273562E+03 -0.59367177550E+03  0.67289623454E+03  0.12500000000E+03 0.  0.
         25    1    1    2    0    0 -0.95667401021E+02 -0.12832822009E+03 -0.40819343388E+03  0.45592462442E+03  0.12500000000E+03 0.  0.
</event>
<event>
 5    0  0.5547141E-005  0.2598736E+03  0.7546771E-02  0.1107219E+00
         21   -1    0    0  502  501  0.00000000000E+00  0.00000000000E+00  0.78459393210E+02  0.78459393210E+02  0.00000000000E+00 0. -1.
         21   -1    0    0  501  502 -0.00000000000E+00 -0.00000000000E+00 -0.86075453201E+03  0.86075453201E+03  0.00000000000E+00 0. -1.
         25    1    1    2    0    0 -0.83544120748E+02  0.79539637971E+02 -0.13299272042E+03  0.21591256982E+03  0.12500000000E+03 0.  0.
         25    1    1    2    0    0  0.92900608040E+02 -0.50316452846E+02 -0.21426751165E+03  0.26962536036E+03  0.12500000000E+03 0.  0.
         25    1    1    2    0    0 -0.93564872917E+01 -0.29223185125E+02 -0.43503490673E+03  0.45367599504E+03  0.12500000000E+03 0.  0.
</event>
<event>
 5    0  0.5547141E-005  0.4519305E+03  0.7546771E-02  0.1027148E+00
         21   -1    0    0  502  501  0.00000000000E+00  0.00000000000E+00  0.24463558537E+03  0.24463558537E+03  0.00000000000E+00 0.  1.
         21   -1    0    0  501  502 -0.00000000000E+00 -0.00000000000E+00 -0.83487943665E+03  0.83487943665E+03  0.00000000000E+00 0.  1.
         25    1    1    2    0    0  0.14898841686E+03  0.10239026934E+03 -0.19473570516E+03  0.29364657409E+03  0.12500000000E+03 0.  0.
         25    1    1    2    0    0 -0.27403005196E+03  0.16188774858E+03 -0.29720557445E+03  0.45305216698E+03  0.12500000000E+03 0.  0.
         25    1    1    2    0    0  0.12504163510E+03 -0.26427801792E+03 -0.98302571669E+02  0.33281628094E+03  0.12500000000E+03 0.  0.
</event>
<event>
 5    0  0.6114847E-005  0.3530010E+03  0.7546771E-02  0.1061390E+00
         21   -1    0    0  502  501  0.00000000000E+00  0.00000000000E+00  0.34010318977E+03  0.34010318977E+03  0.00000000000E+00 0. -1.
         21   -1    0    0  501  502 -0.00000000000E+00 -0.00000000000E+00 -0.36638794737E+03  0.36638794737E+03  0.00000000000E+00 0. -1.
         25    1    1    2    0    0  0.16002876803E+03  0.12901551217E+03 -0.11148960633E+03  0.26515870964E+03  0.12500000000E+03 0.  0.
         25    1    1    2    0    0 -0.47410596712E+02 -0.12255466779E+03  0.17369460234E+03  0.25112193485E+03  0.12500000000E+03 0.  0.
         25    1    1    2    0    0 -0.11261817132E+03 -0.64608443752E+01 -0.88489753614E+02  0.19021049266E+03  0.12500000000E+03 0.  0.
</event>
<event>
 5    0  0.5547141E-005  0.2977400E+03  0.7546771E-02  0.1086376E+00
         21   -1    0    0  502  501  0.00000000000E+00  0.00000000000E+00  0.66793037867E+03  0.66793037867E+03  0.00000000000E+00 0. -1.
         21   -1    0    0  501  502 -0.00000000000E+00 -0.00000000000E+00 -0.13272209496E+03  0.13272209496E+03  0.00000000000E+00 0. -1.
         25    1    1    2    0    0  0.15670518901E+02  0.60693452998E+00  0.10613442983E+03  0.16472841506E+03  0.12500000000E+03 0.  0.
         25    1    1    2    0    0  0.89390038910E+02  0.13125069609E+03  0.59088945406E+02  0.21055599671E+03  0.12500000000E+03 0.  0.
         25    1    1    2    0    0 -0.10506055781E+03 -0.13185763062E+03  0.36998490847E+03  0.42536806187E+03  0.12500000000E+03 0.  0.
</event>
<event>
 5    0  0.5547141E-005  0.3186894E+03  0.7546771E-02  0.1076254E+00
         21   -1    0    0  502  501  0.00000000000E+00  0.00000000000E+00  0.10636945861E+04  0.10636945861E+04  0.00000000000E+00 0. -1.
         21   -1    0    0  501  502 -0.00000000000E+00 -0.00000000000E+00 -0.95481286504E+02  0.95481286504E+02  0.00000000000E+00 0. -1.
         25    1    1    2    0    0  0.10391311086E+03 -0.29606539441E+02  0.42477494012E+02  0.17059841525E+03  0.12500000000E+03 0.  0.
         25    1    1    2    0    0 -0.15488086503E+03 -0.13386689285E+02  0.45084301779E+03  0.49300275100E+03  0.12500000000E+03 0.  0.
         25    1    1    2    0    0  0.50967754169E+02  0.42993228726E+02  0.47489278776E+03  0.49557470633E+03  0.12500000000E+03 0.  0.
</event>
<event>
 5    0  0.5547141E-005  0.2188378E+03  0.7546771E-02  0.1134752E+00
         21   -1    0    0  502  501  0.00000000000E+00  0.00000000000E+00  0.67866378249E+03  0.67866378249E+03  0.00000000000E+00 0.  1.
         21   -1    0    0  501  502 -0.00000000000E+00 -0.00000000000E+00 -0.70565118360E+02  0.70565118360E+02  0.00000000000E+00 0.  1.
         25    1    1    2    0    0 -0.56008141593E+02  0.33439385237E+02  0.24774584062E+03  0.28505807471E+03  0.12500000000E+03 0.  0.
         25    1    1    2    0    0 -0.16010690554E+02 -0.91952946810E+01  0.25274360855E+03  0.28256897798E+03  0.12500000000E+03 0.  0.
         25    1    1    2    0    0  0.72018832147E+02 -0.24244090556E+02  0.10760921496E+03  0.18160184816E+03  0.12500000000E+03 0.  0.
</event>
<event>
 5    0  0.5547141E-005  0.2668139E+03  0.7546771E-02  0.1103117E+00
         21   -1    0    0  502  501  0.00000000000E+00  0.00000000000E+00  0.57896991275E+03  0.57896991275E+03  0.00000000000E+00 0.  1.
         21   -1    0    0  501  502 -0.00000000000E+00 -0.00000000000E+00 -0.12295914046E+03  0.12295914046E+03  0.00000000000E+00 0.  1.
         25    1    1    2    0    0  0.86407770026E+02  0.11215838015E+03  0.14213834594E+03  0.23637705969E+03  0.12500000000E+03 0.  0.
         25    1    1    2    0    0 -0.13855325567E+03 -0.72970174116E+02  0.15638956575E+03  0.25417385240E+03  0.12500000000E+03 0.  0.
         25    1    1    2    0    0  0.52145485644E+02 -0.39188206039E+02  0.15748286059E+03  0.21137814113E+03  0.12500000000E+03 0.  0.
</event>
<event>
 5    0  0.5547141E-005  0.2206005E+03  0.7546771E-02  0.1133436E+00
         21   -1    0    0  502  501  0.00000000000E+00  0.00000000000E+00  0.11746496918E+04  0.11746496918E+04  0.00000000000E+00 0. -1.
         21   -1    0    0  501  502 -0.00000000000E+00 -0.00000000000E+00 -0.41429019092E+02  0.41429019092E+02  0.00000000000E+00 0. -1.
         25    1    1    2    0    0 -0.51042615442E+02 -0.86063890900E+02  0.36653037560E+03  0.39997732204E+03  0.12500000000E+03 0.  0.
         25    1    1    2    0    0 -0.11854134339E+02  0.36545484196E+02  0.33609246059E+03  0.36063726233E+03  0.12500000000E+03 0.  0.
         25    1    1    2    0    0  0.62896749781E+02  0.49518406704E+02  0.43059783653E+03  0.45546412653E+03  0.12500000000E+03 0.  0.
</event>
<event>
 5    0  0.5547141E-005  0.2360902E+03  0.7546771E-02  0.1122425E+00
         21   -1    0    0  502  501  0.00000000000E+00  0.00000000000E+00  0.14106045689E+03  0.14106045689E+03  0.00000000000E+00 0. -1.
         21   -1    0    0  501  502 -0.00000000000E+00 -0.00000000000E+00 -0.39513961274E+03  0.39513961274E+03  0.00000000000E+00 0. -1.
         25    1    1    2    0    0 -0.24862620204E+02  0.93549802360E+02 -0.10624683965E+02  0.15845377659E+03  0.12500000000E+03 0.  0.
         25    1    1    2    0    0  0.51510942858E+00 -0.84828486031E+02 -0.18063463507E+03  0.23547825540E+03  0.12500000000E+03 0.  0.
         25    1    1    2    0    0  0.24347510775E+02 -0.87213163293E+01 -0.62819836812E+02  0.14226803765E+03  0.12500000000E+03 0.  0.
</event>
<event>
 5    0  0.5547141E-005  0.3442710E+03  0.7546771E-02  0.1064991E+00
         21   -1    0    0  502  501  0.00000000000E+00  0.00000000000E+00  0.32059355181E+03  0.32059355181E+03  0.00000000000E+00 0. -1.
         21   -1    0    0  501  502 -0.00000000000E+00 -0.00000000000E+00 -0.36969722338E+03  0.36969722338E+03  0.00000000000E+00 0. -1.
         25    1    1    2    0    0  0.14923548012E+02  0.22524036049E+03  0.13165126904E+02  0.25836844398E+03  0.12500000000E+03 0.  0.
         25    1    1    2    0    0  0.83559091955E+02 -0.43163005629E+02  0.51485812570E+02  0.16468441274E+03  0.12500000000E+03 0.  0.
         25    1    1    2    0    0 -0.98482639967E+02 -0.18207735486E+03 -0.11375461104E+03  0.26723791846E+03  0.12500000000E+03 0.  0.
</event>
<event>
 5    0  0.5547141E-005  0.4326648E+03  0.7546771E-02  0.1033021E+00
         21   -1    0    0  502  501  0.00000000000E+00  0.00000000000E+00  0.32750297871E+03  0.32750297871E+03  0.00000000000E+00 0.  1.
         21   -1    0    0  501  502 -0.00000000000E+00 -0.00000000000E+00 -0.57159417719E+03  0.57159417719E+03  0.00000000000E+00 0.  1.
         25    1    1    2    0    0 -0.12756689773E+03  0.15216989670E+03 -0.30892638355E+03  0.38792976337E+03  0.12500000000E+03 0.  0.
         25    1    1    2    0    0  0.13559504888E+03 -0.13855895636E+03  0.21487151464E+03  0.31524493568E+03  0.12500000000E+03 0.  0.
         25    1    1    2    0    0 -0.80281511523E+01 -0.13610940338E+02 -0.15003632957E+03  0.19592245685E+03  0.12500000000E+03 0.  0.
</event>
<event>
 5    0  0.5720251E-005  0.2672526E+03  0.7546771E-02  0.1102862E+00
         21   -1    0    0  502  501  0.00000000000E+00  0.00000000000E+00  0.24683560757E+03  0.24683560757E+03  0.00000000000E+00 0.  1.
         21   -1    0    0  501  502 -0.00000000000E+00 -0.00000000000E+00 -0.28935838785E+03  0.28935838785E+03  0.00000000000E+00 0.  1.
         25    1    1    2    0    0 -0.10608408097E+02 -0.68263020592E+02  0.14085914447E+03  0.20059580475E+03  0.12500000000E+03 0.  0.
         25    1    1    2    0    0  0.59365197120E+02  0.35111389130E+02 -0.97457663846E+02  0.17285841755E+03  0.12500000000E+03 0.  0.
         25    1    1    2    0    0 -0.48756789023E+02  0.33151631462E+02 -0.85924260896E+02  0.16273977312E+03  0.12500000000E+03 0.  0.
</event>
<event>
 5    0  0.5547141E-005  0.2769479E+03  0.7546771E-02  0.1097368E+00
         21   -1    0    0  502  501  0.00000000000E+00  0.00000000000E+00  0.15225586383E+03  0.15225586383E+03  0.00000000000E+00 0.  1.
         21   -1    0    0  501  502 -0.00000000000E+00 -0.00000000000E+00 -0.50375833491E+03  0.50375833491E+03  0.00000000000E+00 0.  1.
         25    1    1    2    0    0 -0.17574089960E+02  0.36405641542E+02  0.70679242895E+02  0.14918034304E+03  0.12500000000E+03 0.  0.
         25    1    1    2    0    0 -0.51102432586E+02 -0.15825631045E+02 -0.21792483946E+03  0.25686211255E+03  0.12500000000E+03 0.  0.
         25    1    1    2    0    0  0.68676522546E+02 -0.20580010497E+02 -0.20425687452E+03  0.24997174314E+03  0.12500000000E+03 0.  0.
</event>
<event>
 5    0  0.5547141E-005  0.2777720E+03  0.7546771E-02  0.1096912E+00
         21   -1    0    0  502  501  0.00000000000E+00  0.00000000000E+00  0.76989302082E+03  0.76989302082E+03  0.00000000000E+00 0. -1.
         21   -1    0    0  501  502 -0.00000000000E+00 -0.00000000000E+00 -0.10021822019E+03  0.10021822019E+03  0.00000000000E+00 0. -1.
         25    1    1    2    0    0  0.39458815931E+02  0.63768958303E+02  0.23366336291E+02  0.14762948171E+03  0.12500000000E+03 0.  0.
         25    1    1    2    0    0  0.25326485344E+02  0.81312712118E+00  0.47366559939E+03  0.49053663684E+03  0.12500000000E+03 0.  0.
         25    1    1    2    0    0 -0.64785301275E+02 -0.64582085424E+02  0.17264286494E+03  0.23194512246E+03  0.12500000000E+03 0.  0.
</event>
<event>
 5    0  0.5547141E-005  0.3175939E+03  0.7546771E-02  0.1076762E+00
         21   -1    0    0  502  501  0.00000000000E+00  0.00000000000E+00  0.21786358670E+04  0.21786358670E+04  0.00000000000E+00 0.  1.
         21   -1    0    0  501  502 -0.00000000000E+00 -0.00000000000E+00 -0.46297725960E+02  0.46297725960E+02  0.00000000000E+00 0.  1.
         25    1    1    2    0    0 -0.23099749208E+02 -0.59403099552E+02  0.18373964983E+03  0.23118733868E+03  0.12500000000E+03 0.  0.
         25    1    1    2    0    0  0.88562680785E+02 -0.79916007201E+02  0.44907447957E+03  0.48116816690E+03  0.12500000000E+03 0.  0.
         25    1    1    2    0    0 -0.65462931576E+02  0.13931910675E+03  0.14995240116E+04  0.15125780873E+04  0.12500000000E+03 0.  0.
</event>
<event>
 5    0  0.5547141E-005  0.2556720E+03  0.7546771E-02  0.1109772E+00
         21   -1    0    0  502  501  0.00000000000E+00  0.00000000000E+00  0.56083722437E+02  0.56083722437E+02  0.00000000000E+00 0.  1.
         21   -1    0    0  501  502 -0.00000000000E+00 -0.00000000000E+00 -0.11655463116E+04  0.11655463116E+04  0.00000000000E+00 0.  1.
         25    1    1    2    0    0  0.73992831039E+02 -0.40480560161E+01 -0.30848280715E+03  0.34099555438E+03  0.12500000000E+03 0.  0.
         25    1    1    2    0    0 -0.14236158654E+03  0.59200667042E+02 -0.57117110331E+03  0.60467592110E+03  0.12500000000E+03 0.  0.
         25    1    1    2    0    0  0.68368755505E+02 -0.55152611026E+02 -0.22980867871E+03  0.27595855856E+03  0.12500000000E+03 0.  0.
</event>
<event>
 5    0  0.5547141E-005  0.4306111E+03  0.7546771E-02  0.1033667E+00
         21   -1    0    0  502  501  0.00000000000E+00  0.00000000000E+00  0.25861228727E+03  0.25861228727E+03  0.00000000000E+00 0. -1.
         21   -1    0    0  501  502 -0.00000000000E+00 -0.00000000000E+00 -0.71700345931E+03  0.71700345931E+03  0.00000000000E+00 0. -1.
         25    1    1    2    0    0 -0.12010077183E+03  0.92743780042E+02 -0.23216355657E+03  0.30422117140E+03  0.12500000000E+03 0.  0.
         25    1    1    2    0    0 -0.13942927042E+02  0.18209886414E+03  0.65362517374E+02  0.23076321243E+03  0.12500000000E+03 0.  0.
         25    1    1    2    0    0  0.13404369887E+03 -0.27484264418E+03 -0.29159013285E+03  0.44063136275E+03  0.12500000000E+03 0.  0.
</event>
<event>
 5    0  0.5547141E-005  0.2744726E+03  0.7546771E-02  0.1098747E+00
         21   -1    0    0  502  501  0.00000000000E+00  0.00000000000E+00  0.85909551046E+03  0.85909551046E+03  0.00000000000E+00 0.  1.
         21   -1    0    0  501  502 -0.00000000000E+00 -0.00000000000E+00 -0.87691331876E+02  0.87691331876E+02  0.00000000000E+00 0.  1.
         25    1    1    2    0    0 -0.75216799242E+02  0.10148964579E+03  0.16339638424E+03  0.24141477476E+03  0.12500000000E+03 0.  0.
         25    1    1    2    0    0 -0.33610259050E+02  0.15810473614E+02  0.12166338042E+03  0.17834404595E+03  0.12500000000E+03 0.  0.
         25    1    1    2    0    0  0.10882705829E+03 -0.11730011940E+03  0.48634441392E+03  0.52702802163E+03  0.12500000000E+03 0.  0.
</event>
<event>
 5    0  0.5547141E-005  0.2962468E+03  0.7546771E-02  0.1087132E+00
         21   -1    0    0  502  501  0.00000000000E+00  0.00000000000E+00  0.33887806569E+03  0.33887806569E+03  0.00000000000E+00 0. -1.
         21   -1    0    0  501  502 -0.00000000000E+00 -0.00000000000E+00 -0.25897863661E+03  0.25897863661E+03  0.00000000000E+00 0. -1.
         25    1    1    2    0    0  0.10866803117E+03 -0.32866352490E+02  0.16148063539E+03  0.23364488809E+03  0.12500000000E+03 0.  0.
         25    1    1    2    0    0 -0.92241066291E+02  0.92406661342E+02 -0.12315033754E+03  0.21871993738E+03  0.12500000000E+03 0.  0.
         25    1    1    2    0    0 -0.16426964883E+02 -0.59540308851E+02  0.41569131231E+02  0.14549187683E+03  0.12500000000E+03 0.  0.
</event>
<event>
 5    0  0.5547141E-005  0.4382714E+03  0.7546771E-02  0.1031279E+00
         21   -1    0    0  502  501  0.00000000000E+00  0.00000000000E+00  0.13491110247E+04  0.13491110247E+04  0.00000000000E+00 0.  1.
         21   -1    0    0  501  502 -0.00000000000E+00 -0.00000000000E+00 -0.14237656716E+03  0.14237656716E+03  0.00000000000E+00 0.  1.
         25    1    1    2    0    0 -0.57505929602E+02 -0.20749729454E+02  0.81191214149E+02  0.16110399271E+03  0.12500000000E+03 0.  0.
         25    1    1    2    0    0 -0.24721105333E+03 -0.17103293585E+03  0.46225598839E+03  0.56539470181E+03  0.12500000000E+03 0.  0.
         25    1    1    2    0    0  0.30471698294E+03  0.19178266530E+03  0.66328725503E+03  0.76498889736E+03  0.12500000000E+03 0.  0.
</event>
<event>
 5    0  0.5547141E-005  0.4451155E+03  0.7546771E-02  0.1029189E+00
         21   -1    0    0  502  501  0.00000000000E+00  0.00000000000E+00  0.60638886143E+03  0.60638886143E+03  0.00000000000E+00 0. -1.
         21   -1    0    0  501  502 -0.00000000000E+00 -0.00000000000E+00 -0.32673385974E+03  0.32673385974E+03  0.00000000000E+00 0. -1.
         25    1    1    2    0    0 -0.16096453401E+03 -0.54335310118E+02  0.17504603054E+03  0.27409491047E+03  0.12500000000E+03 0.  0.
         25    1    1    2    0    0 -0.12271282378E+03  0.23279304109E+03  0.70267148434E+02  0.29968902090E+03  0.12500000000E+03 0.  0.
         25    1    1    2    0    0  0.28367735779E+03 -0.17845773097E+03  0.34341822710E+02  0.35933878980E+03  0.12500000000E+03 0.  0.
</event>
<event>
 5    0  0.5547141E-005  0.2558315E+03  0.7546771E-02  0.1109674E+00
         21   -1    0    0  502  501  0.00000000000E+00  0.00000000000E+00  0.38783237916E+03  0.38783237916E+03  0.00000000000E+00 0. -1.
         21   -1    0    0  501  502 -0.00000000000E+00 -0.00000000000E+00 -0.16875787166E+03  0.16875787166E+03  0.00000000000E+00 0. -1.
         25    1    1    2    0    0  0.31995712439E+01 -0.90157700849E+02  0.62107775674E+01  0.15427968770E+03  0.12500000000E+03 0.  0.
         25    1    1    2    0    0  0.84770855589E+01 -0.50783899137E+02  0.15328535061E+03  0.20438264139E+03  0.12500000000E+03 0.  0.
         25    1    1    2    0    0 -0.11676656803E+02  0.14094159999E+03  0.59578379325E+02  0.19792792174E+03  0.12500000000E+03 0.  0.
</event>
<event>
 5    0  0.5547141E-005  0.3098999E+03  0.7546771E-02  0.1080394E+00
         21   -1    0    0  502  501  0.00000000000E+00  0.00000000000E+00  0.71578689419E+02  0.71578689419E+02  0.00000000000E+00 0. -1.
         21   -1    0    0  501  502 -0.00000000000E+00 -0.00000000000E+00 -0.13417115856E+04  0.13417115856E+04  0.00000000000E+00 0. -1.
         25    1    1    2    0    0  0.61866194221E+02  0.13605277395E+03 -0.48427630162E+03  0.52200222183E+03  0.12500000000E+03 0.  0.
         25    1    1    2    0    0  0.84800713440E+01  0.43850709773E+02 -0.53359472710E+03  0.54985737164E+03  0.12500000000E+03 0.  0.
         25    1    1    2    0    0 -0.70346265565E+02 -0.17990348372E+03 -0.25226186750E+03  0.34143068158E+03  0.12500000000E+03 0.  0.
</event>
<event>
 5    0  0.5547141E-005  0.3432702E+03  0.7546771E-02  0.1065412E+00
         21   -1    0    0  502  501  0.00000000000E+00  0.00000000000E+00  0.12411610020E+04  0.12411610020E+04  0.00000000000E+00 0. -1.
         21   -1    0    0  501  502 -0.00000000000E+00 -0.00000000000E+00 -0.94938885697E+02  0.94938885697E+02  0.00000000000E+00 0. -1.
         25    1    1    2    0    0 -0.49230481783E+02 -0.21151455231E+03  0.72539210369E+03  0.76745081294E+03  0.12500000000E+03 0.  0.
         25    1    1    2    0    0 -0.59853788872E+02  0.65530788599E+02  0.23144618915E+03  0.27761321793E+03  0.12500000000E+03 0.  0.
         25    1    1    2    0    0  0.10908427065E+03  0.14598376371E+03  0.18938382345E+03  0.29103585682E+03  0.12500000000E+03 0.  0.
</event>
<event>
 5    0  0.5547141E-005  0.2797929E+03  0.7546771E-02  0.1095802E+00
         21   -1    0    0  502  501  0.00000000000E+00  0.00000000000E+00  0.77227064587E+03  0.77227064587E+03  0.00000000000E+00 0. -1.
         21   -1    0    0  501  502 -0.00000000000E+00 -0.00000000000E+00 -0.10136866052E+03  0.10136866052E+03  0.00000000000E+00 0. -1.
         25    1    1    2    0    0  0.13191645106E+02 -0.81684340871E+02  0.30135540586E+03  0.33658049808E+03  0.12500000000E+03 0.  0.
         25    1    1    2    0    0 -0.25663259421E+02  0.15301406996E+03  0.82371997328E+02  0.21559697223E+03  0.12500000000E+03 0.  0.
         25    1    1    2    0    0  0.12471614315E+02 -0.71329729089E+02  0.28717458216E+03  0.32146183608E+03  0.12500000000E+03 0.  0.
</event>
<event>
 5    0  0.5547141E-005  0.3827608E+03  0.7546771E-02  0.1049918E+00
         21   -1    0    0  502  501  0.00000000000E+00  0.00000000000E+00  0.53068263754E+03  0.53068263754E+03  0.00000000000E+00 0.  1.
         21   -1    0    0  501  502 -0.00000000000E+00 -0.00000000000E+00 -0.27607048327E+03  0.27607048327E+03  0.00000000000E+00 0.  1.
         25    1    1    2    0    0  0.10446118550E+03 -0.21529414171E+03  0.18649225326E+03  0.32812812628E+03  0.12500000000E+03 0.  0.
         25    1    1    2    0    0 -0.20653513943E+03  0.19040048081E+03  0.69965429694E+02  0.31532406864E+03  0.12500000000E+03 0.  0.
         25    1    1    2    0    0  0.10207395393E+03  0.24893660898E+02 -0.18455286833E+01  0.16330092590E+03  0.12500000000E+03 0.  0.
</event>
<event>
 5    0  0.5547141E-005  0.2248482E+03  0.7546771E-02  0.1130319E+00
         21   -1    0    0  502  501  0.00000000000E+00  0.00000000000E+00  0.63575102332E+02  0.63575102332E+02  0.00000000000E+00 0. -1.
         21   -1    0    0  501  502 -0.00000000000E+00 -0.00000000000E+00 -0.79522786334E+03  0.79522786334E+03  0.00000000000E+00 0. -1.
         25    1    1    2    0    0 -0.42825214448E+02  0.27637757793E+02 -0.21447756440E+03  0.25342349986E+03  0.12500000000E+03 0.  0.
         25    1    1    2    0    0  0.44971879441E+02 -0.95186465438E+02 -0.20334823177E+03  0.26088011903E+03  0.12500000000E+03 0.  0.
         25    1    1    2    0    0 -0.21466649926E+01  0.67548707644E+02 -0.31382696483E+03  0.34449934678E+03  0.12500000000E+03 0.  0.
</event>
<event>
 5    0  0.5547141E-005  0.4564390E+03  0.7546771E-02  0.1025819E+00
         21   -1    0    0  502  501  0.00000000000E+00  0.00000000000E+00  0.21872504436E+03  0.21872504436E+03  0.00000000000E+00 0.  1.
         21   -1    0    0  501  502 -0.00000000000E+00 -0.00000000000E+00 -0.95250422250E+03  0.95250422250E+03  0.00000000000E+00 0.  1.
         25    1    1    2    0    0  0.36426976483E+03  0.85251314397E+02 -0.16284935297E+03  0.42673781171E+03  0.12500000000E+03 0.  0.
         25    1    1    2    0    0 -0.17974833748E+03  0.34229818436E+02 -0.31071074968E+03  0.38163767537E+03  0.12500000000E+03 0.  0.
         25    1    1    2    0    0 -0.18452142735E+03 -0.11948113283E+03 -0.26021907549E+03  0.36285377979E+03  0.12500000000E+03 0.  0.
</event>
<event>
 5    0  0.5547141E-005  0.4391972E+03  0.7546771E-02  0.1030993E+00
         21   -1    0    0  502  501  0.00000000000E+00  0.00000000000E+00  0.22175169879E+04  0.22175169879E+04  0.00000000000E+00 0. -1.
         21   -1    0    0  501  502 -0.00000000000E+00 -0.00000000000E+00 -0.86986548677E+02  0.86986548677E+02  0.00000000000E+00 0. -1.
         25    1    1    2    0    0  0.14317093228E+02  0.64611802767E+02  0.78989734688E+03  0.80246026869E+03  0.12500000000E+03 0.  0.
         25    1    1    2    0    0 -0.19050194764E+03 -0.21162712309E+03  0.31110905061E+03  0.43987597417E+03  0.12500000000E+03 0.  0.
         25    1    1    2    0    0  0.17618485441E+03  0.14701532033E+03  0.10295240417E+04  0.10621672937E+04  0.12500000000E+03 0.  0.
</event>
<event>
 5    0  0.5547141E-005  0.3450820E+03  0.7546771E-02  0.1064652E+00
         21   -1    0    0  502  501  0.00000000000E+00  0.00000000000E+00  0.93535733388E+02  0.93535733388E+02  0.00000000000E+00 0.  1.
         21   -1    0    0  501  502 -0.00000000000E+00 -0.00000000000E+00 -0.12731135570E+04  0.12731135570E+04  0.00000000000E+00 0.  1.
         25    1    1    2    0    0 -0.10792124041E+03  0.78461139608E+01 -0.43677385915E+03  0.46701708714E+03  0.12500000000E+03 0.  0.
         25    1    1    2    0    0  0.16235426080E+03  0.15716758672E+03 -0.56555178234E+03  0.62171888730E+03  0.12500000000E+03 0.  0.
         25    1    1    2    0    0 -0.54433020388E+02 -0.16501370068E+03 -0.17725218212E+03  0.27791331596E+03  0.12500000000E+03 0.  0.
</event>
<event>
 5    0  0.5547141E-005  0.4846958E+03  0.7546771E-02  0.1017853E+00
         21   -1    0    0  502  501  0.00000000000E+00  0.00000000000E+00  0.12135333673E+03  0.12135333673E+03  0.00000000000E+00 0. -1.
         21   -1    0    0  501  502 -0.00000000000E+00 -0.00000000000E+00 -0.19359170745E+04  0.19359170745E+04  0.00000000000E+00 0. -1.
         25    1    1    2    0    0 -0.10766054563E+03  0.34705879297E+03 -0.41812118420E+03  0.56788284314E+03  0.12500000000E+03 0.  0.
         25    1    1    2    0    0 -0.17080810711E+02 -0.31199889600E+03 -0.95934486503E+03  0.10166624982E+04  0.12500000000E+03 0.  0.
         25    1    1    2    0    0  0.12474135634E+03 -0.35059896965E+02 -0.43709768855E+03  0.47272506988E+03  0.12500000000E+03 0.  0.
</event>
<event>
 5    0  0.5547141E-005  0.2838917E+03  0.7546771E-02  0.1093582E+00
         21   -1    0    0  502  501  0.00000000000E+00  0.00000000000E+00  0.36203415584E+03  0.36203415584E+03  0.00000000000E+00 0.  1.
         21   -1    0    0  501  502 -0.00000000000E+00 -0.00000000000E+00 -0.22261574915E+03  0.22261574915E+03  0.00000000000E+00 0.  1.
         25    1    1    2    0    0 -0.13712394352E+03  0.99068773408E+02  0.32905373758E+02  0.21289753727E+03  0.12500000000E+03 0.  0.
         25    1    1    2    0    0  0.16240524757E+03 -0.21970318924E+02  0.47839772779E+02  0.21159348575E+03  0.12500000000E+03 0.  0.
         25    1    1    2    0    0 -0.25281304046E+02 -0.77098454484E+02  0.58673260156E+02  0.16015888197E+03  0.12500000000E+03 0.  0.
</event>
<event>
 5    0  0.5547141E-005  0.2973993E+03  0.7546771E-02  0.1086548E+00
         21   -1    0    0  502  501  0.00000000000E+00  0.00000000000E+00  0.12175680452E+04  0.12175680452E+04  0.00000000000E+00 0. -1.
         21   -1    0    0  501  502 -0.00000000000E+00 -0.00000000000E+00 -0.72641803650E+02  0.72641803650E+02  0.00000000000E+00 0. -1.
         25    1    1    2    0    0 -0.31770530755E+02  0.83125911764E+02  0.20132556292E+03  0.25313290208E+03  0.12500000000E+03 0.  0.
         25    1    1    2    0    0 -0.70232321795E+02  0.86149971951E+02  0.21833922159E+03  0.27504801831E+03  0.12500000000E+03 0.  0.
         25    1    1    2    0    0  0.10200285255E+03 -0.16927588372E+03  0.72526145700E+03  0.76202892842E+03  0.12500000000E+03 0.  0.
</event>
<event>
 5    0  0.5547141E-005  0.2463295E+03  0.7546771E-02  0.1115647E+00
         21   -1    0    0  502  501  0.00000000000E+00  0.00000000000E+00  0.62319977755E+02  0.62319977755E+02  0.00000000000E+00 0. -1.
         21   -1    0    0  501  502 -0.00000000000E+00 -0.00000000000E+00 -0.97365605649E+03  0.97365605649E+03  0.00000000000E+00 0. -1.
         25    1    1    2    0    0 -0.45578297994E+02  0.78839239732E+01 -0.28026289290E+03  0.31034146781E+03  0.12500000000E+03 0.  0.
         25    1    1    2    0    0  0.14727834045E+03 -0.17520273692E+02 -0.38889807028E+03  0.43458552510E+03  0.12500000000E+03 0.  0.
         25    1    1    2    0    0 -0.10170004245E+03  0.96363497187E+01 -0.24217511556E+03  0.29104904134E+03  0.12500000000E+03 0.  0.
</event>
<event>
 5    0  0.5547141E-005  0.3426564E+03  0.7546771E-02  0.1065670E+00
         21   -1    0    0  502  501  0.00000000000E+00  0.00000000000E+00  0.52154376456E+02  0.52154376456E+02  0.00000000000E+00 0. -1.
         21   -1    0    0  501  502 -0.00000000000E+00 -0.00000000000E+00 -0.22512670571E+04  0.22512670571E+04  0.00000000000E+00 0. -1.
         25    1    1    2    0    0 -0.10707609864E+03 -0.14317897568E+02 -0.25598152206E+03  0.30466675684E+03  0.12500000000E+03 0.  0.
         25    1    1    2    0    0 -0.44575017196E+02  0.16996821995E+03 -0.80912353112E+03  0.83736611859E+03  0.12500000000E+03 0.  0.
         25    1    1    2    0    0  0.15165111583E+03 -0.15565032238E+03 -0.11340076275E+04  0.11613885582E+04  0.12500000000E+03 0.  0.
</event>
<event>
 5    0  0.5547141E-005  0.3332370E+03  0.7546771E-02  0.1069713E+00
         21   -1    0    0  502  501  0.00000000000E+00  0.00000000000E+00  0.88544746443E+03  0.88544746443E+03  0.00000000000E+00 0.  1.
         21   -1    0    0  501  502 -0.00000000000E+00 -0.00000000000E+00 -0.12541333873E+03  0.12541333873E+03  0.00000000000E+00 0. -1.
         25    1    1    2    0    0  0.15486838461E+03 -0.95330866510E+02  0.44156314520E+03  0.49363468462E+03  0.12500000000E+03 0.  0.
         25    1    1    2    0    0  0.13404280717E+02  0.10106525954E+03  0.35737594993E+02  0.16521512377E+03  0.12500000000E+03 0.  0.
         25    1    1    2    0    0 -0.16827266532E+03 -0.57343930320E+01  0.28273338550E+03  0.35201099476E+03  0.12500000000E+03 0.  0.
</event>
<event>
 5    0  0.5547141E-005  0.3416008E+03  0.7546771E-02  0.1066116E+00
         21   -1    0    0  502  501  0.00000000000E+00  0.00000000000E+00  0.11162126235E+04  0.11162126235E+04  0.00000000000E+00 0.  1.
         21   -1    0    0  501  502 -0.00000000000E+00 -0.00000000000E+00 -0.10454199526E+03  0.10454199526E+03  0.00000000000E+00 0.  1.
         25    1    1    2    0    0  0.41482952832E+01  0.11004277921E+03  0.22093184363E+03  0.27669929733E+03  0.12500000000E+03 0.  0.
         25    1    1    2    0    0  0.22663774732E+02 -0.27677235108E+03  0.49775007500E+03  0.58352096635E+03  0.12500000000E+03 0.  0.
         25    1    1    2    0    0 -0.26812070016E+02  0.16672957186E+03  0.29298870961E+03  0.36053435508E+03  0.12500000000E+03 0.  0.
</event>
<event>
 5    0  0.5547141E-005  0.2740425E+03  0.7546771E-02  0.1098988E+00
         21   -1    0    0  502  501  0.00000000000E+00  0.00000000000E+00  0.14282793656E+03  0.14282793656E+03  0.00000000000E+00 0. -1.
         21   -1    0    0  501  502 -0.00000000000E+00 -0.00000000000E+00 -0.52580253133E+03  0.52580253133E+03  0.00000000000E+00 0.  1.
         25    1    1    2    0    0 -0.39173770982E+02  0.50680192139E+02 -0.19200162047E+03  0.23789217825E+03  0.12500000000E+03 0.  0.
         25    1    1    2    0    0  0.10516095484E+03 -0.96214631788E+02 -0.96561103756E+00  0.18958379202E+03  0.12500000000E+03 0.  0.
         25    1    1    2    0    0 -0.65987183861E+02  0.45534439649E+02 -0.19000736326E+03  0.24115449762E+03  0.12500000000E+03 0.  0.
</event>
<event>
 5    0  0.5547141E-005  0.3243681E+03  0.7546771E-02  0.1073656E+00
         21   -1    0    0  502  501  0.00000000000E+00  0.00000000000E+00  0.19428457054E+03  0.19428457054E+03  0.00000000000E+00 0. -1.
         21   -1    0    0  501  502 -0.00000000000E+00 -0.00000000000E+00 -0.54154914731E+03  0.54154914731E+03  0.00000000000E+00 0. -1.
         25    1    1    2    0    0  0.15909676050E+03 -0.38506312297E+02 -0.17849119846E+03  0.27254104868E+03  0.12500000000E+03 0.  0.
         25    1    1    2    0    0 -0.15763848799E+03  0.13852130729E+03 -0.20559032334E+02  0.24512388558E+03  0.12500000000E+03 0.  0.
         25    1    1    2    0    0 -0.14582725085E+01 -0.10001499500E+03 -0.14821434597E+03  0.21816878359E+03  0.12500000000E+03 0.  0.
</event>
<event>
 5    0  0.5547141E-005  0.2487088E+03  0.7546771E-02  0.1114124E+00
         21   -1    0    0  502  501  0.00000000000E+00  0.00000000000E+00  0.69677428009E+02  0.69677428009E+02  0.00000000000E+00 0.  1.
         21   -1    0    0  501  502 -0.00000000000E+00 -0.00000000000E+00 -0.88774870377E+03  0.88774870377E+03  0.00000000000E+00 0.  1.
         25    1    1    2    0    0 -0.21700833159E+02  0.52145879906E+02 -0.11736645510E+03  0.18052701663E+03  0.12500000000E+03 0.  0.
         25    1    1    2    0    0  0.21717051826E+02 -0.13301297971E+03 -0.43669810445E+03  0.47380831308E+03  0.12500000000E+03 0.  0.
         25    1    1    2    0    0 -0.16218666879E-01  0.80867099808E+02 -0.26400671621E+03  0.30309080207E+03  0.12500000000E+03 0.  0.
</event>
<event>
 5    0  0.5547141E-005  0.2754796E+03  0.7546771E-02  0.1098184E+00
         21   -1    0    0  502  501  0.00000000000E+00  0.00000000000E+00  0.19092868452E+03  0.19092868452E+03  0.00000000000E+00 0. -1.
         21   -1    0    0  501  502 -0.00000000000E+00 -0.00000000000E+00 -0.39747293891E+03  0.39747293891E+03  0.00000000000E+00 0. -1.
         25    1    1    2    0    0 -0.10167323923E+03 -0.13480617863E+03 -0.14032085644E+02  0.21055178176E+03  0.12500000000E+03 0.  0.
         25    1    1    2    0    0  0.96068284795E+02  0.27397970700E+02 -0.87983290275E+02  0.18260838839E+03  0.12500000000E+03 0.  0.
         25    1    1    2    0    0  0.56049544371E+01  0.10740820793E+03 -0.10452887847E+03  0.19524145328E+03  0.12500000000E+03 0.  0.
</event>
<event>
 5    0  0.5547141E-005  0.2736863E+03  0.7546771E-02  0.1099188E+00
         21   -1    0    0  502  501  0.00000000000E+00  0.00000000000E+00  0.14143637662E+03  0.14143637662E+03  0.00000000000E+00 0.  1.
         21   -1    0    0  501  502 -0.00000000000E+00 -0.00000000000E+00 -0.52959631419E+03  0.52959631419E+03  0.00000000000E+00 0.  1.
         25    1    1    2    0    0 -0.58835663840E+01 -0.73756179242E+02 -0.46474815904E+01  0.14533130913E+03  0.12500000000E+03 0.  0.
         25    1    1    2    0    0 -0.72462111767E+02 -0.29686459461E+02 -0.28362943409E+03  0.31969156917E+03  0.12500000000E+03 0.  0.
         25    1    1    2    0    0  0.78345678151E+02  0.10344263870E+03 -0.99883021889E+02  0.20600981250E+03  0.12500000000E+03 0.  0.
</event>
<event>
 5    0  0.5547141E-005  0.2374761E+03  0.7546771E-02  0.1121486E+00
         21   -1    0    0  502  501  0.00000000000E+00  0.00000000000E+00  0.16662558863E+03  0.16662558863E+03  0.00000000000E+00 0. -1.
         21   -1    0    0  501  502 -0.00000000000E+00 -0.00000000000E+00 -0.33845276110E+03  0.33845276110E+03  0.00000000000E+00 0. -1.
         25    1    1    2    0    0  0.47182303908E+02  0.58087888181E+02 -0.13658752566E+03  0.19970359216E+03  0.12500000000E+03 0.  0.
         25    1    1    2    0    0 -0.55229158917E+02 -0.26821557592E+02 -0.89272737216E+02  0.16542151479E+03  0.12500000000E+03 0.  0.
         25    1    1    2    0    0  0.80468550085E+01 -0.31266330589E+02  0.54033090403E+02  0.13995324277E+03  0.12500000000E+03 0.  0.
</event>
<event>
 5    0  0.5708535E-005  0.3445379E+03  0.7546771E-02  0.1064879E+00
         21   -1    0    0  502  501  0.00000000000E+00  0.00000000000E+00  0.20016861629E+03  0.20016861629E+03  0.00000000000E+00 0. -1.
         21   -1    0    0  501  502 -0.00000000000E+00 -0.00000000000E+00 -0.59303188352E+03  0.59303188352E+03  0.00000000000E+00 0. -1.
         25    1    1    2    0    0  0.15299212615E+03  0.14398823761E+03 -0.18952348477E+03  0.30932726118E+03  0.12500000000E+03 0.  0.
         25    1    1    2    0    0  0.24820778100E+02 -0.17760281621E+03 -0.11337670279E+03  0.24624806210E+03  0.12500000000E+03 0.  0.
         25    1    1    2    0    0 -0.17781290425E+03  0.33614578604E+02 -0.89963079675E+02  0.23762517652E+03  0.12500000000E+03 0.  0.
</event>
<event>
 5    0  0.5547141E-005  0.5111052E+03  0.7546771E-02  0.1010920E+00
         21   -1    0    0  502  501  0.00000000000E+00  0.00000000000E+00  0.11235809102E+04  0.11235809102E+04  0.00000000000E+00 0.  1.
         21   -1    0    0  501  502 -0.00000000000E+00 -0.00000000000E+00 -0.23249643325E+03  0.23249643325E+03  0.00000000000E+00 0.  1.
         25    1    1    2    0    0 -0.12347509956E+03  0.38300588813E+03  0.60160936688E+03  0.73450557579E+03  0.12500000000E+03 0.  0.
         25    1    1    2    0    0  0.59987828853E+02 -0.38301986840E+03  0.18878950201E+03  0.44896462586E+03  0.12500000000E+03 0.  0.
         25    1    1    2    0    0  0.63487270709E+02  0.13980273181E-01  0.10068560809E+03  0.17260714184E+03  0.12500000000E+03 0.  0.
</event>
<event>
 5    0  0.5547141E-005  0.2997455E+03  0.7546771E-02  0.1085368E+00
         21   -1    0    0  502  501  0.00000000000E+00  0.00000000000E+00  0.79121016677E+03  0.79121016677E+03  0.00000000000E+00 0. -1.
         21   -1    0    0  501  502 -0.00000000000E+00 -0.00000000000E+00 -0.11355685424E+03  0.11355685424E+03  0.00000000000E+00 0. -1.
         25    1    1    2    0    0 -0.16905054288E+02  0.38540407908E+02  0.30441129889E+03  0.33175651131E+03  0.12500000000E+03 0.  0.
         25    1    1    2    0    0  0.34852097518E+02  0.12775258024E+03  0.51133463425E+02  0.18914286014E+03  0.12500000000E+03 0.  0.
         25    1    1    2    0    0 -0.17947043229E+02 -0.16629298814E+03  0.32210855021E+03  0.38386764957E+03  0.12500000000E+03 0.  0.
</event>
<event>
 5    0  0.5547141E-005  0.3289156E+03  0.7546771E-02  0.1071618E+00
         21   -1    0    0  502  501  0.00000000000E+00  0.00000000000E+00  0.92835151522E+03  0.92835151522E+03  0.00000000000E+00 0. -1.
         21   -1    0    0  501  502 -0.00000000000E+00 -0.00000000000E+00 -0.11653505017E+03  0.11653505017E+03  0.00000000000E+00 0. -1.
         25    1    1    2    0    0 -0.11294284612E+02  0.12029601523E+03  0.25704979423E+03  0.31031965593E+03  0.12500000000E+03 0.  0.
         25    1    1    2    0    0 -0.34328472449E+02 -0.25226332069E+03  0.40618419063E+03  0.49540470699E+03  0.12500000000E+03 0.  0.
         25    1    1    2    0    0  0.45622757061E+02  0.13196730545E+03  0.14858248019E+03  0.23916220247E+03  0.12500000000E+03 0.  0.
</event>
<event>
 5    0  0.5547141E-005  0.2787609E+03  0.7546771E-02  0.1096368E+00
         21   -1    0    0  502  501  0.00000000000E+00  0.00000000000E+00  0.93052910302E+03  0.93052910302E+03  0.00000000000E+00 0.  1.
         21   -1    0    0  501  502 -0.00000000000E+00 -0.00000000000E+00 -0.83509090363E+02  0.83509090363E+02  0.00000000000E+00 0.  1.
         25    1    1    2    0    0  0.11999726290E+03  0.70786172321E+02  0.15748914282E+03  0.24461777409E+03  0.12500000000E+03 0.  0.
         25    1    1    2    0    0 -0.29993649140E+02 -0.41858653688E+02  0.52526446686E+03  0.54238319113E+03  0.12500000000E+03 0.  0.
         25    1    1    2    0    0 -0.90003613758E+02 -0.28927518633E+02  0.16426640298E+03  0.22703722816E+03  0.12500000000E+03 0.  0.
</event>
<event>
 5    0  0.5547141E-005  0.2368421E+03  0.7546771E-02  0.1121915E+00
         21   -1    0    0  502  501  0.00000000000E+00  0.00000000000E+00  0.38816904221E+03  0.38816904221E+03  0.00000000000E+00 0. -1.
         21   -1    0    0  501  502 -0.00000000000E+00 -0.00000000000E+00 -0.14450965641E+03  0.14450965641E+03  0.00000000000E+00 0. -1.
         25    1    1    2    0    0  0.78726583338E+02 -0.32239566995E+02  0.12782396615E+03  0.19799300727E+03  0.12500000000E+03 0.  0.
         25    1    1    2    0    0 -0.46944620054E+02 -0.38634609086E+02  0.12540064209E+03  0.18720777603E+03  0.12500000000E+03 0.  0.
         25    1    1    2    0    0 -0.31781963284E+02  0.70874176082E+02 -0.95652224353E+01  0.14747791532E+03  0.12500000000E+03 0.  0.
</event>
<event>
 5    0  0.5547141E-005  0.2534812E+03  0.7546771E-02  0.1111124E+00
         21   -1    0    0  502  501  0.00000000000E+00  0.00000000000E+00  0.96310101306E+03  0.96310101306E+03  0.00000000000E+00 0. -1.
         21   -1    0    0  501  502 -0.00000000000E+00 -0.00000000000E+00 -0.66714438665E+02  0.66714438665E+02  0.00000000000E+00 0. -1.
         25    1    1    2    0    0  0.34078758659E+02  0.91178575659E+02  0.47959942585E+03  0.50508959970E+03  0.12500000000E+03 0.  0.
         25    1    1    2    0    0  0.20952980192E+02 -0.62336870081E+02  0.85192082191E+02  0.16494727527E+03  0.12500000000E+03 0.  0.
         25    1    1    2    0    0 -0.55031738850E+02 -0.28841705578E+02  0.33159506635E+03  0.35977857675E+03  0.12500000000E+03 0.  0.
</event>
<event>
 5    0  0.5547141E-005  0.2593443E+03  0.7546771E-02  0.1107538E+00
         21   -1    0    0  502  501  0.00000000000E+00  0.00000000000E+00  0.11016820013E+04  0.11016820013E+04  0.00000000000E+00 0. -1.
         21   -1    0    0  501  502 -0.00000000000E+00 -0.00000000000E+00 -0.61051632402E+02  0.61051632402E+02  0.00000000000E+00 0. -1.
         25    1    1    2    0    0  0.22145949748E+02  0.19997532064E+02  0.58508122942E+03  0.59902870498E+03  0.12500000000E+03 0.  0.
         25    1    1    2    0    0 -0.10944145498E+03 -0.40621376065E+02  0.29734437337E+03  0.34302507872E+03  0.12500000000E+03 0.  0.
         25    1    1    2    0    0  0.87295505230E+02  0.20623844001E+02  0.15820476614E+03  0.22067985002E+03  0.12500000000E+03 0.  0.
</event>
<event>
 5    0  0.5547141E-005  0.2361906E+03  0.7546771E-02  0.1122357E+00
         21   -1    0    0  502  501  0.00000000000E+00  0.00000000000E+00  0.36530843340E+02  0.36530843340E+02  0.00000000000E+00 0.  1.
         21   -1    0    0  501  502 -0.00000000000E+00 -0.00000000000E+00 -0.15270931853E+04  0.15270931853E+04  0.00000000000E+00 0.  1.
         25    1    1    2    0    0  0.39549281304E+02 -0.27714023437E+02 -0.39388107610E+03  0.41605229823E+03  0.12500000000E+03 0.  0.
         25    1    1    2    0    0 -0.51039134024E+02 -0.69980133154E+02 -0.31397094071E+03  0.34886238526E+03  0.12500000000E+03 0.  0.
         25    1    1    2    0    0  0.11489852720E+02  0.97694156591E+02 -0.78271032514E+03  0.79870934515E+03  0.12500000000E+03 0.  0.
</event>
<event>
 5    0  0.5547141E-005  0.2561793E+03  0.7546771E-02  0.1109461E+00
         21   -1    0    0  502  501  0.00000000000E+00  0.00000000000E+00  0.27373441472E+03  0.27373441472E+03  0.00000000000E+00 0. -1.
         21   -1    0    0  501  502 -0.00000000000E+00 -0.00000000000E+00 -0.23975011266E+03  0.23975011266E+03  0.00000000000E+00 0. -1.
         25    1    1    2    0    0  0.10835192098E+03 -0.37893905629E+02  0.20410040080E+02  0.17093173081E+03  0.12500000000E+03 0.  0.
         25    1    1    2    0    0 -0.15631949297E+03  0.14643529485E+02 -0.22528516498E+02  0.20194739635E+03  0.12500000000E+03 0.  0.
         25    1    1    2    0    0  0.47967571996E+02  0.23250376144E+02  0.36102778476E+02  0.14060540021E+03  0.12500000000E+03 0.  0.
</event>
<event>
 5    0  0.5547141E-005  0.3380650E+03  0.7546771E-02  0.1067623E+00
         21   -1    0    0  502  501  0.00000000000E+00  0.00000000000E+00  0.19858321946E+04  0.19858321946E+04  0.00000000000E+00 0.  1.
         21   -1    0    0  501  502 -0.00000000000E+00 -0.00000000000E+00 -0.57551655023E+02  0.57551655023E+02  0.00000000000E+00 0.  1.
         25    1    1    2    0    0  0.11304016446E+03  0.60244332163E+02  0.77364951813E+03  0.79408188195E+03  0.12500000000E+03 0.  0.
         25    1    1    2    0    0  0.74573144076E+02  0.57943852349E+02  0.16527822257E+03  0.22772908180E+03  0.12500000000E+03 0.  0.
         25    1    1    2    0    0 -0.18761330854E+03 -0.11818818451E+03  0.98935279885E+03  0.10215728858E+04  0.12500000000E+03 0.  0.
</event>
<event>
 5    0  0.5547141E-005  0.2631367E+03  0.7546771E-02  0.1105273E+00
         21   -1    0    0  502  501  0.00000000000E+00  0.00000000000E+00  0.22677260772E+04  0.22677260772E+04  0.00000000000E+00 0.  1.
         21   -1    0    0  501  502 -0.00000000000E+00 -0.00000000000E+00 -0.30533194700E+02  0.30533194700E+02  0.00000000000E+00 0.  1.
         25    1    1    2    0    0 -0.20716313471E+02  0.30903759457E+02  0.25695221830E+03  0.28815560116E+03  0.12500000000E+03 0.  0.
         25    1    1    2    0    0  0.50344527503E+02 -0.10200827484E+03  0.14531064319E+04  0.14629024445E+04  0.12500000000E+03 0.  0.
         25    1    1    2    0    0 -0.29628214032E+02  0.71104515385E+02  0.52713423232E+03  0.54720122630E+03  0.12500000000E+03 0.  0.
</event>
<event>
 5    0  0.5547141E-005  0.4816211E+03  0.7546771E-02  0.1018691E+00
         21   -1    0    0  502  501  0.00000000000E+00  0.00000000000E+00  0.28128980539E+03  0.28128980539E+03  0.00000000000E+00 0.  1.
         21   -1    0    0  501  502 -0.00000000000E+00 -0.00000000000E+00 -0.82462582471E+03  0.82462582471E+03  0.00000000000E+00 0.  1.
         25    1    1    2    0    0 -0.19185403781E+03  0.14695120259E+03 -0.82761889842E+02  0.28438909644E+03  0.12500000000E+03 0.  0.
         25    1    1    2    0    0 -0.88956110598E+02 -0.28529951949E+03 -0.12891527382E+03  0.34864473788E+03  0.12500000000E+03 0.  0.
         25    1    1    2    0    0  0.28081014840E+03  0.13834831689E+03 -0.33165885566E+03  0.47288179577E+03  0.12500000000E+03 0.  0.
</event>
<event>
 5    0  0.5547141E-005  0.3104311E+03  0.7546771E-02  0.1080139E+00
         21   -1    0    0  502  501  0.00000000000E+00  0.00000000000E+00  0.89544145576E+03  0.89544145576E+03  0.00000000000E+00 0.  1.
         21   -1    0    0  501  502 -0.00000000000E+00 -0.00000000000E+00 -0.10762003903E+03  0.10762003903E+03  0.00000000000E+00 0.  1.
         25    1    1    2    0    0  0.16060584806E+02 -0.12294005257E+03  0.56007034072E+03  0.58709112194E+03  0.12500000000E+03 0.  0.
         25    1    1    2    0    0 -0.96753960152E+02  0.10936650577E+03  0.16721486383E+03  0.25477082265E+03  0.12500000000E+03 0.  0.
         25    1    1    2    0    0  0.80693375345E+02  0.13573546798E+02  0.60536212185E+02  0.16119955019E+03  0.12500000000E+03 0.  0.
</event>
<event>
 5    0  0.5547141E-005  0.2546585E+03  0.7546771E-02  0.1110396E+00
         21   -1    0    0  502  501  0.00000000000E+00  0.00000000000E+00  0.83069843541E+03  0.83069843541E+03  0.00000000000E+00 0.  1.
         21   -1    0    0  501  502 -0.00000000000E+00 -0.00000000000E+00 -0.78067956388E+02  0.78067956388E+02  0.00000000000E+00 0.  1.
         25    1    1    2    0    0 -0.16180301229E+03 -0.93031708268E+01  0.29046012251E+03  0.35532920869E+03  0.12500000000E+03 0.  0.
         25    1    1    2    0    0  0.67934173060E+02  0.30689853587E+02  0.24568180172E+03  0.28555466496E+03  0.12500000000E+03 0.  0.
         25    1    1    2    0    0  0.93868839232E+02 -0.21386682760E+02  0.21648855478E+03  0.26788251815E+03  0.12500000000E+03 0.  0.
</event>
<event>
 5    0  0.5547141E-005  0.3787258E+03  0.7546771E-02  0.1051406E+00
         21   -1    0    0  502  501  0.00000000000E+00  0.00000000000E+00  0.67952707482E+02  0.67952707482E+02  0.00000000000E+00 0. -1.
         21   -1    0    0  501  502 -0.00000000000E+00 -0.00000000000E+00 -0.21107805111E+04  0.21107805111E+04  0.00000000000E+00 0.  1.
         25    1    1    2    0    0 -0.26177653854E+03  0.10106210199E+03 -0.76052461964E+03  0.82022143454E+03  0.12500000000E+03 0.  0.
         25    1    1    2    0    0  0.13202791009E+03 -0.17583701676E+03 -0.75892982379E+03  0.79996843872E+03  0.12500000000E+03 0.  0.
         25    1    1    2    0    0  0.12974862845E+03  0.74774914770E+02 -0.52337336022E+03  0.55854334536E+03  0.12500000000E+03 0.  0.
</event>
<event>
 5    0  0.5547141E-005  0.3916050E+03  0.7546771E-02  0.1046726E+00
         21   -1    0    0  502  501  0.00000000000E+00  0.00000000000E+00  0.12908590417E+04  0.12908590417E+04  0.00000000000E+00 0.  1.
         21   -1    0    0  501  502 -0.00000000000E+00 -0.00000000000E+00 -0.11880030131E+03  0.11880030131E+03  0.00000000000E+00 0.  1.
         25    1    1    2    0    0 -0.86287049270E+02 -0.15586002158E+03  0.34896104277E+03  0.41126221632E+03  0.12500000000E+03 0.  0.
         25    1    1    2    0    0 -0.74491414193E+02  0.15062196059E+03  0.74042941645E+02  0.22213352518E+03  0.12500000000E+03 0.  0.
         25    1    1    2    0    0  0.16077846346E+03  0.52380609898E+01  0.74905475599E+03  0.77626360154E+03  0.12500000000E+03 0.  0.
</event>
<event>
 5    0  0.5547141E-005  0.4029871E+03  0.7546771E-02  0.1042750E+00
         21   -1    0    0  502  501  0.00000000000E+00  0.00000000000E+00  0.48838514954E+03  0.48838514954E+03  0.00000000000E+00 0.  1.
         21   -1    0    0  501  502 -0.00000000000E+00 -0.00000000000E+00 -0.33252166391E+03  0.33252166391E+03  0.00000000000E+00 0.  1.
         25    1    1    2    0    0  0.65231391902E+02  0.18568740342E+03  0.51442350028E+02  0.23875984096E+03  0.12500000000E+03 0.  0.
         25    1    1    2    0    0 -0.17064724726E+03  0.66822885132E+02  0.16349066284E+03  0.27557209186E+03  0.12500000000E+03 0.  0.
         25    1    1    2    0    0  0.10541585536E+03 -0.25251028855E+03 -0.59069527235E+02  0.30657488063E+03  0.12500000000E+03 0.  0.
</event>
<event>
 5    0  0.5547141E-005  0.2913146E+03  0.7546771E-02  0.1089665E+00
         21   -1    0    0  502  501  0.00000000000E+00  0.00000000000E+00  0.22847833276E+03  0.22847833276E+03  0.00000000000E+00 0. -1.
         21   -1    0    0  501  502 -0.00000000000E+00 -0.00000000000E+00 -0.37143202281E+03  0.37143202281E+03  0.00000000000E+00 0. -1.
         25    1    1    2    0    0  0.26815535008E+02 -0.52945662244E+02  0.54151078755E+02  0.14859224542E+03  0.12500000000E+03 0.  0.
         25    1    1    2    0    0 -0.25734651524E+02  0.16727000764E+03 -0.28509393836E+02  0.21231889525E+03  0.12500000000E+03 0.  0.
         25    1    1    2    0    0 -0.10808834844E+01 -0.11432434539E+03 -0.16859537497E+03  0.23899921490E+03  0.12500000000E+03 0.  0.
</event>
<event>
 5    0  0.5547141E-005  0.2340934E+03  0.7546771E-02  0.1123791E+00
         21   -1    0    0  502  501  0.00000000000E+00  0.00000000000E+00  0.47958993289E+03  0.47958993289E+03  0.00000000000E+00 0.  1.
         21   -1    0    0  501  502 -0.00000000000E+00 -0.00000000000E+00 -0.11426371381E+03  0.11426371381E+03  0.00000000000E+00 0.  1.
         25    1    1    2    0    0 -0.36020481613E+02  0.15897488639E+02  0.15389209929E+03  0.20213357827E+03  0.12500000000E+03 0.  0.
         25    1    1    2    0    0  0.67470900719E+02  0.46034905723E+02  0.19813437730E+03  0.24810031531E+03  0.12500000000E+03 0.  0.
         25    1    1    2    0    0 -0.31450419105E+02 -0.61932394362E+02  0.13299742488E+02  0.14361975311E+03  0.12500000000E+03 0.  0.
</event>
<event>
 5    0  0.5547141E-005  0.2089472E+03  0.7546771E-02  0.1142402E+00
         21   -1    0    0  502  501  0.00000000000E+00  0.00000000000E+00  0.51394038089E+03  0.51394038089E+03  0.00000000000E+00 0.  1.
         21   -1    0    0  501  502 -0.00000000000E+00 -0.00000000000E+00 -0.84949416974E+02  0.84949416974E+02  0.00000000000E+00 0.  1.
         25    1    1    2    0    0 -0.29601312006E+02 -0.44002024154E+02  0.12728950627E+03  0.18611833389E+03  0.12500000000E+03 0.  0.
         25    1    1    2    0    0  0.19609633710E+02 -0.37277556415E+02  0.15189638798E+03  0.20117571083E+03  0.12500000000E+03 0.  0.
         25    1    1    2    0    0  0.99916782963E+01  0.81279580570E+02  0.14980506968E+03  0.21159575316E+03  0.12500000000E+03 0.  0.
</event>
<event>
 5    0  0.5547141E-005  0.2095462E+03  0.7546771E-02  0.1141926E+00
         21   -1    0    0  502  501  0.00000000000E+00  0.00000000000E+00  0.58180144384E+03  0.58180144384E+03  0.00000000000E+00 0.  1.
         21   -1    0    0  501  502 -0.00000000000E+00 -0.00000000000E+00 -0.75471799398E+02  0.75471799398E+02  0.00000000000E+00 0.  1.
         25    1    1    2    0    0 -0.48244355106E+02 -0.34883352050E+02  0.19770228599E+03  0.24136188584E+03  0.12500000000E+03 0.  0.
         25    1    1    2    0    0  0.33452427512E+02 -0.13102048074E+02  0.86731829562E+02  0.15632702527E+03  0.12500000000E+03 0.  0.
         25    1    1    2    0    0  0.14791927594E+02  0.47985400124E+02  0.22189552889E+03  0.25958433213E+03  0.12500000000E+03 0.  0.
</event>
<event>
 5    0  0.5547141E-005  0.2477534E+03  0.7546771E-02  0.1114733E+00
         21   -1    0    0  502  501  0.00000000000E+00  0.00000000000E+00  0.31907848554E+03  0.31907848554E+03  0.00000000000E+00 0.  1.
         21   -1    0    0  501  502 -0.00000000000E+00 -0.00000000000E+00 -0.19237187311E+03  0.19237187311E+03  0.00000000000E+00 0.  1.
         25    1    1    2    0    0 -0.24871651914E+02 -0.82188612721E+01  0.92037139630E+02  0.15742294566E+03  0.12500000000E+03 0.  0.
         25    1    1    2    0    0  0.10457405480E+03  0.85545823502E+02  0.44536061681E+01  0.18411587510E+03  0.12500000000E+03 0.  0.
         25    1    1    2    0    0 -0.79702402884E+02 -0.77326962230E+02  0.30215866627E+02  0.16991153789E+03  0.12500000000E+03 0.  0.
</event>
<event>
 5    0  0.5547141E-005  0.2044616E+03  0.7546771E-02  0.1146028E+00
         21   -1    0    0  502  501  0.00000000000E+00  0.00000000000E+00  0.12694692993E+03  0.12694692993E+03  0.00000000000E+00 0. -1.
         21   -1    0    0  501  502 -0.00000000000E+00 -0.00000000000E+00 -0.32930731230E+03  0.32930731230E+03  0.00000000000E+00 0. -1.
         25    1    1    2    0    0 -0.26542520575E+02 -0.23638379047E+02 -0.13526161870E+03  0.18757394237E+03  0.12500000000E+03 0.  0.
         25    1    1    2    0    0  0.36229474401E+01 -0.13663509262E+02 -0.49005101054E+02  0.13500487829E+03  0.12500000000E+03 0.  0.
         25    1    1    2    0    0  0.22919573135E+02  0.37301888310E+02 -0.18093662625E+02  0.13367542157E+03  0.12500000000E+03 0.  0.
</event>
<event>
 5    0  0.5547141E-005  0.3642450E+03  0.7546771E-02  0.1056916E+00
         21   -1    0    0  502  501  0.00000000000E+00  0.00000000000E+00  0.58239779018E+03  0.58239779018E+03  0.00000000000E+00 0. -1.
         21   -1    0    0  501  502 -0.00000000000E+00 -0.00000000000E+00 -0.22780726398E+03  0.22780726398E+03  0.00000000000E+00 0. -1.
         25    1    1    2    0    0 -0.74782497514E+02  0.56044770716E+01  0.44650067848E+03  0.46969318494E+03  0.12500000000E+03 0.  0.
         25    1    1    2    0    0  0.30099332263E+02 -0.61592409899E+02  0.36891764288E+02  0.14726030365E+03  0.12500000000E+03 0.  0.
         25    1    1    2    0    0  0.44683165252E+02  0.55987932827E+02 -0.12880191657E+03  0.19325156556E+03  0.12500000000E+03 0.  0.
</event>
<event>
 5    0  0.5547141E-005  0.3081743E+03  0.7546771E-02  0.1081224E+00
         21   -1    0    0  502  501  0.00000000000E+00  0.00000000000E+00  0.28009543438E+03  0.28009543438E+03  0.00000000000E+00 0.  1.
         21   -1    0    0  501  502 -0.00000000000E+00 -0.00000000000E+00 -0.33906804431E+03  0.33906804431E+03  0.00000000000E+00 0.  1.
         25    1    1    2    0    0 -0.36326138635E+01 -0.12368236036E+03 -0.16730876685E+03  0.24275037716E+03  0.12500000000E+03 0.  0.
         25    1    1    2    0    0  0.44010735892E+02  0.97274027356E+02  0.16318592503E+03  0.23163295836E+03  0.12500000000E+03 0.  0.
         25    1    1    2    0    0 -0.40378122028E+02  0.26408333006E+02 -0.54849768114E+02  0.14478014316E+03  0.12500000000E+03 0.  0.
</event>
<event>
 5    0  0.5547141E-005  0.3493841E+03  0.7546771E-02  0.1062868E+00
         21   -1    0    0  502  501  0.00000000000E+00  0.00000000000E+00  0.10536516839E+03  0.10536516839E+03  0.00000000000E+00 0.  1.
         21   -1    0    0  501  502 -0.00000000000E+00 -0.00000000000E+00 -0.11585348594E+04  0.11585348594E+04  0.00000000000E+00 0.  1.
         25    1    1    2    0    0  0.57047633752E+02 -0.19857036518E+03 -0.26637369249E+03  0.35953381829E+03  0.12500000000E+03 0.  0.
         25    1    1    2    0    0  0.82033728491E+00  0.15777814382E+03 -0.14860485688E+03  0.25020595338E+03  0.12500000000E+03 0.  0.
         25    1    1    2    0    0 -0.57867971037E+02  0.40792221364E+02 -0.63819114163E+03  0.65416025610E+03  0.12500000000E+03 0.  0.
</event>
<event>
 5    0  0.5547141E-005  0.3279515E+03  0.7546771E-02  0.1072047E+00
         21   -1    0    0  502  501  0.00000000000E+00  0.00000000000E+00  0.21207860108E+03  0.21207860108E+03  0.00000000000E+00 0. -1.
         21   -1    0    0  501  502 -0.00000000000E+00 -0.00000000000E+00 -0.50713356894E+03  0.50713356894E+03  0.00000000000E+00 0. -1.
         25    1    1    2    0    0  0.11071281117E+01 -0.21018869764E+03 -0.19197782585E+03  0.31090352196E+03  0.12500000000E+03 0.  0.
         25    1    1    2    0    0 -0.46686322415E+02  0.15182473565E+02 -0.10776990047E+03  0.17219021938E+03  0.12500000000E+03 0.  0.
         25    1    1    2    0    0  0.45579194303E+02  0.19500622407E+03  0.46927584475E+01  0.23611842868E+03  0.12500000000E+03 0.  0.
</event>
<event>
 5    0  0.5547141E-005  0.2433807E+03  0.7546771E-02  0.1117561E+00
         21   -1    0    0  502  501  0.00000000000E+00  0.00000000000E+00  0.27683428431E+03  0.27683428431E+03  0.00000000000E+00 0.  1.
         21   -1    0    0  501  502 -0.00000000000E+00 -0.00000000000E+00 -0.21396968649E+03  0.21396968649E+03  0.00000000000E+00 0.  1.
         25    1    1    2    0    0 -0.33600048913E+02  0.10827838079E+02  0.33994377012E+00  0.12988964903E+03  0.12500000000E+03 0.  0.
         25    1    1    2    0    0  0.43851664442E+02 -0.17403246378E+02 -0.91679420279E+02  0.16203690185E+03  0.12500000000E+03 0.  0.
         25    1    1    2    0    0 -0.10251615529E+02  0.65754082996E+01  0.15420407432E+03  0.19887741992E+03  0.12500000000E+03 0.  0.
</event>
<event>
 5    0  0.5547141E-005  0.4010240E+03  0.7546771E-02  0.1043426E+00
         21   -1    0    0  502  501  0.00000000000E+00  0.00000000000E+00  0.11680362004E+04  0.11680362004E+04  0.00000000000E+00 0.  1.
         21   -1    0    0  501  502 -0.00000000000E+00 -0.00000000000E+00 -0.13768430302E+03  0.13768430302E+03  0.00000000000E+00 0.  1.
         25    1    1    2    0    0 -0.18572307897E+03 -0.16436293101E+03  0.13345080902E+03  0.30812717112E+03  0.12500000000E+03 0.  0.
         25    1    1    2    0    0  0.22763991035E+03  0.15534042496E+03  0.57880084220E+03  0.65313550764E+03  0.12500000000E+03 0.  0.
         25    1    1    2    0    0 -0.41916831375E+02  0.90225060481E+01  0.31810024620E+03  0.34445782470E+03  0.12500000000E+03 0.  0.
</event>
<event>
 5    0  0.5547141E-005  0.3535424E+03  0.7546771E-02  0.1061170E+00
         21   -1    0    0  502  501  0.00000000000E+00  0.00000000000E+00  0.18805882404E+03  0.18805882404E+03  0.00000000000E+00 0.  1.
         21   -1    0    0  501  502 -0.00000000000E+00 -0.00000000000E+00 -0.66464426529E+03  0.66464426529E+03  0.00000000000E+00 0.  1.
         25    1    1    2    0    0 -0.25000469851E+03 -0.72709569422E+01 -0.38854255674E+03  0.47869148153E+03  0.12500000000E+03 0.  0.
         25    1    1    2    0    0  0.16165377383E+03  0.14220501734E+01 -0.83527448427E+02  0.22076186143E+03  0.12500000000E+03 0.  0.
         25    1    1    2    0    0  0.88350924673E+02  0.58489067688E+01 -0.45154360863E+01  0.15324974637E+03  0.12500000000E+03 0.  0.
</event>
<event>
 5    0  0.5547141E-005  0.3373874E+03  0.7546771E-02  0.1067914E+00
         21   -1    0    0  502  501  0.00000000000E+00  0.00000000000E+00  0.16608308857E+04  0.16608308857E+04  0.00000000000E+00 0.  1.
         21   -1    0    0  501  502 -0.00000000000E+00 -0.00000000000E+00 -0.68538130311E+02  0.68538130311E+02  0.00000000000E+00 0.  1.
         25    1    1    2    0    0 -0.47640531713E+02  0.10129481430E+02  0.10695184508E+04  0.10778993197E+04  0.12500000000E+03 0.  0.
         25    1    1    2    0    0 -0.10811253795E+03  0.54634562864E+02  0.28798806090E+03  0.33650465010E+03  0.12500000000E+03 0.  0.
         25    1    1    2    0    0  0.15575306966E+03 -0.64764044293E+02  0.23478624364E+03  0.31496504622E+03  0.12500000000E+03 0.  0.
</event>
<event>
 5    0  0.5547141E-005  0.5876935E+03  0.7546771E-02  0.9931272E-01
         21   -1    0    0  502  501  0.00000000000E+00  0.00000000000E+00  0.16268101115E+04  0.16268101115E+04  0.00000000000E+00 0. -1.
         21   -1    0    0  501  502 -0.00000000000E+00 -0.00000000000E+00 -0.21230729734E+03  0.21230729734E+03  0.00000000000E+00 0. -1.
         25    1    1    2    0    0 -0.46786769077E+03  0.12392318691E+03  0.49086100744E+03  0.70059022328E+03  0.12500000000E+03 0.  0.
         25    1    1    2    0    0  0.27448065458E+03 -0.15811381086E+03  0.24074035833E+03  0.41703780051E+03  0.12500000000E+03 0.  0.
         25    1    1    2    0    0  0.19338703619E+03  0.34190623955E+02  0.68290144840E+03  0.72148938507E+03  0.12500000000E+03 0.  0.
</event>
<event>
 5    0  0.5547141E-005  0.2335826E+03  0.7546771E-02  0.1124143E+00
         21   -1    0    0  502  501  0.00000000000E+00  0.00000000000E+00  0.73154325758E+02  0.73154325758E+02  0.00000000000E+00 0. -1.
         21   -1    0    0  501  502 -0.00000000000E+00 -0.00000000000E+00 -0.74583160075E+03  0.74583160075E+03  0.00000000000E+00 0. -1.
         25    1    1    2    0    0  0.22547452694E+02 -0.24626450760E+02 -0.17695322982E+03  0.21920833753E+03  0.12500000000E+03 0.  0.
         25    1    1    2    0    0 -0.83484617940E+02  0.36235845562E+02 -0.11047195502E+03  0.19003097322E+03  0.12500000000E+03 0.  0.
         25    1    1    2    0    0  0.60937165246E+02 -0.11609394802E+02 -0.38525209016E+03  0.40974661576E+03  0.12500000000E+03 0.  0.
</event>
<event>
 5    0  0.5547141E-005  0.2929724E+03  0.7546771E-02  0.1088807E+00
         21   -1    0    0  502  501  0.00000000000E+00  0.00000000000E+00  0.15590929655E+03  0.15590929655E+03  0.00000000000E+00 0. -1.
         21   -1    0    0  501  502 -0.00000000000E+00 -0.00000000000E+00 -0.55053050789E+03  0.55053050789E+03  0.00000000000E+00 0. -1.
         25    1    1    2    0    0 -0.94887380475E+02 -0.63107526661E+02 -0.22417563929E+03  0.28083071795E+03  0.12500000000E+03 0.  0.
         25    1    1    2    0    0  0.15041067378E+03  0.45189364549E+01 -0.19336043410E+03  0.27505826483E+03  0.12500000000E+03 0.  0.
         25    1    1    2    0    0 -0.55523293307E+02  0.58588590206E+02  0.22914862043E+02  0.15055082167E+03  0.12500000000E+03 0.  0.
</event>
<event>
 5    0  0.5547141E-005  0.2457714E+03  0.7546771E-02  0.1116007E+00
         21   -1    0    0  502  501  0.00000000000E+00  0.00000000000E+00  0.80956751120E+03  0.80956751120E+03  0.00000000000E+00 0.  1.
         21   -1    0    0  501  502 -0.00000000000E+00 -0.00000000000E+00 -0.74612172343E+02  0.74612172343E+02  0.00000000000E+00 0.  1.
         25    1    1    2    0    0  0.24186892710E+02  0.84107769109E+02  0.11733378420E+03  0.19248724508E+03  0.12500000000E+03 0.  0.
         25    1    1    2    0    0 -0.22319717212E+02 -0.11705648266E+03  0.26689484463E+03  0.31789659954E+03  0.12500000000E+03 0.  0.
         25    1    1    2    0    0 -0.18671754983E+01  0.32948713553E+02  0.35072671003E+03  0.37379583892E+03  0.12500000000E+03 0.  0.
</event>
<event>
 5    0  0.5958090E-005  0.2828557E+03  0.7546771E-02  0.1094139E+00
         21   -1    0    0  502  501  0.00000000000E+00  0.00000000000E+00  0.38749786640E+03  0.38749786640E+03  0.00000000000E+00 0.  1.
         21   -1    0    0  501  502 -0.00000000000E+00 -0.00000000000E+00 -0.20647170833E+03  0.20647170833E+03  0.00000000000E+00 0.  1.
         25    1    1    2    0    0  0.12045521543E+03  0.10534232843E+03  0.23187227985E+02  0.20437493150E+03  0.12500000000E+03 0.  0.
         25    1    1    2    0    0 -0.10337183000E+03  0.17889045925E+02  0.13494158922E+03  0.21175454117E+03  0.12500000000E+03 0.  0.
         25    1    1    2    0    0 -0.17083385424E+02 -0.12323137436E+03  0.22897340863E+02  0.17784010206E+03  0.12500000000E+03 0.  0.
</event>
<event>
 5    0  0.5547141E-005  0.3065821E+03  0.7546771E-02  0.1081996E+00
         21   -1    0    0  502  501  0.00000000000E+00  0.00000000000E+00  0.72557517864E+03  0.72557517864E+03  0.00000000000E+00 0.  1.
         21   -1    0    0  501  502 -0.00000000000E+00 -0.00000000000E+00 -0.12954218864E+03  0.12954218864E+03  0.00000000000E+00 0.  1.
         25    1    1    2    0    0  0.59597467703E+02 -0.34060047215E+02 -0.19294984286E+02  0.14390705817E+03  0.12500000000E+03 0.  0.
         25    1    1    2    0    0  0.64649421647E+02 -0.12423802832E+02  0.12697805835E+03  0.18995348351E+03  0.12500000000E+03 0.  0.
         25    1    1    2    0    0 -0.12424688935E+03  0.46483850047E+02  0.48834991594E+03  0.52125682560E+03  0.12500000000E+03 0.  0.
</event>
<event>
 5    0  0.5547141E-005  0.2974376E+03  0.7546771E-02  0.1086529E+00
         21   -1    0    0  502  501  0.00000000000E+00  0.00000000000E+00  0.33229795830E+03  0.33229795830E+03  0.00000000000E+00 0. -1.
         21   -1    0    0  501  502 -0.00000000000E+00 -0.00000000000E+00 -0.26623424778E+03  0.26623424778E+03  0.00000000000E+00 0. -1.
         25    1    1    2    0    0  0.70255163954E+02  0.34917387922E+02 -0.48767042801E+02  0.15542920094E+03  0.12500000000E+03 0.  0.
         25    1    1    2    0    0  0.11769371959E+03  0.42931193441E+02  0.10138223822E+03  0.20395650818E+03  0.12500000000E+03 0.  0.
         25    1    1    2    0    0 -0.18794888355E+03 -0.77848581363E+02  0.13448515101E+02  0.23914649695E+03  0.12500000000E+03 0.  0.
</event>
<event>
 5    0  0.5547141E-005  0.3339966E+03  0.7546771E-02  0.1069382E+00
         21   -1    0    0  502  501  0.00000000000E+00  0.00000000000E+00  0.87450078377E+03  0.87450078377E+03  0.00000000000E+00 0.  1.
         21   -1    0    0  501  502 -0.00000000000E+00 -0.00000000000E+00 -0.12756278381E+03  0.12756278381E+03  0.00000000000E+00 0.  1.
         25    1    1    2    0    0 -0.29346843080E+02 -0.44329309367E+02  0.13731313770E+03  0.19314818832E+03  0.12500000000E+03 0.  0.
         25    1    1    2    0    0 -0.10618326576E+03 -0.15750067554E+03  0.41544021886E+03  0.47359996217E+03  0.12500000000E+03 0.  0.
         25    1    1    2    0    0  0.13553010884E+03  0.20182998490E+03  0.19418464340E+03  0.33531541709E+03  0.12500000000E+03 0.  0.
</event>
<event>
 5    0  0.5547141E-005  0.3108252E+03  0.7546771E-02  0.1079951E+00
         21   -1    0    0  502  501  0.00000000000E+00  0.00000000000E+00  0.19516263089E+03  0.19516263089E+03  0.00000000000E+00 0. -1.
         21   -1    0    0  501  502 -0.00000000000E+00 -0.00000000000E+00 -0.49503479377E+03  0.49503479377E+03  0.00000000000E+00 0. -1.
         25    1    1    2    0    0  0.17960937705E+03  0.92162381881E+02 -0.24300904865E+03  0.33975260217E+03  0.12500000000E+03 0.  0.
         25    1    1    2    0    0 -0.10413476451E+03 -0.90323785621E+02 -0.80074043523E+02  0.20258155858E+03  0.12500000000E+03 0.  0.
         25    1    1    2    0    0 -0.75474612536E+02 -0.18385962599E+01  0.23210929297E+02  0.14786326390E+03  0.12500000000E+03 0.  0.
</event>
<event>
 5    0  0.5547141E-005  0.2987974E+03  0.7546771E-02  0.1085843E+00
         21   -1    0    0  502  501  0.00000000000E+00  0.00000000000E+00  0.17118872130E+03  0.17118872130E+03  0.00000000000E+00 0.  1.
         21   -1    0    0  501  502 -0.00000000000E+00 -0.00000000000E+00 -0.52152904339E+03  0.52152904339E+03  0.00000000000E+00 0.  1.
         25    1    1    2    0    0 -0.65040805382E+02  0.16071555014E+03 -0.15528958773E+03  0.26419623480E+03  0.12500000000E+03 0.  0.
         25    1    1    2    0    0  0.74073922007E+02 -0.57095585710E+01  0.58265864530E+01  0.14552832745E+03  0.12500000000E+03 0.  0.
         25    1    1    2    0    0 -0.90331166246E+01 -0.15500599157E+03 -0.20087732081E+03  0.28299320245E+03  0.12500000000E+03 0.  0.
</event>
<event>
 5    0  0.5547141E-005  0.2701561E+03  0.7546771E-02  0.1101190E+00
         21   -1    0    0  502  501  0.00000000000E+00  0.00000000000E+00  0.50810029301E+02  0.50810029301E+02  0.00000000000E+00 0.  1.
         21   -1    0    0  501  502 -0.00000000000E+00 -0.00000000000E+00 -0.14364159778E+04  0.14364159778E+04  0.00000000000E+00 0.  1.
         25    1    1    2    0    0  0.23432238716E+02 -0.92355355340E+02 -0.40012824748E+03  0.42989091163E+03  0.12500000000E+03 0.  0.
         25    1    1    2    0    0  0.10183224693E+03 -0.24699917635E+01 -0.61687902842E+03  0.63760539762E+03  0.12500000000E+03 0.  0.
         25    1    1    2    0    0 -0.12526448564E+03  0.94825347104E+02 -0.36859867263E+03  0.41972969788E+03  0.12500000000E+03 0.  0.
</event>
<event>
 5    0  0.5547141E-005  0.2798134E+03  0.7546771E-02  0.1095791E+00
         21   -1    0    0  502  501  0.00000000000E+00  0.00000000000E+00  0.10464970216E+03  0.10464970216E+03  0.00000000000E+00 0.  1.
         21   -1    0    0  501  502 -0.00000000000E+00 -0.00000000000E+00 -0.74816803796E+03  0.74816803796E+03  0.00000000000E+00 0.  1.
         25    1    1    2    0    0  0.74476501063E+02 -0.90884285946E+02 -0.12328771537E+03  0.21126183612E+03  0.12500000000E+03 0.  0.
         25    1    1    2    0    0 -0.10372026199E+03  0.13167835348E+03 -0.18098332527E+03  0.27654483460E+03  0.12500000000E+03 0.  0.
         25    1    1    2    0    0  0.29243760923E+02 -0.40794067532E+02 -0.33924729517E+03  0.36501106939E+03  0.12500000000E+03 0.  0.
</event>
<event>
 5    0  0.5547141E-005  0.3237126E+03  0.7546771E-02  0.1073953E+00
         21   -1    0    0  502  501  0.00000000000E+00  0.00000000000E+00  0.39918366451E+03  0.39918366451E+03  0.00000000000E+00 0.  1.
         21   -1    0    0  501  502 -0.00000000000E+00 -0.00000000000E+00 -0.26251029638E+03  0.26251029638E+03  0.00000000000E+00 0.  1.
         25    1    1    2    0    0  0.13588945559E+03  0.12139153452E+03  0.25242708434E+02  0.22240513286E+03  0.12500000000E+03 0.  0.
         25    1    1    2    0    0 -0.19022359729E+03  0.40261196350E+01  0.11279069658E+03  0.25406292103E+03  0.12500000000E+03 0.  0.
         25    1    1    2    0    0  0.54334141699E+02 -0.12541765415E+03 -0.13600368812E+01  0.18522590701E+03  0.12500000000E+03 0.  0.
</event>
<event>
 5    0  0.5547141E-005  0.3351942E+03  0.7546771E-02  0.1068861E+00
         21   -1    0    0  502  501  0.00000000000E+00  0.00000000000E+00  0.17664980507E+03  0.17664980507E+03  0.00000000000E+00 0. -1.
         21   -1    0    0  501  502 -0.00000000000E+00 -0.00000000000E+00 -0.63603331220E+03  0.63603331220E+03  0.00000000000E+00 0. -1.
         25    1    1    2    0    0 -0.67286494825E+02 -0.13640284517E+03  0.59506357552E+01  0.19696095710E+03  0.12500000000E+03 0.  0.
         25    1    1    2    0    0  0.11997051889E+03  0.16857505439E+03 -0.38563441340E+03  0.45513665548E+03  0.12500000000E+03 0.  0.
         25    1    1    2    0    0 -0.52684024062E+02 -0.32172209222E+02 -0.79699729487E+02  0.16058550469E+03  0.12500000000E+03 0.  0.
</event>
<event>
 5    0  0.5547141E-005  0.1997604E+03  0.7546771E-02  0.1149941E+00
         21   -1    0    0  502  501  0.00000000000E+00  0.00000000000E+00  0.32129229172E+03  0.32129229172E+03  0.00000000000E+00 0. -1.
         21   -1    0    0  501  502 -0.00000000000E+00 -0.00000000000E+00 -0.12419908041E+03  0.12419908041E+03  0.00000000000E+00 0. -1.
         25    1    1    2    0    0 -0.54430882165E+02  0.16214336549E+02  0.53565260122E+02  0.14737660172E+03  0.12500000000E+03 0.  0.
         25    1    1    2    0    0  0.50818278306E+02  0.15552902713E+01  0.76638038528E+02  0.15518796760E+03  0.12500000000E+03 0.  0.
         25    1    1    2    0    0  0.36126038594E+01 -0.17769626821E+02  0.66889912657E+02  0.14292680280E+03  0.12500000000E+03 0.  0.
</event>
<event>
 5    0  0.5547141E-005  0.2241407E+03  0.7546771E-02  0.1130833E+00
         21   -1    0    0  502  501  0.00000000000E+00  0.00000000000E+00  0.40230993662E+02  0.40230993662E+02  0.00000000000E+00 0.  1.
         21   -1    0    0  501  502 -0.00000000000E+00 -0.00000000000E+00 -0.12487650264E+04  0.12487650264E+04  0.00000000000E+00 0.  1.
         25    1    1    2    0    0 -0.99384863441E+02 -0.28490006782E+02 -0.45612233038E+03  0.48410909085E+03  0.12500000000E+03 0.  0.
         25    1    1    2    0    0  0.72712817761E+02  0.48086596531E+02 -0.47435685037E+03  0.49823578367E+03  0.12500000000E+03 0.  0.
         25    1    1    2    0    0  0.26672045680E+02 -0.19596589749E+02 -0.27805485195E+03  0.30665114551E+03  0.12500000000E+03 0.  0.
</event>
<event>
 5    0  0.5849249E-005  0.3013243E+03  0.7546771E-02  0.1084580E+00
         21   -1    0    0  502  501  0.00000000000E+00  0.00000000000E+00  0.24005644776E+03  0.24005644776E+03  0.00000000000E+00 0. -1.
         21   -1    0    0  501  502 -0.00000000000E+00 -0.00000000000E+00 -0.37822916933E+03  0.37822916933E+03  0.00000000000E+00 0. -1.
         25    1    1    2    0    0 -0.57331521460E+02 -0.58445373525E+02 -0.24683951763E+02  0.15144986799E+03  0.12500000000E+03 0.  0.
         25    1    1    2    0    0  0.20574699880E+03  0.24690082299E+02 -0.51724006941E+01  0.24206028466E+03  0.12500000000E+03 0.  0.
         25    1    1    2    0    0 -0.14841547734E+03  0.33755291226E+02 -0.10831636911E+03  0.22477546445E+03  0.12500000000E+03 0.  0.
</event>
<event>
 5    0  0.5547141E-005  0.2329771E+03  0.7546771E-02  0.1124562E+00
         21   -1    0    0  502  501  0.00000000000E+00  0.00000000000E+00  0.13517509048E+03  0.13517509048E+03  0.00000000000E+00 0. -1.
         21   -1    0    0  501  502 -0.00000000000E+00 -0.00000000000E+00 -0.40154079996E+03  0.40154079996E+03  0.00000000000E+00 0. -1.
         25    1    1    2    0    0  0.78608969922E+02  0.36061915329E+02 -0.10653840723E+03  0.18562129216E+03  0.12500000000E+03 0.  0.
         25    1    1    2    0    0 -0.81324702881E+02  0.51816388113E+00 -0.56280557125E+01  0.14923354450E+03  0.12500000000E+03 0.  0.
         25    1    1    2    0    0  0.27157329597E+01 -0.36580079210E+02 -0.15419924654E+03  0.20186105378E+03  0.12500000000E+03 0.  0.
</event>
<event>
 5    0  0.5547141E-005  0.2900130E+03  0.7546771E-02  0.1090342E+00
         21   -1    0    0  502  501  0.00000000000E+00  0.00000000000E+00  0.61857283861E+03  0.61857283861E+03  0.00000000000E+00 0. -1.
         21   -1    0    0  501  502 -0.00000000000E+00 -0.00000000000E+00 -0.13597033090E+03  0.13597033090E+03  0.00000000000E+00 0. -1.
         25    1    1    2    0    0  0.35008822705E+02  0.32108042850E+02  0.26387835776E+02  0.13630063081E+03  0.12500000000E+03 0.  0.
         25    1    1    2    0    0  0.97427494875E+02  0.10099801113E+03  0.24886284265E+03  0.31185001116E+03  0.12500000000E+03 0.  0.
         25    1    1    2    0    0 -0.13243631758E+03 -0.13310605397E+03  0.20735182929E+03  0.30639252753E+03  0.12500000000E+03 0.  0.
</event>
<event>
 5    0  0.5547141E-005  0.4401131E+03  0.7546771E-02  0.1030712E+00
         21   -1    0    0  502  501  0.00000000000E+00  0.00000000000E+00  0.56367576835E+03  0.56367576835E+03  0.00000000000E+00 0.  1.
         21   -1    0    0  501  502 -0.00000000000E+00 -0.00000000000E+00 -0.34363646583E+03  0.34363646583E+03  0.00000000000E+00 0.  1.
         25    1    1    2    0    0  0.15576489870E+02  0.99252868778E+02  0.59914287516E+02  0.17119719871E+03  0.12500000000E+03 0.  0.
         25    1    1    2    0    0  0.21636018903E+03 -0.60252465302E+02 -0.17282836429E+03  0.30973655657E+03  0.12500000000E+03 0.  0.
         25    1    1    2    0    0 -0.23193667890E+03 -0.39000403476E+02  0.33295337930E+03  0.42637847891E+03  0.12500000000E+03 0.  0.
</event>
<event>
 5    0  0.5547141E-005  0.3246704E+03  0.7546771E-02  0.1073520E+00
         21   -1    0    0  502  501  0.00000000000E+00  0.00000000000E+00  0.19450716294E+03  0.19450716294E+03  0.00000000000E+00 0.  1.
         21   -1    0    0  501  502 -0.00000000000E+00 -0.00000000000E+00 -0.54193816915E+03  0.54193816915E+03  0.00000000000E+00 0.  1.
         25    1    1    2    0    0  0.30712674193E+02 -0.20155502092E+03 -0.26021962855E+03  0.35342177338E+03  0.12500000000E+03 0.  0.
         25    1    1    2    0    0 -0.25057651947E+02  0.53724996377E+02 -0.12411811493E+03  0.18586168946E+03  0.12500000000E+03 0.  0.
         25    1    1    2    0    0 -0.56550222453E+01  0.14783002454E+03  0.36906737265E+02  0.19716186925E+03  0.12500000000E+03 0.  0.
</event>
<event>
 5    0  0.5547141E-005  0.3548245E+03  0.7546771E-02  0.1060652E+00
         21   -1    0    0  502  501  0.00000000000E+00  0.00000000000E+00  0.43657401811E+03  0.43657401811E+03  0.00000000000E+00 0. -1.
         21   -1    0    0  501  502 -0.00000000000E+00 -0.00000000000E+00 -0.28838269542E+03  0.28838269542E+03  0.00000000000E+00 0. -1.
         25    1    1    2    0    0  0.49764856821E+02  0.11430591061E+03 -0.16717793496E+03  0.24313750042E+03  0.12500000000E+03 0.  0.
         25    1    1    2    0    0  0.97290134335E+01 -0.90717099388E+02  0.21659614406E+02  0.15626383049E+03  0.12500000000E+03 0.  0.
         25    1    1    2    0    0 -0.59493870254E+02 -0.23588811217E+02  0.29370964324E+03  0.32555538261E+03  0.12500000000E+03 0.  0.
</event>
<event>
 5    0  0.5547141E-005  0.3613834E+03  0.7546771E-02  0.1058037E+00
         21   -1    0    0  502  501  0.00000000000E+00  0.00000000000E+00  0.23701164718E+04  0.23701164718E+04  0.00000000000E+00 0.  1.
         21   -1    0    0  501  502 -0.00000000000E+00 -0.00000000000E+00 -0.55101920690E+02  0.55101920690E+02  0.00000000000E+00 0.  1.
         25    1    1    2    0    0  0.44706539512E+02  0.13658451769E+03  0.10065668124E+04  0.10244294768E+04  0.12500000000E+03 0.  0.
         25    1    1    2    0    0 -0.17971161890E+03  0.57948533562E+02  0.70832749336E+03  0.74364449595E+03  0.12500000000E+03 0.  0.
         25    1    1    2    0    0  0.13500507938E+03 -0.19453305125E+03  0.60012024532E+03  0.65714441969E+03  0.12500000000E+03 0.  0.
</event>
<event>
 5    0  0.5547141E-005  0.3200888E+03  0.7546771E-02  0.1075608E+00
         21   -1    0    0  502  501  0.00000000000E+00  0.00000000000E+00  0.67765861844E+02  0.67765861844E+02  0.00000000000E+00 0.  1.
         21   -1    0    0  501  502 -0.00000000000E+00 -0.00000000000E+00 -0.15119241345E+04  0.15119241345E+04  0.00000000000E+00 0.  1.
         25    1    1    2    0    0  0.12655479032E+03  0.54542568762E+01 -0.14166759300E+03  0.22746553756E+03  0.12500000000E+03 0.  0.
         25    1    1    2    0    0  0.37759909837E+02  0.59594988190E+02 -0.61162716638E+03  0.62824371390E+03  0.12500000000E+03 0.  0.
         25    1    1    2    0    0 -0.16431470016E+03 -0.65049245066E+02 -0.69086351327E+03  0.72398074487E+03  0.12500000000E+03 0.  0.
</event>
<event>
 5    0  0.5547141E-005  0.2818485E+03  0.7546771E-02  0.1094684E+00
         21   -1    0    0  502  501  0.00000000000E+00  0.00000000000E+00  0.31616179226E+03  0.31616179226E+03  0.00000000000E+00 0.  1.
         21   -1    0    0  501  502 -0.00000000000E+00 -0.00000000000E+00 -0.25125928557E+03  0.25125928557E+03  0.00000000000E+00 0.  1.
         25    1    1    2    0    0 -0.11126480600E+03  0.15966739279E+02  0.18306719421E+03  0.24854253442E+03  0.12500000000E+03 0.  0.
         25    1    1    2    0    0  0.97799054121E+02 -0.36249339718E+02 -0.34235450702E+02  0.16636025878E+03  0.12500000000E+03 0.  0.
         25    1    1    2    0    0  0.13465751884E+02  0.20282600439E+02 -0.83929236823E+02  0.15251828464E+03  0.12500000000E+03 0.  0.
</event>
<event>
 5    0  0.5547141E-005  0.6013944E+03  0.7546771E-02  0.9902517E-01
         21   -1    0    0  502  501  0.00000000000E+00  0.00000000000E+00  0.27650442374E+03  0.27650442374E+03  0.00000000000E+00 0.  1.
         21   -1    0    0  501  502 -0.00000000000E+00 -0.00000000000E+00 -0.13080269946E+04  0.13080269946E+04  0.00000000000E+00 0.  1.
         25    1    1    2    0    0 -0.18338539852E+03 -0.28790622746E+03 -0.17009893308E+02  0.36391556256E+03  0.12500000000E+03 0.  0.
         25    1    1    2    0    0  0.13122893595E+03  0.94986173356E+01 -0.24267473789E+02  0.18309879204E+03  0.12500000000E+03 0.  0.
         25    1    1    2    0    0  0.52156462572E+02  0.27840761013E+03 -0.99024520378E+03  0.10375170637E+04  0.12500000000E+03 0.  0.
</event>
<event>
 5    0  0.5547141E-005  0.2737563E+03  0.7546771E-02  0.1099149E+00
         21   -1    0    0  502  501  0.00000000000E+00  0.00000000000E+00  0.32480285088E+03  0.32480285088E+03  0.00000000000E+00 0. -1.
         21   -1    0    0  501  502 -0.00000000000E+00 -0.00000000000E+00 -0.23073233516E+03  0.23073233516E+03  0.00000000000E+00 0. -1.
         25    1    1    2    0    0 -0.22193897868E+02  0.14953948079E+03  0.58690941156E+02  0.20475412570E+03  0.12500000000E+03 0.  0.
         25    1    1    2    0    0 -0.61031796810E+02 -0.53082541801E+02 -0.44275647322E+02  0.15533180425E+03  0.12500000000E+03 0.  0.
         25    1    1    2    0    0  0.83225694679E+02 -0.96456938990E+02  0.79655221888E+02  0.19544925609E+03  0.12500000000E+03 0.  0.
</event>
<event>
 5    0  0.5547141E-005  0.3278157E+03  0.7546771E-02  0.1072107E+00
         21   -1    0    0  502  501  0.00000000000E+00  0.00000000000E+00  0.32878590857E+03  0.32878590857E+03  0.00000000000E+00 0.  1.
         21   -1    0    0  501  502 -0.00000000000E+00 -0.00000000000E+00 -0.32684825662E+03  0.32684825662E+03  0.00000000000E+00 0.  1.
         25    1    1    2    0    0  0.11634749246E+03 -0.14557752225E+03  0.90570713317E+02  0.24198679323E+03  0.12500000000E+03 0.  0.
         25    1    1    2    0    0 -0.84565722652E+02 -0.46264893878E+02  0.18369565391E+02  0.15891583554E+03  0.12500000000E+03 0.  0.
         25    1    1    2    0    0 -0.31781769809E+02  0.19184241612E+03 -0.10700262675E+03  0.25473153642E+03  0.12500000000E+03 0.  0.
</event>
<event>
 5    0  0.5547141E-005  0.2442284E+03  0.7546771E-02  0.1117008E+00
         21   -1    0    0  502  501  0.00000000000E+00  0.00000000000E+00  0.28563261408E+03  0.28563261408E+03  0.00000000000E+00 0.  1.
         21   -1    0    0  501  502 -0.00000000000E+00 -0.00000000000E+00 -0.20882600371E+03  0.20882600371E+03  0.00000000000E+00 0.  1.
         25    1    1    2    0    0  0.94469201182E+02  0.27017936351E+02  0.84761306725E+02  0.18017735145E+03  0.12500000000E+03 0.  0.
         25    1    1    2    0    0 -0.81190551368E+02  0.99872897917E+01  0.66553920596E+02  0.16354227568E+03  0.12500000000E+03 0.  0.
         25    1    1    2    0    0 -0.13278649814E+02 -0.37005226143E+02 -0.74508616952E+02  0.15073899065E+03  0.12500000000E+03 0.  0.
</event>
<event>
 5    0  0.5547141E-005  0.3083144E+03  0.7546771E-02  0.1081157E+00
         21   -1    0    0  502  501  0.00000000000E+00  0.00000000000E+00  0.92849043595E+03  0.92849043595E+03  0.00000000000E+00 0.  1.
         21   -1    0    0  501  502 -0.00000000000E+00 -0.00000000000E+00 -0.10237880327E+03  0.10237880327E+03  0.00000000000E+00 0.  1.
         25    1    1    2    0    0  0.19278864271E+02 -0.16165392785E+03  0.18657022935E+03  0.27737540892E+03  0.12500000000E+03 0.  0.
         25    1    1    2    0    0 -0.34597855188E+02 -0.11754168256E+02  0.44634035478E+03  0.46495148603E+03  0.12500000000E+03 0.  0.
         25    1    1    2    0    0  0.15318990917E+02  0.17340809610E+03  0.19320104855E+03  0.28854234427E+03  0.12500000000E+03 0.  0.
</event>
<event>
 5    0  0.5547141E-005  0.3301544E+03  0.7546771E-02  0.1071069E+00
         21   -1    0    0  502  501  0.00000000000E+00  0.00000000000E+00  0.84723510395E+03  0.84723510395E+03  0.00000000000E+00 0.  1.
         21   -1    0    0  501  502 -0.00000000000E+00 -0.00000000000E+00 -0.12865602534E+03  0.12865602534E+03  0.00000000000E+00 0.  1.
         25    1    1    2    0    0  0.55926588607E+02  0.48332609370E+01 -0.76873100217E+01  0.13724153329E+03  0.12500000000E+03 0.  0.
         25    1    1    2    0    0  0.24941341564E+02  0.13530939822E+02  0.66395758009E+03  0.67621729127E+03  0.12500000000E+03 0.  0.
         25    1    1    2    0    0 -0.80867930170E+02 -0.18364200759E+02  0.62308808549E+02  0.16243230474E+03  0.12500000000E+03 0.  0.
</event>
<event>
 5    0  0.5547141E-005  0.4651563E+03  0.7546771E-02  0.1023296E+00
         21   -1    0    0  502  501  0.00000000000E+00  0.00000000000E+00  0.52759162046E+03  0.52759162046E+03  0.00000000000E+00 0. -1.
         21   -1    0    0  501  502 -0.00000000000E+00 -0.00000000000E+00 -0.41010963503E+03  0.41010963503E+03  0.00000000000E+00 0. -1.
         25    1    1    2    0    0  0.23499380414E+03  0.10565902633E+03  0.28613486032E+03  0.40482598251E+03  0.12500000000E+03 0.  0.
         25    1    1    2    0    0 -0.28437998442E+03 -0.49473509414E+02 -0.61194347281E+01  0.31461413057E+03  0.12500000000E+03 0.  0.
         25    1    1    2    0    0  0.49386180281E+02 -0.56185516912E+02 -0.16253344016E+03  0.21826114241E+03  0.12500000000E+03 0.  0.
</event>
<event>
 5    0  0.5547141E-005  0.2396066E+03  0.7546771E-02  0.1120055E+00
         21   -1    0    0  502  501  0.00000000000E+00  0.00000000000E+00  0.24370047985E+03  0.24370047985E+03  0.00000000000E+00 0. -1.
         21   -1    0    0  501  502 -0.00000000000E+00 -0.00000000000E+00 -0.23558144771E+03  0.23558144771E+03  0.00000000000E+00 0. -1.
         25    1    1    2    0    0 -0.28994313512E+02 -0.19128745040E+01  0.23552599692E+02  0.13047625936E+03  0.12500000000E+03 0.  0.
         25    1    1    2    0    0 -0.17009721681E+01  0.88408081396E+02 -0.89067969898E+02  0.17713550018E+03  0.12500000000E+03 0.  0.
         25    1    1    2    0    0  0.30695285680E+02 -0.86495206892E+02  0.73634402353E+02  0.17167016802E+03  0.12500000000E+03 0.  0.
</event>
<event>
 5    0  0.5771551E-005  0.2618731E+03  0.7546771E-02  0.1106023E+00
         21   -1    0    0  502  501  0.00000000000E+00  0.00000000000E+00  0.45995090474E+03  0.45995090474E+03  0.00000000000E+00 0. -1.
         21   -1    0    0  501  502 -0.00000000000E+00 -0.00000000000E+00 -0.14909745068E+03  0.14909745068E+03  0.00000000000E+00 0. -1.
         25    1    1    2    0    0  0.88014192505E+02 -0.10061774592E+03  0.24475855176E+03  0.30561769834E+03  0.12500000000E+03 0.  0.
         25    1    1    2    0    0 -0.29792052822E+02  0.38160678636E+02 -0.91931632878E+01  0.13436263639E+03  0.12500000000E+03 0.  0.
         25    1    1    2    0    0 -0.58222139682E+02  0.62457067287E+02  0.75288065587E+02  0.16906802070E+03  0.12500000000E+03 0.  0.
</event>
<event>
 5    0  0.5547141E-005  0.3026984E+03  0.7546771E-02  0.1083899E+00
         21   -1    0    0  502  501  0.00000000000E+00  0.00000000000E+00  0.27879479393E+03  0.27879479393E+03  0.00000000000E+00 0. -1.
         21   -1    0    0  501  502 -0.00000000000E+00 -0.00000000000E+00 -0.32865145333E+03  0.32865145333E+03  0.00000000000E+00 0. -1.
         25    1    1    2    0    0 -0.30496483729E+01 -0.19203581976E+03  0.71649208677E+02  0.24009511768E+03  0.12500000000E+03 0.  0.
         25    1    1    2    0    0 -0.58574729976E+01  0.33780950642E+02  0.39537119474E+01  0.12967688481E+03  0.12500000000E+03 0.  0.
         25    1    1    2    0    0  0.89071213704E+01  0.15825486912E+03 -0.12545958002E+03  0.23767424478E+03  0.12500000000E+03 0.  0.
</event>
<event>
 5    0  0.5547141E-005  0.2413612E+03  0.7546771E-02  0.1118889E+00
         21   -1    0    0  502  501  0.00000000000E+00  0.00000000000E+00  0.31441299817E+02  0.31441299817E+02  0.00000000000E+00 0. -1.
         21   -1    0    0  501  502 -0.00000000000E+00 -0.00000000000E+00 -0.18528253603E+04  0.18528253603E+04  0.00000000000E+00 0. -1.
         25    1    1    2    0    0 -0.10440810451E+03 -0.38338969667E+02 -0.90900939855E+03  0.92428026893E+03  0.12500000000E+03 0.  0.
         25    1    1    2    0    0  0.27552587044E+02  0.27351804180E+01 -0.59372025971E+03  0.60736757656E+03  0.12500000000E+03 0.  0.
         25    1    1    2    0    0  0.76855517467E+02  0.35603789249E+02 -0.31865440223E+03  0.35261881464E+03  0.12500000000E+03 0.  0.
</event>
<event>
 5    0  0.5547141E-005  0.3140810E+03  0.7546771E-02  0.1078406E+00
         21   -1    0    0  502  501  0.00000000000E+00  0.00000000000E+00  0.50868814655E+02  0.50868814655E+02  0.00000000000E+00 0. -1.
         21   -1    0    0  501  502 -0.00000000000E+00 -0.00000000000E+00 -0.19392401343E+04  0.19392401343E+04  0.00000000000E+00 0. -1.
         25    1    1    2    0    0  0.29871669461E+02  0.13337147163E+03 -0.78728448226E+03  0.80877816618E+03  0.12500000000E+03 0.  0.
         25    1    1    2    0    0 -0.15766718576E+03  0.50427702801E+01 -0.48733454291E+03  0.52726115703E+03  0.12500000000E+03 0.  0.
         25    1    1    2    0    0  0.12779551630E+03 -0.13841424191E+03 -0.61375229442E+03  0.65406962569E+03  0.12500000000E+03 0.  0.
</event>
<event>
 5    0  0.5547141E-005  0.3438386E+03  0.7546771E-02  0.1065173E+00
         21   -1    0    0  502  501  0.00000000000E+00  0.00000000000E+00  0.66095948410E+03  0.66095948410E+03  0.00000000000E+00 0. -1.
         21   -1    0    0  501  502 -0.00000000000E+00 -0.00000000000E+00 -0.17886867952E+03  0.17886867952E+03  0.00000000000E+00 0.  1.
         25    1    1    2    0    0  0.21397266417E+03  0.29983171391E+02  0.28702841348E+02  0.25126110857E+03  0.12500000000E+03 0.  0.
         25    1    1    2    0    0 -0.44072886422E+01 -0.39230239786E+02  0.16169728955E+03  0.20815727072E+03  0.12500000000E+03 0.  0.
         25    1    1    2    0    0 -0.20956537553E+03  0.92470683947E+01  0.29169067369E+03  0.38040978433E+03  0.12500000000E+03 0.  0.
</event>
<event>
 5    0  0.5547141E-005  0.3000023E+03  0.7546771E-02  0.1085239E+00
         21   -1    0    0  502  501  0.00000000000E+00  0.00000000000E+00  0.10127709194E+04  0.10127709194E+04  0.00000000000E+00 0.  1.
         21   -1    0    0  501  502 -0.00000000000E+00 -0.00000000000E+00 -0.88866480846E+02  0.88866480846E+02  0.00000000000E+00 0.  1.
         25    1    1    2    0    0 -0.68500549936E+02  0.45246293063E+02  0.28398553641E+03  0.32095535089E+03  0.12500000000E+03 0.  0.
         25    1    1    2    0    0 -0.14305242186E+03 -0.40246826485E+02  0.21426590265E+03  0.28916894626E+03  0.12500000000E+03 0.  0.
         25    1    1    2    0    0  0.21155297179E+03 -0.49994665779E+01  0.42565299954E+03  0.49151310314E+03  0.12500000000E+03 0.  0.
</event>
<event>
 5    0  0.5547141E-005  0.3121528E+03  0.7546771E-02  0.1079319E+00
         21   -1    0    0  502  501  0.00000000000E+00  0.00000000000E+00  0.12347750957E+03  0.12347750957E+03  0.00000000000E+00 0. -1.
         21   -1    0    0  501  502 -0.00000000000E+00 -0.00000000000E+00 -0.78912642602E+03  0.78912642602E+03  0.00000000000E+00 0. -1.
         25    1    1    2    0    0  0.99057905650E+02 -0.12492323609E+03 -0.65737515388E+02  0.21298991646E+03  0.12500000000E+03 0.  0.
         25    1    1    2    0    0 -0.10488688536E+03 -0.23500592245E+02 -0.25020143856E+03  0.29963193490E+03  0.12500000000E+03 0.  0.
         25    1    1    2    0    0  0.58289797056E+01  0.14842382833E+03 -0.34970996251E+03  0.39998208422E+03  0.12500000000E+03 0.  0.
</event>
<event>
 5    0  0.5547141E-005  0.2807404E+03  0.7546771E-02  0.1095285E+00
         21   -1    0    0  502  501  0.00000000000E+00  0.00000000000E+00  0.11765019856E+04  0.11765019856E+04  0.00000000000E+00 0. -1.
         21   -1    0    0  501  502 -0.00000000000E+00 -0.00000000000E+00 -0.66991128315E+02  0.66991128315E+02  0.00000000000E+00 0. -1.
         25    1    1    2    0    0  0.98875673775E+02 -0.28876495800E+01  0.57372665639E+03  0.59545949790E+03  0.12500000000E+03 0.  0.
         25    1    1    2    0    0 -0.85855092960E+02 -0.33880151286E+02  0.48208261424E+03  0.50650528979E+03  0.12500000000E+03 0.  0.
         25    1    1    2    0    0 -0.13020580815E+02  0.36767800866E+02  0.53701586607E+02  0.14152832617E+03  0.12500000000E+03 0.  0.
</event>
<event>
 5    0  0.5547141E-005  0.3820405E+03  0.7546771E-02  0.1050182E+00
         21   -1    0    0  502  501  0.00000000000E+00  0.00000000000E+00  0.11740623890E+03  0.11740623890E+03  0.00000000000E+00 0.  1.
         21   -1    0    0  501  502 -0.00000000000E+00 -0.00000000000E+00 -0.12431615386E+04  0.12431615386E+04  0.00000000000E+00 0.  1.
         25    1    1    2    0    0 -0.96066032196E+00  0.12121315201E+03 -0.57231640235E+03  0.59821786624E+03  0.12500000000E+03 0.  0.
         25    1    1    2    0    0 -0.46977000999E+02  0.97285838675E+02 -0.46137112910E+03  0.49006090621E+03  0.12500000000E+03 0.  0.
         25    1    1    2    0    0  0.47937661321E+02 -0.21849899069E+03 -0.92067768211E+02  0.27228900501E+03  0.12500000000E+03 0.  0.
</event>
<event>
 5    0  0.6123772E-005  0.4670705E+03  0.7546771E-02  0.1022750E+00
         21   -1    0    0  502  501  0.00000000000E+00  0.00000000000E+00  0.55246419276E+03  0.55246419276E+03  0.00000000000E+00 0. -1.
         21   -1    0    0  501  502 -0.00000000000E+00 -0.00000000000E+00 -0.39487600506E+03  0.39487600506E+03  0.00000000000E+00 0. -1.
         25    1    1    2    0    0 -0.19151742408E+03 -0.17781708765E+03  0.13754194183E+03  0.32068773932E+03  0.12500000000E+03 0.  0.
         25    1    1    2    0    0  0.63638517075E+01  0.97122480022E+02 -0.23160690570E+03  0.28060654572E+03  0.12500000000E+03 0.  0.
         25    1    1    2    0    0  0.18515357238E+03  0.80694607627E+02  0.25165315156E+03  0.34604591278E+03  0.12500000000E+03 0.  0.
</event>
<event>
 5    0  0.5547141E-005  0.3055208E+03  0.7546771E-02  0.1082513E+00
         21   -1    0    0  502  501  0.00000000000E+00  0.00000000000E+00  0.43476754189E+02  0.43476754189E+02  0.00000000000E+00 0.  1.
         21   -1    0    0  501  502 -0.00000000000E+00 -0.00000000000E+00 -0.21469630287E+04  0.21469630287E+04  0.00000000000E+00 0.  1.
         25    1    1    2    0    0 -0.89332952338E+02  0.88882184398E+02 -0.15184383033E+04  0.15287773873E+04  0.12500000000E+03 0.  0.
         25    1    1    2    0    0  0.79841136415E+02 -0.61094076611E+02 -0.43796268914E+03  0.46641549110E+03  0.12500000000E+03 0.  0.
         25    1    1    2    0    0  0.94918159228E+01 -0.27788107787E+02 -0.14708528213E+03  0.19524690451E+03  0.12500000000E+03 0.  0.
</event>
<event>
 5    0  0.5547141E-005  0.2714309E+03  0.7546771E-02  0.1100463E+00
         21   -1    0    0  502  501  0.00000000000E+00  0.00000000000E+00  0.31415888713E+04  0.31415888713E+04  0.00000000000E+00 0.  1.
         21   -1    0    0  501  502 -0.00000000000E+00 -0.00000000000E+00 -0.23451425525E+02  0.23451425525E+02  0.00000000000E+00 0.  1.
         25    1    1    2    0    0 -0.20208289451E+02 -0.32583885139E+02  0.82347821176E+03  0.83379340953E+03  0.12500000000E+03 0.  0.
         25    1    1    2    0    0 -0.40881791394E+02  0.86585543960E+01  0.20018363278E+04  0.20061704750E+04  0.12500000000E+03 0.  0.
         25    1    1    2    0    0  0.61090080844E+02  0.23925330743E+02  0.29282290619E+03  0.32507641227E+03  0.12500000000E+03 0.  0.
</event>
<event>
 5    0  0.5547141E-005  0.2982540E+03  0.7546771E-02  0.1086117E+00
         21   -1    0    0  502  501  0.00000000000E+00  0.00000000000E+00  0.83338427096E+02  0.83338427096E+02  0.00000000000E+00 0.  1.
         21   -1    0    0  501  502 -0.00000000000E+00 -0.00000000000E+00 -0.10673999925E+04  0.10673999925E+04  0.00000000000E+00 0.  1.
         25    1    1    2    0    0  0.79559892778E+02  0.10488961489E+03 -0.25325834403E+03  0.31160294715E+03  0.12500000000E+03 0.  0.
         25    1    1    2    0    0  0.78715284617E+02 -0.10742967612E+03 -0.19774531288E+03  0.26919405660E+03  0.12500000000E+03 0.  0.
         25    1    1    2    0    0 -0.15827517739E+03  0.25400612248E+01 -0.53305790848E+03  0.56994141584E+03  0.12500000000E+03 0.  0.
</event>
<event>
 5    0  0.5547141E-005  0.2900568E+03  0.7546771E-02  0.1090319E+00
         21   -1    0    0  502  501  0.00000000000E+00  0.00000000000E+00  0.14558112539E+03  0.14558112539E+03  0.00000000000E+00 0.  1.
         21   -1    0    0  501  502 -0.00000000000E+00 -0.00000000000E+00 -0.57791106504E+03  0.57791106504E+03  0.00000000000E+00 0.  1.
         25    1    1    2    0    0 -0.12720329043E+03 -0.10801580646E+03 -0.18668041384E+03  0.27986187388E+03  0.12500000000E+03 0.  0.
         25    1    1    2    0    0  0.37952058273E+02  0.12842430760E+03 -0.42355404401E+02  0.18802165245E+03  0.12500000000E+03 0.  0.
         25    1    1    2    0    0  0.89251232158E+02 -0.20408501135E+02 -0.20329412141E+03  0.25560866409E+03  0.12500000000E+03 0.  0.
</event>
<event>
 5    0  0.5547141E-005  0.2489854E+03  0.7546771E-02  0.1113948E+00
         21   -1    0    0  502  501  0.00000000000E+00  0.00000000000E+00  0.14675638772E+04  0.14675638772E+04  0.00000000000E+00 0. -1.
         21   -1    0    0  501  502 -0.00000000000E+00 -0.00000000000E+00 -0.42242596862E+02  0.42242596862E+02  0.00000000000E+00 0. -1.
         25    1    1    2    0    0 -0.12531656758E+03 -0.36420394941E+02  0.33616996123E+03  0.38166206270E+03  0.12500000000E+03 0.  0.
         25    1    1    2    0    0  0.16668835858E+02  0.18106445014E+02  0.46682961959E+03  0.48390142298E+03  0.12500000000E+03 0.  0.
         25    1    1    2    0    0  0.10864773172E+03  0.18313949927E+02  0.62232169951E+03  0.64424298836E+03  0.12500000000E+03 0.  0.
</event>
<event>
 5    0  0.5547141E-005  0.3405440E+03  0.7546771E-02  0.1066564E+00
         21   -1    0    0  502  501  0.00000000000E+00  0.00000000000E+00  0.83947710701E+02  0.83947710701E+02  0.00000000000E+00 0.  1.
         21   -1    0    0  501  502 -0.00000000000E+00 -0.00000000000E+00 -0.13814578722E+04  0.13814578722E+04  0.00000000000E+00 0.  1.
         25    1    1    2    0    0  0.11274644819E+03  0.62149085933E+01 -0.16688036732E+03  0.23711694091E+03  0.12500000000E+03 0.  0.
         25    1    1    2    0    0 -0.39894384634E+02 -0.40350215333E+02 -0.64197139835E+02  0.15154528883E+03  0.12500000000E+03 0.  0.
         25    1    1    2    0    0 -0.72852063561E+02  0.34135306740E+02 -0.10664326544E+04  0.10767433532E+04  0.12500000000E+03 0.  0.
</event>
<event>
 5    0  0.5547141E-005  0.2401163E+03  0.7546771E-02  0.1119715E+00
         21   -1    0    0  502  501  0.00000000000E+00  0.00000000000E+00  0.13247414321E+03  0.13247414321E+03  0.00000000000E+00 0.  1.
         21   -1    0    0  501  502 -0.00000000000E+00 -0.00000000000E+00 -0.43522322479E+03  0.43522322479E+03  0.00000000000E+00 0.  1.
         25    1    1    2    0    0 -0.95501357156E+02  0.49974846254E+01 -0.33993045719E+02  0.16101556207E+03  0.12500000000E+03 0.  0.
         25    1    1    2    0    0  0.11262209750E+03  0.18697878466E+02 -0.19651896195E+03  0.25938012628E+03  0.12500000000E+03 0.  0.
         25    1    1    2    0    0 -0.17120740342E+02 -0.23695363092E+02 -0.72237073909E+02  0.14730167965E+03  0.12500000000E+03 0.  0.
</event>
<event>
 5    0  0.5905642E-005  0.2889435E+03  0.7546771E-02  0.1090902E+00
         21   -1    0    0  502  501  0.00000000000E+00  0.00000000000E+00  0.23554285420E+03  0.23554285420E+03  0.00000000000E+00 0.  1.
         21   -1    0    0  501  502 -0.00000000000E+00 -0.00000000000E+00 -0.35445083914E+03  0.35445083914E+03  0.00000000000E+00 0. -1.
         25    1    1    2    0    0 -0.69346618535E+02 -0.58058211055E+02 -0.80224265845E+02  0.17389836745E+03  0.12500000000E+03 0.  0.
         25    1    1    2    0    0  0.18386206872E+03  0.91283065535E+02 -0.38124590178E+02  0.24334408302E+03  0.12500000000E+03 0.  0.
         25    1    1    2    0    0 -0.11451545018E+03 -0.33224854481E+02 -0.55912892479E+00  0.17275124286E+03  0.12500000000E+03 0.  0.
</event>
<event>
 5    0  0.6041236E-005  0.2464186E+03  0.7546771E-02  0.1115589E+00
         21   -1    0    0  502  501  0.00000000000E+00  0.00000000000E+00  0.52221544277E+03  0.52221544277E+03  0.00000000000E+00 0.  1.
         21   -1    0    0  501  502 -0.00000000000E+00 -0.00000000000E+00 -0.11627789848E+03  0.11627789848E+03  0.00000000000E+00 0.  1.
         25    1    1    2    0    0  0.37037163444E+02  0.42384080554E+02  0.24238144813E+03  0.27846351315E+03  0.12500000000E+03 0.  0.
         25    1    1    2    0    0 -0.67147373942E+02 -0.30623422066E+02 -0.79257752811E+01  0.14537668905E+03  0.12500000000E+03 0.  0.
         25    1    1    2    0    0  0.30110210498E+02 -0.11760658488E+02  0.17148187145E+03  0.21465313904E+03  0.12500000000E+03 0.  0.
</event>
<event>
 5    0  0.5547141E-005  0.2902643E+03  0.7546771E-02  0.1090211E+00
         21   -1    0    0  502  501  0.00000000000E+00  0.00000000000E+00  0.18672515304E+03  0.18672515304E+03  0.00000000000E+00 0.  1.
         21   -1    0    0  501  502 -0.00000000000E+00 -0.00000000000E+00 -0.45121608042E+03  0.45121608042E+03  0.00000000000E+00 0.  1.
         25    1    1    2    0    0  0.53101566963E+02  0.63630049796E+02  0.49817796121E+02  0.15803598470E+03  0.12500000000E+03 0.  0.
         25    1    1    2    0    0  0.14701551241E+02 -0.90863526437E+02 -0.29564102261E+03  0.33391755015E+03  0.12500000000E+03 0.  0.
         25    1    1    2    0    0 -0.67803118203E+02  0.27233476641E+02 -0.18667700888E+02  0.14598769861E+03  0.12500000000E+03 0.  0.
</event>
<event>
 5    0  0.5547141E-005  0.2395936E+03  0.7546771E-02  0.1120064E+00
         21   -1    0    0  502  501  0.00000000000E+00  0.00000000000E+00  0.21219616846E+03  0.21219616846E+03  0.00000000000E+00 0.  1.
         21   -1    0    0  501  502 -0.00000000000E+00 -0.00000000000E+00 -0.27052845708E+03  0.27052845708E+03  0.00000000000E+00 0.  1.
         25    1    1    2    0    0 -0.26448120329E+02  0.82091719574E+02 -0.11851123277E+03  0.19263557767E+03  0.12500000000E+03 0.  0.
         25    1    1    2    0    0  0.24461686298E+01  0.10678673851E+02  0.37486294722E+02  0.13095892527E+03  0.12500000000E+03 0.  0.
         25    1    1    2    0    0  0.24001951699E+02 -0.92770393424E+02  0.22692649417E+02  0.15913012260E+03  0.12500000000E+03 0.  0.
</event>
<event>
 5    0  0.5547141E-005  0.3945185E+03  0.7546771E-02  0.1045694E+00
         21   -1    0    0  502  501  0.00000000000E+00  0.00000000000E+00  0.72238664084E+03  0.72238664084E+03  0.00000000000E+00 0.  1.
         21   -1    0    0  501  502 -0.00000000000E+00 -0.00000000000E+00 -0.21545920347E+03  0.21545920347E+03  0.00000000000E+00 0.  1.
         25    1    1    2    0    0 -0.13964526467E+03  0.24442657320E+03  0.37226209275E+03  0.48316582591E+03  0.12500000000E+03 0.  0.
         25    1    1    2    0    0 -0.16337466697E+02 -0.33515907352E+02  0.95069860587E+02  0.16141098865E+03  0.12500000000E+03 0.  0.
         25    1    1    2    0    0  0.15598273137E+03 -0.21091066585E+03  0.39595484036E+02  0.29326902975E+03  0.12500000000E+03 0.  0.
</event>
<event>
 5    0  0.5547141E-005  0.4720980E+03  0.7546771E-02  0.1021330E+00
         21   -1    0    0  502  501  0.00000000000E+00  0.00000000000E+00  0.11553806248E+04  0.11553806248E+04  0.00000000000E+00 0. -1.
         21   -1    0    0  501  502 -0.00000000000E+00 -0.00000000000E+00 -0.19290312605E+03  0.19290312605E+03  0.00000000000E+00 0. -1.
         25    1    1    2    0    0 -0.10930798954E+03 -0.19425861993E+03 -0.20075102054E+02  0.25634480240E+03  0.12500000000E+03 0.  0.
         25    1    1    2    0    0  0.19134686192E+03  0.33872161730E+01  0.39580013172E+03  0.45706437081E+03  0.12500000000E+03 0.  0.
         25    1    1    2    0    0 -0.82038872378E+02  0.19087140376E+03  0.58675246907E+03  0.63487457762E+03  0.12500000000E+03 0.  0.
</event>
<event>
 5    0  0.5547141E-005  0.2551018E+03  0.7546771E-02  0.1110122E+00
         21   -1    0    0  502  501  0.00000000000E+00  0.00000000000E+00  0.57187355811E+03  0.57187355811E+03  0.00000000000E+00 0. -1.
         21   -1    0    0  501  502 -0.00000000000E+00 -0.00000000000E+00 -0.11379602237E+03  0.11379602237E+03  0.00000000000E+00 0. -1.
         25    1    1    2    0    0  0.41017206733E+02  0.95419317135E+02  0.90662796375E+02  0.18609674897E+03  0.12500000000E+03 0.  0.
         25    1    1    2    0    0 -0.12065334629E+03 -0.73156253715E+02  0.19817299034E+03  0.27350795515E+03  0.12500000000E+03 0.  0.
         25    1    1    2    0    0  0.79636139555E+02 -0.22263063420E+02  0.16924174902E+03  0.22606487637E+03  0.12500000000E+03 0.  0.
</event>
<event>
 5    0  0.5547141E-005  0.3897498E+03  0.7546771E-02  0.1047388E+00
         21   -1    0    0  502  501  0.00000000000E+00  0.00000000000E+00  0.39474969404E+03  0.39474969404E+03  0.00000000000E+00 0. -1.
         21   -1    0    0  501  502 -0.00000000000E+00 -0.00000000000E+00 -0.38481316064E+03  0.38481316064E+03  0.00000000000E+00 0. -1.
         25    1    1    2    0    0  0.25518815411E+01 -0.98929408231E+02  0.13569215368E+02  0.16000832328E+03  0.12500000000E+03 0.  0.
         25    1    1    2    0    0  0.14192681482E+03 -0.16633516169E+03 -0.11132639501E+03  0.27537097342E+03  0.12500000000E+03 0.  0.
         25    1    1    2    0    0 -0.14447869636E+03  0.26526456992E+03  0.10769371304E+03  0.34418355798E+03  0.12500000000E+03 0.  0.
</event>
<event>
 5    0  0.5547141E-005  0.2539558E+03  0.7546771E-02  0.1110830E+00
         21   -1    0    0  502  501  0.00000000000E+00  0.00000000000E+00  0.34653751659E+03  0.34653751659E+03  0.00000000000E+00 0.  1.
         21   -1    0    0  501  502 -0.00000000000E+00 -0.00000000000E+00 -0.18610835623E+03  0.18610835623E+03  0.00000000000E+00 0.  1.
         25    1    1    2    0    0 -0.21084259773E+02 -0.71546028026E+02 -0.23723424601E+02  0.14748281599E+03  0.12500000000E+03 0.  0.
         25    1    1    2    0    0  0.25557510921E+02  0.14279862394E+03  0.12957588795E+03  0.23121320053E+03  0.12500000000E+03 0.  0.
         25    1    1    2    0    0 -0.44732511478E+01 -0.71252595913E+02  0.54576697017E+02  0.15394985631E+03  0.12500000000E+03 0.  0.
</event>
<event>
 5    0  0.5547141E-005  0.3142160E+03  0.7546771E-02  0.1078342E+00
         21   -1    0    0  502  501  0.00000000000E+00  0.00000000000E+00  0.15144082727E+03  0.15144082727E+03  0.00000000000E+00 0. -1.
         21   -1    0    0  501  502 -0.00000000000E+00 -0.00000000000E+00 -0.65194895299E+03  0.65194895299E+03  0.00000000000E+00 0. -1.
         25    1    1    2    0    0 -0.12288597028E+03 -0.51028306940E+02 -0.42247835203E+03  0.46023668664E+03  0.12500000000E+03 0.  0.
         25    1    1    2    0    0  0.11486137531E+03  0.40540429845E+01 -0.11412289668E+03  0.20459375931E+03  0.12500000000E+03 0.  0.
         25    1    1    2    0    0  0.80245949719E+01  0.46974263955E+02  0.36093122980E+02  0.13855933431E+03  0.12500000000E+03 0.  0.
</event>
<event>
 5    0  0.5547141E-005  0.3002008E+03  0.7546771E-02  0.1085140E+00
         21   -1    0    0  502  501  0.00000000000E+00  0.00000000000E+00  0.11706681423E+03  0.11706681423E+03  0.00000000000E+00 0. -1.
         21   -1    0    0  501  502 -0.00000000000E+00 -0.00000000000E+00 -0.76982142757E+03  0.76982142757E+03  0.00000000000E+00 0. -1.
         25    1    1    2    0    0 -0.10760609210E+03 -0.12279110115E+03 -0.20254215417E+03  0.28862614191E+03  0.12500000000E+03 0.  0.
         25    1    1    2    0    0  0.11196810865E+03  0.19600314551E+02 -0.66276859155E+02  0.18149008718E+03  0.12500000000E+03 0.  0.
         25    1    1    2    0    0 -0.43620165482E+01  0.10319078660E+03 -0.38393560002E+03  0.41677201272E+03  0.12500000000E+03 0.  0.
</event>
<event>
 5    0  0.5547141E-005  0.2767228E+03  0.7546771E-02  0.1097492E+00
         21   -1    0    0  502  501  0.00000000000E+00  0.00000000000E+00  0.24622353094E+03  0.24622353094E+03  0.00000000000E+00 0.  1.
         21   -1    0    0  501  502 -0.00000000000E+00 -0.00000000000E+00 -0.31099996137E+03  0.31099996137E+03  0.00000000000E+00 0.  1.
         25    1    1    2    0    0 -0.11323139036E+03 -0.10182644503E+03  0.11706638053E+02  0.19736265615E+03  0.12500000000E+03 0.  0.
         25    1    1    2    0    0  0.92798068848E+02  0.80847216934E+02  0.47126887613E+02  0.18164167364E+03  0.12500000000E+03 0.  0.
         25    1    1    2    0    0  0.20433321507E+02  0.20979228095E+02 -0.12360995610E+03  0.17821916251E+03  0.12500000000E+03 0.  0.
</event>
<event>
 5    0  0.5837545E-005  0.2864126E+03  0.7546771E-02  0.1092237E+00
         21   -1    0    0  502  501  0.00000000000E+00  0.00000000000E+00  0.12317505888E+04  0.12317505888E+04  0.00000000000E+00 0. -1.
         21   -1    0    0  501  502 -0.00000000000E+00 -0.00000000000E+00 -0.66598057093E+02  0.66598057093E+02  0.00000000000E+00 0. -1.
         25    1    1    2    0    0  0.15435296019E+02 -0.11742328610E+03  0.26604670716E+03  0.31691059760E+03  0.12500000000E+03 0.  0.
         25    1    1    2    0    0  0.12537984684E+03  0.15548885090E+02  0.36319609140E+03  0.40434919887E+03  0.12500000000E+03 0.  0.
         25    1    1    2    0    0 -0.14081514286E+03  0.10187440101E+03  0.53590973310E+03  0.57708884937E+03  0.12500000000E+03 0.  0.
</event>
<event>
 5    0  0.5547141E-005  0.2357413E+03  0.7546771E-02  0.1122663E+00
         21   -1    0    0  502  501  0.00000000000E+00  0.00000000000E+00  0.63537977336E+03  0.63537977336E+03  0.00000000000E+00 0.  1.
         21   -1    0    0  501  502 -0.00000000000E+00 -0.00000000000E+00 -0.87465746868E+02  0.87465746868E+02  0.00000000000E+00 0.  1.
         25    1    1    2    0    0 -0.10264719739E+03  0.76853534817E+01  0.23407777855E+03  0.28462768347E+03  0.12500000000E+03 0.  0.
         25    1    1    2    0    0  0.86484621423E+01  0.48212626466E+02  0.99726572250E+02  0.16724127021E+03  0.12500000000E+03 0.  0.
         25    1    1    2    0    0  0.93998735247E+02 -0.55897979947E+02  0.21410967569E+03  0.27097656654E+03  0.12500000000E+03 0.  0.
</event>
<event>
 5    0  0.5547141E-005  0.4520414E+03  0.7546771E-02  0.1027115E+00
         21   -1    0    0  502  501  0.00000000000E+00  0.00000000000E+00  0.13183886996E+04  0.13183886996E+04  0.00000000000E+00 0.  1.
         21   -1    0    0  501  502 -0.00000000000E+00 -0.00000000000E+00 -0.15499332585E+03  0.15499332585E+03  0.00000000000E+00 0.  1.
         25    1    1    2    0    0 -0.14079941503E+03 -0.72456390498E+02 -0.60653729751E+02  0.21066152646E+03  0.12500000000E+03 0.  0.
         25    1    1    2    0    0  0.82920122055E+02  0.49956423891E+02  0.47047960267E+03  0.49633400796E+03  0.12500000000E+03 0.  0.
         25    1    1    2    0    0  0.57879292977E+02  0.22499966608E+02  0.75356950078E+03  0.76638649098E+03  0.12500000000E+03 0.  0.
</event>
<event>
 5    0  0.5547141E-005  0.3848632E+03  0.7546771E-02  0.1049151E+00
         21   -1    0    0  502  501  0.00000000000E+00  0.00000000000E+00  0.11191822429E+03  0.11191822429E+03  0.00000000000E+00 0. -1.
         21   -1    0    0  501  502 -0.00000000000E+00 -0.00000000000E+00 -0.13234637081E+04  0.13234637081E+04  0.00000000000E+00 0. -1.
         25    1    1    2    0    0 -0.64877687103E+02 -0.20284756164E+03 -0.21079643784E+03  0.32467889638E+03  0.12500000000E+03 0.  0.
         25    1    1    2    0    0  0.96594005730E+02 -0.32134379750E+01 -0.72972032184E+03  0.74663074959E+03  0.12500000000E+03 0.  0.
         25    1    1    2    0    0 -0.31716318627E+02  0.20606099962E+03 -0.27102872408E+03  0.36407228638E+03  0.12500000000E+03 0.  0.
</event>
<event>
 5    0  0.5547141E-005  0.2891686E+03  0.7546771E-02  0.1090784E+00
         21   -1    0    0  502  501  0.00000000000E+00  0.00000000000E+00  0.93307433937E+02  0.93307433937E+02  0.00000000000E+00 0.  1.
         21   -1    0    0  501  502 -0.00000000000E+00 -0.00000000000E+00 -0.89616079625E+03  0.89616079625E+03  0.00000000000E+00 0.  1.
         25    1    1    2    0    0  0.69460880653E+02  0.80147619122E+02 -0.11005282926E+03  0.19744639784E+03  0.12500000000E+03 0.  0.
         25    1    1    2    0    0  0.32300510267E+02  0.29602166105E+02 -0.94407210076E+02  0.16265710103E+03  0.12500000000E+03 0.  0.
         25    1    1    2    0    0 -0.10176139092E+03 -0.10974978523E+03 -0.59839332298E+03  0.62936473132E+03  0.12500000000E+03 0.  0.
</event>
<event>
 5    0  0.5547141E-005  0.3338948E+03  0.7546771E-02  0.1069426E+00
         21   -1    0    0  502  501  0.00000000000E+00  0.00000000000E+00  0.53529148033E+03  0.53529148033E+03  0.00000000000E+00 0.  1.
         21   -1    0    0  501  502 -0.00000000000E+00 -0.00000000000E+00 -0.20827110638E+03  0.20827110638E+03  0.00000000000E+00 0.  1.
         25    1    1    2    0    0 -0.15733752725E+03  0.81187462990E+02  0.25997438396E+03  0.33846444709E+03  0.12500000000E+03 0.  0.
         25    1    1    2    0    0  0.32451022103E+02 -0.16023676730E+03  0.39868700867E+02  0.20962682018E+03  0.12500000000E+03 0.  0.
         25    1    1    2    0    0  0.12488650515E+03  0.79049304309E+02  0.27177289130E+02  0.19547131944E+03  0.12500000000E+03 0.  0.
</event>
